### Starting Gaussian ###
 Entering Gaussian System, Link 0=g16
 Initial command:
 /cluster/software/gaussian/gaussian-16-A.03/avx2/g16/l1.exe "/local/scratch/yxie/Gau-24942.inp" -scrdir="/local/scratch/yxie/"
 Entering Link 1 = /cluster/software/gaussian/gaussian-16-A.03/avx2/g16/l1.exe PID=     24963.
  
 Copyright (c) 1988,1990,1992,1993,1995,1998,2003,2009,2016,
            Gaussian, Inc.  All Rights Reserved.
  
 This is part of the Gaussian(R) 16 program.  It is based on
 the Gaussian(R) 09 system (copyright 2009, Gaussian, Inc.),
 the Gaussian(R) 03 system (copyright 2003, Gaussian, Inc.),
 the Gaussian(R) 98 system (copyright 1998, Gaussian, Inc.),
 the Gaussian(R) 94 system (copyright 1995, Gaussian, Inc.),
 the Gaussian 92(TM) system (copyright 1992, Gaussian, Inc.),
 the Gaussian 90(TM) system (copyright 1990, Gaussian, Inc.),
 the Gaussian 88(TM) system (copyright 1988, Gaussian, Inc.),
 the Gaussian 86(TM) system (copyright 1986, Carnegie Mellon
 University), and the Gaussian 82(TM) system (copyright 1983,
 Carnegie Mellon University). Gaussian is a federally registered
 trademark of Gaussian, Inc.
  
 This software contains proprietary and confidential information,
 including trade secrets, belonging to Gaussian, Inc.
  
 This software is provided under written license and may be
 used, copied, transmitted, or stored only in accord with that
 written license.
  
 The following legend is applicable only to US Government
 contracts under FAR:
  
                    RESTRICTED RIGHTS LEGEND
  
 Use, reproduction and disclosure by the US Government is
 subject to restrictions as set forth in subparagraphs (a)
 and (c) of the Commercial Computer Software - Restricted
 Rights clause in FAR 52.227-19.
  
 Gaussian, Inc.
 340 Quinnipiac St., Bldg. 40, Wallingford CT 06492
  
  
 ---------------------------------------------------------------
 Warning -- This program may not be used in any manner that
 competes with the business of Gaussian, Inc. or will provide
 assistance to any competitor of Gaussian, Inc.  The licensee
 of this program is prohibited from giving any competitor of
 Gaussian, Inc. access to this program.  By using this program,
 the user acknowledges that Gaussian, Inc. is engaged in the
 business of creating and licensing software in the field of
 computational chemistry and represents and warrants to the
 licensee that it is not a competitor of Gaussian, Inc. and that
 it will not use this program in any manner prohibited above.
 ---------------------------------------------------------------
  

 Cite this work as:
 Gaussian 16, Revision A.03,
 M. J. Frisch, G. W. Trucks, H. B. Schlegel, G. E. Scuseria, 
 M. A. Robb, J. R. Cheeseman, G. Scalmani, V. Barone, 
 G. A. Petersson, H. Nakatsuji, X. Li, M. Caricato, A. V. Marenich, 
 J. Bloino, B. G. Janesko, R. Gomperts, B. Mennucci, H. P. Hratchian, 
 J. V. Ortiz, A. F. Izmaylov, J. L. Sonnenberg, D. Williams-Young, 
 F. Ding, F. Lipparini, F. Egidi, J. Goings, B. Peng, A. Petrone, 
 T. Henderson, D. Ranasinghe, V. G. Zakrzewski, J. Gao, N. Rega, 
 G. Zheng, W. Liang, M. Hada, M. Ehara, K. Toyota, R. Fukuda, 
 J. Hasegawa, M. Ishida, T. Nakajima, Y. Honda, O. Kitao, H. Nakai, 
 T. Vreven, K. Throssell, J. A. Montgomery, Jr., J. E. Peralta, 
 F. Ogliaro, M. J. Bearpark, J. J. Heyd, E. N. Brothers, K. N. Kudin, 
 V. N. Staroverov, T. A. Keith, R. Kobayashi, J. Normand, 
 K. Raghavachari, A. P. Rendell, J. C. Burant, S. S. Iyengar, 
 J. Tomasi, M. Cossi, J. M. Millam, M. Klene, C. Adamo, R. Cammi, 
 J. W. Ochterski, R. L. Martin, K. Morokuma, O. Farkas, 
 J. B. Foresman, and D. J. Fox, Gaussian, Inc., Wallingford CT, 2016.
 
 ******************************************
 Gaussian 16:  ES64L-G16RevA.03 25-Dec-2016
                 4-Aug-2022 
 ******************************************
 %chk=OdCC1dC2CC12.chk
 %NProcShared=20
 Will use up to   20 processors via shared memory.
 -----------------------------
 # opt freq b3lyp/6-31g(2df,p)
 -----------------------------
 1/18=20,19=15,26=3,38=1/1,3;
 2/9=110,12=2,17=6,18=5,40=1/2;
 3/5=1,6=6,7=104,11=2,25=1,30=1,71=1,74=-5/1,2,3;
 4//1;
 5/5=2,38=5/2;
 6/7=2,8=2,9=2,10=2,28=1/1;
 7//1,2,3,16;
 1/18=20,19=15,26=3/3(2);
 2/9=110/2;
 99//99;
 2/9=110/2;
 3/5=1,6=6,7=104,11=2,25=1,30=1,71=1,74=-5/1,2,3;
 4/5=5,16=3,69=1/1;
 5/5=2,38=5/2;
 7//1,2,3,16;
 1/18=20,19=15,26=3/3(-5);
 2/9=110/2;
 6/7=2,8=2,9=2,10=2,19=2,28=1/1;
 99/9=1/99;
 -------------------
 Title Card Required
 -------------------
 Symbolic Z-matrix:
 Charge =  0 Multiplicity = 1
 O                     0.86238  -0.10594  -0.06159 
 C                     2.08224  -0.01522   0.01553 
 C                     2.78397  -0.24784   1.24143 
 C                     3.87256  -0.156     1.98271 
 C                     3.96599  -0.63886   3.35412 
 C                     2.72748  -0.89362   2.51052 
 H                     2.70737   0.25858  -0.84948 
 H                     3.81713   0.04196   4.18143 
 H                     4.7801   -1.34253   3.4518 
 H                     2.54212  -1.95418   2.37551 
 

 GradGradGradGradGradGradGradGradGradGradGradGradGradGradGradGradGradGrad
 Berny optimization.
 Initialization pass.
                           ----------------------------
                           !    Initial Parameters    !
                           ! (Angstroms and Degrees)  !
 --------------------------                            --------------------------
 ! Name  Definition              Value          Derivative Info.                !
 --------------------------------------------------------------------------------
 ! R1    R(1,2)                  1.2257         estimate D2E/DX2                !
 ! R2    R(2,3)                  1.4316         estimate D2E/DX2                !
 ! R3    R(2,7)                  1.1018         estimate D2E/DX2                !
 ! R4    R(3,4)                  1.3202         estimate D2E/DX2                !
 ! R5    R(3,6)                  1.4251         estimate D2E/DX2                !
 ! R6    R(4,5)                  1.4569         estimate D2E/DX2                !
 ! R7    R(4,6)                  1.4608         estimate D2E/DX2                !
 ! R8    R(5,6)                  1.52           estimate D2E/DX2                !
 ! R9    R(5,8)                  1.0817         estimate D2E/DX2                !
 ! R10   R(5,9)                  1.0805         estimate D2E/DX2                !
 ! R11   R(6,10)                 1.0851         estimate D2E/DX2                !
 ! A1    A(1,2,3)              121.9866         estimate D2E/DX2                !
 ! A2    A(1,2,7)              122.2541         estimate D2E/DX2                !
 ! A3    A(3,2,7)              115.7572         estimate D2E/DX2                !
 ! A4    A(2,3,4)              150.8919         estimate D2E/DX2                !
 ! A5    A(2,3,6)              144.7672         estimate D2E/DX2                !
 ! A6    A(3,4,5)              123.9417         estimate D2E/DX2                !
 ! A7    A(4,5,8)              120.1654         estimate D2E/DX2                !
 ! A8    A(4,5,9)              110.4416         estimate D2E/DX2                !
 ! A9    A(6,5,8)              114.6972         estimate D2E/DX2                !
 ! A10   A(6,5,9)              123.7065         estimate D2E/DX2                !
 ! A11   A(8,5,9)              116.3871         estimate D2E/DX2                !
 ! A12   A(3,6,5)              112.7057         estimate D2E/DX2                !
 ! A13   A(3,6,10)             109.8091         estimate D2E/DX2                !
 ! A14   A(4,6,10)             125.6263         estimate D2E/DX2                !
 ! A15   A(5,6,10)             111.8428         estimate D2E/DX2                !
 ! D1    D(1,2,3,4)           -164.8794         estimate D2E/DX2                !
 ! D2    D(1,2,3,6)             23.2294         estimate D2E/DX2                !
 ! D3    D(7,2,3,4)             14.602          estimate D2E/DX2                !
 ! D4    D(7,2,3,6)           -157.2892         estimate D2E/DX2                !
 ! D5    D(2,3,4,5)            179.1839         estimate D2E/DX2                !
 ! D6    D(2,3,6,5)           -179.2            estimate D2E/DX2                !
 ! D7    D(2,3,6,10)            55.3914         estimate D2E/DX2                !
 ! D8    D(3,4,5,8)            -96.3374         estimate D2E/DX2                !
 ! D9    D(3,4,5,9)            123.736          estimate D2E/DX2                !
 ! D10   D(8,5,6,3)            106.6446         estimate D2E/DX2                !
 ! D11   D(8,5,6,10)          -129.0578         estimate D2E/DX2                !
 ! D12   D(9,5,6,3)            -99.8706         estimate D2E/DX2                !
 ! D13   D(9,5,6,10)            24.427          estimate D2E/DX2                !
 --------------------------------------------------------------------------------
 Trust Radius=3.00D-01 FncErr=1.00D-07 GrdErr=1.00D-06 EigMax=2.50D+02 EigMin=1.00D-04
 Number of steps in this run=     49 maximum allowed number of steps=    100.
 GradGradGradGradGradGradGradGradGradGradGradGradGradGradGradGradGradGrad

                          Input orientation:                          
 ---------------------------------------------------------------------
 Center     Atomic      Atomic             Coordinates (Angstroms)
 Number     Number       Type             X           Y           Z
 ---------------------------------------------------------------------
      1          8           0        0.862380   -0.105940   -0.061590
      2          6           0        2.082240   -0.015220    0.015530
      3          6           0        2.783970   -0.247840    1.241430
      4          6           0        3.872560   -0.156000    1.982710
      5          6           0        3.965990   -0.638860    3.354120
      6          6           0        2.727480   -0.893620    2.510520
      7          1           0        2.707370    0.258580   -0.849480
      8          1           0        3.817130    0.041960    4.181430
      9          1           0        4.780100   -1.342530    3.451800
     10          1           0        2.542120   -1.954180    2.375510
 ---------------------------------------------------------------------
                    Distance matrix (angstroms):
                    1          2          3          4          5
     1  O    0.000000
     2  C    1.225657   0.000000
     3  C    2.326049   1.431561   0.000000
     4  C    3.639073   2.663618   1.320212   0.000000
     5  C    4.645802   3.883764   2.452249   1.456931   0.000000
     6  C    3.273345   2.722663   1.425066   1.460779   1.520023
     7  H    2.039028   1.101815   2.152727   3.090444   4.478814
     8  H    5.172585   4.513074   3.129697   2.208309   1.081719
     9  H    5.405700   4.565978   3.173108   2.095163   1.080494
    10  H    3.489552   3.088780   2.063062   2.271082   2.171440
                    6          7          8          9         10
     6  C    0.000000
     7  H    3.552122   0.000000
     8  H    2.203313   5.156408   0.000000
     9  H    2.302342   5.035948   1.837521   0.000000
    10  H    1.085068   3.914610   2.978518   2.557552   0.000000
 Stoichiometry    C5H4O
 Framework group  C1[X(C5H4O)]
 Deg. of freedom    24
 Full point group                 C1      NOp   1
 Largest Abelian subgroup         C1      NOp   1
 Largest concise Abelian subgroup C1      NOp   1
                         Standard orientation:                         
 ---------------------------------------------------------------------
 Center     Atomic      Atomic             Coordinates (Angstroms)
 Number     Number       Type             X           Y           Z
 ---------------------------------------------------------------------
      1          8           0        2.378438   -0.471310   -0.150582
      2          6           0        1.591001    0.438007    0.084626
      3          6           0        0.173428    0.249796    0.018068
      4          6           0       -1.053138    0.734800   -0.039068
      5          6           0       -2.251569   -0.090391   -0.113036
      6          6           0       -0.877726   -0.710157    0.084233
      7          1           0        1.927270    1.452737    0.351539
      8          1           0       -2.708785   -0.300231   -1.070657
      9          1           0       -2.924194    0.147464    0.698425
     10          1           0       -0.813772   -1.261818    1.016410
 ---------------------------------------------------------------------
 Rotational constants (GHZ):          19.0715075           2.2129660           2.0389162
 Standard basis: 6-31G(2df,p) (6D, 7F)
 There are   206 symmetry adapted cartesian basis functions of A   symmetry.
 There are   188 symmetry adapted basis functions of A   symmetry.
   188 basis functions,   292 primitive gaussians,   206 cartesian basis functions
    21 alpha electrons       21 beta electrons
       nuclear repulsion energy       194.7364672096 Hartrees.
 NAtoms=   10 NActive=   10 NUniq=   10 SFac= 1.00D+00 NAtFMM=   60 NAOKFM=F Big=F
 Integral buffers will be    131072 words long.
 Raffenetti 2 integral format.
 Two-electron integral symmetry is turned on.
 One-electron integrals computed using PRISM.
 PrsmSu:  requested number of processors reduced to:  13 ShMem   1 Linda.
 NBasis=   188 RedAO= T EigKep=  5.42D-04  NBF=   188
 NBsUse=   188 1.00D-06 EigRej= -1.00D+00 NBFU=   188
 ExpMin= 1.61D-01 ExpMax= 5.48D+03 ExpMxC= 8.25D+02 IAcc=3 IRadAn=         5 AccDes= 0.00D+00
 Harris functional with IExCor=  402 and IRadAn=       5 diagonalized for initial guess.
 HarFok:  IExCor=  402 AccDes= 0.00D+00 IRadAn=         5 IDoV= 1 UseB2=F ITyADJ=14
 ICtDFT=  3500011 ScaDFX=  1.000000  1.000000  1.000000  1.000000
 FoFCou: FMM=F IPFlag=           0 FMFlag=      100000 FMFlg1=           0
         NFxFlg=           0 DoJE=T BraDBF=F KetDBF=T FulRan=T
         wScrn=  0.000000 ICntrl=       500 IOpCl=  0 I1Cent=   200000004 NGrid=           0
         NMat0=    1 NMatS0=      1 NMatT0=    0 NMatD0=    1 NMtDS0=    0 NMtDT0=    0
 Petite list used in FoFCou.
 Requested convergence on RMS density matrix=1.00D-08 within 128 cycles.
 Requested convergence on MAX density matrix=1.00D-06.
 Requested convergence on             energy=1.00D-06.
 No special actions if energy rises.
 Integral accuracy reduced to 1.0D-05 until final iterations.
 Initial convergence to 1.0D-05 achieved.  Increase integral accuracy.
 SCF Done:  E(RB3LYP) =  -267.923081931     A.U. after   16 cycles
            NFock= 16  Conv=0.89D-08     -V/T= 2.0063

 **********************************************************************

            Population analysis using the SCF density.

 **********************************************************************

 Orbital symmetries:
       Occupied  (A) (A) (A) (A) (A) (A) (A) (A) (A) (A) (A) (A)
                 (A) (A) (A) (A) (A) (A) (A) (A) (A)
       Virtual   (A) (A) (A) (A) (A) (A) (A) (A) (A) (A) (A) (A)
                 (A) (A) (A) (A) (A) (A) (A) (A) (A) (A) (A) (A)
                 (A) (A) (A) (A) (A) (A) (A) (A) (A) (A) (A) (A)
                 (A) (A) (A) (A) (A) (A) (A) (A) (A) (A) (A) (A)
                 (A) (A) (A) (A) (A) (A) (A) (A) (A) (A) (A) (A)
                 (A) (A) (A) (A) (A) (A) (A) (A) (A) (A) (A) (A)
                 (A) (A) (A) (A) (A) (A) (A) (A) (A) (A) (A) (A)
                 (A) (A) (A) (A) (A) (A) (A) (A) (A) (A) (A) (A)
                 (A) (A) (A) (A) (A) (A) (A) (A) (A) (A) (A) (A)
                 (A) (A) (A) (A) (A) (A) (A) (A) (A) (A) (A) (A)
                 (A) (A) (A) (A) (A) (A) (A) (A) (A) (A) (A) (A)
                 (A) (A) (A) (A) (A) (A) (A) (A) (A) (A) (A) (A)
                 (A) (A) (A) (A) (A) (A) (A) (A) (A) (A) (A) (A)
                 (A) (A) (A) (A) (A) (A) (A) (A) (A) (A) (A)
 The electronic state is 1-A.
 Alpha  occ. eigenvalues --  -19.13778 -10.28262 -10.26119 -10.25326 -10.25216
 Alpha  occ. eigenvalues --  -10.22265  -1.03859  -0.99539  -0.77138  -0.67781
 Alpha  occ. eigenvalues --   -0.58820  -0.54358  -0.51286  -0.49739  -0.44337
 Alpha  occ. eigenvalues --   -0.40586  -0.39824  -0.37663  -0.33372  -0.26533
 Alpha  occ. eigenvalues --   -0.18743
 Alpha virt. eigenvalues --   -0.08316  -0.02467   0.05363   0.08959   0.12598
 Alpha virt. eigenvalues --    0.13876   0.15890   0.19828   0.21162   0.23106
 Alpha virt. eigenvalues --    0.27150   0.31777   0.36184   0.41010   0.42097
 Alpha virt. eigenvalues --    0.45245   0.47303   0.49223   0.50325   0.52752
 Alpha virt. eigenvalues --    0.54262   0.56698   0.58381   0.59373   0.62332
 Alpha virt. eigenvalues --    0.66176   0.69331   0.70117   0.71111   0.73063
 Alpha virt. eigenvalues --    0.74588   0.75196   0.77322   0.81209   0.84037
 Alpha virt. eigenvalues --    0.85710   0.89522   0.94398   0.96151   0.97511
 Alpha virt. eigenvalues --    1.00941   1.03484   1.04168   1.05134   1.14922
 Alpha virt. eigenvalues --    1.16824   1.21901   1.26306   1.27611   1.30088
 Alpha virt. eigenvalues --    1.36582   1.39529   1.40749   1.44412   1.46550
 Alpha virt. eigenvalues --    1.48468   1.51457   1.54827   1.55789   1.58389
 Alpha virt. eigenvalues --    1.62205   1.66426   1.68349   1.73145   1.75119
 Alpha virt. eigenvalues --    1.81865   1.87746   1.91387   1.93098   2.05820
 Alpha virt. eigenvalues --    2.17336   2.21832   2.28173   2.30056   2.32872
 Alpha virt. eigenvalues --    2.41904   2.42832   2.50946   2.57993   2.71871
 Alpha virt. eigenvalues --    2.73472   2.74152   2.77168   2.81088   2.84857
 Alpha virt. eigenvalues --    2.88112   2.88190   2.93299   2.96784   2.99212
 Alpha virt. eigenvalues --    3.01761   3.04214   3.07759   3.09800   3.16401
 Alpha virt. eigenvalues --    3.19808   3.21182   3.24601   3.26185   3.27863
 Alpha virt. eigenvalues --    3.28603   3.36067   3.38370   3.42445   3.47334
 Alpha virt. eigenvalues --    3.51062   3.55308   3.60702   3.65384   3.67046
 Alpha virt. eigenvalues --    3.69867   3.78276   3.86727   3.87325   3.93194
 Alpha virt. eigenvalues --    4.03874   4.05796   4.14289   4.18593   4.19550
 Alpha virt. eigenvalues --    4.22617   4.30652   4.31902   4.34521   4.38830
 Alpha virt. eigenvalues --    4.40788   4.42399   4.45531   4.45954   4.50635
 Alpha virt. eigenvalues --    4.51859   4.56896   4.64909   4.66813   4.70169
 Alpha virt. eigenvalues --    4.73713   4.75909   4.80054   4.83100   4.85776
 Alpha virt. eigenvalues --    4.89608   4.93300   5.02846   5.05691   5.09249
 Alpha virt. eigenvalues --    5.10598   5.15166   5.21435   5.25076   5.34243
 Alpha virt. eigenvalues --    5.37527   5.47403   5.50838   5.54630   5.69987
 Alpha virt. eigenvalues --    5.78021   5.98569   6.07848   6.29469   6.37365
 Alpha virt. eigenvalues --    6.77264   9.85970  10.61867  11.30648  11.55986
 Alpha virt. eigenvalues --   11.97948  12.93693
          Condensed to atoms (all electrons):
               1          2          3          4          5          6
     1  O    7.666625   0.737727  -0.078374   0.002778   0.000106  -0.001351
     2  C    0.737727   4.689717   0.231734  -0.022269   0.007437  -0.021486
     3  C   -0.078374   0.231734   5.079920   0.450078   0.055139   0.271883
     4  C    0.002778  -0.022269   0.450078   5.234024   0.273449   0.096068
     5  C    0.000106   0.007437   0.055139   0.273449   5.028431   0.301896
     6  C   -0.001351  -0.021486   0.271883   0.096068   0.301896   5.144833
     7  H   -0.053473   0.378906  -0.123646   0.001707   0.000184   0.003239
     8  H    0.000003  -0.000074  -0.009542  -0.000469   0.369684  -0.019360
     9  H    0.000001  -0.000096   0.001459  -0.010488   0.373471  -0.018468
    10  H    0.000967  -0.003067  -0.097336  -0.003206  -0.066501   0.382164
               7          8          9         10
     1  O   -0.053473   0.000003   0.000001   0.000967
     2  C    0.378906  -0.000074  -0.000096  -0.003067
     3  C   -0.123646  -0.009542   0.001459  -0.097336
     4  C    0.001707  -0.000469  -0.010488  -0.003206
     5  C    0.000184   0.369684   0.373471  -0.066501
     6  C    0.003239  -0.019360  -0.018468   0.382164
     7  H    0.687070  -0.000002   0.000015  -0.000266
     8  H   -0.000002   0.518914  -0.039977   0.003536
     9  H    0.000015  -0.039977   0.526139  -0.005943
    10  H   -0.000266   0.003536  -0.005943   0.687849
 Mulliken charges:
               1
     1  O   -0.275009
     2  C    0.001470
     3  C    0.218685
     4  C   -0.021673
     5  C   -0.343298
     6  C   -0.139419
     7  H    0.106265
     8  H    0.177287
     9  H    0.173888
    10  H    0.101804
 Sum of Mulliken charges =  -0.00000
 Mulliken charges with hydrogens summed into heavy atoms:
               1
     1  O   -0.275009
     2  C    0.107735
     3  C    0.218685
     4  C   -0.021673
     5  C    0.007878
     6  C   -0.037615
 Electronic spatial extent (au):  <R**2>=            573.7015
 Charge=             -0.0000 electrons
 Dipole moment (field-independent basis, Debye):
    X=             -3.4068    Y=              1.3138    Z=              0.7509  Tot=              3.7278
 Quadrupole moment (field-independent basis, Debye-Ang):
   XX=            -33.8456   YY=            -36.5200   ZZ=            -32.8665
   XY=              4.1220   XZ=              0.9275   YZ=             -0.5879
 Traceless Quadrupole moment (field-independent basis, Debye-Ang):
   XX=              0.5651   YY=             -2.1093   ZZ=              1.5442
   XY=              4.1220   XZ=              0.9275   YZ=             -0.5879
 Octapole moment (field-independent basis, Debye-Ang**2):
  XXX=            -27.0898  YYY=             -2.0878  ZZZ=             -0.9928  XYY=              7.4859
  XXY=              6.4032  XXZ=              2.1926  XZZ=              1.0392  YZZ=             -1.1878
  YYZ=              0.9943  XYZ=             -0.5029
 Hexadecapole moment (field-independent basis, Debye-Ang**3):
 XXXX=           -585.2224 YYYY=           -104.9724 ZZZZ=            -43.9901 XXXY=             14.4178
 XXXZ=              1.9106 YYYX=              1.6096 YYYZ=             -1.7875 ZZZX=              0.2806
 ZZZY=              0.1239 XXYY=           -118.6180 XXZZ=            -96.0368 YYZZ=            -24.7580
 XXYZ=              2.7241 YYXZ=              0.0940 ZZXY=             -0.5473
 N-N= 1.947364672096D+02 E-N=-1.013045510517D+03  KE= 2.662379490460D+02
 PrsmSu:  requested number of processors reduced to:  13 ShMem   1 Linda.
 Calling FoFJK, ICntrl=      2127 FMM=F ISym2X=0 I1Cent= 0 IOpClX= 0 NMat=1 NMatS=1 NMatT=0.
 ***** Axes restored to original set *****
 -------------------------------------------------------------------
 Center     Atomic                   Forces (Hartrees/Bohr)
 Number     Number              X              Y              Z
 -------------------------------------------------------------------
      1        8           0.013589223   -0.000996057   -0.002032567
      2        6          -0.021745560    0.009877145    0.003022912
      3        6           0.012414878    0.041184939    0.016243892
      4        6           0.097232302    0.032472709   -0.072405150
      5        6          -0.035738571    0.039898009   -0.007622777
      6        6          -0.083565658   -0.098089561    0.063509836
      7        1           0.003641832   -0.001978487   -0.000507047
      8        1           0.010198623    0.009027168   -0.003438911
      9        1          -0.007683094   -0.014764921    0.005363456
     10        1           0.011656024   -0.016630944   -0.002133644
 -------------------------------------------------------------------
 Cartesian Forces:  Max     0.098089561 RMS     0.037919960

 GradGradGradGradGradGradGradGradGradGradGradGradGradGradGradGradGradGrad
 Berny optimization.
 FormGI is forming the generalized inverse of G from B-inverse, IUseBI=4.
 Internal  Forces:  Max     0.085934317 RMS     0.021048495
 Search for a local minimum.
 Step number   1 out of a maximum of   49
 All quantities printed in internal units (Hartrees-Bohrs-Radians)
 Mixed Optimization -- RFO/linear search
 Second derivative matrix not updated -- first step.
 ITU=  0
     Eigenvalues ---    0.01573   0.01671   0.01672   0.02062   0.03181
     Eigenvalues ---    0.03488   0.07750   0.12291   0.12644   0.14633
     Eigenvalues ---    0.16000   0.22000   0.24524   0.28610   0.31111
     Eigenvalues ---    0.33482   0.34828   0.35389   0.35787   0.35935
     Eigenvalues ---    0.40037   0.40766   0.56895   0.92920
 RFO step:  Lambda=-6.77526649D-02 EMin= 1.57289241D-02
 Linear search not attempted -- first point.
 Maximum step size (   0.300) exceeded in Quadratic search.
    -- Step size scaled by   0.806
 Iteration  1 RMS(Cart)=  0.09442452 RMS(Int)=  0.01026497
 Iteration  2 RMS(Cart)=  0.01120182 RMS(Int)=  0.00414724
 Iteration  3 RMS(Cart)=  0.00009961 RMS(Int)=  0.00414591
 Iteration  4 RMS(Cart)=  0.00000057 RMS(Int)=  0.00414591
 Variable       Old X    -DE/DX   Delta X   Delta X   Delta X     New X
                                 (Linear)    (Quad)   (Total)
    R1        2.31616  -0.01332   0.00000  -0.01078  -0.01078   2.30538
    R2        2.70526   0.00292   0.00000   0.00495   0.00495   2.71021
    R3        2.08213   0.00197   0.00000   0.00395   0.00395   2.08608
    R4        2.49484  -0.01126   0.00000  -0.01579  -0.01211   2.48273
    R5        2.69298   0.03131   0.00000   0.05228   0.05546   2.74844
    R6        2.75320   0.00786   0.00000   0.00610   0.00834   2.76154
    R7        2.76047   0.08593   0.00000   0.17396   0.16269   2.92316
    R8        2.87243  -0.01329   0.00000  -0.03273  -0.02960   2.84282
    R9        2.04415   0.00165   0.00000   0.00312   0.00312   2.04728
   R10        2.04184   0.00431   0.00000   0.00814   0.00814   2.04998
   R11        2.05048   0.01453   0.00000   0.02779   0.02779   2.07827
    A1        2.12907   0.00556   0.00000   0.01564   0.01532   2.14439
    A2        2.13374   0.00016   0.00000   0.00272   0.00241   2.13614
    A3        2.02034  -0.00568   0.00000  -0.01799  -0.01830   2.00204
    A4        2.63356  -0.02199   0.00000  -0.04845  -0.04803   2.58553
    A5        2.52666  -0.01235   0.00000  -0.02688  -0.02426   2.50240
    A6        2.16319  -0.03509   0.00000  -0.09097  -0.10494   2.05825
    A7        2.09728   0.00310   0.00000   0.00367  -0.00104   2.09624
    A8        1.92757  -0.02176   0.00000  -0.03083  -0.02488   1.90269
    A9        2.00184   0.01344   0.00000   0.08118   0.08341   2.08525
   A10        2.15909  -0.02291   0.00000  -0.09986  -0.10125   2.05783
   A11        2.03134   0.00329   0.00000  -0.00273  -0.00331   2.02803
   A12        1.96709  -0.03922   0.00000  -0.08792  -0.09903   1.86805
   A13        1.91653   0.02741   0.00000   0.10887   0.11129   2.02782
   A14        2.19259  -0.00657   0.00000  -0.05734  -0.05686   2.13573
   A15        1.95203   0.00583   0.00000   0.02080   0.02635   1.97837
    D1       -2.87769  -0.01205   0.00000  -0.09358  -0.09380  -2.97148
    D2        0.40543   0.00691   0.00000   0.04454   0.04476   0.45019
    D3        0.25485  -0.00725   0.00000  -0.04780  -0.04803   0.20683
    D4       -2.74521   0.01171   0.00000   0.09031   0.09053  -2.65469
    D5        3.12735  -0.01501   0.00000  -0.12111  -0.11726   3.01008
    D6       -3.12763   0.01280   0.00000   0.10558   0.10567  -3.02196
    D7        0.96676   0.01306   0.00000   0.05953   0.06430   1.03106
    D8       -1.68140  -0.00432   0.00000   0.07274   0.07403  -1.60738
    D9        2.15960   0.01538   0.00000   0.11426   0.11295   2.27255
   D10        1.86130  -0.01581   0.00000  -0.18775  -0.18412   1.67718
   D11       -2.25248  -0.00503   0.00000  -0.09448  -0.09477  -2.34726
   D12       -1.74307  -0.02883   0.00000  -0.23524  -0.23049  -1.97356
   D13        0.42633  -0.01805   0.00000  -0.14198  -0.14114   0.28519
         Item               Value     Threshold  Converged?
 Maximum Force            0.085934     0.000450     NO 
 RMS     Force            0.021048     0.000300     NO 
 Maximum Displacement     0.272172     0.001800     NO 
 RMS     Displacement     0.102726     0.001200     NO 
 Predicted change in Energy=-4.175953D-02
 GradGradGradGradGradGradGradGradGradGradGradGradGradGradGradGradGradGrad

                          Input orientation:                          
 ---------------------------------------------------------------------
 Center     Atomic      Atomic             Coordinates (Angstroms)
 Number     Number       Type             X           Y           Z
 ---------------------------------------------------------------------
      1          8           0        0.859737   -0.029360   -0.027643
      2          6           0        2.075323    0.036755    0.051535
      3          6           0        2.793672   -0.255075    1.258055
      4          6           0        3.933986   -0.235570    1.910266
      5          6           0        3.918620   -0.594969    3.326644
      6          6           0        2.730851   -1.007847    2.500916
      7          1           0        2.711326    0.291739   -0.813966
      8          1           0        3.802090    0.173735    4.081104
      9          1           0        4.690000   -1.334853    3.511957
     10          1           0        2.625735   -2.098207    2.403112
 ---------------------------------------------------------------------
                    Distance matrix (angstroms):
                    1          2          3          4          5
     1  O    0.000000
     2  C    1.219955   0.000000
     3  C    2.333253   1.434183   0.000000
     4  C    3.639920   2.642664   1.313802   0.000000
     5  C    4.574704   3.810927   2.379096   1.461345   0.000000
     6  C    3.294254   2.742331   1.454413   1.546872   1.504357
     7  H    2.037104   1.103906   2.144541   3.032226   4.403234
     8  H    5.057715   4.386105   3.028265   2.213021   1.083372
     9  H    5.376243   4.548886   3.137205   2.084560   1.084802
    10  H    3.647937   3.223497   2.176349   2.328913   2.187279
                    6          7          8          9         10
     6  C    0.000000
     7  H    3.560583   0.000000
     8  H    2.245146   5.016513   0.000000
     9  H    2.228766   5.027381   1.840693   0.000000
    10  H    1.099773   4.008586   3.059606   2.464434   0.000000
 Stoichiometry    C5H4O
 Framework group  C1[X(C5H4O)]
 Deg. of freedom    24
 Full point group                 C1      NOp   1
 Largest Abelian subgroup         C1      NOp   1
 Largest concise Abelian subgroup C1      NOp   1
                         Standard orientation:                         
 ---------------------------------------------------------------------
 Center     Atomic      Atomic             Coordinates (Angstroms)
 Number     Number       Type             X           Y           Z
 ---------------------------------------------------------------------
      1          8           0        2.368304   -0.462377   -0.182994
      2          6           0        1.575472    0.429062    0.072040
      3          6           0        0.154149    0.242226    0.029428
      4          6           0       -1.043698    0.780619    0.066452
      5          6           0       -2.190393   -0.081174   -0.212713
      6          6           0       -0.895925   -0.756971    0.148870
      7          1           0        1.899267    1.435420    0.389860
      8          1           0       -2.572546   -0.166953   -1.222810
      9          1           0       -2.930235    0.050445    0.569659
     10          1           0       -0.940545   -1.302458    1.102785
 ---------------------------------------------------------------------
 Rotational constants (GHZ):          17.4295222           2.2520913           2.0703649
 Standard basis: 6-31G(2df,p) (6D, 7F)
 There are   206 symmetry adapted cartesian basis functions of A   symmetry.
 There are   188 symmetry adapted basis functions of A   symmetry.
   188 basis functions,   292 primitive gaussians,   206 cartesian basis functions
    21 alpha electrons       21 beta electrons
       nuclear repulsion energy       194.1870717252 Hartrees.
 NAtoms=   10 NActive=   10 NUniq=   10 SFac= 1.00D+00 NAtFMM=   60 NAOKFM=F Big=F
 Integral buffers will be    131072 words long.
 Raffenetti 2 integral format.
 Two-electron integral symmetry is turned on.
 One-electron integrals computed using PRISM.
 PrsmSu:  requested number of processors reduced to:  13 ShMem   1 Linda.
 NBasis=   188 RedAO= T EigKep=  5.45D-04  NBF=   188
 NBsUse=   188 1.00D-06 EigRej= -1.00D+00 NBFU=   188
 Initial guess from the checkpoint file:  "OdCC1dC2CC12.chk"
 B after Tr=     0.000000   -0.000000   -0.000000
         Rot=    0.999822   -0.018580    0.002997    0.001109 Ang=  -2.16 deg.
 ExpMin= 1.61D-01 ExpMax= 5.48D+03 ExpMxC= 8.25D+02 IAcc=2 IRadAn=         4 AccDes= 0.00D+00
 Harris functional with IExCor=  402 and IRadAn=       4 diagonalized for initial guess.
 HarFok:  IExCor=  402 AccDes= 0.00D+00 IRadAn=         4 IDoV= 1 UseB2=F ITyADJ=14
 ICtDFT=  3500011 ScaDFX=  1.000000  1.000000  1.000000  1.000000
 FoFCou: FMM=F IPFlag=           0 FMFlag=      100000 FMFlg1=           0
         NFxFlg=           0 DoJE=T BraDBF=F KetDBF=T FulRan=T
         wScrn=  0.000000 ICntrl=       500 IOpCl=  0 I1Cent=   200000004 NGrid=           0
         NMat0=    1 NMatS0=      1 NMatT0=    0 NMatD0=    1 NMtDS0=    0 NMtDT0=    0
 Petite list used in FoFCou.
 Requested convergence on RMS density matrix=1.00D-08 within 128 cycles.
 Requested convergence on MAX density matrix=1.00D-06.
 Requested convergence on             energy=1.00D-06.
 No special actions if energy rises.
 Integral accuracy reduced to 1.0D-05 until final iterations.
 Initial convergence to 1.0D-05 achieved.  Increase integral accuracy.
 SCF Done:  E(RB3LYP) =  -267.965942115     A.U. after   15 cycles
            NFock= 15  Conv=0.24D-08     -V/T= 2.0068
 PrsmSu:  requested number of processors reduced to:  13 ShMem   1 Linda.
 Calling FoFJK, ICntrl=      2127 FMM=F ISym2X=0 I1Cent= 0 IOpClX= 0 NMat=1 NMatS=1 NMatT=0.
 ***** Axes restored to original set *****
 -------------------------------------------------------------------
 Center     Atomic                   Forces (Hartrees/Bohr)
 Number     Number              X              Y              Z
 -------------------------------------------------------------------
      1        8           0.012121458    0.001343357   -0.000582593
      2        6          -0.017803166    0.000796543   -0.005136407
      3        6          -0.005167550    0.008767147    0.032601125
      4        6           0.075453838    0.031978110   -0.049478308
      5        6          -0.022733504    0.009351531   -0.009827200
      6        6          -0.049739368   -0.052364473    0.031761458
      7        1           0.001664132    0.001296333   -0.000641325
      8        1           0.004828255    0.006255086   -0.004875774
      9        1          -0.005077733   -0.006686353    0.011114736
     10        1           0.006453637   -0.000737281   -0.004935712
 -------------------------------------------------------------------
 Cartesian Forces:  Max     0.075453838 RMS     0.024563355

 GradGradGradGradGradGradGradGradGradGradGradGradGradGradGradGradGradGrad
 Berny optimization.
 Using GEDIIS/GDIIS optimizer.
 FormGI is forming the generalized inverse of G from B-inverse, IUseBI=4.
 Internal  Forces:  Max     0.056638792 RMS     0.013309156
 Search for a local minimum.
 Step number   2 out of a maximum of   49
 All quantities printed in internal units (Hartrees-Bohrs-Radians)
 Mixed Optimization -- RFO/linear search
 Update second derivatives using D2CorX and points    1    2
 DE= -4.29D-02 DEPred=-4.18D-02 R= 1.03D+00
 TightC=F SS=  1.41D+00  RLast= 5.24D-01 DXNew= 5.0454D-01 1.5721D+00
 Trust test= 1.03D+00 RLast= 5.24D-01 DXMaxT set to 5.05D-01
 ITU=  1  0
 Use linear search instead of GDIIS.
     Eigenvalues ---    0.01665   0.01672   0.01987   0.02864   0.03586
     Eigenvalues ---    0.03945   0.07757   0.11507   0.12787   0.14282
     Eigenvalues ---    0.15969   0.17578   0.22065   0.23367   0.29520
     Eigenvalues ---    0.33481   0.34760   0.35783   0.35920   0.36066
     Eigenvalues ---    0.40457   0.43068   0.57532   0.92640
 RFO step:  Lambda=-2.00230020D-02 EMin= 1.66484111D-02
 Quartic linear search produced a step of  1.07163.
 Iteration  1 RMS(Cart)=  0.11996860 RMS(Int)=  0.03669068
 Iteration  2 RMS(Cart)=  0.03998055 RMS(Int)=  0.01058264
 Iteration  3 RMS(Cart)=  0.00130984 RMS(Int)=  0.01049264
 Iteration  4 RMS(Cart)=  0.00001062 RMS(Int)=  0.01049263
 Iteration  5 RMS(Cart)=  0.00000020 RMS(Int)=  0.01049263
 Variable       Old X    -DE/DX   Delta X   Delta X   Delta X     New X
                                 (Linear)    (Quad)   (Total)
    R1        2.30538  -0.01211  -0.01155  -0.01642  -0.02797   2.27741
    R2        2.71021   0.00806   0.00531   0.03356   0.03887   2.74909
    R3        2.08608   0.00176   0.00423   0.00597   0.01020   2.09628
    R4        2.48273   0.00328  -0.01298   0.02427   0.02669   2.50941
    R5        2.74844   0.00072   0.05943  -0.06323  -0.00111   2.74733
    R6        2.76154   0.00979   0.00894   0.03315   0.05136   2.81290
    R7        2.92316   0.05664   0.17435   0.16795   0.31565   3.23881
    R8        2.84282  -0.00874  -0.03173  -0.04574  -0.07234   2.77048
    R9        2.04728   0.00052   0.00335  -0.00043   0.00292   2.05019
   R10        2.04998   0.00285   0.00872   0.00687   0.01559   2.06557
   R11        2.07827   0.00055   0.02978  -0.02610   0.00368   2.08195
    A1        2.14439   0.00292   0.01642   0.00816   0.01991   2.16430
    A2        2.13614  -0.00056   0.00258  -0.00398  -0.00612   2.13002
    A3        2.00204  -0.00232  -0.01961   0.00312  -0.02118   1.98087
    A4        2.58553  -0.01804  -0.05147  -0.06532  -0.11742   2.46812
    A5        2.50240  -0.00831  -0.02600  -0.02266  -0.04224   2.46016
    A6        2.05825  -0.03690  -0.11246  -0.12752  -0.26221   1.79604
    A7        2.09624  -0.00376  -0.00112  -0.04361  -0.05848   2.03776
    A8        1.90269  -0.00651  -0.02666   0.07484   0.06931   1.97199
    A9        2.08525   0.00243   0.08938  -0.01852   0.07504   2.16029
   A10        2.05783  -0.00768  -0.10851  -0.00214  -0.11740   1.94044
   A11        2.02803   0.00015  -0.00355  -0.02783  -0.03467   1.99335
   A12        1.86805  -0.01920  -0.10613  -0.02107  -0.15626   1.71179
   A13        2.02782   0.01103   0.11926  -0.03346   0.09151   2.11933
   A14        2.13573  -0.00263  -0.06093   0.00623  -0.05281   2.08292
   A15        1.97837   0.00704   0.02823   0.03884   0.08117   2.05954
    D1       -2.97148  -0.00342  -0.10051   0.11520   0.01556  -2.95592
    D2        0.45019   0.00399   0.04796   0.07636   0.12289   0.57307
    D3        0.20683  -0.00468  -0.05147  -0.10460  -0.15463   0.05220
    D4       -2.65469   0.00273   0.09701  -0.14344  -0.04730  -2.70199
    D5        3.01008  -0.00462  -0.12566   0.02344  -0.08885   2.92123
    D6       -3.02196   0.00708   0.11323  -0.00746   0.10301  -2.91895
    D7        1.03106   0.00557   0.06890  -0.01621   0.06462   1.09568
    D8       -1.60738  -0.00436   0.07933  -0.07587   0.00824  -1.59913
    D9        2.27255   0.00780   0.12104  -0.07321   0.04730   2.31986
   D10        1.67718  -0.00777  -0.19731   0.00182  -0.18358   1.49360
   D11       -2.34726  -0.00345  -0.10156  -0.03036  -0.13465  -2.48191
   D12       -1.97356  -0.01850  -0.24700  -0.10815  -0.33729  -2.31085
   D13        0.28519  -0.01418  -0.15125  -0.14032  -0.28836  -0.00317
         Item               Value     Threshold  Converged?
 Maximum Force            0.056639     0.000450     NO 
 RMS     Force            0.013309     0.000300     NO 
 Maximum Displacement     0.393604     0.001800     NO 
 RMS     Displacement     0.154126     0.001200     NO 
 Predicted change in Energy=-3.199814D-02
 GradGradGradGradGradGradGradGradGradGradGradGradGradGradGradGradGradGrad

                          Input orientation:                          
 ---------------------------------------------------------------------
 Center     Atomic      Atomic             Coordinates (Angstroms)
 Number     Number       Type             X           Y           Z
 ---------------------------------------------------------------------
      1          8           0        0.868866    0.067031    0.061978
      2          6           0        2.072537    0.032238    0.110603
      3          6           0        2.829011   -0.308885    1.305463
      4          6           0        4.066543   -0.304423    1.787000
      5          6           0        3.858546   -0.548233    3.240616
      6          6           0        2.750509   -1.147387    2.490522
      7          1           0        2.705964    0.390877   -0.726479
      8          1           0        3.755151    0.327365    3.872818
      9          1           0        4.523343   -1.316404    3.644011
     10          1           0        2.710870   -2.245829    2.415447
 ---------------------------------------------------------------------
                    Distance matrix (angstroms):
                    1          2          3          4          5
     1  O    0.000000
     2  C    1.205155   0.000000
     3  C    2.351538   1.454753   0.000000
     4  C    3.652234   2.626730   1.327925   0.000000
     5  C    4.406867   3.650173   2.205006   1.488525   0.000000
     6  C    3.303516   2.741382   1.453827   1.713907   1.466074
     7  H    2.025209   1.109306   2.152579   2.941461   4.236534
     8  H    4.787579   4.131894   2.802474   2.201535   1.084916
     9  H    5.300948   4.506690   3.058539   2.163622   1.093054
    10  H    3.779037   3.302933   2.235571   2.449868   2.209049
                    6          7          8          9         10
     6  C    0.000000
     7  H    3.566137   0.000000
     8  H    2.257198   4.717877   0.000000
     9  H    2.121801   5.031784   1.828783   0.000000
    10  H    1.101718   4.101700   3.136205   2.378709   0.000000
 Stoichiometry    C5H4O
 Framework group  C1[X(C5H4O)]
 Deg. of freedom    24
 Full point group                 C1      NOp   1
 Largest Abelian subgroup         C1      NOp   1
 Largest concise Abelian subgroup C1      NOp   1
                         Standard orientation:                         
 ---------------------------------------------------------------------
 Center     Atomic      Atomic             Coordinates (Angstroms)
 Number     Number       Type             X           Y           Z
 ---------------------------------------------------------------------
      1          8           0        2.335546   -0.443523   -0.229471
      2          6           0        1.538641    0.398162    0.100538
      3          6           0        0.096235    0.213542    0.059462
      4          6           0       -1.040505    0.890808    0.171342
      5          6           0       -2.055054   -0.077920   -0.326615
      6          6           0       -0.915261   -0.817711    0.223797
      7          1           0        1.844875    1.437468    0.338496
      8          1           0       -2.292729   -0.035773   -1.384337
      9          1           0       -2.928279   -0.154923    0.326314
     10          1           0       -1.052573   -1.339871    1.184150
 ---------------------------------------------------------------------
 Rotational constants (GHZ):          14.9481469           2.3549469           2.1511171
 Standard basis: 6-31G(2df,p) (6D, 7F)
 There are   206 symmetry adapted cartesian basis functions of A   symmetry.
 There are   188 symmetry adapted basis functions of A   symmetry.
   188 basis functions,   292 primitive gaussians,   206 cartesian basis functions
    21 alpha electrons       21 beta electrons
       nuclear repulsion energy       194.0600218818 Hartrees.
 NAtoms=   10 NActive=   10 NUniq=   10 SFac= 1.00D+00 NAtFMM=   60 NAOKFM=F Big=F
 Integral buffers will be    131072 words long.
 Raffenetti 2 integral format.
 Two-electron integral symmetry is turned on.
 One-electron integrals computed using PRISM.
 PrsmSu:  requested number of processors reduced to:  13 ShMem   1 Linda.
 NBasis=   188 RedAO= T EigKep=  6.56D-04  NBF=   188
 NBsUse=   188 1.00D-06 EigRej= -1.00D+00 NBFU=   188
 Initial guess from the checkpoint file:  "OdCC1dC2CC12.chk"
 B after Tr=    -0.000000    0.000000    0.000000
         Rot=    0.999810   -0.018550    0.006056    0.000234 Ang=  -2.24 deg.
 ExpMin= 1.61D-01 ExpMax= 5.48D+03 ExpMxC= 8.25D+02 IAcc=2 IRadAn=         4 AccDes= 0.00D+00
 Harris functional with IExCor=  402 and IRadAn=       4 diagonalized for initial guess.
 HarFok:  IExCor=  402 AccDes= 0.00D+00 IRadAn=         4 IDoV= 1 UseB2=F ITyADJ=14
 ICtDFT=  3500011 ScaDFX=  1.000000  1.000000  1.000000  1.000000
 FoFCou: FMM=F IPFlag=           0 FMFlag=      100000 FMFlg1=           0
         NFxFlg=           0 DoJE=T BraDBF=F KetDBF=T FulRan=T
         wScrn=  0.000000 ICntrl=       500 IOpCl=  0 I1Cent=   200000004 NGrid=           0
         NMat0=    1 NMatS0=      1 NMatT0=    0 NMatD0=    1 NMtDS0=    0 NMtDT0=    0
 Petite list used in FoFCou.
 Requested convergence on RMS density matrix=1.00D-08 within 128 cycles.
 Requested convergence on MAX density matrix=1.00D-06.
 Requested convergence on             energy=1.00D-06.
 No special actions if energy rises.
 Integral accuracy reduced to 1.0D-05 until final iterations.
 Initial convergence to 1.0D-05 achieved.  Increase integral accuracy.
 SCF Done:  E(RB3LYP) =  -267.996126555     A.U. after   15 cycles
            NFock= 15  Conv=0.38D-08     -V/T= 2.0068
 PrsmSu:  requested number of processors reduced to:  13 ShMem   1 Linda.
 Calling FoFJK, ICntrl=      2127 FMM=F ISym2X=0 I1Cent= 0 IOpClX= 0 NMat=1 NMatS=1 NMatT=0.
 ***** Axes restored to original set *****
 -------------------------------------------------------------------
 Center     Atomic                   Forces (Hartrees/Bohr)
 Number     Number              X              Y              Z
 -------------------------------------------------------------------
      1        8          -0.005224080   -0.005457673   -0.000874820
      2        6           0.005263126    0.013447867   -0.000345059
      3        6          -0.026078489   -0.013850107    0.004807846
      4        6           0.039094789    0.019945371   -0.021335557
      5        6           0.007068445   -0.024132952    0.017947310
      6        6          -0.018860005   -0.000315618   -0.002973680
      7        1           0.000460683   -0.003578047   -0.001562474
      8        1          -0.002877566    0.002015674   -0.003856458
      9        1           0.003005654    0.006562610    0.009419605
     10        1          -0.001852557    0.005362874   -0.001226713
 -------------------------------------------------------------------
 Cartesian Forces:  Max     0.039094789 RMS     0.013011882

 GradGradGradGradGradGradGradGradGradGradGradGradGradGradGradGradGradGrad
 Berny optimization.
 Using GEDIIS/GDIIS optimizer.
 FormGI is forming the generalized inverse of G from B-inverse, IUseBI=4.
 Internal  Forces:  Max     0.021019439 RMS     0.007382239
 Search for a local minimum.
 Step number   3 out of a maximum of   49
 All quantities printed in internal units (Hartrees-Bohrs-Radians)
 Mixed Optimization -- RFO/linear search
 Update second derivatives using D2CorX and points    2    3
 DE= -3.02D-02 DEPred=-3.20D-02 R= 9.43D-01
 TightC=F SS=  1.41D+00  RLast= 7.63D-01 DXNew= 8.4853D-01 2.2893D+00
 Trust test= 9.43D-01 RLast= 7.63D-01 DXMaxT set to 8.49D-01
 ITU=  1  1  0
 Use linear search instead of GDIIS.
     Eigenvalues ---    0.01667   0.01915   0.02062   0.03064   0.04695
     Eigenvalues ---    0.04968   0.07901   0.10342   0.12164   0.13842
     Eigenvalues ---    0.16014   0.17254   0.22081   0.22576   0.29587
     Eigenvalues ---    0.33480   0.35108   0.35784   0.35920   0.36477
     Eigenvalues ---    0.40491   0.43096   0.58109   0.92921
 RFO step:  Lambda=-1.14333047D-02 EMin= 1.66704130D-02
 Quartic linear search produced a step of  0.08418.
 Iteration  1 RMS(Cart)=  0.05531736 RMS(Int)=  0.00717631
 Iteration  2 RMS(Cart)=  0.00600538 RMS(Int)=  0.00492514
 Iteration  3 RMS(Cart)=  0.00002978 RMS(Int)=  0.00492507
 Iteration  4 RMS(Cart)=  0.00000024 RMS(Int)=  0.00492507
 Variable       Old X    -DE/DX   Delta X   Delta X   Delta X     New X
                                 (Linear)    (Quad)   (Total)
    R1        2.27741   0.00510  -0.00235   0.00113  -0.00123   2.27619
    R2        2.74909   0.00306   0.00327   0.01293   0.01620   2.76528
    R3        2.09628   0.00029   0.00086   0.00252   0.00338   2.09966
    R4        2.50941   0.02102   0.00225   0.04308   0.04654   2.55596
    R5        2.74733  -0.00872  -0.00009  -0.02140  -0.02268   2.72466
    R6        2.81290   0.01868   0.00432   0.06418   0.07026   2.88316
    R7        3.23881   0.01813   0.02657   0.10755   0.13282   3.37164
    R8        2.77048   0.00896  -0.00609   0.01118   0.00489   2.77537
    R9        2.05019  -0.00035   0.00025  -0.00029  -0.00005   2.05014
   R10        2.06557   0.00069   0.00131   0.00477   0.00608   2.07165
   R11        2.08195  -0.00520   0.00031  -0.01147  -0.01116   2.07078
    A1        2.16430  -0.00099   0.00168   0.00824  -0.00720   2.15710
    A2        2.13002   0.00093  -0.00052   0.01851   0.00046   2.13048
    A3        1.98087   0.00113  -0.00178   0.01546  -0.00352   1.97734
    A4        2.46812  -0.00460  -0.00988  -0.03895  -0.04877   2.41934
    A5        2.46016  -0.00037  -0.00356  -0.00677  -0.01030   2.44986
    A6        1.79604  -0.00907  -0.02207  -0.05963  -0.08012   1.71592
    A7        2.03776  -0.00581  -0.00492  -0.06079  -0.06735   1.97041
    A8        1.97199   0.00764   0.00583   0.06125   0.06665   2.03865
    A9        2.16029  -0.01033   0.00632  -0.04485  -0.03783   2.12246
   A10        1.94044   0.01375  -0.00988   0.07144   0.05906   1.99950
   A11        1.99335  -0.00344  -0.00292  -0.02790  -0.03015   1.96320
   A12        1.71179   0.00871  -0.01315  -0.00355  -0.01833   1.69346
   A13        2.11933  -0.00349   0.00770  -0.00091   0.00721   2.12654
   A14        2.08292   0.00202  -0.00445   0.01597   0.01274   2.09566
   A15        2.05954  -0.00207   0.00683   0.01485   0.02179   2.08134
    D1       -2.95592  -0.00207   0.00131  -0.19499  -0.19161   3.13566
    D2        0.57307  -0.00836   0.01034  -0.21293  -0.20150   0.37157
    D3        0.05220   0.00686  -0.01302   0.15687   0.14277   0.19497
    D4       -2.70199   0.00057  -0.00398   0.13893   0.13287  -2.56912
    D5        2.92123   0.00403  -0.00748   0.00874   0.00194   2.92317
    D6       -2.91895  -0.00200   0.00867  -0.00284   0.00458  -2.91437
    D7        1.09568  -0.00472   0.00544  -0.01921  -0.01334   1.08233
    D8       -1.59913  -0.00047   0.00069   0.00649   0.00719  -1.59194
    D9        2.31986   0.00268   0.00398   0.04811   0.05488   2.37474
   D10        1.49360  -0.00223  -0.01545  -0.04589  -0.05980   1.43380
   D11       -2.48191  -0.00084  -0.01133  -0.04008  -0.05123  -2.53313
   D12       -2.31085  -0.00239  -0.02839  -0.05280  -0.08107  -2.39192
   D13       -0.00317  -0.00101  -0.02427  -0.04699  -0.07250  -0.07567
         Item               Value     Threshold  Converged?
 Maximum Force            0.021019     0.000450     NO 
 RMS     Force            0.007382     0.000300     NO 
 Maximum Displacement     0.159840     0.001800     NO 
 RMS     Displacement     0.055637     0.001200     NO 
 Predicted change in Energy=-7.030882D-03
 GradGradGradGradGradGradGradGradGradGradGradGradGradGradGradGradGradGrad

                          Input orientation:                          
 ---------------------------------------------------------------------
 Center     Atomic      Atomic             Coordinates (Angstroms)
 Number     Number       Type             X           Y           Z
 ---------------------------------------------------------------------
      1          8           0        0.871948   -0.017553    0.059314
      2          6           0        2.065381    0.115777    0.153001
      3          6           0        2.833656   -0.277180    1.334805
      4          6           0        4.118889   -0.276246    1.756203
      5          6           0        3.867842   -0.577118    3.230728
      6          6           0        2.740396   -1.146498    2.481300
      7          1           0        2.702400    0.359370   -0.724152
      8          1           0        3.756473    0.319392    3.831438
      9          1           0        4.522685   -1.319108    3.702362
     10          1           0        2.661669   -2.234487    2.376981
 ---------------------------------------------------------------------
                    Distance matrix (angstroms):
                    1          2          3          4          5
     1  O    0.000000
     2  C    1.204506   0.000000
     3  C    2.354268   1.463325   0.000000
     4  C    3.672734   2.634546   1.352554   0.000000
     5  C    4.398450   3.633369   2.180374   1.525704   0.000000
     6  C    3.260618   2.733122   1.441826   1.784193   1.468663
     7  H    2.026436   1.111093   2.159103   2.926193   4.228042
     8  H    4.760561   4.053659   2.727759   2.189231   1.084890
     9  H    5.319185   4.549198   3.089299   2.244583   1.096270
    10  H    3.672802   3.290195   2.224131   2.518643   2.220498
                    6          7          8          9         10
     6  C    0.000000
     7  H    3.541751   0.000000
     8  H    2.236989   4.676117   0.000000
     9  H    2.167336   5.071958   1.813402   0.000000
    10  H    1.095811   4.043115   3.136294   2.461287   0.000000
 Stoichiometry    C5H4O
 Framework group  C1[X(C5H4O)]
 Deg. of freedom    24
 Full point group                 C1      NOp   1
 Largest Abelian subgroup         C1      NOp   1
 Largest concise Abelian subgroup C1      NOp   1
                         Standard orientation:                         
 ---------------------------------------------------------------------
 Center     Atomic      Atomic             Coordinates (Angstroms)
 Number     Number       Type             X           Y           Z
 ---------------------------------------------------------------------
      1          8           0        2.329364   -0.452396   -0.177053
      2          6           0        1.528818    0.425956    0.019060
      3          6           0        0.080833    0.214774    0.026838
      4          6           0       -1.048941    0.935754    0.209048
      5          6           0       -2.053048   -0.096275   -0.295389
      6          6           0       -0.886453   -0.840977    0.195982
      7          1           0        1.829646    1.422126    0.408516
      8          1           0       -2.260694    0.000089   -1.355853
      9          1           0       -2.963834   -0.231786    0.299518
     10          1           0       -0.967277   -1.406655    1.131009
 ---------------------------------------------------------------------
 Rotational constants (GHZ):          14.4379062           2.3812399           2.1462402
 Standard basis: 6-31G(2df,p) (6D, 7F)
 There are   206 symmetry adapted cartesian basis functions of A   symmetry.
 There are   188 symmetry adapted basis functions of A   symmetry.
   188 basis functions,   292 primitive gaussians,   206 cartesian basis functions
    21 alpha electrons       21 beta electrons
       nuclear repulsion energy       193.2272646498 Hartrees.
 NAtoms=   10 NActive=   10 NUniq=   10 SFac= 1.00D+00 NAtFMM=   60 NAOKFM=F Big=F
 Integral buffers will be    131072 words long.
 Raffenetti 2 integral format.
 Two-electron integral symmetry is turned on.
 One-electron integrals computed using PRISM.
 PrsmSu:  requested number of processors reduced to:  13 ShMem   1 Linda.
 NBasis=   188 RedAO= T EigKep=  7.12D-04  NBF=   188
 NBsUse=   188 1.00D-06 EigRej= -1.00D+00 NBFU=   188
 Initial guess from the checkpoint file:  "OdCC1dC2CC12.chk"
 B after Tr=     0.000000   -0.000000   -0.000000
         Rot=    0.999990   -0.003603   -0.000540   -0.002682 Ang=  -0.52 deg.
 ExpMin= 1.61D-01 ExpMax= 5.48D+03 ExpMxC= 8.25D+02 IAcc=2 IRadAn=         4 AccDes= 0.00D+00
 Harris functional with IExCor=  402 and IRadAn=       4 diagonalized for initial guess.
 HarFok:  IExCor=  402 AccDes= 0.00D+00 IRadAn=         4 IDoV= 1 UseB2=F ITyADJ=14
 ICtDFT=  3500011 ScaDFX=  1.000000  1.000000  1.000000  1.000000
 FoFCou: FMM=F IPFlag=           0 FMFlag=      100000 FMFlg1=           0
         NFxFlg=           0 DoJE=T BraDBF=F KetDBF=T FulRan=T
         wScrn=  0.000000 ICntrl=       500 IOpCl=  0 I1Cent=   200000004 NGrid=           0
         NMat0=    1 NMatS0=      1 NMatT0=    0 NMatD0=    1 NMtDS0=    0 NMtDT0=    0
 Petite list used in FoFCou.
 Requested convergence on RMS density matrix=1.00D-08 within 128 cycles.
 Requested convergence on MAX density matrix=1.00D-06.
 Requested convergence on             energy=1.00D-06.
 No special actions if energy rises.
 Integral accuracy reduced to 1.0D-05 until final iterations.
 Initial convergence to 1.0D-05 achieved.  Increase integral accuracy.
 SCF Done:  E(RB3LYP) =  -268.000835189     A.U. after   14 cycles
            NFock= 14  Conv=0.97D-08     -V/T= 2.0072
 PrsmSu:  requested number of processors reduced to:  13 ShMem   1 Linda.
 Calling FoFJK, ICntrl=      2127 FMM=F ISym2X=0 I1Cent= 0 IOpClX= 0 NMat=1 NMatS=1 NMatT=0.
 ***** Axes restored to original set *****
 -------------------------------------------------------------------
 Center     Atomic                   Forces (Hartrees/Bohr)
 Number     Number              X              Y              Z
 -------------------------------------------------------------------
      1        8          -0.007848150    0.007220004    0.001861190
      2        6           0.009467009   -0.025094281   -0.007319721
      3        6          -0.011769784    0.004335149    0.002630041
      4        6           0.011566520    0.008204268   -0.009890761
      5        6           0.008137155   -0.019137292    0.014593950
      6        6          -0.002745229    0.005664483   -0.005691576
      7        1          -0.000613711    0.009147210    0.002958913
      8        1          -0.003755770    0.001605940   -0.002166525
      9        1           0.001160014    0.005698409    0.002623678
     10        1          -0.003598054    0.002356110    0.000400812
 -------------------------------------------------------------------
 Cartesian Forces:  Max     0.025094281 RMS     0.008649204

 GradGradGradGradGradGradGradGradGradGradGradGradGradGradGradGradGradGrad
 Berny optimization.
 Using GEDIIS/GDIIS optimizer.
 FormGI is forming the generalized inverse of G from B-inverse, IUseBI=4.
 Internal  Forces:  Max     0.011322318 RMS     0.004917499
 Search for a local minimum.
 Step number   4 out of a maximum of   49
 All quantities printed in internal units (Hartrees-Bohrs-Radians)
 Mixed Optimization -- RFO/linear search
 Update second derivatives using D2CorX and points    3    4
 DE= -4.71D-03 DEPred=-7.03D-03 R= 6.70D-01
 TightC=F SS=  1.41D+00  RLast= 4.33D-01 DXNew= 1.4270D+00 1.2979D+00
 Trust test= 6.70D-01 RLast= 4.33D-01 DXMaxT set to 1.30D+00
 ITU=  1  1  1  0
 Use linear search instead of GDIIS.
     Eigenvalues ---    0.01637   0.02043   0.02787   0.04943   0.05040
     Eigenvalues ---    0.05762   0.07550   0.09223   0.12208   0.12324
     Eigenvalues ---    0.15718   0.16044   0.22100   0.22915   0.28974
     Eigenvalues ---    0.31144   0.33485   0.35618   0.35795   0.35975
     Eigenvalues ---    0.40398   0.42190   0.54766   0.92645
 RFO step:  Lambda=-9.43785450D-03 EMin= 1.63720037D-02
 Quartic linear search produced a step of -0.16633.
 Iteration  1 RMS(Cart)=  0.06122134 RMS(Int)=  0.00576710
 Iteration  2 RMS(Cart)=  0.00511978 RMS(Int)=  0.00262517
 Iteration  3 RMS(Cart)=  0.00002034 RMS(Int)=  0.00262511
 Iteration  4 RMS(Cart)=  0.00000003 RMS(Int)=  0.00262511
 Variable       Old X    -DE/DX   Delta X   Delta X   Delta X     New X
                                 (Linear)    (Quad)   (Total)
    R1        2.27619   0.00683   0.00020   0.00801   0.00821   2.28440
    R2        2.76528  -0.00085  -0.00269   0.00945   0.00676   2.77204
    R3        2.09966  -0.00068  -0.00056   0.00092   0.00036   2.10002
    R4        2.55596   0.00796  -0.00774   0.05692   0.04887   2.60482
    R5        2.72466  -0.00503   0.00377  -0.02276  -0.01953   2.70512
    R6        2.88316   0.01132  -0.01169   0.09706   0.08658   2.96974
    R7        3.37164   0.00453  -0.02209   0.12680   0.10382   3.47546
    R8        2.77537   0.00490  -0.00081   0.02465   0.02446   2.79983
    R9        2.05014   0.00051   0.00001   0.00126   0.00126   2.05141
   R10        2.07165  -0.00204  -0.00101   0.00083  -0.00018   2.07147
   R11        2.07078  -0.00212   0.00186  -0.01140  -0.00954   2.06124
    A1        2.15710   0.00197   0.00120   0.00788   0.00050   2.15760
    A2        2.13048  -0.00016  -0.00008   0.01570   0.00701   2.13749
    A3        1.97734   0.00135   0.00059   0.01635   0.00835   1.98569
    A4        2.41934   0.00020   0.00811  -0.04174  -0.03325   2.38609
    A5        2.44986  -0.00109   0.00171  -0.01184  -0.01011   2.43975
    A6        1.71592  -0.00094   0.01333  -0.06001  -0.04554   1.67038
    A7        1.97041  -0.00381   0.01120  -0.08620  -0.07673   1.89369
    A8        2.03865   0.00524  -0.01109   0.07625   0.06169   2.10034
    A9        2.12246  -0.00768   0.00629  -0.07958  -0.07351   2.04896
   A10        1.99950   0.00923  -0.00982   0.11552   0.10400   2.10349
   A11        1.96320  -0.00090   0.00502  -0.03064  -0.02409   1.93911
   A12        1.69346   0.00718   0.00305   0.00539   0.00882   1.70228
   A13        2.12654  -0.00330  -0.00120   0.00375   0.00233   2.12887
   A14        2.09566   0.00274  -0.00212   0.03549   0.03394   2.12960
   A15        2.08134  -0.00120  -0.00362   0.01742   0.01310   2.09443
    D1        3.13566   0.00996   0.03187   0.07031   0.10218  -3.04535
    D2        0.37157   0.00589   0.03352   0.06454   0.09750   0.46907
    D3        0.19497  -0.00722  -0.02375  -0.14848  -0.17167   0.02330
    D4       -2.56912  -0.01128  -0.02210  -0.15426  -0.17635  -2.74547
    D5        2.92317   0.00377  -0.00032   0.02686   0.02632   2.94949
    D6       -2.91437  -0.00191  -0.00076  -0.01883  -0.02030  -2.93467
    D7        1.08233  -0.00462   0.00222  -0.05038  -0.04851   1.03382
    D8       -1.59194   0.00125  -0.00120   0.03232   0.02946  -1.56248
    D9        2.37474   0.00127  -0.00913   0.09270   0.08618   2.46092
   D10        1.43380  -0.00071   0.00995  -0.06320  -0.05207   1.38173
   D11       -2.53313   0.00035   0.00852  -0.04153  -0.03165  -2.56478
   D12       -2.39192   0.00041   0.01348  -0.06142  -0.04995  -2.44187
   D13       -0.07567   0.00147   0.01206  -0.03975  -0.02953  -0.10520
         Item               Value     Threshold  Converged?
 Maximum Force            0.011322     0.000450     NO 
 RMS     Force            0.004917     0.000300     NO 
 Maximum Displacement     0.180570     0.001800     NO 
 RMS     Displacement     0.060756     0.001200     NO 
 Predicted change in Energy=-5.662534D-03
 GradGradGradGradGradGradGradGradGradGradGradGradGradGradGradGradGradGrad

                          Input orientation:                          
 ---------------------------------------------------------------------
 Center     Atomic      Atomic             Coordinates (Angstroms)
 Number     Number       Type             X           Y           Z
 ---------------------------------------------------------------------
      1          8           0        0.864161    0.004606    0.073677
      2          6           0        2.070549    0.053093    0.133670
      3          6           0        2.839979   -0.316847    1.326531
      4          6           0        4.160675   -0.281157    1.719606
      5          6           0        3.882775   -0.609754    3.231054
      6          6           0        2.735563   -1.164586    2.475266
      7          1           0        2.693384    0.454924   -0.694315
      8          1           0        3.726018    0.323331    3.763236
      9          1           0        4.556358   -1.272574    3.786531
     10          1           0        2.611878   -2.244688    2.386724
 ---------------------------------------------------------------------
                    Distance matrix (angstroms):
                    1          2          3          4          5
     1  O    0.000000
     2  C    1.208852   0.000000
     3  C    2.361532   1.466900   0.000000
     4  C    3.695640   2.644909   1.378413   0.000000
     5  C    4.411179   3.649290   2.190988   1.571521   0.000000
     6  C    3.261409   2.721775   1.431488   1.839134   1.481604
     7  H    2.034368   1.111283   2.168165   2.919208   4.237537
     8  H    4.680242   3.998419   2.670660   2.175030   1.085559
     9  H    5.389693   4.613028   3.148169   2.326295   1.096174
    10  H    3.669336   3.263294   2.211924   2.588295   2.236310
                    6          7          8          9         10
     6  C    0.000000
     7  H    3.559613   0.000000
     8  H    2.203127   4.577490   0.000000
     9  H    2.246413   5.151010   1.799144   0.000000
    10  H    1.090760   4.097237   3.119426   2.585627   0.000000
 Stoichiometry    C5H4O
 Framework group  C1[X(C5H4O)]
 Deg. of freedom    24
 Full point group                 C1      NOp   1
 Largest Abelian subgroup         C1      NOp   1
 Largest concise Abelian subgroup C1      NOp   1
                         Standard orientation:                         
 ---------------------------------------------------------------------
 Center     Atomic      Atomic             Coordinates (Angstroms)
 Number     Number       Type             X           Y           Z
 ---------------------------------------------------------------------
      1          8           0        2.333112   -0.449105   -0.197502
      2          6           0        1.528534    0.414057    0.065041
      3          6           0        0.076807    0.204635    0.044452
      4          6           0       -1.051342    0.981814    0.197074
      5          6           0       -2.064455   -0.115793   -0.291331
      6          6           0       -0.878095   -0.849106    0.208622
      7          1           0        1.826741    1.463994    0.273981
      8          1           0       -2.178748   -0.024830   -1.367017
      9          1           0       -3.037362   -0.229532    0.200720
     10          1           0       -0.944221   -1.430440    1.129184
 ---------------------------------------------------------------------
 Rotational constants (GHZ):          13.9273222           2.3725677           2.1282498
 Standard basis: 6-31G(2df,p) (6D, 7F)
 There are   206 symmetry adapted cartesian basis functions of A   symmetry.
 There are   188 symmetry adapted basis functions of A   symmetry.
   188 basis functions,   292 primitive gaussians,   206 cartesian basis functions
    21 alpha electrons       21 beta electrons
       nuclear repulsion energy       191.8956339265 Hartrees.
 NAtoms=   10 NActive=   10 NUniq=   10 SFac= 1.00D+00 NAtFMM=   60 NAOKFM=F Big=F
 Integral buffers will be    131072 words long.
 Raffenetti 2 integral format.
 Two-electron integral symmetry is turned on.
 One-electron integrals computed using PRISM.
 PrsmSu:  requested number of processors reduced to:  13 ShMem   1 Linda.
 NBasis=   188 RedAO= T EigKep=  7.43D-04  NBF=   188
 NBsUse=   188 1.00D-06 EigRej= -1.00D+00 NBFU=   188
 Initial guess from the checkpoint file:  "OdCC1dC2CC12.chk"
 B after Tr=     0.000000    0.000000    0.000000
         Rot=    0.999990    0.004285    0.000719   -0.000689 Ang=   0.50 deg.
 ExpMin= 1.61D-01 ExpMax= 5.48D+03 ExpMxC= 8.25D+02 IAcc=2 IRadAn=         4 AccDes= 0.00D+00
 Harris functional with IExCor=  402 and IRadAn=       4 diagonalized for initial guess.
 HarFok:  IExCor=  402 AccDes= 0.00D+00 IRadAn=         4 IDoV= 1 UseB2=F ITyADJ=14
 ICtDFT=  3500011 ScaDFX=  1.000000  1.000000  1.000000  1.000000
 FoFCou: FMM=F IPFlag=           0 FMFlag=      100000 FMFlg1=           0
         NFxFlg=           0 DoJE=T BraDBF=F KetDBF=T FulRan=T
         wScrn=  0.000000 ICntrl=       500 IOpCl=  0 I1Cent=   200000004 NGrid=           0
         NMat0=    1 NMatS0=      1 NMatT0=    0 NMatD0=    1 NMtDS0=    0 NMtDT0=    0
 Petite list used in FoFCou.
 Requested convergence on RMS density matrix=1.00D-08 within 128 cycles.
 Requested convergence on MAX density matrix=1.00D-06.
 Requested convergence on             energy=1.00D-06.
 No special actions if energy rises.
 Integral accuracy reduced to 1.0D-05 until final iterations.
 Initial convergence to 1.0D-05 achieved.  Increase integral accuracy.
 SCF Done:  E(RB3LYP) =  -268.004637750     A.U. after   14 cycles
            NFock= 14  Conv=0.45D-08     -V/T= 2.0077
 PrsmSu:  requested number of processors reduced to:  13 ShMem   1 Linda.
 Calling FoFJK, ICntrl=      2127 FMM=F ISym2X=0 I1Cent= 0 IOpClX= 0 NMat=1 NMatS=1 NMatT=0.
 ***** Axes restored to original set *****
 -------------------------------------------------------------------
 Center     Atomic                   Forces (Hartrees/Bohr)
 Number     Number              X              Y              Z
 -------------------------------------------------------------------
      1        8           0.000954503   -0.002387238   -0.001468222
      2        6           0.001025666    0.004174192    0.005024893
      3        6           0.002223608    0.000818848    0.000962465
      4        6          -0.006948629   -0.004149854   -0.000264239
      5        6          -0.000917736   -0.000737853    0.001664032
      6        6           0.012778027    0.003826023   -0.003277308
      7        1          -0.000602224   -0.002136890    0.000553055
      8        1          -0.002381767    0.000838222    0.000133477
      9        1          -0.002326087    0.000759672   -0.004177016
     10        1          -0.003805361   -0.001005122    0.000848862
 -------------------------------------------------------------------
 Cartesian Forces:  Max     0.012778027 RMS     0.003505684

 GradGradGradGradGradGradGradGradGradGradGradGradGradGradGradGradGradGrad
 Berny optimization.
 Using GEDIIS/GDIIS optimizer.
 FormGI is forming the generalized inverse of G from B-inverse, IUseBI=4.
 Internal  Forces:  Max     0.005060288 RMS     0.002114328
 Search for a local minimum.
 Step number   5 out of a maximum of   49
 All quantities printed in internal units (Hartrees-Bohrs-Radians)
 Mixed Optimization -- RFO/linear search
 Update second derivatives using D2CorX and points    3    4    5
 DE= -3.80D-03 DEPred=-5.66D-03 R= 6.72D-01
 TightC=F SS=  1.41D+00  RLast= 3.91D-01 DXNew= 2.1828D+00 1.1715D+00
 Trust test= 6.72D-01 RLast= 3.91D-01 DXMaxT set to 1.30D+00
 ITU=  1  1  1  1  0
 Use linear search instead of GDIIS.
     Eigenvalues ---    0.01628   0.02027   0.03056   0.04677   0.05044
     Eigenvalues ---    0.07038   0.07217   0.10018   0.11950   0.12477
     Eigenvalues ---    0.15552   0.16050   0.22015   0.23083   0.29372
     Eigenvalues ---    0.30263   0.33518   0.35621   0.35802   0.36271
     Eigenvalues ---    0.40581   0.42148   0.55558   0.92622
 RFO step:  Lambda=-6.98487369D-04 EMin= 1.62763390D-02
 Quartic linear search produced a step of -0.17764.
 Iteration  1 RMS(Cart)=  0.01561782 RMS(Int)=  0.00057470
 Iteration  2 RMS(Cart)=  0.00033863 RMS(Int)=  0.00046551
 Iteration  3 RMS(Cart)=  0.00000004 RMS(Int)=  0.00046551
 Variable       Old X    -DE/DX   Delta X   Delta X   Delta X     New X
                                 (Linear)    (Quad)   (Total)
    R1        2.28440  -0.00078  -0.00146   0.00150   0.00004   2.28444
    R2        2.77204  -0.00415  -0.00120  -0.00830  -0.00950   2.76254
    R3        2.10002  -0.00152  -0.00006  -0.00411  -0.00418   2.09585
    R4        2.60482  -0.00471  -0.00868   0.00141  -0.00722   2.59760
    R5        2.70512  -0.00298   0.00347  -0.00971  -0.00607   2.69905
    R6        2.96974  -0.00039  -0.01538   0.01444  -0.00127   2.96848
    R7        3.47546  -0.00399  -0.01844  -0.00693  -0.02524   3.45022
    R8        2.79983  -0.00506  -0.00434  -0.00792  -0.01230   2.78753
    R9        2.05141   0.00113  -0.00022   0.00287   0.00265   2.05406
   R10        2.07147  -0.00401   0.00003  -0.01024  -0.01021   2.06126
   R11        2.06124   0.00136   0.00170   0.00092   0.00262   2.06386
    A1        2.15760   0.00110  -0.00009   0.00408   0.00542   2.16302
    A2        2.13749  -0.00034  -0.00125  -0.00224  -0.00205   2.13544
    A3        1.98569  -0.00048  -0.00148  -0.00097  -0.00102   1.98467
    A4        2.38609   0.00025   0.00591  -0.00044   0.00529   2.39138
    A5        2.43975  -0.00095   0.00180  -0.00372  -0.00195   2.43779
    A6        1.67038  -0.00152   0.00809  -0.01009  -0.00235   1.66803
    A7        1.89369   0.00079   0.01363  -0.00099   0.01279   1.90648
    A8        2.10034  -0.00100  -0.01096   0.00032  -0.00988   2.09046
    A9        2.04896  -0.00047   0.01306  -0.02631  -0.01317   2.03579
   A10        2.10349  -0.00174  -0.01847   0.01285  -0.00533   2.09816
   A11        1.93911   0.00203   0.00428   0.01186   0.01582   1.95494
   A12        1.70228  -0.00019  -0.00157   0.00371   0.00192   1.70420
   A13        2.12887  -0.00001  -0.00041   0.00831   0.00754   2.13641
   A14        2.12960   0.00115  -0.00603   0.02374   0.01743   2.14703
   A15        2.09443   0.00281  -0.00233   0.02494   0.02260   2.11703
    D1       -3.04535  -0.00318  -0.01815  -0.05331  -0.07152  -3.11687
    D2        0.46907  -0.00214  -0.01732  -0.02453  -0.04178   0.42729
    D3        0.02330   0.00113   0.03050  -0.04017  -0.00974   0.01355
    D4       -2.74547   0.00217   0.03133  -0.01138   0.02000  -2.72547
    D5        2.94949  -0.00044  -0.00467   0.00784   0.00330   2.95279
    D6       -2.93467   0.00175   0.00361  -0.00260   0.00128  -2.93339
    D7        1.03382  -0.00198   0.00862  -0.04737  -0.03867   0.99515
    D8       -1.56248   0.00248  -0.00523   0.04057   0.03567  -1.52681
    D9        2.46092  -0.00043  -0.01531   0.02378   0.00798   2.46889
   D10        1.38173  -0.00061   0.00925  -0.01234  -0.00340   1.37833
   D11       -2.56478   0.00127   0.00562   0.02092   0.02650  -2.53828
   D12       -2.44187  -0.00013   0.00887  -0.01088  -0.00172  -2.44359
   D13       -0.10520   0.00175   0.00525   0.02238   0.02818  -0.07702
         Item               Value     Threshold  Converged?
 Maximum Force            0.005060     0.000450     NO 
 RMS     Force            0.002114     0.000300     NO 
 Maximum Displacement     0.053381     0.001800     NO 
 RMS     Displacement     0.015673     0.001200     NO 
 Predicted change in Energy=-5.385987D-04
 GradGradGradGradGradGradGradGradGradGradGradGradGradGradGradGradGradGrad

                          Input orientation:                          
 ---------------------------------------------------------------------
 Center     Atomic      Atomic             Coordinates (Angstroms)
 Number     Number       Type             X           Y           Z
 ---------------------------------------------------------------------
      1          8           0        0.869617   -0.023641    0.071186
      2          6           0        2.072678    0.066882    0.147529
      3          6           0        2.845520   -0.305161    1.331323
      4          6           0        4.165530   -0.294532    1.714682
      5          6           0        3.887208   -0.608092    3.228548
      6          6           0        2.746841   -1.158842    2.472143
      7          1           0        2.692582    0.456446   -0.685540
      8          1           0        3.714417    0.323483    3.761270
      9          1           0        4.555931   -1.273882    3.775648
     10          1           0        2.591016   -2.236311    2.385190
 ---------------------------------------------------------------------
                    Distance matrix (angstroms):
                    1          2          3          4          5
     1  O    0.000000
     2  C    1.208875   0.000000
     3  C    2.360379   1.461872   0.000000
     4  C    3.692898   2.639435   1.374592   0.000000
     5  C    4.406401   3.638790   2.185485   1.570851   0.000000
     6  C    3.252267   2.713066   1.428278   1.825776   1.475098
     7  H    2.031334   1.109073   2.161290   2.914551   4.228529
     8  H    4.672269   3.977471   2.656090   2.184941   1.086960
     9  H    5.373551   4.596460   3.136663   2.314978   1.090772
    10  H    3.635070   3.252768   2.214667   2.588278   2.245544
                    6          7          8          9         10
     6  C    0.000000
     7  H    3.547261   0.000000
     8  H    2.189827   4.564641   0.000000
     9  H    2.232749   5.135008   1.805527   0.000000
    10  H    1.092145   4.085418   3.115794   2.592400   0.000000
 Stoichiometry    C5H4O
 Framework group  C1[X(C5H4O)]
 Deg. of freedom    24
 Full point group                 C1      NOp   1
 Largest Abelian subgroup         C1      NOp   1
 Largest concise Abelian subgroup C1      NOp   1
                         Standard orientation:                         
 ---------------------------------------------------------------------
 Center     Atomic      Atomic             Coordinates (Angstroms)
 Number     Number       Type             X           Y           Z
 ---------------------------------------------------------------------
      1          8           0        2.330632   -0.451794   -0.179987
      2          6           0        1.521929    0.418707    0.042736
      3          6           0        0.074989    0.210609    0.031396
      4          6           0       -1.052409    0.975557    0.213967
      5          6           0       -2.061731   -0.117815   -0.289402
      6          6           0       -0.875188   -0.841574    0.204763
      7          1           0        1.820583    1.463235    0.265918
      8          1           0       -2.168965   -0.036676   -1.368012
      9          1           0       -3.024488   -0.236880    0.209304
     10          1           0       -0.917724   -1.448222    1.111929
 ---------------------------------------------------------------------
 Rotational constants (GHZ):          14.0277444           2.3828534           2.1364819
 Standard basis: 6-31G(2df,p) (6D, 7F)
 There are   206 symmetry adapted cartesian basis functions of A   symmetry.
 There are   188 symmetry adapted basis functions of A   symmetry.
   188 basis functions,   292 primitive gaussians,   206 cartesian basis functions
    21 alpha electrons       21 beta electrons
       nuclear repulsion energy       192.3298345536 Hartrees.
 NAtoms=   10 NActive=   10 NUniq=   10 SFac= 1.00D+00 NAtFMM=   60 NAOKFM=F Big=F
 Integral buffers will be    131072 words long.
 Raffenetti 2 integral format.
 Two-electron integral symmetry is turned on.
 One-electron integrals computed using PRISM.
 PrsmSu:  requested number of processors reduced to:  13 ShMem   1 Linda.
 NBasis=   188 RedAO= T EigKep=  7.47D-04  NBF=   188
 NBsUse=   188 1.00D-06 EigRej= -1.00D+00 NBFU=   188
 Initial guess from the checkpoint file:  "OdCC1dC2CC12.chk"
 B after Tr=    -0.000000    0.000000    0.000000
         Rot=    1.000000    0.000303   -0.000137   -0.000642 Ang=   0.08 deg.
 ExpMin= 1.61D-01 ExpMax= 5.48D+03 ExpMxC= 8.25D+02 IAcc=2 IRadAn=         4 AccDes= 0.00D+00
 Harris functional with IExCor=  402 and IRadAn=       4 diagonalized for initial guess.
[...]
      5        6           0.000038249    0.000006705   -0.000031530
      6        6          -0.000032549   -0.000029707    0.000004517
      7        1          -0.000004210    0.000007336   -0.000001352
      8        1          -0.000013052    0.000005597   -0.000012629
      9        1          -0.000004450    0.000001331   -0.000001530
     10        1          -0.000005704   -0.000000725    0.000003203
 -------------------------------------------------------------------
 Cartesian Forces:  Max     0.000041149 RMS     0.000017481
 FormGI is forming the generalized inverse of G from B-inverse, IUseBI=4.

 GradGradGradGradGradGradGradGradGradGradGradGradGradGradGradGradGradGrad
 Berny optimization.
 Internal  Forces:  Max     0.000039261 RMS     0.000011170
 Search for a local minimum.
 Step number   1 out of a maximum of    2
 All quantities printed in internal units (Hartrees-Bohrs-Radians)
 Second derivative matrix not updated -- analytic derivatives used.
 ITU=  0
     Eigenvalues ---    0.00488   0.00695   0.01768   0.03353   0.03813
     Eigenvalues ---    0.05659   0.06517   0.07535   0.07717   0.09127
     Eigenvalues ---    0.10352   0.13419   0.14360   0.18077   0.20753
     Eigenvalues ---    0.29010   0.30274   0.30797   0.32466   0.34095
     Eigenvalues ---    0.34749   0.35603   0.43905   0.86786
 Angle between quadratic step and forces=  59.87 degrees.
 Linear search not attempted -- first point.
 Iteration  1 RMS(Cart)=  0.00028449 RMS(Int)=  0.00000007
 Iteration  2 RMS(Cart)=  0.00000006 RMS(Int)=  0.00000001
 Variable       Old X    -DE/DX   Delta X   Delta X   Delta X     New X
                                 (Linear)    (Quad)   (Total)
    R1        2.28414   0.00001   0.00000   0.00002   0.00002   2.28416
    R2        2.76219  -0.00001   0.00000  -0.00002  -0.00002   2.76217
    R3        2.09529   0.00000   0.00000   0.00000   0.00000   2.09529
    R4        2.60041  -0.00002   0.00000  -0.00005  -0.00005   2.60036
    R5        2.68146   0.00001   0.00000   0.00004   0.00004   2.68151
    R6        2.98013  -0.00004   0.00000  -0.00032  -0.00032   2.97982
    R7        3.44087   0.00001   0.00000   0.00012   0.00012   3.44099
    R8        2.77552   0.00001   0.00000   0.00015   0.00015   2.77567
    R9        2.05300   0.00000   0.00000   0.00001   0.00001   2.05301
   R10        2.05922  -0.00000   0.00000  -0.00002  -0.00002   2.05921
   R11        2.06366   0.00000   0.00000  -0.00000  -0.00000   2.06366
    A1        2.16060  -0.00001   0.00000  -0.00008  -0.00008   2.16052
    A2        2.13544  -0.00000   0.00000  -0.00004  -0.00004   2.13540
    A3        1.98711   0.00001   0.00000   0.00012   0.00012   1.98723
    A4        2.38833   0.00001   0.00000   0.00021   0.00021   2.38854
    A5        2.41903  -0.00002   0.00000  -0.00027  -0.00027   2.41877
    A6        1.65901   0.00000   0.00000   0.00003   0.00003   1.65904
    A7        1.90172  -0.00001   0.00000  -0.00005  -0.00005   1.90167
    A8        2.08246   0.00000   0.00000   0.00010   0.00010   2.08256
    A9        2.04010  -0.00001   0.00000  -0.00028  -0.00028   2.03982
   A10        2.09110  -0.00000   0.00000   0.00007   0.00007   2.09117
   A11        1.96702   0.00001   0.00000   0.00007   0.00007   1.96709
   A12        1.71337  -0.00003   0.00000  -0.00021  -0.00021   1.71316
   A13        2.15775   0.00001   0.00000   0.00010   0.00010   2.15785
   A14        2.19859   0.00001   0.00000   0.00011   0.00011   2.19870
   A15        2.14147   0.00001   0.00000   0.00011   0.00011   2.14158
    D1        3.04550   0.00000   0.00000  -0.00057  -0.00057   3.04493
    D2        0.40985  -0.00000   0.00000  -0.00065  -0.00065   0.40920
    D3       -0.10538  -0.00000   0.00000  -0.00065  -0.00065  -0.10603
    D4       -2.74103  -0.00001   0.00000  -0.00073  -0.00073  -2.74176
    D5        3.02173   0.00000   0.00000   0.00000   0.00000   3.02173
    D6       -2.99425  -0.00000   0.00000   0.00009   0.00009  -2.99416
    D7        0.86869   0.00000   0.00000   0.00007   0.00007   0.86876
    D8       -1.52976   0.00001   0.00000   0.00029   0.00029  -1.52948
    D9        2.46054   0.00001   0.00000   0.00015   0.00015   2.46069
   D10        1.36431  -0.00000   0.00000   0.00005   0.00005   1.36437
   D11       -2.48936  -0.00000   0.00000   0.00007   0.00007  -2.48930
   D12       -2.43846  -0.00000   0.00000  -0.00016  -0.00016  -2.43862
   D13       -0.00895  -0.00000   0.00000  -0.00014  -0.00014  -0.00909
         Item               Value     Threshold  Converged?
 Maximum Force            0.000039     0.000450     YES
 RMS     Force            0.000011     0.000300     YES
 Maximum Displacement     0.000911     0.001800     YES
 RMS     Displacement     0.000284     0.001200     YES
 Predicted change in Energy=-2.672306D-08
 Optimization completed.
    -- Stationary point found.
                           ----------------------------
                           !   Optimized Parameters   !
                           ! (Angstroms and Degrees)  !
 --------------------------                            --------------------------
 ! Name  Definition              Value          Derivative Info.                !
 --------------------------------------------------------------------------------
 ! R1    R(1,2)                  1.2087         -DE/DX =    0.0                 !
 ! R2    R(2,3)                  1.4617         -DE/DX =    0.0                 !
 ! R3    R(2,7)                  1.1088         -DE/DX =    0.0                 !
 ! R4    R(3,4)                  1.3761         -DE/DX =    0.0                 !
 ! R5    R(3,6)                  1.419          -DE/DX =    0.0                 !
 ! R6    R(4,5)                  1.577          -DE/DX =    0.0                 !
 ! R7    R(4,6)                  1.8208         -DE/DX =    0.0                 !
 ! R8    R(5,6)                  1.4687         -DE/DX =    0.0                 !
 ! R9    R(5,8)                  1.0864         -DE/DX =    0.0                 !
 ! R10   R(5,9)                  1.0897         -DE/DX =    0.0                 !
 ! R11   R(6,10)                 1.092          -DE/DX =    0.0                 !
 ! A1    A(1,2,3)              123.7933         -DE/DX =    0.0                 !
 ! A2    A(1,2,7)              122.3516         -DE/DX =    0.0                 !
 ! A3    A(3,2,7)              113.8529         -DE/DX =    0.0                 !
 ! A4    A(2,3,4)              136.8413         -DE/DX =    0.0                 !
 ! A5    A(2,3,6)              138.6005         -DE/DX =    0.0                 !
 ! A6    A(3,4,5)               95.0541         -DE/DX =    0.0                 !
 ! A7    A(4,5,8)              108.9607         -DE/DX =    0.0                 !
 ! A8    A(4,5,9)              119.3163         -DE/DX =    0.0                 !
 ! A9    A(6,5,8)              116.8891         -DE/DX =    0.0                 !
 ! A10   A(6,5,9)              119.8112         -DE/DX =    0.0                 !
 ! A11   A(8,5,9)              112.7022         -DE/DX =    0.0                 !
 ! A12   A(3,6,5)               98.1688         -DE/DX =    0.0                 !
 ! A13   A(3,6,10)             123.6299         -DE/DX =    0.0                 !
 ! A14   A(4,6,10)             125.97           -DE/DX =    0.0                 !
 ! A15   A(5,6,10)             122.6972         -DE/DX =    0.0                 !
 ! D1    D(1,2,3,4)            174.4944         -DE/DX =    0.0                 !
 ! D2    D(1,2,3,6)             23.4824         -DE/DX =    0.0                 !
 ! D3    D(7,2,3,4)             -6.0377         -DE/DX =    0.0                 !
 ! D4    D(7,2,3,6)           -157.0496         -DE/DX =    0.0                 !
 ! D5    D(2,3,4,5)            173.1325         -DE/DX =    0.0                 !
 ! D6    D(2,3,6,5)           -171.558          -DE/DX =    0.0                 !
 ! D7    D(2,3,6,10)            49.7723         -DE/DX =    0.0                 !
 ! D8    D(3,4,5,8)            -87.649          -DE/DX =    0.0                 !
 ! D9    D(3,4,5,9)            140.9786         -DE/DX =    0.0                 !
 ! D10   D(8,5,6,3)             78.1694         -DE/DX =    0.0                 !
 ! D11   D(8,5,6,10)          -142.6299         -DE/DX =    0.0                 !
 ! D12   D(9,5,6,3)           -139.7135         -DE/DX =    0.0                 !
 ! D13   D(9,5,6,10)            -0.5128         -DE/DX =    0.0                 !
 --------------------------------------------------------------------------------
 GradGradGradGradGradGradGradGradGradGradGradGradGradGradGradGradGradGrad


 ----------------------------------------------------------------------

 Electric dipole moment (input orientation):
 (Debye = 10**-18 statcoulomb cm , SI units = C m)
                  (au)            (Debye)         (10**-30 SI)
   Tot        0.908745D+00      0.230980D+01      0.770466D+01
   x          0.474801D+00      0.120682D+01      0.402553D+01
   y         -0.202612D+00     -0.514990D+00     -0.171782D+01
   z          0.747884D+00      0.190093D+01      0.634082D+01

 Dipole polarizability, Alpha (input orientation).
 (esu units = cm**3 , SI units = C**2 m**2 J**-1)
 Alpha(0;0):
               (au)            (10**-24 esu)      (10**-40 SI)
   iso        0.541544D+02      0.802485D+01      0.892885D+01
   aniso      0.361159D+02      0.535183D+01      0.595471D+01
   xx         0.617873D+02      0.915593D+01      0.101873D+02
   yx         0.246465D+01      0.365223D+00      0.406365D+00
   yy         0.401833D+02      0.595455D+01      0.662533D+01
   zx         0.128676D+02      0.190678D+01      0.212158D+01
   zy        -0.107854D+02     -0.159822D+01     -0.177826D+01
   zz         0.604925D+02      0.896407D+01      0.997387D+01

 ----------------------------------------------------------------------

 Dipole orientation:
     8          1.35883731         -0.07901849          0.99632459
     6          3.19728510          0.42010515          2.25659443
     6          3.21618876          0.40697909          5.01868377
     6          4.98124252          0.70463974          6.90498504
     6          2.99438354          0.70408434          9.12615433
     6          1.85023200         -0.71650343          7.03417395
     1          5.03386122          0.95123676          1.39920823
     1          2.32426829          2.62192559          9.42220154
     1          3.45192636         -0.25875507         10.88796720
     1          1.43937710         -2.73548716          7.15085689

 Electric dipole moment (dipole orientation):
 (Debye = 10**-18 statcoulomb cm , SI units = C m)
                  (au)            (Debye)         (10**-30 SI)
   Tot        0.908745D+00      0.230980D+01      0.770466D+01
   x          0.000000D+00      0.000000D+00      0.000000D+00
   y          0.000000D+00      0.000000D+00      0.000000D+00
   z          0.908745D+00      0.230980D+01      0.770466D+01

 Dipole polarizability, Alpha (dipole orientation).
 (esu units = cm**3 , SI units = C**2 m**2 J**-1)
 Alpha(0;0):
               (au)            (10**-24 esu)      (10**-40 SI)
   iso        0.541544D+02      0.802485D+01      0.892885D+01
   aniso      0.361159D+02      0.535183D+01      0.595471D+01
   xx         0.509010D+02      0.754275D+01      0.839244D+01
   yx         0.819396D+01      0.121422D+01      0.135100D+01
   yy         0.372759D+02      0.552372D+01      0.614597D+01
   zx         0.414737D+01      0.614577D+00      0.683810D+00
   zy        -0.256948D+00     -0.380758D-01     -0.423651D-01
   zz         0.742862D+02      0.110081D+02      0.122481D+02

 ----------------------------------------------------------------------
 1\1\GINC-LEWIS4-R630-HPC4-NODE537\Freq\RB3LYP\6-31G(2df,p)\C5H4O1\YXIE
 \04-Aug-2022\0\\#N Geom=AllCheck Guess=TCheck SCRF=Check GenChk RB3LYP
 /6-31G(2df,p) Freq\\Title Card Required\\0,1\O,0.8841845675,-0.1122761
 023,0.0488835733\C,2.076689362,0.0581215108,0.1483234884\C,2.848426113
 9,-0.2738797196,1.3444513962\C,4.174183926,-0.2835284935,1.7130538022\
 C,3.8943273002,-0.6130640627,3.2296540796\C,2.7530958862,-1.1361760163
 ,2.4673194851\H,2.6839350794,0.4947825319,-0.6701920261\H,3.7395238124
 ,0.3165503139,3.7701362465\H,4.5547472735,-1.3010777623,3.7568283171\H
 ,2.5322266788,-2.2031022,2.3935216377\\Version=ES64L-G16RevA.03\State=
 1-A\HF=-268.0056154\RMSD=1.518e-09\RMSF=1.748e-05\ZeroPoint=0.0712759\
 Thermal=0.0767991\Dipole=0.4748014,-0.2026125,0.7478836\DipoleDeriv=-0
 .9851234,0.0509553,-0.3131757,-0.0610297,-0.3466163,0.0458563,-0.12981
 38,0.0760601,-0.5373164,1.1685907,-0.0343767,0.3671612,0.0214251,0.370
 0723,-0.3467016,0.3874092,-0.3167012,1.0720057,-0.1604349,0.1339361,-0
 .3513372,0.0666473,-0.0823296,0.0375796,-0.6687189,0.1040553,-0.355013
 8,-0.254987,-0.1135196,0.1836108,0.1185116,-0.2742437,0.1924232,0.2158
 242,0.0737008,-0.1573515,0.2420243,-0.0224451,0.0666919,-0.3053702,0.1
 369352,-0.2411954,0.0603257,-0.0441241,-0.0095157,-0.3216798,-0.013805
 1,0.0620846,0.1477124,0.274581,0.0974154,0.3313427,0.0229385,0.0834931
 ,-0.0381898,-0.0628655,0.1092863,-0.0387857,0.0006269,0.1120507,0.0451
 69,0.0880121,-0.1298771,0.1232001,0.0110013,0.0135309,0.0693693,-0.000
 7738,0.0103241,-0.092234,0.0028865,-0.0408968,0.019682,0.0694693,-0.10
 4394,0.0774695,0.0090234,0.0615539,-0.0529351,0.0210046,0.0216,0.20691
 78,-0.0183499,-0.0334586,-0.0959496,-0.0872753,0.0306938,-0.0963692,-0
 .0278328,0.0528725\Polar=61.78729,2.4646462,40.1832822,12.8676077,-10.
 785353,60.4925455\Quadrupole=-5.7689271,2.9948141,2.774113,0.0918172,-
 0.4835318,-0.7219554\PG=C01 [X(C5H4O1)]\NImag=0\\0.83080418,0.11445389
 ,0.04677797,0.07034608,-0.00935816,0.07764579,-0.73162366,-0.09876587,
 -0.04955946,0.93761649,-0.10369690,-0.08355957,0.00765063,0.12766477,0
 .26129346,-0.03425328,0.00958071,-0.10156290,0.01698893,-0.12755264,0.
 50239827,-0.06796573,0.00938923,-0.04735101,-0.08967102,-0.00145065,-0
 .05098915,0.54471324,-0.00050579,0.02255262,-0.00206003,0.01609653,-0.
 09430290,0.04632519,-0.02250661,0.26551027,-0.04422437,-0.00090601,0.0
 0717705,-0.02459974,0.04576974,-0.19945770,0.24036390,-0.21379073,0.55
 671432,0.01063562,-0.00221813,-0.00145965,-0.02099314,0.01270986,-0.00
 203919,-0.33296253,0.01177259,-0.10938571,0.41461638,0.00225885,0.0026
 7699,0.00364750,0.00348780,-0.00018027,-0.00857067,0.01798903,-0.04034
 878,0.00394981,0.00534436,0.07979132,-0.00015067,0.00068071,-0.0055418
 7,-0.02781088,-0.00092923,0.00492682,-0.09614180,0.00654556,-0.0838192
 2,0.05652402,-0.02242413,0.20642629,-0.00193826,0.00029439,-0.00126485
 ,-0.00088879,-0.00314631,0.00180021,-0.01487831,0.00709147,-0.05237031
 ,-0.04237341,0.01562174,-0.00033421,0.39060981,-0.00124911,-0.00249712
 ,-0.00309255,-0.00126709,0.00823919,0.01511364,0.01417740,0.02583674,0
 .01081036,0.00006508,-0.04783329,-0.01118993,-0.11875557,0.55867266,-0
 .00199391,-0.00030952,-0.00079120,0.00090745,0.00059252,0.00297378,-0.
 03507696,0.00630007,-0.05672188,0.01176507,0.00764251,-0.10651545,0.20
 582341,0.07947151,0.48831465,0.00027433,-0.00130912,0.00120019,0.00677
 266,0.00654313,-0.00665614,-0.03784113,-0.00447337,-0.02481258,-0.0632
 0541,-0.03764638,0.06438623,-0.13281454,-0.03418558,-0.11059025,0.2951
 3165,0.00026854,-0.00139031,-0.00269605,-0.00541942,0.00238880,0.00196
 021,-0.01122164,-0.18006096,0.14095135,-0.02275515,-0.00123106,0.01510
 925,-0.05794698,-0.11477329,-0.05239574,0.13764444,0.60268870,0.003553
 83,-0.00174044,0.00562830,0.00824969,0.00942816,-0.02176020,-0.0324150
 9,0.10644386,-0.18636389,0.07551346,0.01936174,0.00847482,-0.09284762,
 -0.02613844,-0.12208418,0.09059395,-0.07896647,0.37251833,-0.04098499,
 -0.02170892,0.02734069,-0.10215021,-0.04005816,0.07809419,0.01088942,0
 .00415370,-0.01251119,0.00066089,-0.00071093,0.00147975,-0.00013052,0.
 00120474,0.00019794,-0.00137697,0.00007051,-0.00276862,0.13352874,-0.0
 1424648,0.01501084,0.00482819,-0.03877461,-0.09379581,0.06843449,-0.00
 451168,0.01250253,0.01085472,-0.00150123,-0.00154299,-0.00044049,0.000
 89436,-0.00186540,0.00047259,0.00102113,0.00245177,0.00130106,0.057318
 59,0.06686256,0.00935063,0.00228431,0.01851802,0.07344600,0.06531066,-
 0.19235323,0.01375656,0.01733224,-0.01897543,-0.00043651,-0.00030223,0
 .00058389,-0.00056854,0.00048720,-0.00054426,-0.00261709,-0.00011577,-
 0.00124327,-0.09203679,-0.08509517,0.19473041,0.00076118,0.00048380,0.
 00015594,-0.00160827,-0.00007534,-0.00094319,-0.00394107,-0.00488080,0
 .00651882,0.00376210,0.00758263,0.01176029,-0.04028326,0.05148989,0.01
 445611,-0.00470590,-0.02521556,-0.02159588,0.00004206,-0.00025906,-0.0
 0008948,0.04988309,0.00126853,0.00047282,0.00059221,-0.00172305,-0.000
 20154,-0.00284597,-0.00050120,-0.00115903,0.00834981,0.00106180,0.0072
 4007,0.00836815,0.04591239,-0.25585343,-0.12444335,-0.00305617,-0.0089
 5572,-0.00743491,-0.00010840,-0.00005974,-0.00002742,-0.04371841,0.272
 16783,-0.00054636,-0.00051890,-0.00090697,-0.00001557,0.00136123,0.003
 12209,0.00337765,0.00133912,-0.00573332,-0.00269557,-0.01563725,-0.023
 73028,0.01265587,-0.12709750,-0.09862861,0.00416396,-0.00171191,-0.002
 03071,0.00014062,-0.00013347,-0.00011603,-0.01566988,0.12879787,0.1189
 3764,-0.00037859,-0.00045092,0.00027489,0.00297049,0.00024226,-0.00048
 656,-0.00111969,0.00056073,-0.00317282,0.00581318,-0.00817129,-0.00125
 128,-0.15322162,0.10233077,-0.07843989,-0.00623537,0.01992076,-0.00701
 571,-0.00033874,0.00044921,-0.00027739,-0.00167999,0.00195321,-0.00223
 845,0.15356069,0.00015630,-0.00024155,0.00030449,0.00072988,0.00076581
 ,-0.00133628,-0.00092715,0.00049473,-0.00069031,0.00173366,-0.00243970
 ,-0.00109032,0.10549556,-0.16536842,0.08256462,-0.00602790,0.01174175,
 -0.00636683,-0.00020761,0.00018567,-0.00015406,0.01527917,-0.01386862,
 0.01317517,-0.11648479,0.16853470,-0.00049836,0.00047290,-0.00024216,-
 0.00074269,-0.00133588,-0.00026380,-0.00512444,0.00286205,-0.00528013,
 -0.01511444,0.00891821,-0.00392309,-0.07682309,0.08078387,-0.10800562,
 -0.00301890,0.00528861,-0.00738915,0.00007610,0.00012094,-0.00029764,0
 .00894199,-0.00958003,0.00859012,0.09165043,-0.08732755,0.11722037,0.0
 0041592,-0.00016835,0.00031717,-0.00042453,0.00126733,-0.00151582,-0.0
 0722317,-0.00730846,0.02419401,0.02404633,-0.00575582,-0.00846145,-0.0
 0408110,-0.01381054,-0.00704896,-0.05599930,-0.03534549,-0.02126802,-0
 .00013967,-0.00039023,-0.00052740,-0.00222992,-0.00108871,0.00082774,0
 .00062965,0.00025287,0.00065340,0.04500579,0.00129216,0.00019729,0.000
 18376,-0.00202894,-0.00064718,-0.00110870,-0.00043673,-0.01102522,-0.0
 0529873,-0.00621285,0.00386769,0.00537043,0.00453895,-0.00455764,0.000
 10479,-0.05851019,-0.31285969,-0.01588774,0.00004648,0.00025056,0.0002
 8025,-0.00068632,0.00021736,0.00042564,-0.00034995,0.00019562,-0.00020
 312,0.06234740,0.32436120,-0.00158359,-0.00018561,0.00007593,0.0031362
 7,-0.00029519,0.00197687,0.00960034,0.02870267,-0.00753980,-0.01267147
 ,0.00341450,0.00311810,0.00392913,-0.01914816,0.00200277,-0.01264936,-
 0.02742348,-0.04575005,-0.00001270,-0.00034287,-0.00030246,-0.00353473
 ,-0.00177636,0.00049607,0.00095678,0.00092108,-0.00040891,0.01282933,0
 .01613342,0.04633147\\0.00000705,0.00000104,-0.00000065,-0.00000994,0.
 00001140,-0.00000891,-0.00004115,-0.00002573,0.00000141,0.00002232,0.0
 0000382,-0.00003118,-0.00003825,-0.00000671,0.00003153,0.00003255,0.00
 002971,-0.00000452,0.00000421,-0.00000734,0.00000135,0.00001305,-0.000
 00560,0.00001263,0.00000445,-0.00000133,0.00000153,0.00000570,0.000000
 73,-0.00000320\\\@


 ARTHROPOD AXIOM: A COMPUTER SYSTEM IS LIKE A SPIDER'S WEB.
 YOU CANNOT PULL ON ONE END WITHOUT MAKING THE OTHER END MOVE.
     -- GREG WETTSTEIN
 Job cpu time:       0 days  0 hours 30 minutes 32.9 seconds.
 Elapsed time:       0 days  0 hours  7 minutes 39.0 seconds.
 File lengths (MBytes):  RWF=     39 Int=      0 D2E=      0 Chk=      4 Scr=      1
 Normal termination of Gaussian 16 at Thu Aug  4 06:16:27 2022.
### All Done ###
