### Starting Gaussian ###
 Entering Gaussian System, Link 0=g16
 Initial command:
 /cluster/software/gaussian/gaussian-16-A.03/avx2/g16/l1.exe "/local/scratch/yxie/Gau-29669.inp" -scrdir="/local/scratch/yxie/"
 Entering Link 1 = /cluster/software/gaussian/gaussian-16-A.03/avx2/g16/l1.exe PID=     29670.
  
 Copyright (c) 1988,1990,1992,1993,1995,1998,2003,2009,2016,
            Gaussian, Inc.  All Rights Reserved.
  
 This is part of the Gaussian(R) 16 program.  It is based on
 the Gaussian(R) 09 system (copyright 2009, Gaussian, Inc.),
 the Gaussian(R) 03 system (copyright 2003, Gaussian, Inc.),
 the Gaussian(R) 98 system (copyright 1998, Gaussian, Inc.),
 the Gaussian(R) 94 system (copyright 1995, Gaussian, Inc.),
 the Gaussian 92(TM) system (copyright 1992, Gaussian, Inc.),
 the Gaussian 90(TM) system (copyright 1990, Gaussian, Inc.),
 the Gaussian 88(TM) system (copyright 1988, Gaussian, Inc.),
 the Gaussian 86(TM) system (copyright 1986, Carnegie Mellon
 University), and the Gaussian 82(TM) system (copyright 1983,
 Carnegie Mellon University). Gaussian is a federally registered
 trademark of Gaussian, Inc.
  
 This software contains proprietary and confidential information,
 including trade secrets, belonging to Gaussian, Inc.
  
 This software is provided under written license and may be
 used, copied, transmitted, or stored only in accord with that
 written license.
  
 The following legend is applicable only to US Government
 contracts under FAR:
  
                    RESTRICTED RIGHTS LEGEND
  
 Use, reproduction and disclosure by the US Government is
 subject to restrictions as set forth in subparagraphs (a)
 and (c) of the Commercial Computer Software - Restricted
 Rights clause in FAR 52.227-19.
  
 Gaussian, Inc.
 340 Quinnipiac St., Bldg. 40, Wallingford CT 06492
  
  
 ---------------------------------------------------------------
 Warning -- This program may not be used in any manner that
 competes with the business of Gaussian, Inc. or will provide
 assistance to any competitor of Gaussian, Inc.  The licensee
 of this program is prohibited from giving any competitor of
 Gaussian, Inc. access to this program.  By using this program,
 the user acknowledges that Gaussian, Inc. is engaged in the
 business of creating and licensing software in the field of
 computational chemistry and represents and warrants to the
 licensee that it is not a competitor of Gaussian, Inc. and that
 it will not use this program in any manner prohibited above.
 ---------------------------------------------------------------
  

 Cite this work as:
 Gaussian 16, Revision A.03,
 M. J. Frisch, G. W. Trucks, H. B. Schlegel, G. E. Scuseria, 
 M. A. Robb, J. R. Cheeseman, G. Scalmani, V. Barone, 
 G. A. Petersson, H. Nakatsuji, X. Li, M. Caricato, A. V. Marenich, 
 J. Bloino, B. G. Janesko, R. Gomperts, B. Mennucci, H. P. Hratchian, 
 J. V. Ortiz, A. F. Izmaylov, J. L. Sonnenberg, D. Williams-Young, 
 F. Ding, F. Lipparini, F. Egidi, J. Goings, B. Peng, A. Petrone, 
 T. Henderson, D. Ranasinghe, V. G. Zakrzewski, J. Gao, N. Rega, 
 G. Zheng, W. Liang, M. Hada, M. Ehara, K. Toyota, R. Fukuda, 
 J. Hasegawa, M. Ishida, T. Nakajima, Y. Honda, O. Kitao, H. Nakai, 
 T. Vreven, K. Throssell, J. A. Montgomery, Jr., J. E. Peralta, 
 F. Ogliaro, M. J. Bearpark, J. J. Heyd, E. N. Brothers, K. N. Kudin, 
 V. N. Staroverov, T. A. Keith, R. Kobayashi, J. Normand, 
 K. Raghavachari, A. P. Rendell, J. C. Burant, S. S. Iyengar, 
 J. Tomasi, M. Cossi, J. M. Millam, M. Klene, C. Adamo, R. Cammi, 
 J. W. Ochterski, R. L. Martin, K. Morokuma, O. Farkas, 
 J. B. Foresman, and D. J. Fox, Gaussian, Inc., Wallingford CT, 2016.
 
 ******************************************
 Gaussian 16:  ES64L-G16RevA.03 25-Dec-2016
                 4-Aug-2022 
 ******************************************
 %chk=OdCC1dCC2OCC12.chk
 %NProcShared=20
 Will use up to   20 processors via shared memory.
 -----------------------------
 # opt freq b3lyp/6-31g(2df,p)
 -----------------------------
 1/18=20,19=15,26=3,38=1/1,3;
 2/9=110,12=2,17=6,18=5,40=1/2;
 3/5=1,6=6,7=104,11=2,25=1,30=1,71=1,74=-5/1,2,3;
 4//1;
 5/5=2,38=5/2;
 6/7=2,8=2,9=2,10=2,28=1/1;
 7//1,2,3,16;
 1/18=20,19=15,26=3/3(2);
 2/9=110/2;
 99//99;
 2/9=110/2;
 3/5=1,6=6,7=104,11=2,25=1,30=1,71=1,74=-5/1,2,3;
 4/5=5,16=3,69=1/1;
 5/5=2,38=5/2;
 7//1,2,3,16;
 1/18=20,19=15,26=3/3(-5);
 2/9=110/2;
 6/7=2,8=2,9=2,10=2,19=2,28=1/1;
 99/9=1/99;
 -------------------
 Title Card Required
 -------------------
 Symbolic Z-matrix:
 Charge =  0 Multiplicity = 1
 O                     0.97726  -0.11072   0.08125 
 C                     2.18438  -0.15307  -0.04278 
 C                     3.04663   0.90042  -0.63038 
 C                     4.21798   0.71548  -1.21227 
 C                     4.25319   2.13027  -1.77851 
 O                     4.86229   3.35957  -1.22454 
 C                     3.65003   3.7055   -0.60167 
 C                     3.27491   2.30662  -0.22535 
 H                     2.75849  -1.0292    0.31793 
 H                     4.65454  -0.21412  -1.59374 
 H                     5.23126   1.91018  -2.24125 
 H                     2.93699   4.25389  -1.23544 
 H                     3.84709   4.31941   0.28266 
 H                     2.22232   2.59341  -0.05852 
 

 GradGradGradGradGradGradGradGradGradGradGradGradGradGradGradGradGradGrad
 Berny optimization.
 Initialization pass.
                           ----------------------------
                           !    Initial Parameters    !
                           ! (Angstroms and Degrees)  !
 --------------------------                            --------------------------
 ! Name  Definition              Value          Derivative Info.                !
 --------------------------------------------------------------------------------
 ! R1    R(1,2)                  1.2142         estimate D2E/DX2                !
 ! R2    R(2,3)                  1.4828         estimate D2E/DX2                !
 ! R3    R(2,9)                  1.1078         estimate D2E/DX2                !
 ! R4    R(3,4)                  1.3209         estimate D2E/DX2                !
 ! R5    R(3,8)                  1.4811         estimate D2E/DX2                !
 ! R6    R(4,5)                  1.5243         estimate D2E/DX2                !
 ! R7    R(4,10)                 1.0956         estimate D2E/DX2                !
 ! R8    R(5,6)                  1.4795         estimate D2E/DX2                !
 ! R9    R(5,11)                 1.1042         estimate D2E/DX2                !
 ! R10   R(6,7)                  1.4061         estimate D2E/DX2                !
 ! R11   R(7,8)                  1.4964         estimate D2E/DX2                !
 ! R12   R(7,12)                 1.1004         estimate D2E/DX2                !
 ! R13   R(7,13)                 1.0944         estimate D2E/DX2                !
 ! R14   R(8,14)                 1.1036         estimate D2E/DX2                !
 ! A1    A(1,2,3)              126.4283         estimate D2E/DX2                !
 ! A2    A(1,2,9)              120.6318         estimate D2E/DX2                !
 ! A3    A(3,2,9)              112.9272         estimate D2E/DX2                !
 ! A4    A(2,3,4)              126.211          estimate D2E/DX2                !
 ! A5    A(2,3,8)              130.9828         estimate D2E/DX2                !
 ! A6    A(4,3,8)               96.7028         estimate D2E/DX2                !
 ! A7    A(3,4,5)               93.1055         estimate D2E/DX2                !
 ! A8    A(3,4,10)             128.7218         estimate D2E/DX2                !
 ! A9    A(5,4,10)             130.4664         estimate D2E/DX2                !
 ! A10   A(4,5,6)              129.9106         estimate D2E/DX2                !
 ! A11   A(4,5,11)              89.492          estimate D2E/DX2                !
 ! A12   A(6,5,11)              87.5849         estimate D2E/DX2                !
 ! A13   A(5,6,7)               90.879          estimate D2E/DX2                !
 ! A14   A(6,7,8)               95.5973         estimate D2E/DX2                !
 ! A15   A(6,7,12)             115.2222         estimate D2E/DX2                !
 ! A16   A(6,7,13)             109.9196         estimate D2E/DX2                !
 ! A17   A(8,7,12)             116.6342         estimate D2E/DX2                !
 ! A18   A(8,7,13)             111.4888         estimate D2E/DX2                !
 ! A19   A(12,7,13)            107.6088         estimate D2E/DX2                !
 ! A20   A(3,8,7)              149.0306         estimate D2E/DX2                !
 ! A21   A(3,8,14)              98.1091         estimate D2E/DX2                !
 ! A22   A(7,8,14)              91.9586         estimate D2E/DX2                !
 ! D1    D(1,2,3,4)           -153.4359         estimate D2E/DX2                !
 ! D2    D(1,2,3,8)             60.6986         estimate D2E/DX2                !
 ! D3    D(9,2,3,4)             27.8605         estimate D2E/DX2                !
 ! D4    D(9,2,3,8)           -118.005          estimate D2E/DX2                !
 ! D5    D(2,3,4,5)            168.0097         estimate D2E/DX2                !
 ! D6    D(2,3,4,10)            16.7782         estimate D2E/DX2                !
 ! D7    D(8,3,4,5)            -37.2373         estimate D2E/DX2                !
 ! D8    D(8,3,4,10)           171.5312         estimate D2E/DX2                !
 ! D9    D(2,3,8,7)           -153.3818         estimate D2E/DX2                !
 ! D10   D(2,3,8,14)           -45.6531         estimate D2E/DX2                !
 ! D11   D(4,3,8,7)             53.739          estimate D2E/DX2                !
 ! D12   D(4,3,8,14)           161.4676         estimate D2E/DX2                !
 ! D13   D(3,4,5,6)             93.671          estimate D2E/DX2                !
 ! D14   D(3,4,5,11)          -179.904          estimate D2E/DX2                !
 ! D15   D(10,4,5,6)          -115.903          estimate D2E/DX2                !
 ! D16   D(10,4,5,11)          -29.478          estimate D2E/DX2                !
 ! D17   D(4,5,6,7)            -92.5433         estimate D2E/DX2                !
 ! D18   D(11,5,6,7)          -179.8582         estimate D2E/DX2                !
 ! D19   D(5,6,7,8)             37.7098         estimate D2E/DX2                !
 ! D20   D(5,6,7,12)           -85.2516         estimate D2E/DX2                !
 ! D21   D(5,6,7,13)           152.9879         estimate D2E/DX2                !
 ! D22   D(6,7,8,3)            -53.3825         estimate D2E/DX2                !
 ! D23   D(6,7,8,14)          -162.7282         estimate D2E/DX2                !
 ! D24   D(12,7,8,3)            68.498          estimate D2E/DX2                !
 ! D25   D(12,7,8,14)          -40.8478         estimate D2E/DX2                !
 ! D26   D(13,7,8,3)          -167.3669         estimate D2E/DX2                !
 ! D27   D(13,7,8,14)           83.2873         estimate D2E/DX2                !
 --------------------------------------------------------------------------------
 Trust Radius=3.00D-01 FncErr=1.00D-07 GrdErr=1.00D-06 EigMax=2.50D+02 EigMin=1.00D-04
 Number of steps in this run=     73 maximum allowed number of steps=    100.
 GradGradGradGradGradGradGradGradGradGradGradGradGradGradGradGradGradGrad

                          Input orientation:                          
 ---------------------------------------------------------------------
 Center     Atomic      Atomic             Coordinates (Angstroms)
 Number     Number       Type             X           Y           Z
 ---------------------------------------------------------------------
      1          8           0        0.977260   -0.110720    0.081250
      2          6           0        2.184380   -0.153070   -0.042780
      3          6           0        3.046630    0.900420   -0.630380
      4          6           0        4.217980    0.715480   -1.212270
      5          6           0        4.253190    2.130270   -1.778510
      6          8           0        4.862290    3.359570   -1.224540
      7          6           0        3.650030    3.705500   -0.601670
      8          6           0        3.274910    2.306620   -0.225350
      9          1           0        2.758490   -1.029200    0.317930
     10          1           0        4.654540   -0.214120   -1.593740
     11          1           0        5.231260    1.910180   -2.241250
     12          1           0        2.936990    4.253890   -1.235440
     13          1           0        3.847090    4.319410    0.282660
     14          1           0        2.222320    2.593410   -0.058520
 ---------------------------------------------------------------------
                    Distance matrix (angstroms):
                    1          2          3          4          5
     1  O    0.000000
     2  C    1.214214   0.000000
     3  C    2.410625   1.482764   0.000000
     4  C    3.585815   2.501523   1.320931   0.000000
     5  C    4.383202   3.536435   2.070391   1.524303   0.000000
     6  O    5.370424   4.572352   3.114011   2.721488   1.479549
     7  C    4.708887   4.165219   2.869388   3.104129   2.056722
     8  C    3.349139   2.696787   1.481067   2.096454   1.844027
     9  H    2.018020   1.107844   2.169274   2.741447   4.075713
    10  H    4.042112   2.917344   2.180742   1.095564   2.385663
    11  H    5.251148   4.286461   2.896053   1.874258   1.104169
    12  H    4.962261   4.627111   3.409381   3.763219   2.556769
    13  H    5.282286   4.782635   3.628205   3.919271   3.034085
    14  H    2.980273   2.746787   1.967924   2.973284   2.701351
                    6          7          8          9         10
     6  O    0.000000
     7  C    1.406133   0.000000
     8  C    2.151014   1.496395   0.000000
     9  H    5.105535   4.904884   3.418997   0.000000
    10  H    3.598712   4.166133   3.182766   2.813155   0.000000
    11  H    1.808472   2.900290   2.836957   4.615620   2.294455
    12  H    2.122901   1.100374   2.219534   5.509615   4.800153
    13  H    2.055134   1.094421   2.153320   5.458381   4.972499
    14  H    2.985975   1.889474   1.103642   3.681371   4.019306
                   11         12         13         14
    11  H    0.000000
    12  H    3.430496   0.000000
    13  H    3.753723   1.771215   0.000000
    14  H    3.779528   2.157102   2.394861   0.000000
 Stoichiometry    C6H6O2
 Framework group  C1[X(C6H6O2)]
 Deg. of freedom    36
 Full point group                 C1      NOp   1
 Largest Abelian subgroup         C1      NOp   1
 Largest concise Abelian subgroup C1      NOp   1
                         Standard orientation:                         
 ---------------------------------------------------------------------
 Center     Atomic      Atomic             Coordinates (Angstroms)
 Number     Number       Type             X           Y           Z
 ---------------------------------------------------------------------
      1          8           0       -2.929307   -0.697382    0.287700
      2          6           0       -2.208107    0.141248   -0.213183
      3          6           0       -0.744835    0.276034   -0.015045
      4          6           0       -0.042199    1.389486   -0.121752
      5          6           0        1.195866    0.767038    0.513270
      6          8           0        2.363263    0.116595   -0.121687
      7          6           0        1.748899   -1.143354   -0.010810
      8          6           0        0.365601   -0.658171   -0.311277
      9          1           0       -2.620197    0.895259   -0.912445
     10          1           0       -0.396566    2.426156   -0.121454
     11          1           0        1.726845    1.728097    0.396583
     12          1           0        1.894370   -1.652717    0.953664
     13          1           0        2.119582   -1.809348   -0.796178
     14          1           0       -0.087030   -1.574838    0.104502
 ---------------------------------------------------------------------
 Rotational constants (GHZ):           5.7723326           1.3485168           1.1382055
 Standard basis: 6-31G(2df,p) (6D, 7F)
 There are   278 symmetry adapted cartesian basis functions of A   symmetry.
 There are   254 symmetry adapted basis functions of A   symmetry.
   254 basis functions,   394 primitive gaussians,   278 cartesian basis functions
    29 alpha electrons       29 beta electrons
       nuclear repulsion energy       343.9841092543 Hartrees.
 NAtoms=   14 NActive=   14 NUniq=   14 SFac= 1.00D+00 NAtFMM=   60 NAOKFM=F Big=F
 Integral buffers will be    131072 words long.
 Raffenetti 2 integral format.
 Two-electron integral symmetry is turned on.
 One-electron integrals computed using PRISM.
 PrsmSu:  requested number of processors reduced to:  13 ShMem   1 Linda.
 NBasis=   254 RedAO= T EigKep=  5.12D-04  NBF=   254
 NBsUse=   254 1.00D-06 EigRej= -1.00D+00 NBFU=   254
 ExpMin= 1.61D-01 ExpMax= 5.48D+03 ExpMxC= 8.25D+02 IAcc=3 IRadAn=         5 AccDes= 0.00D+00
 Harris functional with IExCor=  402 and IRadAn=       5 diagonalized for initial guess.
 HarFok:  IExCor=  402 AccDes= 0.00D+00 IRadAn=         5 IDoV= 1 UseB2=F ITyADJ=14
 ICtDFT=  3500011 ScaDFX=  1.000000  1.000000  1.000000  1.000000
 FoFCou: FMM=F IPFlag=           0 FMFlag=      100000 FMFlg1=           0
         NFxFlg=           0 DoJE=T BraDBF=F KetDBF=T FulRan=T
         wScrn=  0.000000 ICntrl=       500 IOpCl=  0 I1Cent=   200000004 NGrid=           0
         NMat0=    1 NMatS0=      1 NMatT0=    0 NMatD0=    1 NMtDS0=    0 NMtDT0=    0
 Petite list used in FoFCou.
 Requested convergence on RMS density matrix=1.00D-08 within 128 cycles.
 Requested convergence on MAX density matrix=1.00D-06.
 Requested convergence on             energy=1.00D-06.
 No special actions if energy rises.
 Integral accuracy reduced to 1.0D-05 until final iterations.
 Initial convergence to 1.0D-05 achieved.  Increase integral accuracy.
 SCF Done:  E(RB3LYP) =  -382.258409096     A.U. after   21 cycles
            NFock= 21  Conv=0.43D-08     -V/T= 2.0052

 **********************************************************************

            Population analysis using the SCF density.

 **********************************************************************

 Orbital symmetries:
       Occupied  (A) (A) (A) (A) (A) (A) (A) (A) (A) (A) (A) (A)
                 (A) (A) (A) (A) (A) (A) (A) (A) (A) (A) (A) (A)
                 (A) (A) (A) (A) (A)
       Virtual   (A) (A) (A) (A) (A) (A) (A) (A) (A) (A) (A) (A)
                 (A) (A) (A) (A) (A) (A) (A) (A) (A) (A) (A) (A)
                 (A) (A) (A) (A) (A) (A) (A) (A) (A) (A) (A) (A)
                 (A) (A) (A) (A) (A) (A) (A) (A) (A) (A) (A) (A)
                 (A) (A) (A) (A) (A) (A) (A) (A) (A) (A) (A) (A)
                 (A) (A) (A) (A) (A) (A) (A) (A) (A) (A) (A) (A)
                 (A) (A) (A) (A) (A) (A) (A) (A) (A) (A) (A) (A)
                 (A) (A) (A) (A) (A) (A) (A) (A) (A) (A) (A) (A)
                 (A) (A) (A) (A) (A) (A) (A) (A) (A) (A) (A) (A)
                 (A) (A) (A) (A) (A) (A) (A) (A) (A) (A) (A) (A)
                 (A) (A) (A) (A) (A) (A) (A) (A) (A) (A) (A) (A)
                 (A) (A) (A) (A) (A) (A) (A) (A) (A) (A) (A) (A)
                 (A) (A) (A) (A) (A) (A) (A) (A) (A) (A) (A) (A)
                 (A) (A) (A) (A) (A) (A) (A) (A) (A) (A) (A) (A)
                 (A) (A) (A) (A) (A) (A) (A) (A) (A) (A) (A) (A)
                 (A) (A) (A) (A) (A) (A) (A) (A) (A) (A) (A) (A)
                 (A) (A) (A) (A) (A) (A) (A) (A) (A) (A) (A) (A)
                 (A) (A) (A) (A) (A) (A) (A) (A) (A) (A) (A) (A)
                 (A) (A) (A) (A) (A) (A) (A) (A) (A)
 The electronic state is 1-A.
 Alpha  occ. eigenvalues --  -19.16273 -19.15143 -10.28332 -10.27393 -10.25520
 Alpha  occ. eigenvalues --  -10.23153 -10.22971 -10.20243  -1.06510  -1.05205
 Alpha  occ. eigenvalues --   -0.88133  -0.76276  -0.70277  -0.64184  -0.60451
 Alpha  occ. eigenvalues --   -0.53636  -0.52238  -0.50030  -0.48536  -0.46130
 Alpha  occ. eigenvalues --   -0.43232  -0.41938  -0.37811  -0.35876  -0.33429
 Alpha  occ. eigenvalues --   -0.29592  -0.27731  -0.24462  -0.18727
 Alpha virt. eigenvalues --   -0.13872  -0.06454   0.01096   0.03758   0.10981
 Alpha virt. eigenvalues --    0.11534   0.13489   0.14231   0.16438   0.17259
 Alpha virt. eigenvalues --    0.19192   0.21656   0.24679   0.26935   0.30426
 Alpha virt. eigenvalues --    0.31973   0.33671   0.39449   0.42344   0.44526
 Alpha virt. eigenvalues --    0.46569   0.47633   0.49309   0.50670   0.53339
 Alpha virt. eigenvalues --    0.54827   0.57003   0.57281   0.58648   0.62665
 Alpha virt. eigenvalues --    0.63285   0.65257   0.66254   0.68383   0.70610
 Alpha virt. eigenvalues --    0.71097   0.72803   0.73615   0.74829   0.76009
 Alpha virt. eigenvalues --    0.78092   0.80500   0.83086   0.84989   0.86233
 Alpha virt. eigenvalues --    0.89249   0.91332   0.92569   0.94816   0.95575
 Alpha virt. eigenvalues --    0.97256   0.98071   0.99943   1.01392   1.03112
 Alpha virt. eigenvalues --    1.06641   1.09477   1.09644   1.13787   1.15957
 Alpha virt. eigenvalues --    1.18803   1.21205   1.25637   1.28504   1.31019
 Alpha virt. eigenvalues --    1.34709   1.35382   1.37142   1.39241   1.40065
 Alpha virt. eigenvalues --    1.43183   1.47835   1.50652   1.51259   1.54699
 Alpha virt. eigenvalues --    1.55334   1.57473   1.58574   1.63930   1.65448
 Alpha virt. eigenvalues --    1.68526   1.70833   1.72690   1.76029   1.78741
 Alpha virt. eigenvalues --    1.79788   1.85072   1.87985   1.89659   1.93421
 Alpha virt. eigenvalues --    1.97848   2.08377   2.09140   2.17598   2.20212
 Alpha virt. eigenvalues --    2.25772   2.28741   2.31336   2.35715   2.36309
 Alpha virt. eigenvalues --    2.44926   2.45782   2.49887   2.53124   2.56932
 Alpha virt. eigenvalues --    2.62829   2.64034   2.66975   2.74513   2.75960
 Alpha virt. eigenvalues --    2.78247   2.81916   2.83008   2.85198   2.88466
 Alpha virt. eigenvalues --    2.90829   2.94254   2.95010   2.97220   3.02108
 Alpha virt. eigenvalues --    3.04736   3.05942   3.06996   3.12860   3.13180
 Alpha virt. eigenvalues --    3.15560   3.18573   3.21829   3.22637   3.26072
 Alpha virt. eigenvalues --    3.27126   3.29604   3.33191   3.36033   3.40603
 Alpha virt. eigenvalues --    3.41757   3.43020   3.47328   3.48625   3.53243
 Alpha virt. eigenvalues --    3.58063   3.61091   3.64234   3.65039   3.70051
 Alpha virt. eigenvalues --    3.71467   3.75113   3.76126   3.81953   3.88868
 Alpha virt. eigenvalues --    3.93650   3.97501   4.02767   4.08680   4.10950
 Alpha virt. eigenvalues --    4.17807   4.20919   4.22445   4.27229   4.27537
 Alpha virt. eigenvalues --    4.29287   4.33866   4.36404   4.38095   4.41106
 Alpha virt. eigenvalues --    4.43948   4.46224   4.47635   4.50468   4.52377
 Alpha virt. eigenvalues --    4.53589   4.54353   4.58617   4.61229   4.63730
 Alpha virt. eigenvalues --    4.65090   4.68101   4.71908   4.74211   4.78595
 Alpha virt. eigenvalues --    4.79066   4.81867   4.85364   4.87536   4.89526
 Alpha virt. eigenvalues --    4.93408   4.94487   4.98583   5.02957   5.04990
 Alpha virt. eigenvalues --    5.06585   5.08265   5.13314   5.14456   5.17716
 Alpha virt. eigenvalues --    5.18891   5.31026   5.35873   5.39962   5.41982
 Alpha virt. eigenvalues --    5.46512   5.50879   5.56531   5.60388   5.63623
 Alpha virt. eigenvalues --    5.76442   5.77583   5.85904   5.91362   5.99956
 Alpha virt. eigenvalues --    6.02341   6.10937   6.12880   6.30479   6.41130
 Alpha virt. eigenvalues --    6.79719   6.97009  10.18615  10.85387  11.12189
 Alpha virt. eigenvalues --   11.40857  11.68787  11.97260  12.94709  13.37144
          Condensed to atoms (all electrons):
               1          2          3          4          5          6
     1  O    7.642229   0.723599  -0.062292   0.003160  -0.000175  -0.000000
     2  C    0.723599   4.699703   0.229954  -0.032024   0.006600  -0.000251
     3  C   -0.062292   0.229954   4.957891   0.616786   0.013812  -0.010547
     4  C    0.003160  -0.032024   0.616786   5.179333   0.218560  -0.010051
     5  C   -0.000175   0.006600   0.013812   0.218560   5.440847   0.300628
     6  O   -0.000000  -0.000251  -0.010547  -0.010051   0.300628   7.795294
     7  C    0.000059   0.001138  -0.021574  -0.012665  -0.158491   0.319527
     8  C   -0.001475  -0.057082   0.350950  -0.060890   0.020505  -0.110877
     9  H   -0.057397   0.372674  -0.125353   0.006904  -0.000416   0.000006
    10  H    0.000025  -0.004817  -0.054816   0.347051  -0.047678   0.000685
    11  H    0.000005  -0.000629  -0.012387  -0.087747   0.256988  -0.034734
    12  H    0.000005  -0.000173  -0.001894   0.000323  -0.030244  -0.018451
    13  H   -0.000001   0.000059   0.001722  -0.000027   0.018595  -0.013405
    14  H    0.004109   0.009303  -0.060278  -0.004831   0.023550   0.007413
               7          8          9         10         11         12
     1  O    0.000059  -0.001475  -0.057397   0.000025   0.000005   0.000005
     2  C    0.001138  -0.057082   0.372674  -0.004817  -0.000629  -0.000173
     3  C   -0.021574   0.350950  -0.125353  -0.054816  -0.012387  -0.001894
     4  C   -0.012665  -0.060890   0.006904   0.347051  -0.087747   0.000323
     5  C   -0.158491   0.020505  -0.000416  -0.047678   0.256988  -0.030244
     6  O    0.319527  -0.110877   0.000006   0.000685  -0.034734  -0.018451
     7  C    4.882675   0.423922  -0.000033   0.000412   0.022922   0.399591
     8  C    0.423922   5.341444   0.006408   0.015847   0.019629  -0.019633
     9  H   -0.000033   0.006408   0.692366   0.004569   0.000038   0.000003
    10  H    0.000412   0.015847   0.004569   0.618132   0.010066   0.000023
    11  H    0.022922   0.019629   0.000038   0.010066   0.704484   0.001800
    12  H    0.399591  -0.019633   0.000003   0.000023   0.001800   0.574550
    13  H    0.326369  -0.036569  -0.000000   0.000010  -0.001169  -0.057612
    14  H   -0.054420   0.212524   0.000447  -0.000943  -0.001398  -0.014342
              13         14
     1  O   -0.000001   0.004109
     2  C    0.000059   0.009303
     3  C    0.001722  -0.060278
     4  C   -0.000027  -0.004831
     5  C    0.018595   0.023550
     6  O   -0.013405   0.007413
     7  C    0.326369  -0.054420
     8  C   -0.036569   0.212524
     9  H   -0.000000   0.000447
    10  H    0.000010  -0.000943
    11  H   -0.001169  -0.001398
    12  H   -0.057612  -0.014342
    13  H    0.636227   0.007575
    14  H    0.007575   0.780712
 Mulliken charges:
               1
     1  O   -0.251850
     2  C    0.051948
     3  C    0.178026
     4  C   -0.163882
     5  C   -0.063081
     6  O   -0.225237
     7  C   -0.129430
     8  C   -0.104703
     9  H    0.099784
    10  H    0.111434
    11  H    0.122131
    12  H    0.166056
    13  H    0.118227
    14  H    0.090578
 Sum of Mulliken charges =   0.00000
 Mulliken charges with hydrogens summed into heavy atoms:
               1
     1  O   -0.251850
     2  C    0.151731
     3  C    0.178026
     4  C   -0.052448
     5  C    0.059050
     6  O   -0.225237
     7  C    0.154853
     8  C   -0.014124
 Electronic spatial extent (au):  <R**2>=            985.4969
 Charge=              0.0000 electrons
 Dipole moment (field-independent basis, Debye):
    X=              0.9375    Y=              0.5512    Z=             -0.7345  Tot=              1.3123
 Quadrupole moment (field-independent basis, Debye-Ang):
   XX=            -56.1609   YY=            -41.4909   ZZ=            -46.7370
   XY=             -7.3756   XZ=              2.7683   YZ=             -0.4863
 Traceless Quadrupole moment (field-independent basis, Debye-Ang):
   XX=             -8.0313   YY=              6.6387   ZZ=              1.3926
   XY=             -7.3756   XZ=              2.7683   YZ=             -0.4863
 Octapole moment (field-independent basis, Debye-Ang**2):
  XXX=             12.2789  YYY=              1.0841  ZZZ=             -0.5725  XYY=              6.8800
  XXY=              4.7307  XXZ=             -6.0974  XZZ=             -2.0185  YZZ=             -3.6363
  YYZ=             -0.5452  XYZ=             -2.4075
 Hexadecapole moment (field-independent basis, Debye-Ang**3):
 XXXX=          -1006.7245 YYYY=           -254.7484 ZZZZ=            -73.0785 XXXY=            -46.0442
 XXXZ=             15.2516 YYYX=             -0.8299 YYYZ=             -4.5559 ZZZX=             -5.3204
 ZZZY=             -3.8764 XXYY=           -184.1006 XXZZ=           -155.3889 YYZZ=            -58.2035
 XXYZ=             -0.5286 YYXZ=              0.1931 ZZXY=             -2.7314
 N-N= 3.439841092543D+02 E-N=-1.580706270385D+03  KE= 3.802744039029D+02
 PrsmSu:  requested number of processors reduced to:  13 ShMem   1 Linda.
 Calling FoFJK, ICntrl=      2127 FMM=F ISym2X=0 I1Cent= 0 IOpClX= 0 NMat=1 NMatS=1 NMatT=0.
 ***** Axes restored to original set *****
 -------------------------------------------------------------------
 Center     Atomic                   Forces (Hartrees/Bohr)
 Number     Number              X              Y              Z
 -------------------------------------------------------------------
      1        8           0.009462803    0.003319014    0.000401949
      2        6          -0.017345783    0.007104533    0.006121353
      3        6           0.038936549   -0.056157710    0.055632825
      4        6          -0.005584642   -0.039276365   -0.001089400
      5        6           0.117702738    0.011027549   -0.009522115
      6        8          -0.006922839    0.010258312   -0.018592116
      7        6           0.065160156   -0.002387727    0.051124805
      8        6          -0.170301530    0.056648658   -0.007302907
      9        1           0.001138727   -0.005121452   -0.006715690
     10        1           0.005672179    0.009440687   -0.000464004
     11        1          -0.015429595    0.006926624   -0.077993076
     12        1           0.002115834   -0.011398408   -0.001437541
     13        1          -0.001249245    0.006412333    0.004277737
     14        1          -0.023355353    0.003203953    0.005558180
 -------------------------------------------------------------------
 Cartesian Forces:  Max     0.170301530 RMS     0.041078276

 GradGradGradGradGradGradGradGradGradGradGradGradGradGradGradGradGradGrad
 Berny optimization.
 FormGI is forming the generalized inverse of G from B-inverse, IUseBI=4.
 Internal  Forces:  Max     0.076465875 RMS     0.024061944
 Search for a local minimum.
 Step number   1 out of a maximum of   73
 All quantities printed in internal units (Hartrees-Bohrs-Radians)
 Mixed Optimization -- RFO/linear search
 Second derivative matrix not updated -- first step.
 ITU=  0
     Eigenvalues ---    0.00994   0.00996   0.00997   0.01366   0.01728
     Eigenvalues ---    0.01881   0.02091   0.02621   0.05361   0.06827
     Eigenvalues ---    0.07323   0.08335   0.10579   0.11252   0.13183
     Eigenvalues ---    0.14309   0.14898   0.16000   0.20025   0.21405
     Eigenvalues ---    0.22001   0.23826   0.28711   0.31560   0.32829
     Eigenvalues ---    0.33025   0.33225   0.33283   0.33641   0.34177
     Eigenvalues ---    0.34255   0.34307   0.34452   0.43398   0.59878
     Eigenvalues ---    0.97993
 RFO step:  Lambda=-1.40717590D-01 EMin= 9.93942645D-03
 Linear search not attempted -- first point.
 Maximum step size (   0.300) exceeded in Quadratic search.
    -- Step size scaled by   0.688
 Iteration  1 RMS(Cart)=  0.08081236 RMS(Int)=  0.00716517
 Iteration  2 RMS(Cart)=  0.00616604 RMS(Int)=  0.00111556
 Iteration  3 RMS(Cart)=  0.00002995 RMS(Int)=  0.00111523
 Iteration  4 RMS(Cart)=  0.00000003 RMS(Int)=  0.00111523
 Variable       Old X    -DE/DX   Delta X   Delta X   Delta X     New X
                                 (Linear)    (Quad)   (Total)
    R1        2.29453  -0.00925   0.00000  -0.00568  -0.00568   2.28885
    R2        2.80202   0.00008   0.00000   0.00011   0.00011   2.80213
    R3        2.09352   0.00245   0.00000   0.00360   0.00360   2.09712
    R4        2.49620   0.07647   0.00000   0.07062   0.07042   2.56662
    R5        2.79881   0.03035   0.00000   0.04000   0.03979   2.83860
    R6        2.88051   0.05083   0.00000   0.08433   0.08451   2.96503
    R7        2.07032  -0.00559   0.00000  -0.00797  -0.00797   2.06235
    R8        2.79594   0.00883   0.00000   0.01516   0.01531   2.81125
    R9        2.08658   0.01764   0.00000   0.02566   0.02566   2.11223
   R10        2.65721   0.05558   0.00000   0.06397   0.06419   2.72139
   R11        2.82778   0.01436   0.00000   0.01645   0.01630   2.84407
   R12        2.07940  -0.00622   0.00000  -0.00897  -0.00897   2.07043
   R13        2.06816   0.00683   0.00000   0.00971   0.00971   2.07787
   R14        2.08558   0.02395   0.00000   0.03479   0.03479   2.12038
    A1        2.20659  -0.00368   0.00000  -0.00695  -0.00703   2.19956
    A2        2.10542   0.00262   0.00000   0.00538   0.00529   2.11072
    A3        1.97095   0.00116   0.00000   0.00204   0.00196   1.97291
    A4        2.20280   0.01011   0.00000   0.01646   0.01609   2.21889
    A5        2.28608  -0.01433   0.00000  -0.02955  -0.02990   2.25618
    A6        1.68778   0.00954   0.00000   0.03716   0.03691   1.72469
    A7        1.62500   0.01501   0.00000   0.05377   0.05424   1.67923
    A8        2.24662  -0.00242   0.00000  -0.01629  -0.01664   2.22998
    A9        2.27707  -0.01385   0.00000  -0.04163  -0.04103   2.23604
   A10        2.26737   0.00199   0.00000  -0.00431  -0.00904   2.25832
   A11        1.56193   0.05350   0.00000   0.17065   0.17064   1.73257
   A12        1.52864   0.02670   0.00000   0.11782   0.11740   1.64604
   A13        1.58614   0.00654   0.00000   0.03127   0.03312   1.61925
   A14        1.66849   0.03131   0.00000   0.06970   0.06975   1.73824
   A15        2.01101  -0.02599   0.00000  -0.06727  -0.06651   1.94450
   A16        1.91846   0.00915   0.00000   0.03633   0.03470   1.95316
   A17        2.03565  -0.01329   0.00000  -0.04111  -0.04202   1.99363
   A18        1.94585  -0.00411   0.00000   0.00271   0.00200   1.94785
   A19        1.87813   0.00502   0.00000   0.00699   0.00717   1.88530
   A20        2.60108  -0.01878   0.00000  -0.03132  -0.03391   2.56717
   A21        1.71233   0.00580   0.00000   0.02433   0.02569   1.73802
   A22        1.60498   0.01380   0.00000   0.04171   0.04316   1.64814
    D1       -2.67796   0.00604   0.00000   0.02567   0.02577  -2.65219
    D2        1.05939  -0.01119   0.00000  -0.04914  -0.04924   1.01015
    D3        0.48626   0.00080   0.00000   0.00171   0.00181   0.48807
    D4       -2.05958  -0.01643   0.00000  -0.07310  -0.07320  -2.13277
    D5        2.93232  -0.00648   0.00000  -0.02891  -0.02821   2.90411
    D6        0.29284  -0.00105   0.00000  -0.01370  -0.01433   0.27851
    D7       -0.64991  -0.00090   0.00000   0.00896   0.01203  -0.63788
    D8        2.99378   0.00454   0.00000   0.02418   0.02592   3.01970
    D9       -2.67702  -0.01948   0.00000  -0.08622  -0.08591  -2.76293
   D10       -0.79680   0.00654   0.00000   0.02199   0.02166  -0.77514
   D11        0.93792  -0.03571   0.00000  -0.14667  -0.14622   0.79170
   D12        2.81814  -0.00970   0.00000  -0.03846  -0.03865   2.77950
   D13        1.63487  -0.03296   0.00000  -0.10942  -0.10937   1.52550
   D14       -3.13992   0.04664   0.00000   0.18772   0.18776  -2.95216
   D15       -2.02289  -0.03297   0.00000  -0.11240  -0.11188  -2.13477
   D16       -0.51449   0.04663   0.00000   0.18474   0.18525  -0.32924
   D17       -1.61518   0.04375   0.00000   0.12728   0.12670  -1.48849
   D18       -3.13912  -0.04838   0.00000  -0.19486  -0.19451   2.94956
   D19        0.65816   0.00184   0.00000  -0.00397  -0.00804   0.65012
   D20       -1.48792   0.00896   0.00000   0.02952   0.02822  -1.45970
   D21        2.67014   0.01388   0.00000   0.04032   0.04056   2.71071
   D22       -0.93170   0.03734   0.00000   0.14612   0.14592  -0.78578
   D23       -2.84014   0.01265   0.00000   0.04178   0.04241  -2.79774
   D24        1.19552   0.02095   0.00000   0.09341   0.09250   1.28802
   D25       -0.71293  -0.00375   0.00000  -0.01093  -0.01101  -0.72394
   D26       -2.92110   0.01347   0.00000   0.07192   0.07078  -2.85033
   D27        1.45364  -0.01122   0.00000  -0.03242  -0.03274   1.42090
         Item               Value     Threshold  Converged?
 Maximum Force            0.076466     0.000450     NO 
 RMS     Force            0.024062     0.000300     NO 
 Maximum Displacement     0.453112     0.001800     NO 
 RMS     Displacement     0.078717     0.001200     NO 
 Predicted change in Energy=-8.575896D-02
 GradGradGradGradGradGradGradGradGradGradGradGradGradGradGradGradGradGrad

                          Input orientation:                          
 ---------------------------------------------------------------------
 Center     Atomic      Atomic             Coordinates (Angstroms)
 Number     Number       Type             X           Y           Z
 ---------------------------------------------------------------------
      1          8           0        0.956445   -0.097475    0.071230
      2          6           0        2.162553   -0.161445   -0.019522
      3          6           0        3.051024    0.881660   -0.586370
      4          6           0        4.256693    0.695781   -1.183456
      5          6           0        4.361381    2.132396   -1.805565
      6          8           0        4.905980    3.381917   -1.209572
      7          6           0        3.658681    3.700792   -0.564243
      8          6           0        3.217570    2.316114   -0.172871
      9          1           0        2.714615   -1.056650    0.334565
     10          1           0        4.676625   -0.236134   -1.565856
     11          1           0        5.237508    1.972680   -2.481026
     12          1           0        2.974095    4.214134   -1.248505
     13          1           0        3.804718    4.343128    0.316160
     14          1           0        2.139472    2.600742   -0.047579
 ---------------------------------------------------------------------
                    Distance matrix (angstroms):
                    1          2          3          4          5
     1  O    0.000000
     2  C    1.211209   0.000000
     3  C    2.403832   1.482823   0.000000
     4  C    3.618719   2.544602   1.358197   0.000000
     5  C    4.481995   3.645065   2.183531   1.569026   0.000000
     6  O    5.417145   4.636596   3.174984   2.763618   1.487648
     7  C    4.704544   4.177558   2.883962   3.125881   2.120031
     8  C    3.316277   2.697198   1.502124   2.174060   2.001935
     9  H    2.020030   1.109749   2.172174   2.784494   4.178757
    10  H    4.066819   2.952504   2.202597   1.091347   2.401411
    11  H    5.396949   4.479826   3.092047   2.067887   1.117746
    12  H    4.939898   4.616783   3.398488   3.745410   2.562911
    13  H    5.281251   4.806304   3.655732   3.969417   3.114310
    14  H    2.948567   2.762425   2.019026   3.066222   2.871714
                    6          7          8          9         10
     6  O    0.000000
     7  C    1.440099   0.000000
     8  C    2.249758   1.505019   0.000000
     9  H    5.185298   4.932785   3.447607   0.000000
    10  H    3.642778   4.187937   3.253186   2.852075   0.000000
    11  H    1.926773   3.025413   3.086369   4.844521   2.455807
    12  H    2.103873   1.095625   2.195165   5.509502   4.775375
    13  H    2.112951   1.099560   2.166259   5.508745   5.027111
    14  H    3.100650   1.945519   1.122055   3.722007   4.097581
                   11         12         13         14
    11  H    0.000000
    12  H    3.415591   0.000000
    13  H    3.936516   1.776162   0.000000
    14  H    3.989230   2.177580   2.437470   0.000000
 Stoichiometry    C6H6O2
 Framework group  C1[X(C6H6O2)]
 Deg. of freedom    36
 Full point group                 C1      NOp   1
 Largest Abelian subgroup         C1      NOp   1
 Largest concise Abelian subgroup C1      NOp   1
                         Standard orientation:                         
 ---------------------------------------------------------------------
 Center     Atomic      Atomic             Coordinates (Angstroms)
 Number     Number       Type             X           Y           Z
 ---------------------------------------------------------------------
      1          8           0       -2.943371   -0.668829    0.319326
      2          6           0       -2.233482    0.154351   -0.214957
      3          6           0       -0.766066    0.282625   -0.044660
      4          6           0       -0.023020    1.413660   -0.160179
      5          6           0        1.276305    0.831287    0.498939
      6          8           0        2.401845    0.088278   -0.128912
      7          6           0        1.721611   -1.176126   -0.017325
      8          6           0        0.313264   -0.729425   -0.303852
      9          1           0       -2.658345    0.911567   -0.906085
     10          1           0       -0.373981    2.447034   -0.158853
     11          1           0        1.857443    1.778523    0.618854
     12          1           0        1.859790   -1.618396    0.975498
     13          1           0        2.076582   -1.900326   -0.764695
     14          1           0       -0.160958   -1.632236    0.164177
 ---------------------------------------------------------------------
 Rotational constants (GHZ):           5.4747975           1.3215014           1.1096663
 Standard basis: 6-31G(2df,p) (6D, 7F)
 There are   278 symmetry adapted cartesian basis functions of A   symmetry.
 There are   254 symmetry adapted basis functions of A   symmetry.
   254 basis functions,   394 primitive gaussians,   278 cartesian basis functions
    29 alpha electrons       29 beta electrons
       nuclear repulsion energy       338.0685421901 Hartrees.
 NAtoms=   14 NActive=   14 NUniq=   14 SFac= 1.00D+00 NAtFMM=   60 NAOKFM=F Big=F
 Integral buffers will be    131072 words long.
 Raffenetti 2 integral format.
 Two-electron integral symmetry is turned on.
 One-electron integrals computed using PRISM.
 PrsmSu:  requested number of processors reduced to:  13 ShMem   1 Linda.
 NBasis=   254 RedAO= T EigKep=  7.24D-04  NBF=   254
 NBsUse=   254 1.00D-06 EigRej= -1.00D+00 NBFU=   254
 Initial guess from the checkpoint file:  "OdCC1dCC2OCC12.chk"
 B after Tr=     0.000000    0.000000   -0.000000
         Rot=    0.999939    0.008879   -0.001898    0.006210 Ang=   1.26 deg.
 ExpMin= 1.61D-01 ExpMax= 5.48D+03 ExpMxC= 8.25D+02 IAcc=2 IRadAn=         4 AccDes= 0.00D+00
 Harris functional with IExCor=  402 and IRadAn=       4 diagonalized for initial guess.
 HarFok:  IExCor=  402 AccDes= 0.00D+00 IRadAn=         4 IDoV= 1 UseB2=F ITyADJ=14
 ICtDFT=  3500011 ScaDFX=  1.000000  1.000000  1.000000  1.000000
 FoFCou: FMM=F IPFlag=           0 FMFlag=      100000 FMFlg1=           0
         NFxFlg=           0 DoJE=T BraDBF=F KetDBF=T FulRan=T
         wScrn=  0.000000 ICntrl=       500 IOpCl=  0 I1Cent=   200000004 NGrid=           0
         NMat0=    1 NMatS0=      1 NMatT0=    0 NMatD0=    1 NMtDS0=    0 NMtDT0=    0
 Petite list used in FoFCou.
 Requested convergence on RMS density matrix=1.00D-08 within 128 cycles.
 Requested convergence on MAX density matrix=1.00D-06.
 Requested convergence on             energy=1.00D-06.
 No special actions if energy rises.
 Integral accuracy reduced to 1.0D-05 until final iterations.
 EnCoef did     2 forward-backward iterations
 Initial convergence to 1.0D-05 achieved.  Increase integral accuracy.
 SCF Done:  E(RB3LYP) =  -382.337175677     A.U. after   16 cycles
            NFock= 16  Conv=0.86D-08     -V/T= 2.0068
 PrsmSu:  requested number of processors reduced to:  13 ShMem   1 Linda.
 Calling FoFJK, ICntrl=      2127 FMM=F ISym2X=0 I1Cent= 0 IOpClX= 0 NMat=1 NMatS=1 NMatT=0.
 ***** Axes restored to original set *****
 -------------------------------------------------------------------
 Center     Atomic                   Forces (Hartrees/Bohr)
 Number     Number              X              Y              Z
 -------------------------------------------------------------------
      1        8           0.004971570    0.004237345    0.001050082
      2        6          -0.006033084    0.004862241    0.003760350
      3        6           0.074997637   -0.025494983    0.031835943
      4        6          -0.036180648   -0.007594162   -0.000675152
      5        6           0.106488873    0.009722063   -0.003049928
      6        8          -0.029137441   -0.013793855   -0.011830694
      7        6           0.065275551   -0.020690740    0.031407552
      8        6          -0.157891137    0.045825633   -0.022500913
      9        1           0.000335613   -0.003823720   -0.006053830
     10        1           0.007949405    0.006599363    0.001335996
     11        1          -0.030115073    0.006225581   -0.037325760
     12        1           0.000672263   -0.007044708    0.000570614
     13        1           0.002946455    0.002139306    0.000175354
     14        1          -0.004279984   -0.001169364    0.011300385
 -------------------------------------------------------------------
 Cartesian Forces:  Max     0.157891137 RMS     0.036941853

 GradGradGradGradGradGradGradGradGradGradGradGradGradGradGradGradGradGrad
 Berny optimization.
 Using GEDIIS/GDIIS optimizer.
 FormGI is forming the generalized inverse of G from B-inverse, IUseBI=4.
 Internal  Forces:  Max     0.032915443 RMS     0.014888019
 Search for a local minimum.
 Step number   2 out of a maximum of   73
 All quantities printed in internal units (Hartrees-Bohrs-Radians)
 Mixed Optimization -- RFO/linear search
 Update second derivatives using D2CorX and points    1    2
 DE= -7.88D-02 DEPred=-8.58D-02 R= 9.18D-01
 TightC=F SS=  1.41D+00  RLast= 5.63D-01 DXNew= 5.0454D-01 1.6899D+00
 Trust test= 9.18D-01 RLast= 5.63D-01 DXMaxT set to 5.05D-01
 ITU=  1  0
 Use linear search instead of GDIIS.
     Eigenvalues ---    0.00991   0.00994   0.01043   0.01438   0.01624
     Eigenvalues ---    0.01921   0.02113   0.02723   0.05960   0.06834
     Eigenvalues ---    0.07547   0.09212   0.10785   0.11500   0.13350
     Eigenvalues ---    0.13877   0.14718   0.16000   0.20311   0.21081
     Eigenvalues ---    0.22018   0.23334   0.29636   0.31192   0.32822
     Eigenvalues ---    0.32941   0.33243   0.33626   0.33734   0.34166
     Eigenvalues ---    0.34250   0.34305   0.38939   0.44844   0.63308
     Eigenvalues ---    0.97921
 RFO step:  Lambda=-6.85709433D-02 EMin= 9.91233818D-03
 Quartic linear search produced a step of  1.49350.
 Iteration  1 RMS(Cart)=  0.12485937 RMS(Int)=  0.07387338
 Iteration  2 RMS(Cart)=  0.06082944 RMS(Int)=  0.01641145
 Iteration  3 RMS(Cart)=  0.00947192 RMS(Int)=  0.01391917
 Iteration  4 RMS(Cart)=  0.00041432 RMS(Int)=  0.01391690
 Iteration  5 RMS(Cart)=  0.00000512 RMS(Int)=  0.01391690
 Iteration  6 RMS(Cart)=  0.00000025 RMS(Int)=  0.01391690
 Variable       Old X    -DE/DX   Delta X   Delta X   Delta X     New X
                                 (Linear)    (Quad)   (Total)
    R1        2.28885  -0.00465  -0.00848   0.00026  -0.00822   2.28063
    R2        2.80213  -0.00375   0.00017  -0.01971  -0.01954   2.78259
    R3        2.09712   0.00132   0.00538   0.00013   0.00551   2.10263
    R4        2.56662   0.01934   0.10518  -0.06373   0.04182   2.60844
    R5        2.83860   0.00863   0.05943  -0.03518   0.01843   2.85703
    R6        2.96503   0.01261   0.12622  -0.08374   0.04615   3.01118
    R7        2.06235  -0.00304  -0.01190  -0.00051  -0.01241   2.04993
    R8        2.81125  -0.02062   0.02286  -0.13369  -0.10415   2.70710
    R9        2.11223  -0.00194   0.03832  -0.05991  -0.02159   2.09064
   R10        2.72139   0.01993   0.09586  -0.03824   0.05777   2.77916
   R11        2.84407  -0.00024   0.02434  -0.04045  -0.02102   2.82306
   R12        2.07043  -0.00408  -0.01340  -0.00419  -0.01759   2.05284
   R13        2.07787   0.00178   0.01450  -0.00943   0.00507   2.08294
   R14        2.12038   0.00508   0.05196  -0.04021   0.01176   2.13214
    A1        2.19956  -0.00507  -0.01051  -0.02286  -0.03402   2.16554
    A2        2.11072   0.00292   0.00791   0.01139   0.01864   2.12936
    A3        1.97291   0.00214   0.00293   0.01144   0.01371   1.98662
    A4        2.21889   0.00177   0.02403  -0.03279  -0.01509   2.20380
    A5        2.25618  -0.01605  -0.04466  -0.05931  -0.10196   2.15422
    A6        1.72469   0.01675   0.05512   0.10063   0.15654   1.88123
    A7        1.67923   0.01123   0.08100   0.04095   0.13422   1.81346
    A8        2.22998   0.00140  -0.02485   0.02703  -0.00806   2.22192
    A9        2.23604  -0.01280  -0.06128  -0.04417  -0.10001   2.13603
   A10        2.25832  -0.00253  -0.01351  -0.06826  -0.14048   2.11785
   A11        1.73257   0.03046   0.25485   0.03561   0.28819   2.02076
   A12        1.64604   0.01901   0.17533   0.07282   0.24095   1.88699
   A13        1.61925   0.00859   0.04946   0.05070   0.12550   1.74476
   A14        1.73824   0.02242   0.10418   0.06189   0.16749   1.90573
   A15        1.94450  -0.01650  -0.09933  -0.01843  -0.11105   1.83345
   A16        1.95316   0.00215   0.05183  -0.03837   0.00234   1.95550
   A17        1.99363  -0.00582  -0.06276  -0.00451  -0.07805   1.91558
   A18        1.94785  -0.00595   0.00298  -0.01167  -0.00327   1.94457
   A19        1.88530   0.00406   0.01071   0.01069   0.02037   1.90566
   A20        2.56717  -0.03292  -0.05064  -0.15767  -0.21933   2.34783
   A21        1.73802   0.01110   0.03837   0.09952   0.16209   1.90011
   A22        1.64814   0.01731   0.06446   0.11888   0.20414   1.85228
    D1       -2.65219   0.00300   0.03848  -0.01372   0.02661  -2.62558
    D2        1.01015  -0.00884  -0.07354  -0.06558  -0.14100   0.86915
    D3        0.48807  -0.00087   0.00270  -0.03783  -0.03325   0.45482
    D4       -2.13277  -0.01271  -0.10932  -0.08969  -0.20086  -2.33363
    D5        2.90411  -0.00689  -0.04213  -0.03500  -0.05612   2.84799
    D6        0.27851  -0.00293  -0.02140  -0.06044  -0.08210   0.19641
    D7       -0.63788  -0.00481   0.01797  -0.02387   0.03631  -0.60157
    D8        3.01970  -0.00085   0.03871  -0.04930   0.01033   3.03003
    D9       -2.76293  -0.01930  -0.12831  -0.18699  -0.29969  -3.06262
   D10       -0.77514   0.00690   0.03235   0.09354   0.12807  -0.64707
   D11        0.79170  -0.02779  -0.21838  -0.20889  -0.41553   0.37617
   D12        2.77950  -0.00159  -0.05772   0.07164   0.01222   2.79172
   D13        1.52550  -0.02309  -0.16334  -0.07195  -0.22473   1.30077
   D14       -2.95216   0.02845   0.28041   0.03254   0.31387  -2.63829
   D15       -2.13477  -0.02073  -0.16709  -0.01462  -0.16532  -2.30009
   D16       -0.32924   0.03081   0.27667   0.08986   0.37327   0.04403
   D17       -1.48849   0.02689   0.18923   0.03411   0.20994  -1.27855
   D18        2.94956  -0.02947  -0.29050  -0.05581  -0.34151   2.60805
   D19        0.65012   0.00749  -0.01201   0.07022   0.02020   0.67032
   D20       -1.45970   0.00884   0.04214   0.04886   0.07653  -1.38317
   D21        2.71071   0.01376   0.06058   0.07498   0.12241   2.83311
   D22       -0.78578   0.02901   0.21793   0.18555   0.39526  -0.39052
   D23       -2.79774   0.00331   0.06334  -0.09369  -0.02155  -2.81929
   D24        1.28802   0.02055   0.13815   0.19932   0.32251   1.61053
   D25       -0.72394  -0.00515  -0.01644  -0.07992  -0.09430  -0.81823
   D26       -2.85033   0.01683   0.10570   0.20091   0.29058  -2.55975
   D27        1.42090  -0.00888  -0.04889  -0.07833  -0.12623   1.29467
         Item               Value     Threshold  Converged?
 Maximum Force            0.032915     0.000450     NO 
 RMS     Force            0.014888     0.000300     NO 
 Maximum Displacement     0.603687     0.001800     NO 
 RMS     Displacement     0.143532     0.001200     NO 
 Predicted change in Energy=-9.681103D-02
 GradGradGradGradGradGradGradGradGradGradGradGradGradGradGradGradGradGrad

                          Input orientation:                          
 ---------------------------------------------------------------------
 Center     Atomic      Atomic             Coordinates (Angstroms)
 Number     Number       Type             X           Y           Z
 ---------------------------------------------------------------------
      1          8           0        0.984508   -0.049957    0.054999
      2          6           0        2.186886   -0.137900   -0.000334
      3          6           0        3.067857    0.917236   -0.528338
      4          6           0        4.289855    0.729347   -1.142114
      5          6           0        4.561759    2.112435   -1.885219
      6          8           0        4.950994    3.284453   -1.159257
      7          6           0        3.671815    3.622771   -0.517297
      8          6           0        2.984760    2.364218   -0.098097
      9          1           0        2.724382   -1.066570    0.294099
     10          1           0        4.716895   -0.207515   -1.483683
     11          1           0        5.180426    2.053417   -2.800484
     12          1           0        3.090876    4.118385   -1.289925
     13          1           0        3.805129    4.311027    0.333274
     14          1           0        1.901218    2.636295    0.059766
 ---------------------------------------------------------------------
                    Distance matrix (angstroms):
                    1          2          3          4          5
     1  O    0.000000
     2  C    1.206858   0.000000
     3  C    2.369828   1.472484   0.000000
     4  C    3.600793   2.545242   1.380327   0.000000
     5  C    4.608374   3.775821   2.345500   1.593446   0.000000
     6  O    5.322191   4.549274   3.089981   2.639312   1.432533
     7  C    4.586728   4.076140   2.772149   3.023950   2.223584
     8  C    3.138899   2.628070   1.511876   2.337958   2.396691
     9  H    2.029245   1.112665   2.174825   2.781858   4.269831
    10  H    4.040182   2.933618   2.212933   1.084777   2.359548
    11  H    5.493969   4.648009   3.304013   2.301406   1.106319
    12  H    4.860111   4.538304   3.290578   3.597914   2.557677
    13  H    5.201107   4.745835   3.578235   3.903865   3.213722
    14  H    2.838367   2.789511   2.159184   3.284289   3.337046
                    6          7          8          9         10
     6  O    0.000000
     7  C    1.470670   0.000000
     8  C    2.416396   1.493898   0.000000
     9  H    5.099162   4.852414   3.462936   0.000000
    10  H    3.514811   4.086219   3.396167   2.805101   0.000000
    11  H    2.064392   3.154635   3.495775   5.034175   2.657186
    12  H    2.042684   1.086314   2.123398   5.433895   4.625462
    13  H    2.143481   1.102243   2.156189   5.485262   4.954782
    14  H    3.347725   2.107404   1.128277   3.800490   4.289234
                   11         12         13         14
    11  H    0.000000
    12  H    3.303347   0.000000
    13  H    4.099839   1.783828   0.000000
    14  H    4.390214   2.330996   2.550375   0.000000
 Stoichiometry    C6H6O2
 Framework group  C1[X(C6H6O2)]
 Deg. of freedom    36
 Full point group                 C1      NOp   1
 Largest Abelian subgroup         C1      NOp   1
 Largest concise Abelian subgroup C1      NOp   1
                         Standard orientation:                         
 ---------------------------------------------------------------------
 Center     Atomic      Atomic             Coordinates (Angstroms)
 Number     Number       Type             X           Y           Z
 ---------------------------------------------------------------------
      1          8           0       -2.915939   -0.547225    0.346602
      2          6           0       -2.198882    0.235564   -0.227485
      3          6           0       -0.734118    0.272780   -0.081570
      4          6           0        0.070584    1.387612   -0.203663
      5          6           0        1.441541    0.946796    0.478414
      6          8           0        2.346388    0.051184   -0.178306
      7          6           0        1.606726   -1.211366   -0.030876
      8          6           0        0.146974   -0.949090   -0.209949
      9          1           0       -2.606581    1.042378   -0.876220
     10          1           0       -0.245429    2.424017   -0.256035
     11          1           0        2.034765    1.760720    0.936186
     12          1           0        1.799502   -1.533826    0.988406
     13          1           0        1.965327   -1.984870   -0.729472
     14          1           0       -0.388126   -1.833867    0.241544
 ---------------------------------------------------------------------
 Rotational constants (GHZ):           5.1261030           1.3532950           1.1187977
 Standard basis: 6-31G(2df,p) (6D, 7F)
 There are   278 symmetry adapted cartesian basis functions of A   symmetry.
 There are   254 symmetry adapted basis functions of A   symmetry.
   254 basis functions,   394 primitive gaussians,   278 cartesian basis functions
    29 alpha electrons       29 beta electrons
       nuclear repulsion energy       335.3585599458 Hartrees.
 NAtoms=   14 NActive=   14 NUniq=   14 SFac= 1.00D+00 NAtFMM=   60 NAOKFM=F Big=F
 Integral buffers will be    131072 words long.
 Raffenetti 2 integral format.
 Two-electron integral symmetry is turned on.
 One-electron integrals computed using PRISM.
 PrsmSu:  requested number of processors reduced to:  13 ShMem   1 Linda.
 NBasis=   254 RedAO= T EigKep=  8.24D-04  NBF=   254
 NBsUse=   254 1.00D-06 EigRej= -1.00D+00 NBFU=   254
 Initial guess from the checkpoint file:  "OdCC1dCC2OCC12.chk"
 B after Tr=     0.000000    0.000000   -0.000000
         Rot=    0.999679    0.016342   -0.003933    0.018935 Ang=   2.90 deg.
 ExpMin= 1.61D-01 ExpMax= 5.48D+03 ExpMxC= 8.25D+02 IAcc=2 IRadAn=         4 AccDes= 0.00D+00
 Harris functional with IExCor=  402 and IRadAn=       4 diagonalized for initial guess.
 HarFok:  IExCor=  402 AccDes= 0.00D+00 IRadAn=         4 IDoV= 1 UseB2=F ITyADJ=14
 ICtDFT=  3500011 ScaDFX=  1.000000  1.000000  1.000000  1.000000
 FoFCou: FMM=F IPFlag=           0 FMFlag=      100000 FMFlg1=           0
         NFxFlg=           0 DoJE=T BraDBF=F KetDBF=T FulRan=T
         wScrn=  0.000000 ICntrl=       500 IOpCl=  0 I1Cent=   200000004 NGrid=           0
         NMat0=    1 NMatS0=      1 NMatT0=    0 NMatD0=    1 NMtDS0=    0 NMtDT0=    0
 Petite list used in FoFCou.
 Requested convergence on RMS density matrix=1.00D-08 within 128 cycles.
 Requested convergence on MAX density matrix=1.00D-06.
 Requested convergence on             energy=1.00D-06.
 No special actions if energy rises.
 Integral accuracy reduced to 1.0D-05 until final iterations.
 Initial convergence to 1.0D-05 achieved.  Increase integral accuracy.
 SCF Done:  E(RB3LYP) =  -382.441460499     A.U. after   19 cycles
            NFock= 19  Conv=0.95D-08     -V/T= 2.0081
 PrsmSu:  requested number of processors reduced to:  13 ShMem   1 Linda.
 Calling FoFJK, ICntrl=      2127 FMM=F ISym2X=0 I1Cent= 0 IOpClX= 0 NMat=1 NMatS=1 NMatT=0.
 ***** Axes restored to original set *****
 -------------------------------------------------------------------
 Center     Atomic                   Forces (Hartrees/Bohr)
 Number     Number              X              Y              Z
 -------------------------------------------------------------------
      1        8          -0.004135517    0.002661622    0.004306704
      2        6           0.005445133   -0.003497668   -0.003714706
      3        6           0.073201906    0.020485839    0.011760026
      4        6          -0.045305405    0.013454968   -0.010292519
      5        6           0.044675396    0.012490805    0.027240137
      6        8          -0.034061323   -0.029169412   -0.021599336
      7        6           0.034594594   -0.027512002    0.016265192
      8        6          -0.087691980    0.008424966   -0.032446235
      9        1          -0.001632156   -0.001693280   -0.002958930
     10        1           0.008261531    0.002330529    0.006201495
     11        1          -0.016246767    0.000898779    0.000043184
     12        1          -0.000235632    0.005149948    0.000466456
     13        1           0.006506218    0.000053577   -0.002653894
     14        1           0.016624001   -0.004078671    0.007382427
 -------------------------------------------------------------------
 Cartesian Forces:  Max     0.087691980 RMS     0.024675362

 GradGradGradGradGradGradGradGradGradGradGradGradGradGradGradGradGradGrad
 Berny optimization.
 Using GEDIIS/GDIIS optimizer.
 FormGI is forming the generalized inverse of G from B-inverse, IUseBI=4.
 Internal  Forces:  Max     0.043278889 RMS     0.010811910
 Search for a local minimum.
 Step number   3 out of a maximum of   73
 All quantities printed in internal units (Hartrees-Bohrs-Radians)
 Mixed Optimization -- RFO/linear search
 Update second derivatives using D2CorX and points    2    3
 DE= -1.04D-01 DEPred=-9.68D-02 R= 1.08D+00
 TightC=F SS=  1.41D+00  RLast= 1.28D+00 DXNew= 8.4853D-01 3.8476D+00
 Trust test= 1.08D+00 RLast= 1.28D+00 DXMaxT set to 8.49D-01
 ITU=  1  1  0
 Use linear search instead of GDIIS.
     Eigenvalues ---    0.00963   0.00993   0.01015   0.01437   0.01574
     Eigenvalues ---    0.02006   0.02105   0.02801   0.04391   0.05533
     Eigenvalues ---    0.07683   0.09149   0.11681   0.12347   0.13473
     Eigenvalues ---    0.13920   0.14709   0.16007   0.20014   0.21806
     Eigenvalues ---    0.22114   0.23781   0.29889   0.31359   0.32825
     Eigenvalues ---    0.32980   0.33332   0.33646   0.33718   0.34166
     Eigenvalues ---    0.34289   0.34343   0.39463   0.46214   0.69272
     Eigenvalues ---    0.98023
 RFO step:  Lambda=-3.06105588D-02 EMin= 9.62718166D-03
 Quartic linear search produced a step of  0.56462.
 Iteration  1 RMS(Cart)=  0.09067293 RMS(Int)=  0.05032833
 Iteration  2 RMS(Cart)=  0.05338151 RMS(Int)=  0.01572124
 Iteration  3 RMS(Cart)=  0.00413076 RMS(Int)=  0.01552768
 Iteration  4 RMS(Cart)=  0.00004606 RMS(Int)=  0.01552761
 Iteration  5 RMS(Cart)=  0.00000239 RMS(Int)=  0.01552761
 Iteration  6 RMS(Cart)=  0.00000003 RMS(Int)=  0.01552761
 Variable       Old X    -DE/DX   Delta X   Delta X   Delta X     New X
                                 (Linear)    (Quad)   (Total)
    R1        2.28063   0.00451  -0.00464   0.00824   0.00360   2.28423
    R2        2.78259   0.00116  -0.01103   0.01303   0.00200   2.78459
    R3        2.10263  -0.00016   0.00311  -0.00202   0.00110   2.10373
    R4        2.60844  -0.02818   0.02361  -0.06317  -0.03800   2.57044
    R5        2.85703  -0.01365   0.01041  -0.04966  -0.04818   2.80885
    R6        3.01118  -0.02184   0.02606  -0.09136  -0.05680   2.95437
    R7        2.04993  -0.00071  -0.00701   0.00036  -0.00665   2.04328
    R8        2.70710  -0.04328  -0.05881  -0.11751  -0.16668   2.54041
    R9        2.09064  -0.00917  -0.01219  -0.01972  -0.03192   2.05872
   R10        2.77916  -0.01068   0.03262  -0.03672  -0.00446   2.77470
   R11        2.82306  -0.00396  -0.01187  -0.00098  -0.02267   2.80039
   R12        2.05284   0.00214  -0.00993   0.01356   0.00363   2.05647
   R13        2.08294  -0.00123   0.00286  -0.00418  -0.00132   2.08162
   R14        2.13214  -0.01592   0.00664  -0.05850  -0.05187   2.08027
    A1        2.16554  -0.00166  -0.01921   0.00503  -0.01484   2.15070
    A2        2.12936  -0.00051   0.01052  -0.01134  -0.00148   2.12788
    A3        1.98662   0.00223   0.00774   0.01084   0.01792   2.00454
    A4        2.20380  -0.00988  -0.00852  -0.04142  -0.05281   2.15100
    A5        2.15422  -0.00846  -0.05757  -0.00511  -0.05811   2.09612
    A6        1.88123   0.01904   0.08839   0.05581   0.13676   2.01799
    A7        1.81346   0.00384   0.07578  -0.00783   0.07657   1.89003
    A8        2.22192   0.00240  -0.00455   0.02836   0.01152   2.23344
    A9        2.13603  -0.00392  -0.05647   0.01890  -0.03608   2.09995
   A10        2.11785  -0.00120  -0.07932   0.03059  -0.11089   2.00695
   A11        2.02076   0.00461   0.16272  -0.01724   0.13911   2.15987
   A12        1.88699   0.00511   0.13604   0.00106   0.12795   2.01494
   A13        1.74476   0.00856   0.07086   0.02917   0.12188   1.86664
   A14        1.90573   0.00881   0.09457   0.02338   0.10553   2.01127
   A15        1.83345  -0.00693  -0.06270  -0.02387  -0.07513   1.75831
   A16        1.95550  -0.00415   0.00132  -0.03475  -0.04404   1.91146
   A17        1.91558   0.00160  -0.04407   0.02571  -0.02845   1.88713
   A18        1.94457   0.00145  -0.00185   0.03521   0.04651   1.99108
   A19        1.90566  -0.00119   0.01150  -0.02821  -0.01955   1.88612
   A20        2.34783  -0.02992  -0.12384  -0.05591  -0.20320   2.14464
   A21        1.90011   0.01625   0.09152   0.06732   0.16471   2.06482
   A22        1.85228   0.01524   0.11526   0.04732   0.16687   2.01915
    D1       -2.62558  -0.00133   0.01502  -0.08369  -0.06896  -2.69454
    D2        0.86915  -0.00759  -0.07961  -0.13057  -0.20989   0.65926
    D3        0.45482  -0.00026  -0.01877  -0.00130  -0.02036   0.43447
    D4       -2.33363  -0.00652  -0.11341  -0.04817  -0.16129  -2.49492
    D5        2.84799  -0.00133  -0.03169  -0.00148  -0.00752   2.84048
    D6        0.19641  -0.00492  -0.04635  -0.08451  -0.12752   0.06889
    D7       -0.60157   0.00035   0.02050   0.03220   0.09696  -0.50461
    D8        3.03003  -0.00324   0.00583  -0.05083  -0.02305   3.00698
    D9       -3.06262  -0.01010  -0.16921  -0.09504  -0.24094   2.97962
   D10       -0.64707   0.00437   0.07231   0.04136   0.12082  -0.52625
   D11        0.37617  -0.01121  -0.23462  -0.11919  -0.34151   0.03466
   D12        2.79172   0.00326   0.00690   0.01720   0.02025   2.81197
   D13        1.30077  -0.00722  -0.12688  -0.00755  -0.11903   1.18174
   D14       -2.63829   0.00618   0.17721   0.01032   0.18693  -2.45137
   D15       -2.30009  -0.00175  -0.09334   0.07419   0.00366  -2.29643
   D16        0.04403   0.01165   0.21076   0.09205   0.30962   0.35365
   D17       -1.27855   0.00683   0.11853   0.02597   0.12371  -1.15484
   D18        2.60805  -0.00575  -0.19282   0.01788  -0.17173   2.43632
   D19        0.67032   0.00033   0.01140  -0.08345  -0.11307   0.55725
   D20       -1.38317  -0.00212   0.04321  -0.11202  -0.08540  -1.46857
   D21        2.83311   0.00568   0.06911  -0.04547  -0.00317   2.82994
   D22       -0.39052   0.01497   0.22317   0.16063   0.37189  -0.01863
   D23       -2.81929  -0.00012  -0.01217   0.01975   0.01458  -2.80470
   D24        1.61053   0.01245   0.18210   0.15915   0.32187   1.93240
   D25       -0.81823  -0.00263  -0.05324   0.01828  -0.03544  -0.85367
   D26       -2.55975   0.01298   0.16407   0.16406   0.30764  -2.25211
   D27        1.29467  -0.00210  -0.07127   0.02319  -0.04967   1.24501
         Item               Value     Threshold  Converged?
 Maximum Force            0.043279     0.000450     NO 
 RMS     Force            0.010812     0.000300     NO 
 Maximum Displacement     0.414518     0.001800     NO 
 RMS     Displacement     0.114028     0.001200     NO 
 Predicted change in Energy=-4.451568D-02
 GradGradGradGradGradGradGradGradGradGradGradGradGradGradGradGradGradGrad

                          Input orientation:                          
 ---------------------------------------------------------------------
 Center     Atomic      Atomic             Coordinates (Angstroms)
 Number     Number       Type             X           Y           Z
 ---------------------------------------------------------------------
      1          8           0        1.041842   -0.025565    0.115844
      2          6           0        2.241505   -0.107919   -0.007160
      3          6           0        3.077154    0.989236   -0.526066
      4          6           0        4.277384    0.789028   -1.133980
      5          6           0        4.649215    2.085464   -1.924660
      6          8           0        4.919557    3.158427   -1.161190
      7          6           0        3.670202    3.527615   -0.483885
      8          6           0        2.765407    2.397544   -0.167161
      9          1           0        2.797842   -1.035605    0.255902
     10          1           0        4.752567   -0.152025   -1.374268
     11          1           0        5.117040    2.081153   -2.908518
     12          1           0        3.195768    4.136384   -1.251066
     13          1           0        3.896091    4.177288    0.376520
     14          1           0        1.715786    2.666614    0.027078
 ---------------------------------------------------------------------
                    Distance matrix (angstroms):
                    1          2          3          4          5
     1  O    0.000000
     2  C    1.208761   0.000000
     3  C    2.363126   1.473541   0.000000
     4  C    3.562914   2.493801   1.360219   0.000000
     5  C    4.651155   3.779525   2.372584   1.563388   0.000000
     6  O    5.177383   4.378672   2.916028   2.455031   1.344329
     7  C    4.460162   3.935169   2.607077   2.879436   2.261437
     8  C    2.987009   2.564648   1.486381   2.410008   2.595175
     9  H    2.030599   1.113244   2.188486   2.729487   4.233616
    10  H    4.000738   2.859434   2.197483   1.081257   2.306506
    11  H    5.494749   4.634503   3.321068   2.350233   1.089429
    12  H    4.881564   4.524603   3.231754   3.519716   2.602405
    13  H    5.087108   4.609541   3.413062   3.729250   3.199743
    14  H    2.776672   2.824108   2.229997   3.381593   3.570998
                    6          7          8          9         10
     6  O    0.000000
     7  C    1.468308   0.000000
     8  C    2.491466   1.481901   0.000000
     9  H    4.909147   4.704389   3.459269   0.000000
    10  H    3.321503   3.937518   3.450538   2.694274   0.000000
    11  H    2.062202   3.172450   3.625648   5.010630   2.733834
    12  H    1.983917   1.088235   2.093711   5.401737   4.563908
    13  H    2.109529   1.101544   2.177505   5.328691   4.747816
    14  H    3.452247   2.195939   1.100832   3.863888   4.373846
                   11         12         13         14
    11  H    0.000000
    12  H    3.265334   0.000000
    13  H    4.083623   1.772333   0.000000
    14  H    4.530896   2.446267   2.675440   0.000000
 Stoichiometry    C6H6O2
 Framework group  C1[X(C6H6O2)]
 Deg. of freedom    36
 Full point group                 C1      NOp   1
 Largest Abelian subgroup         C1      NOp   1
 Largest concise Abelian subgroup C1      NOp   1
                         Standard orientation:                         
 ---------------------------------------------------------------------
 Center     Atomic      Atomic             Coordinates (Angstroms)
 Number     Number       Type             X           Y           Z
 ---------------------------------------------------------------------
      1          8           0       -2.886861   -0.452483    0.295548
      2          6           0       -2.124982    0.330873   -0.221170
      3          6           0       -0.661281    0.252795   -0.070158
      4          6           0        0.159152    1.331233   -0.188724
      5          6           0        1.537980    0.971852    0.454595
      6          8           0        2.243586    0.034253   -0.201340
      7          6           0        1.489109   -1.220978   -0.096047
      8          6           0        0.015835   -1.070135   -0.043697
      9          1           0       -2.486526    1.180679   -0.842805
     10          1           0       -0.118813    2.364846   -0.342005
     11          1           0        2.125895    1.666492    1.053500
     12          1           0        1.827310   -1.580200    0.873919
     13          1           0        1.841548   -1.927743   -0.863946
     14          1           0       -0.538093   -1.932073    0.358867
 ---------------------------------------------------------------------
 Rotational constants (GHZ):           5.1226291           1.4204316           1.1594299
 Standard basis: 6-31G(2df,p) (6D, 7F)
 There are   278 symmetry adapted cartesian basis functions of A   symmetry.
 There are   254 symmetry adapted basis functions of A   symmetry.
   254 basis functions,   394 primitive gaussians,   278 cartesian basis functions
    29 alpha electrons       29 beta electrons
       nuclear repulsion energy       339.6310249983 Hartrees.
 NAtoms=   14 NActive=   14 NUniq=   14 SFac= 1.00D+00 NAtFMM=   60 NAOKFM=F Big=F
 Integral buffers will be    131072 words long.
 Raffenetti 2 integral format.
 Two-electron integral symmetry is turned on.
 One-electron integrals computed using PRISM.
 PrsmSu:  requested number of processors reduced to:  13 ShMem   1 Linda.
 NBasis=   254 RedAO= T EigKep=  6.10D-04  NBF=   254
 NBsUse=   254 1.00D-06 EigRej= -1.00D+00 NBFU=   254
 Initial guess from the checkpoint file:  "OdCC1dCC2OCC12.chk"
 B after Tr=    -0.000000   -0.000000    0.000000
         Rot=    0.999852    0.001152   -0.002264    0.017030 Ang=   1.97 deg.
 ExpMin= 1.61D-01 ExpMax= 5.48D+03 ExpMxC= 8.25D+02 IAcc=2 IRadAn=         4 AccDes= 0.00D+00
 Harris functional with IExCor=  402 and IRadAn=       4 diagonalized for initial guess.
 HarFok:  IExCor=  402 AccDes= 0.00D+00 IRadAn=         4 IDoV= 1 UseB2=F ITyADJ=14
 ICtDFT=  3500011 ScaDFX=  1.000000  1.000000  1.000000  1.000000
 FoFCou: FMM=F IPFlag=           0 FMFlag=      100000 FMFlg1=           0
         NFxFlg=           0 DoJE=T BraDBF=F KetDBF=T FulRan=T
         wScrn=  0.000000 ICntrl=       500 IOpCl=  0 I1Cent=   200000004 NGrid=           0
         NMat0=    1 NMatS0=      1 NMatT0=    0 NMatD0=    1 NMtDS0=    0 NMtDT0=    0
 Petite list used in FoFCou.
 Requested convergence on RMS density matrix=1.00D-08 within 128 cycles.
 Requested convergence on MAX density matrix=1.00D-06.
 Requested convergence on             energy=1.00D-06.
 No special actions if energy rises.
 Integral accuracy reduced to 1.0D-05 until final iterations.
 Initial convergence to 1.0D-05 achieved.  Increase integral accuracy.
 SCF Done:  E(RB3LYP) =  -382.484903095     A.U. after   21 cycles
            NFock= 21  Conv=0.36D-08     -V/T= 2.0076
 PrsmSu:  requested number of processors reduced to:  13 ShMem   1 Linda.
 Calling FoFJK, ICntrl=      2127 FMM=F ISym2X=0 I1Cent= 0 IOpClX= 0 NMat=1 NMatS=1 NMatT=0.
 ***** Axes restored to original set *****
 -------------------------------------------------------------------
 Center     Atomic                   Forces (Hartrees/Bohr)
 Number     Number              X              Y              Z
 -------------------------------------------------------------------
      1        8          -0.001382012   -0.000757891    0.002440100
      2        6           0.001392269   -0.002256339    0.001447086
      3        6           0.021147937    0.024157977    0.013350689
      4        6          -0.019574090    0.006409871   -0.022985084
      5        6           0.009539500   -0.006360114    0.041108153
      6        8          -0.013194061   -0.004506437   -0.021416066
      7        6           0.003243347   -0.005936413    0.011683306
      8        6          -0.019820619   -0.015637978   -0.031300128
      9        1          -0.001693320   -0.001606523   -0.003831002
     10        1           0.006077632    0.000453716    0.007762022
     11        1          -0.004982694    0.001045626   -0.001095203
     12        1           0.001471503    0.008508328    0.001088833
     13        1           0.006563264   -0.000893896   -0.000654174
     14        1           0.011211345   -0.002619927    0.002401468
 -------------------------------------------------------------------
 Cartesian Forces:  Max     0.041108153 RMS     0.012776405

 GradGradGradGradGradGradGradGradGradGradGradGradGradGradGradGradGradGrad
 Berny optimization.
 Using GEDIIS/GDIIS optimizer.
 FormGI is forming the generalized inverse of G from B-inverse, IUseBI=4.
 Internal  Forces:  Max     0.019093663 RMS     0.005944039
 Search for a local minimum.
 Step number   4 out of a maximum of   73
 All quantities printed in internal units (Hartrees-Bohrs-Radians)
 Mixed Optimization -- RFO/linear search
 Update second derivatives using D2CorX and points    3    4
 DE= -4.34D-02 DEPred=-4.45D-02 R= 9.76D-01
 TightC=F SS=  1.41D+00  RLast= 1.05D+00 DXNew= 1.4270D+00 3.1386D+00
 Trust test= 9.76D-01 RLast= 1.05D+00 DXMaxT set to 1.43D+00
 ITU=  1  1  1  0
 Use linear search instead of GDIIS.
     Eigenvalues ---    0.00936   0.00985   0.01023   0.01189   0.01351
     Eigenvalues ---    0.01857   0.02021   0.02747   0.03495   0.05550
     Eigenvalues ---    0.07442   0.10695   0.12226   0.13551   0.14620
     Eigenvalues ---    0.15101   0.15537   0.16011   0.20047   0.22006
     Eigenvalues ---    0.22216   0.24506   0.29841   0.31400   0.32826
     Eigenvalues ---    0.33048   0.33295   0.33643   0.33804   0.34160
     Eigenvalues ---    0.34284   0.34309   0.37677   0.44603   0.64419
     Eigenvalues ---    0.97964
 RFO step:  Lambda=-1.91546230D-02 EMin= 9.35640049D-03
 Quartic linear search produced a step of  0.39379.
 Iteration  1 RMS(Cart)=  0.07583696 RMS(Int)=  0.01924284
 Iteration  2 RMS(Cart)=  0.02062890 RMS(Int)=  0.00582837
 Iteration  3 RMS(Cart)=  0.00039842 RMS(Int)=  0.00582137
 Iteration  4 RMS(Cart)=  0.00000105 RMS(Int)=  0.00582137
 Iteration  5 RMS(Cart)=  0.00000002 RMS(Int)=  0.00582137
 Variable       Old X    -DE/DX   Delta X   Delta X   Delta X     New X
                                 (Linear)    (Quad)   (Total)
    R1        2.28423   0.00157   0.00142   0.00304   0.00446   2.28869
    R2        2.78459   0.00441   0.00079   0.01541   0.01620   2.80079
    R3        2.10373  -0.00041   0.00043  -0.00273  -0.00230   2.10143
    R4        2.57044  -0.01341  -0.01496  -0.04032  -0.05307   2.51737
    R5        2.80885  -0.01730  -0.01897  -0.06298  -0.08439   2.72446
    R6        2.95437  -0.01909  -0.02237  -0.08481  -0.10327   2.85111
    R7        2.04328   0.00055  -0.00262   0.00558   0.00296   2.04624
    R8        2.54041  -0.01779  -0.06564  -0.02534  -0.08790   2.45252
    R9        2.05872  -0.00115  -0.01257  -0.00322  -0.01579   2.04293
   R10        2.77470  -0.00709  -0.00176  -0.03416  -0.03770   2.73700
   R11        2.80039   0.00186  -0.00893   0.00766  -0.00582   2.79456
   R12        2.05647   0.00335   0.00143   0.01373   0.01516   2.07163
   R13        2.08162   0.00031  -0.00052  -0.00114  -0.00166   2.07996
   R14        2.08027  -0.01091  -0.02042  -0.03699  -0.05741   2.02286
    A1        2.15070   0.00169  -0.00584   0.01427   0.00630   2.15700
    A2        2.12788  -0.00199  -0.00058  -0.01398  -0.01671   2.11117
    A3        2.00454   0.00028   0.00706  -0.00182   0.00310   2.00764
    A4        2.15100  -0.00652  -0.02079  -0.01893  -0.04024   2.11076
    A5        2.09612   0.00180  -0.02288   0.03380   0.01171   2.10782
    A6        2.01799   0.00504   0.05386  -0.01235   0.03788   2.05587
    A7        1.89003  -0.00264   0.03015  -0.03697  -0.01030   1.87973
    A8        2.23344   0.00173   0.00454   0.02751   0.02425   2.25770
    A9        2.09995   0.00318  -0.01421   0.05000   0.03006   2.13001
   A10        2.00695   0.00914  -0.04367   0.11831   0.05590   2.06285
   A11        2.15987  -0.00270   0.05478  -0.04002   0.00724   2.16711
   A12        2.01494  -0.00430   0.05039  -0.03627   0.00540   2.02035
   A13        1.86664   0.00183   0.04799  -0.00532   0.04356   1.91020
   A14        2.01127  -0.00596   0.04156  -0.05842  -0.02692   1.98435
[...]
 ! A21   A(3,8,14)             120.9844         -DE/DX =    0.0                 !
 ! A22   A(7,8,14)             120.3622         -DE/DX =    0.0                 !
 ! D1    D(1,2,3,4)           -177.0736         -DE/DX =    0.0                 !
 ! D2    D(1,2,3,8)              0.3103         -DE/DX =    0.0                 !
 ! D3    D(9,2,3,4)              3.3714         -DE/DX =    0.0                 !
 ! D4    D(9,2,3,8)           -179.2448         -DE/DX =    0.0                 !
 ! D5    D(2,3,4,5)            163.2097         -DE/DX =    0.0                 !
 ! D6    D(2,3,4,10)            -9.533          -DE/DX =    0.0                 !
 ! D7    D(8,3,4,5)            -14.2211         -DE/DX =    0.0                 !
 ! D8    D(8,3,4,10)           173.0362         -DE/DX =    0.0                 !
 ! D9    D(2,3,8,7)            177.241          -DE/DX =    0.0                 !
 ! D10   D(2,3,8,14)            -0.8268         -DE/DX =    0.0                 !
 ! D11   D(4,3,8,7)             -5.3414         -DE/DX =    0.0                 !
 ! D12   D(4,3,8,14)           176.5908         -DE/DX =    0.0                 !
 ! D13   D(3,4,5,6)              5.2539         -DE/DX =    0.0                 !
 ! D14   D(3,4,5,11)          -170.26           -DE/DX =    0.0                 !
 ! D15   D(10,4,5,6)           178.0637         -DE/DX =    0.0                 !
 ! D16   D(10,4,5,11)            2.5498         -DE/DX =    0.0                 !
 ! D17   D(4,5,6,7)             23.1266         -DE/DX =    0.0                 !
 ! D18   D(11,5,6,7)          -160.8493         -DE/DX =    0.0                 !
 ! D19   D(5,6,7,8)            -40.205          -DE/DX =    0.0                 !
 ! D20   D(5,6,7,12)          -162.85           -DE/DX =    0.0                 !
 ! D21   D(5,6,7,13)            82.1225         -DE/DX =    0.0                 !
 ! D22   D(6,7,8,3)             31.8727         -DE/DX =    0.0                 !
 ! D23   D(6,7,8,14)          -150.0471         -DE/DX =    0.0                 !
 ! D24   D(12,7,8,3)           150.5679         -DE/DX =    0.0                 !
 ! D25   D(12,7,8,14)          -31.3518         -DE/DX =    0.0                 !
 ! D26   D(13,7,8,3)           -89.2116         -DE/DX =    0.0                 !
 ! D27   D(13,7,8,14)           88.8687         -DE/DX =    0.0                 !
 --------------------------------------------------------------------------------
 GradGradGradGradGradGradGradGradGradGradGradGradGradGradGradGradGradGrad


 ----------------------------------------------------------------------

 Electric dipole moment (input orientation):
 (Debye = 10**-18 statcoulomb cm , SI units = C m)
                  (au)            (Debye)         (10**-30 SI)
   Tot        0.926330D+00      0.235450D+01      0.785376D+01
   x          0.826135D+00      0.209982D+01      0.700426D+01
   y          0.347514D+00      0.883294D+00      0.294635D+01
   z         -0.234144D+00     -0.595135D+00     -0.198516D+01

 Dipole polarizability, Alpha (input orientation).
 (esu units = cm**3 , SI units = C**2 m**2 J**-1)
 Alpha(0;0):
               (au)            (10**-24 esu)      (10**-40 SI)
   iso        0.670596D+02      0.993721D+01      0.110566D+02
   aniso      0.463306D+02      0.686548D+01      0.763888D+01
   xx         0.675565D+02      0.100108D+02      0.111386D+02
   yx         0.368373D+01      0.545872D+00      0.607365D+00
   yy         0.844365D+02      0.125122D+02      0.139217D+02
   zx        -0.195552D+02     -0.289778D+01     -0.322421D+01
   zy        -0.294912D+01     -0.437015D+00     -0.486245D+00
   zz         0.491859D+02      0.728860D+01      0.810966D+01

 ----------------------------------------------------------------------

 Dipole orientation:
     8          1.60304106          0.14131847          1.73378780
     6          1.48268681          1.20574206          3.75040525
     6          0.76039810         -0.02064693          6.16893450
     6          0.55723494          1.47256686          8.47666759
     6         -0.69939891          0.47050257         10.43693817
     8         -1.61732337         -1.91555463         10.45835584
     6         -0.41197968         -3.66866786          8.76067569
     6          0.18923969         -2.49656728          6.25111428
     1          1.94033464          3.25234040          3.91934786
     1          1.19740413          3.41451513          8.54339159
     1         -1.21800032          1.49761943         12.13270881
     1         -1.71914682         -5.25782824          8.59058094
     1          1.32861642         -4.37536918          9.67345568
     1          0.21882430         -3.64298060          4.55318780

 Electric dipole moment (dipole orientation):
 (Debye = 10**-18 statcoulomb cm , SI units = C m)
                  (au)            (Debye)         (10**-30 SI)
   Tot        0.926330D+00      0.235450D+01      0.785376D+01
   x          0.000000D+00      0.000000D+00      0.000000D+00
   y          0.000000D+00      0.000000D+00      0.000000D+00
   z          0.926330D+00      0.235450D+01      0.785376D+01

 Dipole polarizability, Alpha (dipole orientation).
 (esu units = cm**3 , SI units = C**2 m**2 J**-1)
 Alpha(0;0):
               (au)            (10**-24 esu)      (10**-40 SI)
   iso        0.670596D+02      0.993721D+01      0.110566D+02
   aniso      0.463306D+02      0.686548D+01      0.763888D+01
   xx         0.421005D+02      0.623866D+01      0.694144D+01
   yx         0.875137D+01      0.129682D+01      0.144291D+01
   yy         0.784791D+02      0.116294D+02      0.129395D+02
   zx        -0.128576D+02     -0.190529D+01     -0.211993D+01
   zy        -0.229416D+01     -0.339959D+00     -0.378255D+00
   zz         0.805992D+02      0.119436D+02      0.132890D+02

 ----------------------------------------------------------------------
 1\1\GINC-LEWIS4-Z10PH-HPC3-NODE399\Freq\RB3LYP\6-31G(2df,p)\C6H6O2\YXI
 E\04-Aug-2022\0\\#N Geom=AllCheck Guess=TCheck SCRF=Check GenChk RB3LY
 P/6-31G(2df,p) Freq\\Title Card Required\\0,1\O,1.147932537,0.05126127
 69,0.4965759141\C,2.2268311993,-0.0313767579,-0.0412729241\C,3.0553577
 444,1.1269017042,-0.4621808339\C,4.3162454197,0.9123447265,-1.16317352
 24\C,4.8569657367,1.9497943446,-1.8194976182\O,4.352511602,3.204571299
 3,-1.7818826675\C,3.5364290632,3.5206845436,-0.6379252236\C,2.63387709
 15,2.3869453016,-0.2512010085\H,2.6842208085,-1.0238604526,-0.25418259
 31\H,4.7458685824,-0.0770695893,-1.2554963926\H,5.7022278131,1.8772681
 004,-2.494973016\H,2.9790110154,4.4181275559,-0.9165942542\H,4.2036248
 192,3.7878564934,0.2017346245\H,1.6762565676,2.5841914534,0.2174595153
 \\Version=ES64L-G16RevA.03\State=1-A\HF=-382.6638643\RMSD=5.378e-09\RM
 SF=1.719e-05\ZeroPoint=0.1074395\Thermal=0.1144001\Dipole=0.8261346,0.
 3475144,-0.234144\DipoleDeriv=-0.9030238,-0.3333527,0.2953884,-0.06878
 9,-0.5522509,0.0423732,0.2986303,0.1792184,-0.4708741,0.9130045,0.3239
 911,-0.3455222,0.2529376,1.2891656,-0.1432124,-0.3612519,-0.1904229,0.
 3903241,0.1960696,-0.1362452,-0.1469551,-0.2798119,-0.7458752,0.164748
 5,-0.0851393,0.0696689,0.0997686,-0.2212307,-0.007413,0.0642611,-0.251
 5832,-0.1129455,0.1386197,0.0871703,0.0696037,-0.3615916,0.1543349,-0.
 1988941,-0.0916256,0.1547325,0.8264477,-0.3054615,-0.1869424,-0.143571
 9,0.187243,-0.2893495,0.3526681,0.062804,-0.0984603,-0.9707226,0.13258
 89,0.1423011,-0.1070794,-0.4624859,0.3106693,-0.1156454,0.0133401,-0.0
 389714,0.4327672,0.1196809,0.0312895,0.1698953,0.5119424,-0.1483802,-0
 .024081,0.0471735,0.1292241,0.0979895,-0.0945468,-0.021887,0.0613372,-
 0.1548766,-0.0310694,0.1358275,0.0320104,0.0695028,-0.2399759,-0.02984
 59,0.0306512,-0.0600919,0.0237183,0.0555533,0.0245051,0.0403543,0.0694
 986,-0.0289431,-0.0125665,0.0332373,-0.0134844,0.1180493,-0.013716,0.0
 331819,0.1068743,0.009699,0.0502866,0.0026556,0.069975,-0.002254,0.067
 7729,0.0094139,0.07115,-0.0042136,0.0604838,-0.0827566,0.0140577,-0.00
 49062,0.0540136,0.029121,-0.0440266,-0.1463464,-0.1297114,-0.0103382,-
 0.0419998,-0.0266504,-0.0601258,-0.0805236,-0.0852483,0.0117507,0.0206
 542,0.0558219,0.0018756,0.0788129,-0.0024411,0.0269977,-0.006309,0.107
 1368\Polar=67.5565333,3.6837296,84.4364504,-19.5551613,-2.9491222,49.1
 858853\Quadrupole=-2.135261,2.811699,-0.6764381,-4.3553446,1.4891984,3
 .0600833\PG=C01 [X(C6H6O2)]\NImag=0\\0.68231840,-0.04685363,0.09142338
 ,-0.32745781,0.02262860,0.18746259,-0.61113817,0.05115087,0.27281132,0
 .80681874,0.05707589,-0.11216131,-0.02779558,-0.06570995,0.55631080,0.
 27243935,-0.02522317,-0.19943045,-0.30695099,0.02831421,0.34495552,-0.
 04164014,-0.03293089,0.02985210,-0.11107351,-0.04574332,0.01558675,0.4
 9595768,-0.03559681,0.01531891,0.01747513,-0.01354369,-0.17824085,0.00
 959236,-0.06575717,0.74274821,0.02946117,0.01577346,0.00218267,0.01559
 805,0.02629087,-0.08459030,-0.19327533,0.02920526,0.23973154,0.0035512
 8,-0.00182873,-0.00059030,-0.02056708,-0.00119470,0.01359390,-0.193035
 23,0.01315371,0.07074052,0.46463716,-0.00435415,-0.00622525,0.00212752
 ,-0.02322205,0.01103106,0.01195164,0.03390571,-0.10628499,-0.01371091,
 -0.02705713,0.77996055,-0.00096672,0.00087565,0.00335216,0.01189239,0.
 00138134,-0.00635681,0.07251202,-0.00591481,-0.09678625,-0.23461002,-0
 .13631063,0.29285188,-0.00181163,-0.00202849,0.00095265,-0.00365253,0.
 00491834,0.00153916,-0.02385129,-0.01470490,0.02774003,-0.15419752,-0.
 11785299,0.10715211,0.51736701,0.00055455,0.00101023,-0.00061018,0.003
 83851,-0.00018523,-0.00083002,-0.03070285,0.01282131,0.01853388,-0.107
 43078,-0.31776271,0.13650172,0.02581156,0.66326684,0.00052359,0.001142
 50,-0.00046122,0.00193771,-0.00348222,0.00075683,0.02327339,0.01367689
 ,-0.01135701,0.11139842,0.15515697,-0.17281117,-0.32047530,-0.15117971
 ,0.43268695,0.00027863,-0.00080550,-0.00033679,0.00058723,0.00146224,-
 0.00044652,-0.00766991,-0.00272536,-0.00219096,0.01373615,0.00846376,-
 0.00689536,-0.09221889,0.07631120,0.02854347,0.18486259,-0.00028968,-0
 .00007038,0.00056790,-0.00119047,-0.00085751,-0.00080540,0.02176425,0.
 00107430,-0.01356893,0.01101783,-0.07108398,0.02224286,0.06062514,-0.2
 6720256,0.01866112,-0.12044305,0.43602619,0.00038107,0.00062208,0.0000
 3085,-0.00059233,-0.00074260,-0.00010826,0.00377873,-0.00608352,-0.006
 60729,-0.01331961,0.01598035,0.01606857,0.03407077,0.00056325,-0.08367
 679,-0.12974480,0.02368034,0.27039775,0.00003129,-0.00006178,-0.000526
 92,0.00078433,0.00227253,0.00621548,0.01730115,0.00058620,-0.00289239,
 -0.00227948,-0.01136218,0.00441593,-0.02873790,0.03600721,0.01262419,-
 0.07382935,0.01170033,0.04162927,0.48370828,-0.00103959,0.00252101,0.0
 0057786,0.00499635,-0.00290200,-0.00406514,-0.02435640,-0.03761559,0.0
 0568826,-0.00098304,0.00303843,0.00149048,0.02951002,-0.01413653,-0.03
 110943,0.00581292,-0.09016671,-0.00044216,-0.04924755,0.58409988,-0.00
 223863,-0.00020123,-0.00040950,0.00773217,0.00166611,0.00853970,-0.015
 70408,-0.00115198,0.01501607,0.00344823,0.01458919,-0.01443542,0.01167
 344,-0.03123137,-0.00084115,0.04885348,-0.01266981,-0.15032572,0.06752
 641,-0.02701155,0.45252596,-0.00339818,-0.00051382,0.00160706,0.015425
 31,-0.01843031,-0.00558137,-0.13292017,0.11057867,0.03632796,-0.020929
 09,0.02928303,0.01875479,-0.00228985,0.01107555,-0.00186877,-0.0167179
 0,-0.01944776,0.01745603,-0.13131996,-0.04827557,0.02751057,0.57068194
 ,0.01306680,-0.00065248,-0.00636730,-0.01180693,-0.04076443,0.00574363
 ,0.10958783,-0.42309066,-0.05601083,0.02579977,-0.00126505,-0.01650143
 ,-0.00712250,-0.00761049,0.00217044,0.00479534,0.01136840,0.00386998,-
 0.05603349,-0.16318078,0.02164959,-0.09414230,0.72411760,0.00248048,0.
 00070740,-0.00117526,-0.00525210,0.00663310,0.00728655,0.04128089,-0.0
 5803935,-0.08112837,0.01174910,-0.01722864,0.00334616,0.00200373,0.001
 32402,0.00142189,0.02390564,0.01448724,-0.01502017,0.01619261,0.016380
 99,-0.07848269,-0.20801339,0.06397966,0.24351621,-0.02803708,0.0363534
 5,0.02374552,-0.07746050,0.06109430,0.00718466,0.00953893,-0.01301796,
 0.00553717,0.00135841,-0.00060518,-0.00097720,0.00025294,0.00029224,-0
 .00027372,0.00022413,-0.00012505,-0.00023682,-0.00028956,-0.00053273,-
 0.00077345,-0.00145688,-0.00266621,0.00119984,0.09576996,0.01995267,0.
 00839158,-0.00978824,0.05335839,-0.23503815,-0.02400809,0.01220364,-0.
 02177279,-0.00523456,0.00117789,-0.00019599,-0.00070397,-0.00040324,-0
 .00014041,0.00055004,-0.00055830,0.00097514,0.00017542,0.00167318,-0.0
 0090556,-0.00109148,-0.00494470,-0.00295176,0.00229855,-0.08073155,0.2
 5147938,0.02392871,-0.01772326,0.00894317,0.00772085,-0.02812878,-0.06
 475263,0.00452005,0.00677193,0.01690882,-0.00139191,0.00029112,-0.0003
 5871,0.00000747,-0.00021199,-0.00010029,-0.00000144,-0.00002802,0.0001
 5473,-0.00133629,0.00097587,-0.00158208,0.00174612,0.00116341,0.000711
 83,-0.03570383,0.03690903,0.03942096,0.00033428,-0.00098448,-0.0001625
 9,0.00097584,0.00357699,-0.00082859,-0.00564186,0.02231712,-0.00064702
 ,-0.09281606,0.10733461,0.02240817,0.00631482,-0.01368020,-0.00418943,
 0.00355288,-0.00271121,0.00656290,-0.00093847,0.00033739,0.00060155,-0
 .00448915,-0.00101910,0.00271747,0.00003366,-0.00137439,0.00001117,0.0
 9363935,0.00080071,0.00017486,-0.00041660,-0.00182495,-0.00013994,0.00
 078699,0.00054908,0.00013676,-0.00054175,0.10516845,-0.29430040,-0.017
 12317,0.01288204,-0.01911859,-0.00587953,-0.00184053,-0.00058890,0.003
 83920,-0.00035762,0.00084979,0.00059090,0.00001748,0.00063032,0.000106
 06,0.00050782,0.00041272,-0.00019599,-0.11508582,0.31157565,-0.0001037
 0,0.00047318,-0.00000754,-0.00083433,-0.00168105,-0.00020899,0.0033245
 1,-0.01479012,-0.00098459,0.02450222,-0.02094690,-0.03559627,-0.010368
 55,0.01363810,0.00073633,0.00657888,0.00431941,0.00604587,0.00060160,0
 .00062324,-0.00079346,0.00335575,0.00036765,-0.00073737,-0.00006925,0.
 00064237,-0.00000327,-0.02474390,0.01915751,0.03354425,-0.00011508,-0.
 00009579,-0.00020083,0.00026024,0.00024925,0.00020281,0.00520972,-0.00
 076077,0.00439794,-0.00465443,0.00108888,0.00885799,-0.21914515,0.0125
 5040,0.14485058,-0.00807296,0.00569657,0.00921151,0.00036851,0.0004511
 4,-0.00025548,-0.00013165,0.00154292,-0.00048511,0.00002739,-0.0000659
 4,0.00005130,-0.00141066,-0.00073342,-0.00273782,0.22819434,-0.0005406
 2,-0.00044374,0.00017086,-0.00058626,0.00100153,0.00035246,0.00075688,
 -0.00359436,0.00299937,-0.01971199,0.00649252,0.01424432,0.00750371,-0
 .05006863,0.00047617,0.02995248,-0.01328499,-0.02627784,0.00202079,-0.
 00370826,0.00412905,0.00005058,-0.00020018,-0.00022370,0.00001252,-0.0
 0007921,0.00003350,-0.00026063,0.00048800,-0.00111629,-0.02011965,0.06
 336644,0.00054061,0.00043084,-0.00048973,0.00064224,-0.00131082,0.0000
 1193,0.00485000,0.00458395,0.00456884,0.01053026,-0.00600903,-0.000065
 61,0.14738469,0.00123352,-0.16107810,0.00332693,-0.00788733,0.00029816
 ,-0.00094158,0.00052106,0.00574094,-0.00078275,0.00147347,-0.00030987,
 -0.00002409,0.00010902,0.00005156,-0.00221923,-0.00048324,-0.00252496,
 -0.16332847,0.00722813,0.15557082,-0.00027984,0.00011428,0.00026327,0.
 00045440,-0.00041168,-0.00155299,-0.00350674,-0.00293306,0.00124990,0.
 00050356,0.00065888,-0.00024546,-0.00152800,-0.00413503,0.00215114,-0.
 01324617,0.02136279,0.00481439,-0.11517106,0.10696185,-0.03751069,0.01
 314615,-0.01936733,0.00519381,0.00002590,-0.00037232,0.00033638,0.0001
 3567,0.00006411,-0.00004810,-0.00040651,0.00090458,0.00007293,0.128593
 20,-0.00034733,0.00003187,0.00030952,0.00054210,-0.00036789,-0.0015747
 6,-0.00373197,-0.00107665,0.00253336,0.00014453,0.00040071,0.00015436,
 0.00104528,0.00185158,-0.00023263,0.00580108,-0.00699259,-0.00443249,0
 .10978526,-0.22324127,0.05996996,0.01094530,-0.02104278,0.00645278,-0.
 00004940,-0.00039376,0.00025673,0.00002876,-0.00002644,0.00004595,0.00
 026150,-0.00034376,0.00013875,-0.12040352,0.24373266,0.00036900,0.0000
 1407,-0.00026079,-0.00058897,-0.00022013,0.00087051,0.00165526,0.00205
 483,-0.00006722,0.00020269,-0.00074074,-0.00007669,0.00445942,0.001577
 63,-0.00361777,0.02129629,-0.03278126,-0.00064496,-0.04415747,0.069809
 57,-0.06930015,-0.00504775,0.00343594,-0.00033540,-0.00003014,0.000169
 98,-0.00016870,-0.00017113,-0.00007664,0.00002129,0.00087095,-0.001303
 26,0.00017353,0.03385392,-0.06153979,0.07865925,-0.00076572,-0.0003354
 7,0.00022140,0.00130608,0.00130209,0.00080127,-0.00373711,0.00098718,0
 .00278632,0.00213098,0.00212275,-0.00493877,0.00309884,-0.00968246,0.0
 0187969,0.00917301,0.01316318,0.02524351,-0.14265141,-0.03031544,-0.11
 619337,-0.01054641,-0.01097496,-0.01141852,-0.00005463,-0.00019288,-0.
 00018907,0.00002237,0.00001992,-0.00018788,0.00042894,0.00014787,0.000
 42461,-0.00950058,-0.00352286,-0.01272515,0.15150242,-0.00047919,-0.00
 036082,0.00017137,0.00121486,0.00096158,0.00112448,-0.00343451,0.00048
 309,0.00204475,0.00158157,0.00088481,0.00003431,-0.00102136,0.00060392
 ,-0.00030539,-0.00078556,0.00152013,-0.01369332,-0.03014765,-0.0624765
 8,-0.03745398,-0.02041164,-0.01057311,-0.01607750,-0.00012799,-0.00020
 193,-0.00030451,0.00011608,-0.00003780,0.00012598,-0.00008659,0.000003
 81,-0.00015772,0.01656669,0.00646506,0.01934875,0.03803306,0.06379243,
 0.00063633,-0.00003580,-0.00006854,-0.00157419,-0.00094385,-0.00075640
 ,0.00122957,0.00357653,0.00001799,0.00145778,-0.00306243,0.00155298,-0
 .00470529,0.00781079,-0.00121641,0.00374263,-0.01592641,-0.03715245,-0
 .10474093,-0.03300907,-0.16706470,-0.00023812,-0.00116821,0.01214405,0
 .00006477,0.00010754,0.00024164,-0.00010318,0.00000640,0.00008586,-0.0
 0028858,-0.00031958,-0.00056591,-0.00828673,-0.00141812,-0.00549514,0.
 11340522,0.04512148,0.20008356,0.00067196,-0.00118002,-0.00017807,-0.0
 0272038,-0.00046168,-0.00220293,-0.00493150,0.00141685,0.00516665,0.00
 256136,0.00159606,0.00264011,0.00039915,-0.00080989,-0.00037495,-0.000
 65945,-0.00112288,0.00074538,-0.00697637,0.00668064,0.00532985,-0.2750
 5415,0.04834017,0.11844555,0.00006733,0.00027755,0.00030051,0.00028731
 ,-0.00016727,0.00073058,-0.00055267,-0.00013027,-0.00047616,0.00078002
 ,-0.00049875,0.00001308,-0.00040678,-0.00101777,-0.00059928,0.28653418
 ,-0.00194961,0.00104213,0.00094914,0.00278321,0.00135233,-0.00135919,0
 .02788975,-0.00090667,-0.01400223,0.00016263,-0.00468971,-0.00037103,0
 .00083739,-0.00332872,0.00035477,-0.00544072,-0.00071654,0.00294131,-0
 .01683523,0.00782417,0.00821660,0.04421547,-0.06478460,-0.02080063,-0.
 00040427,0.00042073,0.00019095,0.00140486,-0.00005604,-0.00085903,0.00
 002149,0.00037084,0.00012940,0.00098975,0.00100327,0.00025103,-0.00075
 198,-0.00106458,-0.00073925,-0.05292274,0.06353339,0.00000655,0.000515
 67,0.00033158,-0.00254182,0.00001940,-0.00621721,0.00711614,-0.0009571
 0,0.00309511,0.00228870,-0.00208752,0.00931519,-0.00143433,0.00288036,
 -0.00044209,0.00336855,-0.00029171,0.00053972,0.00539011,-0.00042998,0
 .00141221,0.11477387,-0.02380601,-0.09123757,0.00035654,-0.00013562,0.
 00053299,0.00076382,0.00022986,0.00042286,-0.00114679,-0.00039319,-0.0
 0138158,-0.00029177,-0.00066364,0.00024225,0.00089074,0.00002131,-0.00
 180654,-0.12954031,0.02509817,0.08519308\\0.00000728,0.00000043,-0.000
 00700,-0.00000971,0.00000116,0.00000736,0.00004571,-0.00001390,-0.0000
 4588,-0.00003055,0.00001210,0.00003240,-0.00001533,0.00002043,-0.00002
 166,-0.00000620,-0.00004367,0.00002534,0.00000434,0.00000661,-0.000031
 20,-0.00000915,0.00000872,0.00001046,0.00000792,-0.00000244,0.00000443
 ,-0.00000092,0.00000271,-0.00000615,-0.00000106,0.00000336,0.00001233,
 0.00000350,-0.00000214,0.00000697,-0.00000350,-0.00000024,0.00001202,0
 .00000766,0.00000689,0.00000059\\\@


    THE DOUGHNUT CREED
 AS YOU RAMBLE ON THROUGH LIFE, BROTHER
 WHATEVER BE YOUR GOAL
 KEEP YOUR EYE UPON THE DOUGHNUT
 AND NOT UPON THE HOLE.
 Job cpu time:       0 days  1 hours 10 minutes 41.4 seconds.
 Elapsed time:       0 days  0 hours 17 minutes 40.8 seconds.
 File lengths (MBytes):  RWF=     81 Int=      0 D2E=      0 Chk=      6 Scr=      1
 Normal termination of Gaussian 16 at Thu Aug  4 07:07:17 2022.
### All Done ###
