### Starting Gaussian ###
 Entering Gaussian System, Link 0=g16
 Initial command:
 /cluster/software/gaussian/gaussian-16-A.03/avx2/g16/l1.exe "/local/scratch/yxie/Gau-20363.inp" -scrdir="/local/scratch/yxie/"
 Entering Link 1 = /cluster/software/gaussian/gaussian-16-A.03/avx2/g16/l1.exe PID=     20364.
  
 Copyright (c) 1988,1990,1992,1993,1995,1998,2003,2009,2016,
            Gaussian, Inc.  All Rights Reserved.
  
 This is part of the Gaussian(R) 16 program.  It is based on
 the Gaussian(R) 09 system (copyright 2009, Gaussian, Inc.),
 the Gaussian(R) 03 system (copyright 2003, Gaussian, Inc.),
 the Gaussian(R) 98 system (copyright 1998, Gaussian, Inc.),
 the Gaussian(R) 94 system (copyright 1995, Gaussian, Inc.),
 the Gaussian 92(TM) system (copyright 1992, Gaussian, Inc.),
 the Gaussian 90(TM) system (copyright 1990, Gaussian, Inc.),
 the Gaussian 88(TM) system (copyright 1988, Gaussian, Inc.),
 the Gaussian 86(TM) system (copyright 1986, Carnegie Mellon
 University), and the Gaussian 82(TM) system (copyright 1983,
 Carnegie Mellon University). Gaussian is a federally registered
 trademark of Gaussian, Inc.
  
 This software contains proprietary and confidential information,
 including trade secrets, belonging to Gaussian, Inc.
  
 This software is provided under written license and may be
 used, copied, transmitted, or stored only in accord with that
 written license.
  
 The following legend is applicable only to US Government
 contracts under FAR:
  
                    RESTRICTED RIGHTS LEGEND
  
 Use, reproduction and disclosure by the US Government is
 subject to restrictions as set forth in subparagraphs (a)
 and (c) of the Commercial Computer Software - Restricted
 Rights clause in FAR 52.227-19.
  
 Gaussian, Inc.
 340 Quinnipiac St., Bldg. 40, Wallingford CT 06492
  
  
 ---------------------------------------------------------------
 Warning -- This program may not be used in any manner that
 competes with the business of Gaussian, Inc. or will provide
 assistance to any competitor of Gaussian, Inc.  The licensee
 of this program is prohibited from giving any competitor of
 Gaussian, Inc. access to this program.  By using this program,
 the user acknowledges that Gaussian, Inc. is engaged in the
 business of creating and licensing software in the field of
 computational chemistry and represents and warrants to the
 licensee that it is not a competitor of Gaussian, Inc. and that
 it will not use this program in any manner prohibited above.
 ---------------------------------------------------------------
  

 Cite this work as:
 Gaussian 16, Revision A.03,
 M. J. Frisch, G. W. Trucks, H. B. Schlegel, G. E. Scuseria, 
 M. A. Robb, J. R. Cheeseman, G. Scalmani, V. Barone, 
 G. A. Petersson, H. Nakatsuji, X. Li, M. Caricato, A. V. Marenich, 
 J. Bloino, B. G. Janesko, R. Gomperts, B. Mennucci, H. P. Hratchian, 
 J. V. Ortiz, A. F. Izmaylov, J. L. Sonnenberg, D. Williams-Young, 
 F. Ding, F. Lipparini, F. Egidi, J. Goings, B. Peng, A. Petrone, 
 T. Henderson, D. Ranasinghe, V. G. Zakrzewski, J. Gao, N. Rega, 
 G. Zheng, W. Liang, M. Hada, M. Ehara, K. Toyota, R. Fukuda, 
 J. Hasegawa, M. Ishida, T. Nakajima, Y. Honda, O. Kitao, H. Nakai, 
 T. Vreven, K. Throssell, J. A. Montgomery, Jr., J. E. Peralta, 
 F. Ogliaro, M. J. Bearpark, J. J. Heyd, E. N. Brothers, K. N. Kudin, 
 V. N. Staroverov, T. A. Keith, R. Kobayashi, J. Normand, 
 K. Raghavachari, A. P. Rendell, J. C. Burant, S. S. Iyengar, 
 J. Tomasi, M. Cossi, J. M. Millam, M. Klene, C. Adamo, R. Cammi, 
 J. W. Ochterski, R. L. Martin, K. Morokuma, O. Farkas, 
 J. B. Foresman, and D. J. Fox, Gaussian, Inc., Wallingford CT, 2016.
 
 ******************************************
 Gaussian 16:  ES64L-G16RevA.03 25-Dec-2016
                 4-Aug-2022 
 ******************************************
 %chk=OdCC1dCCdC2CC12.chk
 %NProcShared=20
 Will use up to   20 processors via shared memory.
 -----------------------------
 # opt freq b3lyp/6-31g(2df,p)
 -----------------------------
 1/18=20,19=15,26=3,38=1/1,3;
 2/9=110,12=2,17=6,18=5,40=1/2;
 3/5=1,6=6,7=104,11=2,25=1,30=1,71=1,74=-5/1,2,3;
 4//1;
 5/5=2,38=5/2;
 6/7=2,8=2,9=2,10=2,28=1/1;
 7//1,2,3,16;
 1/18=20,19=15,26=3/3(2);
 2/9=110/2;
 99//99;
 2/9=110/2;
 3/5=1,6=6,7=104,11=2,25=1,30=1,71=1,74=-5/1,2,3;
 4/5=5,16=3,69=1/1;
 5/5=2,38=5/2;
 7//1,2,3,16;
 1/18=20,19=15,26=3/3(-5);
 2/9=110/2;
 6/7=2,8=2,9=2,10=2,19=2,28=1/1;
 99/9=1/99;
 -------------------
 Title Card Required
 -------------------
 Symbolic Z-matrix:
 Charge =  0 Multiplicity = 1
 O                     0.98      0.0099    0.00837 
 C                     2.19942  -0.05296   0.11366 
 C                     2.99954  -1.02154  -0.66931 
 C                     4.12496  -1.54583  -0.16511 
 C                     4.68589  -2.40509  -1.16173 
 C                     3.99969  -2.39961  -2.29727 
 C                     3.05865  -2.05929  -3.22751 
 C                     2.55424  -1.57652  -1.96018 
 H                     2.76654   0.63027   0.76592 
 H                     4.55908  -1.39645   0.81029 
 H                     5.60317  -2.96455  -1.02034 
 H                     2.46434  -2.85942  -3.65389 
 H                     3.39033  -1.35328  -3.98296 
 H                     1.88409  -0.83558  -2.41351 
 

 GradGradGradGradGradGradGradGradGradGradGradGradGradGradGradGradGradGrad
 Berny optimization.
 Initialization pass.
                           ----------------------------
                           !    Initial Parameters    !
                           ! (Angstroms and Degrees)  !
 --------------------------                            --------------------------
 ! Name  Definition              Value          Derivative Info.                !
 --------------------------------------------------------------------------------
 ! R1    R(1,2)                  1.2256         estimate D2E/DX2                !
 ! R2    R(2,3)                  1.4803         estimate D2E/DX2                !
 ! R3    R(2,9)                  1.1018         estimate D2E/DX2                !
 ! R4    R(3,4)                  1.34           estimate D2E/DX2                !
 ! R5    R(3,8)                  1.474          estimate D2E/DX2                !
 ! R6    R(4,5)                  1.4305         estimate D2E/DX2                !
 ! R7    R(4,10)                 1.078          estimate D2E/DX2                !
 ! R8    R(5,6)                  1.3268         estimate D2E/DX2                !
 ! R9    R(5,11)                 1.0837         estimate D2E/DX2                !
 ! R10   R(6,7)                  1.3663         estimate D2E/DX2                !
 ! R11   R(6,8)                  1.6972         estimate D2E/DX2                !
 ! R12   R(7,8)                  1.4469         estimate D2E/DX2                !
 ! R13   R(7,12)                 1.0841         estimate D2E/DX2                !
 ! R14   R(7,13)                 1.0859         estimate D2E/DX2                !
 ! R15   R(8,14)                 1.0971         estimate D2E/DX2                !
 ! A1    A(1,2,3)              121.7294         estimate D2E/DX2                !
 ! A2    A(1,2,9)              122.0874         estimate D2E/DX2                !
 ! A3    A(3,2,9)              116.1459         estimate D2E/DX2                !
 ! A4    A(2,3,4)              120.7255         estimate D2E/DX2                !
 ! A5    A(2,3,8)              123.1117         estimate D2E/DX2                !
 ! A6    A(4,3,8)              115.8443         estimate D2E/DX2                !
 ! A7    A(3,4,5)              107.5902         estimate D2E/DX2                !
 ! A8    A(3,4,10)             128.6398         estimate D2E/DX2                !
 ! A9    A(5,4,10)             123.7591         estimate D2E/DX2                !
 ! A10   A(4,5,6)              113.0167         estimate D2E/DX2                !
 ! A11   A(4,5,11)             123.444          estimate D2E/DX2                !
 ! A12   A(6,5,11)             123.4746         estimate D2E/DX2                !
 ! A13   A(5,6,7)              160.0461         estimate D2E/DX2                !
 ! A14   A(5,6,8)              105.8127         estimate D2E/DX2                !
 ! A15   A(6,7,12)             117.4864         estimate D2E/DX2                !
 ! A16   A(6,7,13)             115.1656         estimate D2E/DX2                !
 ! A17   A(8,7,12)             113.5556         estimate D2E/DX2                !
 ! A18   A(8,7,13)             119.9266         estimate D2E/DX2                !
 ! A19   A(12,7,13)            111.9438         estimate D2E/DX2                !
 ! A20   A(3,8,6)               95.6958         estimate D2E/DX2                !
 ! A21   A(3,8,7)              141.9403         estimate D2E/DX2                !
 ! A22   A(3,8,14)             106.9855         estimate D2E/DX2                !
 ! A23   A(6,8,14)             139.97           estimate D2E/DX2                !
 ! A24   A(7,8,14)              94.3794         estimate D2E/DX2                !
 ! D1    D(1,2,3,4)           -147.8937         estimate D2E/DX2                !
 ! D2    D(1,2,3,8)             25.3529         estimate D2E/DX2                !
 ! D3    D(9,2,3,4)             34.2862         estimate D2E/DX2                !
 ! D4    D(9,2,3,8)           -152.4671         estimate D2E/DX2                !
 ! D5    D(2,3,4,5)           -178.3069         estimate D2E/DX2                !
 ! D6    D(2,3,4,10)             2.8727         estimate D2E/DX2                !
 ! D7    D(8,3,4,5)              7.9764         estimate D2E/DX2                !
 ! D8    D(8,3,4,10)          -170.8439         estimate D2E/DX2                !
 ! D9    D(2,3,8,6)            173.7292         estimate D2E/DX2                !
 ! D10   D(2,3,8,7)            148.414          estimate D2E/DX2                !
 ! D11   D(2,3,8,14)            27.1061         estimate D2E/DX2                !
 ! D12   D(4,3,8,6)            -12.72           estimate D2E/DX2                !
 ! D13   D(4,3,8,7)            -38.0351         estimate D2E/DX2                !
 ! D14   D(4,3,8,14)          -159.3431         estimate D2E/DX2                !
 ! D15   D(3,4,5,6)              2.9801         estimate D2E/DX2                !
 ! D16   D(3,4,5,11)          -179.8552         estimate D2E/DX2                !
 ! D17   D(10,4,5,6)          -178.1282         estimate D2E/DX2                !
 ! D18   D(10,4,5,11)           -0.9635         estimate D2E/DX2                !
 ! D19   D(4,5,6,7)              5.0579         estimate D2E/DX2                !
 ! D20   D(4,5,6,8)            -10.6835         estimate D2E/DX2                !
 ! D21   D(11,5,6,7)          -172.1059         estimate D2E/DX2                !
 ! D22   D(11,5,6,8)           172.1527         estimate D2E/DX2                !
 ! D23   D(5,6,7,12)          -127.2567         estimate D2E/DX2                !
 ! D24   D(5,6,7,13)            97.5197         estimate D2E/DX2                !
 ! D25   D(5,6,8,3)             13.4189         estimate D2E/DX2                !
 ! D26   D(5,6,8,14)           138.5312         estimate D2E/DX2                !
 ! D27   D(12,7,8,3)           146.8816         estimate D2E/DX2                !
 ! D28   D(12,7,8,14)          -88.1542         estimate D2E/DX2                !
 ! D29   D(13,7,8,3)           -76.9525         estimate D2E/DX2                !
 ! D30   D(13,7,8,14)           48.0117         estimate D2E/DX2                !
 --------------------------------------------------------------------------------
 Trust Radius=3.00D-01 FncErr=1.00D-07 GrdErr=1.00D-06 EigMax=2.50D+02 EigMin=1.00D-04
 Number of steps in this run=     79 maximum allowed number of steps=    100.
 GradGradGradGradGradGradGradGradGradGradGradGradGradGradGradGradGradGrad

                          Input orientation:                          
 ---------------------------------------------------------------------
 Center     Atomic      Atomic             Coordinates (Angstroms)
 Number     Number       Type             X           Y           Z
 ---------------------------------------------------------------------
      1          8           0        0.980000    0.009900    0.008370
      2          6           0        2.199420   -0.052960    0.113660
      3          6           0        2.999540   -1.021540   -0.669310
      4          6           0        4.124960   -1.545830   -0.165110
      5          6           0        4.685890   -2.405090   -1.161730
      6          6           0        3.999690   -2.399610   -2.297270
      7          6           0        3.058650   -2.059290   -3.227510
      8          6           0        2.554240   -1.576520   -1.960180
      9          1           0        2.766540    0.630270    0.765920
     10          1           0        4.559080   -1.396450    0.810290
     11          1           0        5.603170   -2.964550   -1.020340
     12          1           0        2.464340   -2.859420   -3.653890
     13          1           0        3.390330   -1.353280   -3.982960
     14          1           0        1.884090   -0.835580   -2.413510
 ---------------------------------------------------------------------
                    Distance matrix (angstroms):
                    1          2          3          4          5
     1  O    0.000000
     2  C    1.225570   0.000000
     3  C    2.366783   1.480331   0.000000
     4  C    3.512999   2.452362   1.340025   0.000000
     5  C    4.575471   3.652625   2.236172   1.430462   0.000000
     6  C    4.498916   3.815799   2.355765   2.300161   1.326782
     7  C    4.367293   3.990871   2.761305   3.283131   2.652345
     8  C    2.978280   2.597681   1.473988   2.385452   2.422392
     9  H    2.037269   1.101758   2.200602   2.729017   4.075923
    10  H    3.928194   2.803258   2.182187   1.078044   2.218625
    11  H    5.592790   4.620479   3.267629   2.220200   1.083692
    12  H    4.883483   4.705405   3.545696   4.081025   3.369356
    13  H    4.857846   4.459977   3.353065   3.892651   3.277822
    14  H    2.719875   2.664304   2.078712   3.252884   3.446795
                    6          7          8          9         10
     6  C    0.000000
     7  C    1.366280   0.000000
     8  C    1.697184   1.446935   0.000000
     9  H    4.481514   4.823541   3.513775   0.000000
    10  H    3.313031   4.358265   3.424516   2.706060   0.000000
    11  H    2.126230   3.487933   3.479353   4.915275   2.626836
    12  H    2.099796   1.084072   2.126633   5.639502   5.143649
    13  H    2.075494   1.085894   2.200119   5.184153   4.933871
    14  H    2.633527   1.881397   1.097088   3.610569   4.226468
                   11         12         13         14
    11  H    0.000000
    12  H    4.098645   0.000000
    13  H    4.033605   1.798389   0.000000
    14  H    4.506106   2.443596   2.236056   0.000000
 Stoichiometry    C7H6O
 Framework group  C1[X(C7H6O)]
 Deg. of freedom    36
 Full point group                 C1      NOp   1
 Largest Abelian subgroup         C1      NOp   1
 Largest concise Abelian subgroup C1      NOp   1
                         Standard orientation:                         
 ---------------------------------------------------------------------
 Center     Atomic      Atomic             Coordinates (Angstroms)
 Number     Number       Type             X           Y           Z
 ---------------------------------------------------------------------
      1          8           0        2.637021   -0.666412   -0.249929
      2          6           0        1.975791    0.248458    0.227367
      3          6           0        0.504986    0.309751    0.071304
      4          6           0       -0.126515    1.488963   -0.008287
      5          6           0       -1.528054    1.222585   -0.112940
      6          6           0       -1.817270   -0.070232   -0.039926
      7          6           0       -1.649450   -1.416778    0.119351
      8          6           0       -0.331663   -0.883419   -0.150067
      9          1           0        2.434213    1.050817    0.827317
     10          1           0        0.297152    2.480231   -0.016785
     11          1           0       -2.279207    1.999465   -0.194283
     12          1           0       -2.023710   -2.063955   -0.665700
     13          1           0       -1.887873   -1.798110    1.107737
     14          1           0        0.196310   -1.733117    0.300332
 ---------------------------------------------------------------------
 Rotational constants (GHZ):           4.4512955           1.7616651           1.2929244
 Standard basis: 6-31G(2df,p) (6D, 7F)
 There are   278 symmetry adapted cartesian basis functions of A   symmetry.
 There are   254 symmetry adapted basis functions of A   symmetry.
   254 basis functions,   394 primitive gaussians,   278 cartesian basis functions
    28 alpha electrons       28 beta electrons
       nuclear repulsion energy       326.8890338781 Hartrees.
 NAtoms=   14 NActive=   14 NUniq=   14 SFac= 1.00D+00 NAtFMM=   60 NAOKFM=F Big=F
 Integral buffers will be    131072 words long.
 Raffenetti 2 integral format.
 Two-electron integral symmetry is turned on.
 One-electron integrals computed using PRISM.
 PrsmSu:  requested number of processors reduced to:  13 ShMem   1 Linda.
 NBasis=   254 RedAO= T EigKep=  2.82D-04  NBF=   254
 NBsUse=   254 1.00D-06 EigRej= -1.00D+00 NBFU=   254
 ExpMin= 1.61D-01 ExpMax= 5.48D+03 ExpMxC= 8.25D+02 IAcc=3 IRadAn=         5 AccDes= 0.00D+00
 Harris functional with IExCor=  402 and IRadAn=       5 diagonalized for initial guess.
 HarFok:  IExCor=  402 AccDes= 0.00D+00 IRadAn=         5 IDoV= 1 UseB2=F ITyADJ=14
 ICtDFT=  3500011 ScaDFX=  1.000000  1.000000  1.000000  1.000000
 FoFCou: FMM=F IPFlag=           0 FMFlag=      100000 FMFlg1=           0
         NFxFlg=           0 DoJE=T BraDBF=F KetDBF=T FulRan=T
         wScrn=  0.000000 ICntrl=       500 IOpCl=  0 I1Cent=   200000004 NGrid=           0
         NMat0=    1 NMatS0=      1 NMatT0=    0 NMatD0=    1 NMtDS0=    0 NMtDT0=    0
 Petite list used in FoFCou.
 Requested convergence on RMS density matrix=1.00D-08 within 128 cycles.
 Requested convergence on MAX density matrix=1.00D-06.
 Requested convergence on             energy=1.00D-06.
 No special actions if energy rises.
 Integral accuracy reduced to 1.0D-05 until final iterations.
 Initial convergence to 1.0D-05 achieved.  Increase integral accuracy.
 SCF Done:  E(RB3LYP) =  -345.362561866     A.U. after   16 cycles
            NFock= 16  Conv=0.84D-08     -V/T= 2.0065

 **********************************************************************

            Population analysis using the SCF density.

 **********************************************************************

 Orbital symmetries:
       Occupied  (A) (A) (A) (A) (A) (A) (A) (A) (A) (A) (A) (A)
                 (A) (A) (A) (A) (A) (A) (A) (A) (A) (A) (A) (A)
                 (A) (A) (A) (A)
       Virtual   (A) (A) (A) (A) (A) (A) (A) (A) (A) (A) (A) (A)
                 (A) (A) (A) (A) (A) (A) (A) (A) (A) (A) (A) (A)
                 (A) (A) (A) (A) (A) (A) (A) (A) (A) (A) (A) (A)
                 (A) (A) (A) (A) (A) (A) (A) (A) (A) (A) (A) (A)
                 (A) (A) (A) (A) (A) (A) (A) (A) (A) (A) (A) (A)
                 (A) (A) (A) (A) (A) (A) (A) (A) (A) (A) (A) (A)
                 (A) (A) (A) (A) (A) (A) (A) (A) (A) (A) (A) (A)
                 (A) (A) (A) (A) (A) (A) (A) (A) (A) (A) (A) (A)
                 (A) (A) (A) (A) (A) (A) (A) (A) (A) (A) (A) (A)
                 (A) (A) (A) (A) (A) (A) (A) (A) (A) (A) (A) (A)
                 (A) (A) (A) (A) (A) (A) (A) (A) (A) (A) (A) (A)
                 (A) (A) (A) (A) (A) (A) (A) (A) (A) (A) (A) (A)
                 (A) (A) (A) (A) (A) (A) (A) (A) (A) (A) (A) (A)
                 (A) (A) (A) (A) (A) (A) (A) (A) (A) (A) (A) (A)
                 (A) (A) (A) (A) (A) (A) (A) (A) (A) (A) (A) (A)
                 (A) (A) (A) (A) (A) (A) (A) (A) (A) (A) (A) (A)
                 (A) (A) (A) (A) (A) (A) (A) (A) (A) (A) (A) (A)
                 (A) (A) (A) (A) (A) (A) (A) (A) (A) (A) (A) (A)
                 (A) (A) (A) (A) (A) (A) (A) (A) (A) (A)
 The electronic state is 1-A.
 Alpha  occ. eigenvalues --  -19.12685 -10.26459 -10.25774 -10.25342 -10.20838
 Alpha  occ. eigenvalues --  -10.20280 -10.19848 -10.17677  -1.02504  -0.93059
 Alpha  occ. eigenvalues --   -0.81977  -0.74533  -0.63991  -0.62461  -0.58309
 Alpha  occ. eigenvalues --   -0.53666  -0.49889  -0.49290  -0.45859  -0.43637
 Alpha  occ. eigenvalues --   -0.41669  -0.40079  -0.37940  -0.35133  -0.33565
 Alpha  occ. eigenvalues --   -0.25115  -0.24200  -0.18981
 Alpha virt. eigenvalues --   -0.05965  -0.03953   0.02314   0.07422   0.10080
 Alpha virt. eigenvalues --    0.12031   0.13480   0.14745   0.16881   0.17619
 Alpha virt. eigenvalues --    0.18883   0.22919   0.26418   0.29386   0.30103
 Alpha virt. eigenvalues --    0.34501   0.36750   0.39386   0.41486   0.43521
 Alpha virt. eigenvalues --    0.46490   0.48565   0.49380   0.50750   0.51402
 Alpha virt. eigenvalues --    0.55744   0.56364   0.57815   0.58350   0.58655
 Alpha virt. eigenvalues --    0.62174   0.62622   0.63781   0.65687   0.68733
 Alpha virt. eigenvalues --    0.70006   0.71777   0.73317   0.74308   0.75426
 Alpha virt. eigenvalues --    0.75606   0.77865   0.79141   0.79446   0.81333
 Alpha virt. eigenvalues --    0.83345   0.86444   0.86681   0.87483   0.91575
 Alpha virt. eigenvalues --    0.94439   0.96540   0.97898   0.99869   1.02901
 Alpha virt. eigenvalues --    1.03363   1.08092   1.09359   1.11004   1.15447
 Alpha virt. eigenvalues --    1.17808   1.20868   1.21441   1.24714   1.28997
 Alpha virt. eigenvalues --    1.30092   1.34224   1.35246   1.37611   1.39474
 Alpha virt. eigenvalues --    1.43373   1.44153   1.46264   1.49232   1.50565
 Alpha virt. eigenvalues --    1.54967   1.57465   1.59473   1.60482   1.63040
 Alpha virt. eigenvalues --    1.64250   1.67991   1.72939   1.74920   1.76909
 Alpha virt. eigenvalues --    1.79534   1.81190   1.86126   1.89464   1.93865
 Alpha virt. eigenvalues --    1.95377   2.00065   2.04646   2.07927   2.19794
 Alpha virt. eigenvalues --    2.20978   2.22545   2.25760   2.28971   2.33572
 Alpha virt. eigenvalues --    2.38194   2.39024   2.42191   2.47104   2.49047
 Alpha virt. eigenvalues --    2.59019   2.61724   2.67042   2.70656   2.72891
 Alpha virt. eigenvalues --    2.74990   2.77442   2.82165   2.84081   2.86006
 Alpha virt. eigenvalues --    2.89286   2.92627   2.94264   2.95212   2.97812
 Alpha virt. eigenvalues --    3.01318   3.02370   3.05533   3.06570   3.08309
 Alpha virt. eigenvalues --    3.09894   3.15235   3.16957   3.18106   3.19421
 Alpha virt. eigenvalues --    3.23758   3.25250   3.26765   3.30216   3.30358
 Alpha virt. eigenvalues --    3.34407   3.35433   3.37245   3.41984   3.43745
 Alpha virt. eigenvalues --    3.44230   3.47642   3.49154   3.54672   3.56993
 Alpha virt. eigenvalues --    3.58963   3.60798   3.66017   3.70948   3.74132
 Alpha virt. eigenvalues --    3.77666   3.80032   3.81029   3.86469   3.88761
 Alpha virt. eigenvalues --    3.98529   4.04184   4.05421   4.07390   4.12870
 Alpha virt. eigenvalues --    4.14302   4.15752   4.17533   4.22072   4.26835
 Alpha virt. eigenvalues --    4.28482   4.29721   4.32398   4.36447   4.39399
 Alpha virt. eigenvalues --    4.41004   4.43888   4.45743   4.49402   4.49818
 Alpha virt. eigenvalues --    4.52644   4.56886   4.57985   4.58907   4.61558
 Alpha virt. eigenvalues --    4.64630   4.66869   4.69741   4.72141   4.73356
 Alpha virt. eigenvalues --    4.78426   4.80309   4.84795   4.88660   4.90004
 Alpha virt. eigenvalues --    4.93318   4.97857   4.99059   5.02865   5.05241
 Alpha virt. eigenvalues --    5.09231   5.09819   5.10882   5.18197   5.22425
 Alpha virt. eigenvalues --    5.24443   5.34853   5.41544   5.46359   5.51363
 Alpha virt. eigenvalues --    5.53282   5.54525   5.67461   5.72989   5.73668
 Alpha virt. eigenvalues --    5.82549   5.88490   6.01174   6.10011   6.28871
 Alpha virt. eigenvalues --    6.36514   6.71499   6.85335   9.83926  10.40404
 Alpha virt. eigenvalues --   10.81035  11.12069  11.77085  11.98699  12.32878
 Alpha virt. eigenvalues --   12.95492
          Condensed to atoms (all electrons):
               1          2          3          4          5          6
     1  O    7.652661   0.751626  -0.090603   0.002311  -0.000247   0.000173
     2  C    0.751626   4.643171   0.225764  -0.032065   0.000681   0.002777
     3  C   -0.090603   0.225764   4.994202   0.506110   0.032572  -0.041419
     4  C    0.002311  -0.032065   0.506110   4.976985   0.456473  -0.011974
     5  C   -0.000247   0.000681   0.032572   0.456473   4.909595   0.623575
     6  C    0.000173   0.002777  -0.041419  -0.011974   0.623575   4.645953
     7  C    0.000360   0.003577  -0.018834  -0.022081  -0.026472   0.456812
     8  C    0.005492  -0.011661   0.422433  -0.035599  -0.081984   0.168486
     9  H   -0.054282   0.364936  -0.123243   0.000286  -0.000256   0.000044
    10  H    0.000143  -0.004406  -0.051097   0.377199  -0.052615   0.006372
    11  H    0.000001  -0.000114   0.003056  -0.031548   0.353781  -0.031397
    12  H    0.000004  -0.000032  -0.001499   0.001411  -0.002757  -0.034158
    13  H    0.000002   0.000097   0.001390   0.001203   0.000782  -0.032467
    14  H    0.005811   0.001377  -0.032238   0.004124   0.004264  -0.018803
               7          8          9         10         11         12
     1  O    0.000360   0.005492  -0.054282   0.000143   0.000001   0.000004
     2  C    0.003577  -0.011661   0.364936  -0.004406  -0.000114  -0.000032
     3  C   -0.018834   0.422433  -0.123243  -0.051097   0.003056  -0.001499
     4  C   -0.022081  -0.035599   0.000286   0.377199  -0.031548   0.001411
     5  C   -0.026472  -0.081984  -0.000256  -0.052615   0.353781  -0.002757
     6  C    0.456812   0.168486   0.000044   0.006372  -0.031397  -0.034158
     7  C    5.012957   0.240848   0.000025  -0.000338   0.002744   0.386213
     8  C    0.240848   5.240077   0.007352   0.007874   0.003406  -0.047112
     9  H    0.000025   0.007352   0.709295   0.003375   0.000018   0.000001
    10  H   -0.000338   0.007874   0.003375   0.614987  -0.001440   0.000019
    11  H    0.002744   0.003406   0.000018  -0.001440   0.572382  -0.000038
    12  H    0.386213  -0.047112   0.000001   0.000019  -0.000038   0.640447
    13  H    0.343822  -0.031826   0.000003  -0.000001  -0.000119  -0.080052
    14  H   -0.036642   0.328638   0.000706  -0.000208  -0.000067  -0.001591
              13         14
     1  O    0.000002   0.005811
     2  C    0.000097   0.001377
     3  C    0.001390  -0.032238
     4  C    0.001203   0.004124
     5  C    0.000782   0.004264
     6  C   -0.032467  -0.018803
     7  C    0.343822  -0.036642
     8  C   -0.031826   0.328638
     9  H    0.000003   0.000706
    10  H   -0.000001  -0.000208
    11  H   -0.000119  -0.000067
    12  H   -0.080052  -0.001591
    13  H    0.694270  -0.012406
    14  H   -0.012406   0.583300
 Mulliken charges:
               1
     1  O   -0.273454
     2  C    0.054270
     3  C    0.173404
     4  C   -0.192834
     5  C   -0.217393
     6  C    0.266027
     7  C   -0.342990
     8  C   -0.216425
     9  H    0.091740
    10  H    0.100138
    11  H    0.129336
    12  H    0.139145
    13  H    0.115302
    14  H    0.173733
 Sum of Mulliken charges =  -0.00000
 Mulliken charges with hydrogens summed into heavy atoms:
               1
     1  O   -0.273454
     2  C    0.146010
     3  C    0.173404
     4  C   -0.092696
     5  C   -0.088057
     6  C    0.266027
     7  C   -0.088543
     8  C   -0.042692
 Electronic spatial extent (au):  <R**2>=            884.8137
 Charge=             -0.0000 electrons
 Dipole moment (field-independent basis, Debye):
    X=             -3.3693    Y=              0.7378    Z=              1.4861  Tot=              3.7557
 Quadrupole moment (field-independent basis, Debye-Ang):
   XX=            -48.4449   YY=            -40.8272   ZZ=            -47.4870
   XY=              4.9945   XZ=              2.2553   YZ=             -1.5227
 Traceless Quadrupole moment (field-independent basis, Debye-Ang):
   XX=             -2.8586   YY=              4.7592   ZZ=             -1.9006
   XY=              4.9945   XZ=              2.2553   YZ=             -1.5227
 Octapole moment (field-independent basis, Debye-Ang**2):
  XXX=            -20.0816  YYY=             -1.0186  ZZZ=              0.8801  XYY=             -3.5791
  XXY=             11.4281  XXZ=              4.9895  XZZ=              5.2313  YZZ=             -3.0429
  YYZ=              0.7981  XYZ=             -0.0804
 Hexadecapole moment (field-independent basis, Debye-Ang**3):
 XXXX=           -785.6351 YYYY=           -328.3991 ZZZZ=            -63.4397 XXXY=             19.3599
 XXXZ=             11.0826 YYYX=             -5.4213 YYYZ=             -2.7231 ZZZX=             -3.1602
 ZZZY=             -0.7180 XXYY=           -169.6540 XXZZ=           -131.8140 YYZZ=            -71.9330
 XXYZ=             -1.8339 YYXZ=              3.3408 ZZXY=              1.8150
 N-N= 3.268890338781D+02 E-N=-1.457135883548D+03  KE= 3.431235035377D+02
 PrsmSu:  requested number of processors reduced to:  13 ShMem   1 Linda.
 Calling FoFJK, ICntrl=      2127 FMM=F ISym2X=0 I1Cent= 0 IOpClX= 0 NMat=1 NMatS=1 NMatT=0.
 ***** Axes restored to original set *****
 -------------------------------------------------------------------
 Center     Atomic                   Forces (Hartrees/Bohr)
 Number     Number              X              Y              Z
 -------------------------------------------------------------------
      1        8           0.020846312    0.008866351    0.005835396
      2        6          -0.036272293   -0.013296884   -0.024230589
      3        6          -0.039057153   -0.000095970   -0.025220607
      4        6           0.047889398   -0.023440936    0.000076243
      5        6           0.028787160    0.004238987    0.021001370
      6        6          -0.013110908   -0.004433781    0.021004206
      7        6           0.046355600   -0.049959242   -0.078733238
      8        6          -0.033322482    0.070590077    0.088831782
      9        1           0.002687989   -0.001684777    0.006046251
     10        1          -0.000862882    0.001095830    0.002002571
     11        1          -0.001034407   -0.002202172   -0.003377083
     12        1          -0.009819106   -0.003764846   -0.008645662
     13        1          -0.005011947    0.011631534   -0.012052406
     14        1          -0.008075282    0.002455830    0.007461767
 -------------------------------------------------------------------
 Cartesian Forces:  Max     0.088831782 RMS     0.028895410

 GradGradGradGradGradGradGradGradGradGradGradGradGradGradGradGradGradGrad
 Berny optimization.
 FormGI is forming the generalized inverse of G from B-inverse, IUseBI=4.
 Internal  Forces:  Max     0.085042984 RMS     0.015110314
 Search for a local minimum.
 Step number   1 out of a maximum of   79
 All quantities printed in internal units (Hartrees-Bohrs-Radians)
 Mixed Optimization -- RFO/linear search
 Second derivative matrix not updated -- first step.
 ITU=  0
     Eigenvalues ---    0.01026   0.01033   0.01473   0.01592   0.02179
     Eigenvalues ---    0.02207   0.02468   0.02505   0.02797   0.05932
     Eigenvalues ---    0.06772   0.11344   0.11559   0.12065   0.15976
     Eigenvalues ---    0.15995   0.16000   0.19048   0.21684   0.22002
     Eigenvalues ---    0.22726   0.24791   0.33247   0.33488   0.34006
     Eigenvalues ---    0.34532   0.35291   0.35507   0.35552   0.35715
     Eigenvalues ---    0.36232   0.39030   0.45343   0.52922   0.58391
     Eigenvalues ---    0.92957
 RFO step:  Lambda=-4.19257552D-02 EMin= 1.02612451D-02
 Linear search not attempted -- first point.
 Maximum step size (   0.300) exceeded in Quadratic search.
    -- Step size scaled by   0.952
 Iteration  1 RMS(Cart)=  0.05053349 RMS(Int)=  0.00342899
 Iteration  2 RMS(Cart)=  0.00196063 RMS(Int)=  0.00062705
 Iteration  3 RMS(Cart)=  0.00001202 RMS(Int)=  0.00062692
 Iteration  4 RMS(Cart)=  0.00000001 RMS(Int)=  0.00062692
 Variable       Old X    -DE/DX   Delta X   Delta X   Delta X     New X
                                 (Linear)    (Quad)   (Total)
    R1        2.31599  -0.02079   0.00000  -0.02037  -0.02037   2.29562
    R2        2.79742  -0.00365   0.00000  -0.00897  -0.00897   2.78845
    R3        2.08202   0.00392   0.00000   0.00990   0.00990   2.09192
    R4        2.53228   0.04991   0.00000   0.08068   0.08082   2.61311
    R5        2.78543  -0.03242   0.00000  -0.07748  -0.07781   2.70762
    R6        2.70318  -0.01074   0.00000  -0.01983  -0.01938   2.68380
    R7        2.03721   0.00162   0.00000   0.00381   0.00381   2.04101
    R8        2.50726   0.02132   0.00000   0.02983   0.02998   2.53723
    R9        2.04788  -0.00018   0.00000  -0.00043  -0.00043   2.04745
   R10        2.58189   0.02248   0.00000   0.03622   0.03709   2.61899
   R11        3.20721   0.01621   0.00000   0.04267   0.04204   3.24925
   R12        2.73431   0.08504   0.00000   0.20197   0.20153   2.93584
   R13        2.04860   0.01156   0.00000   0.02773   0.02773   2.07633
   R14        2.05204   0.01442   0.00000   0.03476   0.03476   2.08680
   R15        2.07320   0.00351   0.00000   0.00874   0.00874   2.08194
    A1        2.12458   0.01639   0.00000   0.05974   0.05961   2.18419
    A2        2.13083  -0.00691   0.00000  -0.02345  -0.02358   2.10725
    A3        2.02713  -0.00942   0.00000  -0.03528  -0.03541   1.99171
    A4        2.10706   0.01262   0.00000   0.03855   0.03884   2.14589
    A5        2.14870  -0.01439   0.00000  -0.04993  -0.04971   2.09899
    A6        2.02186   0.00175   0.00000   0.01282   0.01222   2.03409
    A7        1.87780  -0.00087   0.00000   0.00715   0.00733   1.88513
    A8        2.24519  -0.00144   0.00000  -0.01236  -0.01250   2.23269
    A9        2.16000   0.00229   0.00000   0.00495   0.00481   2.16482
   A10        1.97251  -0.00699   0.00000  -0.02630  -0.02625   1.94626
   A11        2.15451   0.00771   0.00000   0.03338   0.03318   2.18768
   A12        2.15504  -0.00069   0.00000  -0.00580  -0.00601   2.14902
   A13        2.79333   0.03162   0.00000   0.08574   0.08500   2.87833
   A14        1.84678   0.00306   0.00000   0.01763   0.01706   1.86384
   A15        2.05052   0.01321   0.00000   0.05295   0.05208   2.10260
   A16        2.01002   0.00753   0.00000   0.03971   0.03738   2.04740
   A17        1.98192   0.00409   0.00000  -0.00409  -0.00398   1.97793
   A18        2.09311   0.00098   0.00000  -0.02100  -0.02036   2.07275
   A19        1.95379  -0.00510   0.00000  -0.01920  -0.02141   1.93238
   A20        1.67021   0.00254   0.00000  -0.00308  -0.00280   1.66741
   A21        2.47733   0.00179   0.00000   0.00274   0.00123   2.47856
   A22        1.86725  -0.00534   0.00000  -0.00177  -0.00276   1.86449
   A23        2.44294   0.00355   0.00000   0.03877   0.03830   2.48124
   A24        1.64723   0.00923   0.00000   0.05464   0.05461   1.70184
    D1       -2.58123  -0.00358   0.00000  -0.07368  -0.07353  -2.65477
    D2        0.44249  -0.00355   0.00000  -0.05747  -0.05762   0.38488
    D3        0.59841  -0.00523   0.00000  -0.10272  -0.10258   0.49583
    D4       -2.66105  -0.00521   0.00000  -0.08651  -0.08666  -2.74771
    D5       -3.11204  -0.00095   0.00000  -0.00671  -0.00628  -3.11832
    D6        0.05014   0.00056   0.00000   0.00767   0.00797   0.05811
    D7        0.13921   0.00015   0.00000  -0.01751  -0.01752   0.12169
    D8       -2.98179   0.00166   0.00000  -0.00314  -0.00327  -2.98506
    D9        3.03215  -0.00141   0.00000   0.01106   0.01073   3.04287
   D10        2.59031   0.00721   0.00000   0.07504   0.07551   2.66583
   D11        0.47309  -0.00412   0.00000  -0.03324  -0.03292   0.44017
   D12       -0.22201  -0.00063   0.00000   0.02843   0.02767  -0.19433
   D13       -0.66384   0.00799   0.00000   0.09240   0.09246  -0.57137
   D14       -2.78106  -0.00334   0.00000  -0.01588  -0.01597  -2.79703
   D15        0.05201   0.00213   0.00000  -0.00140  -0.00128   0.05073
   D16       -3.13906   0.00265   0.00000   0.02626   0.02643  -3.11263
   D17       -3.10892   0.00065   0.00000  -0.01516  -0.01510  -3.12402
   D18       -0.01682   0.00118   0.00000   0.01249   0.01261  -0.00420
   D19        0.08828   0.00509   0.00000   0.04551   0.04534   0.13361
   D20       -0.18646  -0.00139   0.00000   0.02073   0.01990  -0.16656
   D21       -3.00381   0.00429   0.00000   0.01657   0.01704  -2.98677
   D22        3.00463  -0.00219   0.00000  -0.00822  -0.00839   2.99624
   D23       -2.22105   0.00684   0.00000   0.02157   0.02294  -2.19811
   D24        1.70204  -0.00967   0.00000  -0.05817  -0.05985   1.64219
   D25        0.23420   0.00318   0.00000  -0.02324  -0.02292   0.21128
   D26        2.41783   0.00070   0.00000   0.00601   0.00641   2.42424
   D27        2.56357  -0.00447   0.00000  -0.03885  -0.03974   2.52383
   D28       -1.53858   0.00203   0.00000   0.04856   0.04862  -1.48996
   D29       -1.34307  -0.00661   0.00000  -0.10230  -0.10298  -1.44606
   D30        0.83796  -0.00010   0.00000  -0.01488  -0.01462   0.82335
         Item               Value     Threshold  Converged?
 Maximum Force            0.085043     0.000450     NO 
 RMS     Force            0.015110     0.000300     NO 
 Maximum Displacement     0.141281     0.001800     NO 
 RMS     Displacement     0.051177     0.001200     NO 
 Predicted change in Energy=-2.421501D-02
 GradGradGradGradGradGradGradGradGradGradGradGradGradGradGradGradGradGrad

                          Input orientation:                          
 ---------------------------------------------------------------------
 Center     Atomic      Atomic             Coordinates (Angstroms)
 Number     Number       Type             X           Y           Z
 ---------------------------------------------------------------------
      1          8           0        0.962377    0.079883   -0.043207
      2          6           0        2.162056   -0.056661    0.090362
      3          6           0        2.996754   -1.014303   -0.660341
      4          6           0        4.167068   -1.549677   -0.154511
      5          6           0        4.724464   -2.401241   -1.145036
      6          6           0        3.999266   -2.382892   -2.274836
      7          6           0        3.076151   -2.095798   -3.267899
      8          6           0        2.549752   -1.528493   -1.920798
      9          1           0        2.725495    0.565887    0.811759
     10          1           0        4.596499   -1.399913    0.825125
     11          1           0        5.630743   -2.984244   -1.032511
     12          1           0        2.440330   -2.889478   -3.683886
     13          1           0        3.385181   -1.388600   -4.057723
     14          1           0        1.853805   -0.784421   -2.340069
 ---------------------------------------------------------------------
                    Distance matrix (angstroms):
                    1          2          3          4          5
     1  O    0.000000
     2  C    1.214791   0.000000
     3  C    2.390981   1.475586   0.000000
     4  C    3.596929   2.511799   1.382796   0.000000
     5  C    4.639321   3.686353   2.267930   1.420208   0.000000
     6  C    4.502014   3.792210   2.341936   2.284334   1.342645
     7  C    4.427220   4.033804   2.824057   3.343881   2.704955
     8  C    2.938024   2.522174   1.432813   2.394980   2.468373
     9  H    2.018849   1.106997   2.176617   2.736315   4.077839
    10  H    4.018786   2.875885   2.216865   1.080059   2.213722
    11  H    5.671088   4.675829   3.310148   2.229622   1.083465
    12  H    4.925037   4.727286   3.601071   4.151286   3.449840
    13  H    4.913529   4.525120   3.439938   3.984013   3.361973
    14  H    2.610985   2.555709   2.044667   3.273143   3.504695
                    6          7          8          9         10
     6  C    0.000000
     7  C    1.385908   0.000000
     8  C    1.719428   1.553581   0.000000
     9  H    4.454757   4.883763   3.447344   0.000000
    10  H    3.306462   4.421376   3.427214   2.713891   0.000000
    11  H    2.136986   3.508880   3.521472   4.944212   2.651524
    12  H    2.161557   1.098744   2.229962   5.677295   5.215270
    13  H    2.131761   1.104287   2.298687   5.288389   5.030867
    14  H    2.676260   2.018590   1.101714   3.537965   4.233161
                   11         12         13         14
    11  H    0.000000
    12  H    4.149397   0.000000
    13  H    4.091520   1.812493   0.000000
    14  H    4.562257   2.565369   2.379176   0.000000
 Stoichiometry    C7H6O
 Framework group  C1[X(C7H6O)]
 Deg. of freedom    36
 Full point group                 C1      NOp   1
 Largest Abelian subgroup         C1      NOp   1
 Largest concise Abelian subgroup C1      NOp   1
                         Standard orientation:                         
 ---------------------------------------------------------------------
 Center     Atomic      Atomic             Coordinates (Angstroms)
 Number     Number       Type             X           Y           Z
 ---------------------------------------------------------------------
      1          8           0        2.668818   -0.652605   -0.212387
      2          6           0        1.972980    0.256866    0.193060
      3          6           0        0.505177    0.327981    0.059454
      4          6           0       -0.187547    1.523236   -0.000743
      5          6           0       -1.572537    1.223749   -0.096153
      6          6           0       -1.795539   -0.098889   -0.036192
      7          6           0       -1.670422   -1.472053    0.103475
      8          6           0       -0.260502   -0.866593   -0.139745
      9          1           0        2.421735    1.121551    0.718780
     10          1           0        0.216464    2.524831   -0.011143
     11          1           0       -2.367230    1.954829   -0.184929
     12          1           0       -1.998972   -2.146013   -0.699689
     13          1           0       -1.899760   -1.903531    1.093768
     14          1           0        0.327556   -1.696610    0.283380
 ---------------------------------------------------------------------
 Rotational constants (GHZ):           4.3421245           1.7409949           1.2677266
 Standard basis: 6-31G(2df,p) (6D, 7F)
 There are   278 symmetry adapted cartesian basis functions of A   symmetry.
 There are   254 symmetry adapted basis functions of A   symmetry.
   254 basis functions,   394 primitive gaussians,   278 cartesian basis functions
    28 alpha electrons       28 beta electrons
       nuclear repulsion energy       324.1544917099 Hartrees.
 NAtoms=   14 NActive=   14 NUniq=   14 SFac= 1.00D+00 NAtFMM=   60 NAOKFM=F Big=F
 Integral buffers will be    131072 words long.
 Raffenetti 2 integral format.
 Two-electron integral symmetry is turned on.
 One-electron integrals computed using PRISM.
 PrsmSu:  requested number of processors reduced to:  13 ShMem   1 Linda.
 NBasis=   254 RedAO= T EigKep=  2.74D-04  NBF=   254
 NBsUse=   254 1.00D-06 EigRej= -1.00D+00 NBFU=   254
 Initial guess from the checkpoint file:  "OdCC1dCCdC2CC12.chk"
 B after Tr=     0.000000   -0.000000   -0.000000
         Rot=    0.999962   -0.000592    0.000627   -0.008709 Ang=  -1.00 deg.
 ExpMin= 1.61D-01 ExpMax= 5.48D+03 ExpMxC= 8.25D+02 IAcc=2 IRadAn=         4 AccDes= 0.00D+00
 Harris functional with IExCor=  402 and IRadAn=       4 diagonalized for initial guess.
 HarFok:  IExCor=  402 AccDes= 0.00D+00 IRadAn=         4 IDoV= 1 UseB2=F ITyADJ=14
 ICtDFT=  3500011 ScaDFX=  1.000000  1.000000  1.000000  1.000000
 FoFCou: FMM=F IPFlag=           0 FMFlag=      100000 FMFlg1=           0
         NFxFlg=           0 DoJE=T BraDBF=F KetDBF=T FulRan=T
         wScrn=  0.000000 ICntrl=       500 IOpCl=  0 I1Cent=   200000004 NGrid=           0
         NMat0=    1 NMatS0=      1 NMatT0=    0 NMatD0=    1 NMtDS0=    0 NMtDT0=    0
 Petite list used in FoFCou.
 Requested convergence on RMS density matrix=1.00D-08 within 128 cycles.
 Requested convergence on MAX density matrix=1.00D-06.
 Requested convergence on             energy=1.00D-06.
 No special actions if energy rises.
 Integral accuracy reduced to 1.0D-05 until final iterations.
 Initial convergence to 1.0D-05 achieved.  Increase integral accuracy.
 SCF Done:  E(RB3LYP) =  -345.389229543     A.U. after   14 cycles
            NFock= 14  Conv=0.57D-08     -V/T= 2.0076
 PrsmSu:  requested number of processors reduced to:  13 ShMem   1 Linda.
 Calling FoFJK, ICntrl=      2127 FMM=F ISym2X=0 I1Cent= 0 IOpClX= 0 NMat=1 NMatS=1 NMatT=0.
 ***** Axes restored to original set *****
 -------------------------------------------------------------------
 Center     Atomic                   Forces (Hartrees/Bohr)
 Number     Number              X              Y              Z
 -------------------------------------------------------------------
      1        8           0.007298573    0.003319127   -0.002375225
      2        6          -0.010709271   -0.004853076   -0.005007820
      3        6          -0.008004463   -0.012108886   -0.003277104
      4        6           0.016587261   -0.005274639   -0.003548603
      5        6           0.012475706    0.007470087    0.008015872
      6        6          -0.025926102   -0.000167534    0.002065975
      7        6           0.036726341   -0.030042359   -0.026959961
      8        6          -0.014977668    0.043130978    0.022758166
      9        1           0.001951389   -0.001704630    0.004170775
     10        1          -0.001739008    0.000594576    0.000745459
     11        1          -0.001238526   -0.000782084   -0.002025510
     12        1          -0.003245304    0.001945408    0.002134241
     13        1          -0.005965770    0.004285907    0.001186293
     14        1          -0.003233157   -0.005812876    0.002117442
 -------------------------------------------------------------------
 Cartesian Forces:  Max     0.043130978 RMS     0.013327738

 GradGradGradGradGradGradGradGradGradGradGradGradGradGradGradGradGradGrad
 Berny optimization.
 Using GEDIIS/GDIIS optimizer.
 FormGI is forming the generalized inverse of G from B-inverse, IUseBI=4.
 Internal  Forces:  Max     0.029366860 RMS     0.005376148
 Search for a local minimum.
 Step number   2 out of a maximum of   79
 All quantities printed in internal units (Hartrees-Bohrs-Radians)
 Mixed Optimization -- RFO/linear search
 Update second derivatives using D2CorX and points    1    2
 DE= -2.67D-02 DEPred=-2.42D-02 R= 1.10D+00
 TightC=F SS=  1.41D+00  RLast= 3.95D-01 DXNew= 5.0454D-01 1.1841D+00
 Trust test= 1.10D+00 RLast= 3.95D-01 DXMaxT set to 5.05D-01
 ITU=  1  0
 Use linear search instead of GDIIS.
     Eigenvalues ---    0.01001   0.01039   0.01439   0.01610   0.02119
     Eigenvalues ---    0.02197   0.02257   0.02502   0.02803   0.05683
     Eigenvalues ---    0.06499   0.11186   0.11652   0.12194   0.15843
     Eigenvalues ---    0.15993   0.16003   0.19184   0.20134   0.22280
     Eigenvalues ---    0.22987   0.24858   0.30187   0.33458   0.33604
     Eigenvalues ---    0.34208   0.34587   0.35393   0.35551   0.36032
     Eigenvalues ---    0.36244   0.39205   0.48069   0.54177   0.57560
     Eigenvalues ---    0.92667
 RFO step:  Lambda=-1.86715151D-02 EMin= 1.00080544D-02
 Quartic linear search produced a step of  0.76537.
 Iteration  1 RMS(Cart)=  0.08163759 RMS(Int)=  0.02970193
 Iteration  2 RMS(Cart)=  0.03407246 RMS(Int)=  0.00364326
 Iteration  3 RMS(Cart)=  0.00167242 RMS(Int)=  0.00326466
 Iteration  4 RMS(Cart)=  0.00000411 RMS(Int)=  0.00326466
 Iteration  5 RMS(Cart)=  0.00000000 RMS(Int)=  0.00326466
 Variable       Old X    -DE/DX   Delta X   Delta X   Delta X     New X
                                 (Linear)    (Quad)   (Total)
    R1        2.29562  -0.00657  -0.01559   0.00101  -0.01458   2.28104
    R2        2.78845  -0.00291  -0.00686  -0.00793  -0.01479   2.77366
    R3        2.09192   0.00275   0.00758   0.00704   0.01462   2.10654
    R4        2.61311   0.01116   0.06186  -0.01656   0.04587   2.65897
    R5        2.70762  -0.00850  -0.05955   0.01188  -0.04824   2.65938
    R6        2.68380  -0.00709  -0.01483  -0.01807  -0.03178   2.65203
    R7        2.04101   0.00007   0.00291  -0.00196   0.00095   2.04197
    R8        2.53723   0.00850   0.02294   0.00266   0.02579   2.56302
    R9        2.04745  -0.00083  -0.00033  -0.00339  -0.00372   2.04373
   R10        2.61899  -0.00568   0.02839  -0.05272  -0.02144   2.59755
   R11        3.24925   0.00083   0.03217  -0.01370   0.01715   3.26640
   R12        2.93584   0.02937   0.15425   0.01477   0.16687   3.10271
   R13        2.07633  -0.00034   0.02122  -0.01788   0.00334   2.07966
   R14        2.08680   0.00023   0.02660  -0.01955   0.00706   2.09386
   R15        2.08194  -0.00269   0.00669  -0.01756  -0.01087   2.07107
    A1        2.18419   0.00205   0.04562  -0.01997   0.02521   2.20940
    A2        2.10725   0.00036  -0.01805   0.01929   0.00080   2.10805
    A3        1.99171  -0.00242  -0.02711   0.00011  -0.02744   1.96427
    A4        2.14589   0.00248   0.02972  -0.01299   0.01715   2.16305
    A5        2.09899  -0.00508  -0.03805  -0.00805  -0.04575   2.05325
    A6        2.03409   0.00263   0.00935   0.02447   0.03184   2.06593
    A7        1.88513  -0.00151   0.00561  -0.00956  -0.00392   1.88121
    A8        2.23269  -0.00117  -0.00957  -0.00823  -0.01804   2.21465
    A9        2.16482   0.00267   0.00368   0.01723   0.02066   2.18547
   A10        1.94626  -0.00111  -0.02009   0.00692  -0.01466   1.93161
   A11        2.18768   0.00292   0.02539   0.00807   0.03211   2.21980
   A12        2.14902  -0.00180  -0.00460  -0.01365  -0.01932   2.12970
   A13        2.87833   0.01326   0.06506   0.03149   0.09474   2.97307
   A14        1.86384   0.00048   0.01306   0.01363   0.02457   1.88841
   A15        2.10260   0.00512   0.03986   0.02173   0.05773   2.16033
   A16        2.04740   0.00187   0.02861   0.03551   0.05582   2.10321
   A17        1.97793  -0.00202  -0.00305  -0.04833  -0.05096   1.92697
   A18        2.07275  -0.00244  -0.01558  -0.06316  -0.07842   1.99434
   A19        1.93238   0.00108  -0.01639   0.02566  -0.00361   1.92877
   A20        1.66741  -0.00081  -0.00214  -0.01478  -0.01788   1.64952
   A21        2.47856  -0.00462   0.00094   0.00424  -0.00801   2.47055
   A22        1.86449   0.00206  -0.00211   0.08781   0.07579   1.94028
   A23        2.48124  -0.00020   0.02931   0.03190   0.05586   2.53710
   A24        1.70184   0.00511   0.04180   0.02057   0.05949   1.76133
    D1       -2.65477  -0.00500  -0.05628  -0.28457  -0.34036  -2.99513
    D2        0.38488  -0.00460  -0.04410  -0.24172  -0.28629   0.09858
    D3        0.49583  -0.00387  -0.07851  -0.21299  -0.29103   0.20480
    D4       -2.74771  -0.00347  -0.06633  -0.17013  -0.23695  -2.98467
    D5       -3.11832   0.00072  -0.00480   0.00986   0.00579  -3.11253
    D6        0.05811   0.00095   0.00610   0.02709   0.03406   0.09217
    D7        0.12169   0.00075  -0.01341  -0.02983  -0.04443   0.07727
    D8       -2.98506   0.00099  -0.00250  -0.01260  -0.01616  -3.00122
    D9        3.04287  -0.00160   0.00821   0.02523   0.03416   3.07704
   D10        2.66583   0.00618   0.05780   0.14690   0.20580   2.87163
   D11        0.44017  -0.00216  -0.02519  -0.06468  -0.09100   0.34917
   D12       -0.19433  -0.00119   0.02118   0.06342   0.08463  -0.10970
   D13       -0.57137   0.00659   0.07077   0.18509   0.25627  -0.31510
   D14       -2.79703  -0.00176  -0.01222  -0.02649  -0.04053  -2.83757
   D15        0.05073   0.00046  -0.00098  -0.03355  -0.03461   0.01612
   D16       -3.11263   0.00098   0.02023   0.03377   0.05598  -3.05665
   D17       -3.12402   0.00014  -0.01156  -0.05054  -0.06323   3.09593
   D18       -0.00420   0.00067   0.00965   0.01677   0.02737   0.02316
   D19        0.13361   0.00281   0.03470   0.07183   0.10630   0.23992
   D20       -0.16656  -0.00093   0.01523   0.06983   0.08516  -0.08139
   D21       -2.98677   0.00223   0.01304   0.00596   0.02043  -2.96634
   D22        2.99624  -0.00150  -0.00642   0.00396  -0.00071   2.99553
   D23       -2.19811   0.00519   0.01756   0.06227   0.08615  -2.11196
   D24        1.64219  -0.00743  -0.04581  -0.07342  -0.12469   1.51750
   D25        0.21128   0.00122  -0.01754  -0.08156  -0.09958   0.11170
   D26        2.42424   0.00368   0.00491   0.10010   0.10873   2.53297
   D27        2.52383  -0.00428  -0.03042  -0.12638  -0.16005   2.36378
   D28       -1.48996   0.00329   0.03722   0.09546   0.12841  -1.36154
   D29       -1.44606  -0.00754  -0.07882  -0.20982  -0.28653  -1.73258
   D30        0.82335   0.00003  -0.01119   0.01201   0.00193   0.82528
         Item               Value     Threshold  Converged?
 Maximum Force            0.029367     0.000450     NO 
 RMS     Force            0.005376     0.000300     NO 
 Maximum Displacement     0.456970     0.001800     NO 
 RMS     Displacement     0.110103     0.001200     NO 
 Predicted change in Energy=-1.276507D-02
 GradGradGradGradGradGradGradGradGradGradGradGradGradGradGradGradGradGrad

                          Input orientation:                          
 ---------------------------------------------------------------------
 Center     Atomic      Atomic             Coordinates (Angstroms)
 Number     Number       Type             X           Y           Z
 ---------------------------------------------------------------------
      1          8           0        1.035214    0.281706   -0.230380
      2          6           0        2.139986   -0.084740    0.089342
      3          6           0        3.003480   -1.010919   -0.652875
      4          6           0        4.209614   -1.533480   -0.150871
      5          6           0        4.773158   -2.344701   -1.147790
      6          6           0        3.996764   -2.345726   -2.259881
      7          6           0        3.104294   -2.165369   -3.289636
      8          6           0        2.564275   -1.440469   -1.918984
      9          1           0        2.635207    0.324069    1.000527
     10          1           0        4.612159   -1.396593    0.842523
     11          1           0        5.661810   -2.955929   -1.068228
     12          1           0        2.391499   -2.934588   -3.623325
     13          1           0        3.333312   -1.463680   -4.116010
     14          1           0        1.809170   -0.759532   -2.327981
 ---------------------------------------------------------------------
                    Distance matrix (angstroms):
                    1          2          3          4          5
     1  O    0.000000
     2  C    1.207073   0.000000
     3  C    2.392374   1.467759   0.000000
     4  C    3.657600   2.537698   1.407067   0.000000
     5  C    4.659601   3.683954   2.270612   1.403392   0.000000
     6  C    4.448939   3.752137   2.313178   2.270015   1.356294
     7  C    4.430386   4.083675   2.880178   3.387161   2.721171
     8  C    2.855748   2.459958   1.407283   2.417026   2.508295
     9  H    2.019134   1.114731   2.156746   2.693504   4.038370
    10  H    4.094184   2.898254   2.229980   1.080562   2.210470
    11  H    5.708735   4.689023   3.319985   2.230196   1.081495
    12  H    4.867868   4.687088   3.591462   4.162521   3.485476
    13  H    4.840016   4.583720   3.508146   4.061417   3.414628
    14  H    2.466398   2.531449   2.072571   3.331806   3.562420
                    6          7          8          9         10
     6  C    0.000000
     7  C    1.374565   0.000000
     8  C    1.728504   1.641886   0.000000
     9  H    4.428532   4.982253   3.412062   0.000000
    10  H    3.302193   4.465357   3.438267   2.625639   0.000000
    11  H    2.136530   3.478581   3.551778   4.919193   2.680349
    12  H    2.186920   1.100510   2.273109   5.662000   5.219250
    13  H    2.159489   1.108022   2.327849   5.464645   5.121231
    14  H    2.703001   2.139744   1.095964   3.596594   4.279566
                   11         12         13         14
    11  H    0.000000
    12  H    4.150170   0.000000
    13  H    4.115542   1.814751   0.000000
    14  H    4.610202   2.597670   2.452729   0.000000
 Stoichiometry    C7H6O
 Framework group  C1[X(C7H6O)]
 Deg. of freedom    36
 Full point group                 C1      NOp   1
 Largest Abelian subgroup         C1      NOp   1
 Largest concise Abelian subgroup C1      NOp   1
                         Standard orientation:                         
 ---------------------------------------------------------------------
 Center     Atomic      Atomic             Coordinates (Angstroms)
 Number     Number       Type             X           Y           Z
 ---------------------------------------------------------------------
      1          8           0        2.656662   -0.683192   -0.069601
      2          6           0        1.969231    0.299523    0.067277
      3          6           0        0.503807    0.357309    0.008041
      4          6           0       -0.235640    1.554411    0.006334
      5          6           0       -1.597611    1.216943   -0.019280
      6          6           0       -1.757379   -0.129896   -0.013383
      7          6           0       -1.695794   -1.501522    0.052015
      8          6           0       -0.193357   -0.859449   -0.109898
      9          1           0        2.425949    1.284604    0.319568
     10          1           0        0.158050    2.559943   -0.032747
     11          1           0       -2.437294    1.893693   -0.100364
     12          1           0       -1.922854   -2.165310   -0.795895
     13          1           0       -1.865359   -2.026989    1.012663
     14          1           0        0.428676   -1.704327    0.206949
 ---------------------------------------------------------------------
 Rotational constants (GHZ):           4.2626854           1.7584030           1.2581332
 Standard basis: 6-31G(2df,p) (6D, 7F)
 There are   278 symmetry adapted cartesian basis functions of A   symmetry.
 There are   254 symmetry adapted basis functions of A   symmetry.
   254 basis functions,   394 primitive gaussians,   278 cartesian basis functions
    28 alpha electrons       28 beta electrons
       nuclear repulsion energy       323.5478129493 Hartrees.
 NAtoms=   14 NActive=   14 NUniq=   14 SFac= 1.00D+00 NAtFMM=   60 NAOKFM=F Big=F
 Integral buffers will be    131072 words long.
 Raffenetti 2 integral format.
 Two-electron integral symmetry is turned on.
 One-electron integrals computed using PRISM.
 PrsmSu:  requested number of processors reduced to:  13 ShMem   1 Linda.
 NBasis=   254 RedAO= T EigKep=  2.48D-04  NBF=   254
 NBsUse=   254 1.00D-06 EigRej= -1.00D+00 NBFU=   254
 Initial guess from the checkpoint file:  "OdCC1dCCdC2CC12.chk"
 B after Tr=     0.000000   -0.000000    0.000000
         Rot=    0.999980    0.000524    0.000203   -0.006339 Ang=   0.73 deg.
 ExpMin= 1.61D-01 ExpMax= 5.48D+03 ExpMxC= 8.25D+02 IAcc=2 IRadAn=         4 AccDes= 0.00D+00
 Harris functional with IExCor=  402 and IRadAn=       4 diagonalized for initial guess.
 HarFok:  IExCor=  402 AccDes= 0.00D+00 IRadAn=         4 IDoV= 1 UseB2=F ITyADJ=14
 ICtDFT=  3500011 ScaDFX=  1.000000  1.000000  1.000000  1.000000
 FoFCou: FMM=F IPFlag=           0 FMFlag=      100000 FMFlg1=           0
         NFxFlg=           0 DoJE=T BraDBF=F KetDBF=T FulRan=T
         wScrn=  0.000000 ICntrl=       500 IOpCl=  0 I1Cent=   200000004 NGrid=           0
         NMat0=    1 NMatS0=      1 NMatT0=    0 NMatD0=    1 NMtDS0=    0 NMtDT0=    0
 Petite list used in FoFCou.
 Requested convergence on RMS density matrix=1.00D-08 within 128 cycles.
 Requested convergence on MAX density matrix=1.00D-06.
 Requested convergence on             energy=1.00D-06.
 No special actions if energy rises.
 Integral accuracy reduced to 1.0D-05 until final iterations.
 Initial convergence to 1.0D-05 achieved.  Increase integral accuracy.
 SCF Done:  E(RB3LYP) =  -345.404382775     A.U. after   16 cycles
            NFock= 16  Conv=0.34D-08     -V/T= 2.0078
 PrsmSu:  requested number of processors reduced to:  13 ShMem   1 Linda.
 Calling FoFJK, ICntrl=      2127 FMM=F ISym2X=0 I1Cent= 0 IOpClX= 0 NMat=1 NMatS=1 NMatT=0.
 ***** Axes restored to original set *****
 -------------------------------------------------------------------
 Center     Atomic                   Forces (Hartrees/Bohr)
 Number     Number              X              Y              Z
 -------------------------------------------------------------------
      1        8          -0.005396542    0.000960269   -0.003964419
      2        6           0.010251293    0.004264385    0.004233391
      3        6           0.001855436   -0.010987576    0.006281629
      4        6          -0.002252205    0.003438014   -0.001810958
      5        6           0.001333754    0.000145703   -0.002998011
      6        6          -0.018928426    0.003458213   -0.000578979
      7        6           0.012717237   -0.009306491   -0.009406365
      8        6           0.002272864    0.016979352   -0.000084239
      9        1          -0.001869628   -0.002835006    0.001847697
     10        1          -0.001183736    0.000477323   -0.000356940
     11        1           0.000712127    0.000325264   -0.000680340
     12        1           0.002381092   -0.000828170    0.003137324
     13        1          -0.001737075   -0.000040190    0.004354729
     14        1          -0.000156189   -0.006051090    0.000025481
 -------------------------------------------------------------------
 Cartesian Forces:  Max     0.018928426 RMS     0.005926165

 GradGradGradGradGradGradGradGradGradGradGradGradGradGradGradGradGradGrad
 Berny optimization.
 Using GEDIIS/GDIIS optimizer.
 FormGI is forming the generalized inverse of G from B-inverse, IUseBI=4.
 Internal  Forces:  Max     0.009459537 RMS     0.002797044
 Search for a local minimum.
 Step number   3 out of a maximum of   79
 All quantities printed in internal units (Hartrees-Bohrs-Radians)
 Mixed Optimization -- RFO/linear search
 Update second derivatives using D2CorX and points    2    3
 DE= -1.52D-02 DEPred=-1.28D-02 R= 1.19D+00
 TightC=F SS=  1.41D+00  RLast= 8.63D-01 DXNew= 8.4853D-01 2.5905D+00
 Trust test= 1.19D+00 RLast= 8.63D-01 DXMaxT set to 8.49D-01
 ITU=  1  1  0
 Use linear search instead of GDIIS.
     Eigenvalues ---    0.00822   0.01176   0.01302   0.01569   0.01669
     Eigenvalues ---    0.02175   0.02195   0.02513   0.02799   0.05611
     Eigenvalues ---    0.06368   0.10981   0.11780   0.13066   0.15464
     Eigenvalues ---    0.15948   0.16018   0.18220   0.19511   0.22408
     Eigenvalues ---    0.23112   0.25149   0.28213   0.33527   0.33830
     Eigenvalues ---    0.34393   0.34590   0.35426   0.35560   0.36139
     Eigenvalues ---    0.36294   0.39315   0.48854   0.55062   0.58615
     Eigenvalues ---    0.93468
 RFO step:  Lambda=-5.63665322D-03 EMin= 8.22233486D-03
 Quartic linear search produced a step of  0.47778.
 Iteration  1 RMS(Cart)=  0.06897599 RMS(Int)=  0.03459178
 Iteration  2 RMS(Cart)=  0.04027961 RMS(Int)=  0.00570871
 Iteration  3 RMS(Cart)=  0.00369161 RMS(Int)=  0.00419906
 Iteration  4 RMS(Cart)=  0.00001128 RMS(Int)=  0.00419905
 Iteration  5 RMS(Cart)=  0.00000006 RMS(Int)=  0.00419905
 Variable       Old X    -DE/DX   Delta X   Delta X   Delta X     New X
                                 (Linear)    (Quad)   (Total)
    R1        2.28104   0.00628  -0.00697   0.01066   0.00369   2.28473
    R2        2.77366   0.00082  -0.00707   0.00551  -0.00156   2.77210
    R3        2.10654  -0.00036   0.00698  -0.00354   0.00344   2.10998
    R4        2.65897  -0.00616   0.02191  -0.01707   0.00526   2.66423
    R5        2.65938   0.00389  -0.02305   0.01890  -0.00401   2.65537
    R6        2.65203   0.00001  -0.01518   0.00288  -0.01209   2.63993
    R7        2.04197  -0.00071   0.00045  -0.00251  -0.00206   2.03991
    R8        2.56302  -0.00087   0.01232  -0.00493   0.00712   2.57015
    R9        2.04373   0.00035  -0.00178   0.00213   0.00035   2.04408
   R10        2.59755  -0.00946  -0.01024  -0.02400  -0.03150   2.56605
   R11        3.26640  -0.00572   0.00819  -0.03512  -0.02817   3.23823
   R12        3.10271   0.00906   0.07973   0.02527   0.10365   3.20636
   R13        2.07966  -0.00191   0.00159  -0.00517  -0.00358   2.07609
   R14        2.09386  -0.00363   0.00337  -0.01201  -0.00864   2.08522
   R15        2.07107  -0.00366  -0.00519  -0.01166  -0.01685   2.05422
    A1        2.20940  -0.00397   0.01204  -0.01931  -0.02030   2.18910
    A2        2.10805   0.00162   0.00038   0.01172  -0.00138   2.10667
    A3        1.96427   0.00250  -0.01311   0.02396  -0.00227   1.96200
    A4        2.16305  -0.00166   0.00820  -0.00928  -0.00161   2.16144
    A5        2.05325   0.00205  -0.02186   0.01436  -0.00804   2.04521
    A6        2.06593  -0.00037   0.01521  -0.00349   0.01048   2.07641
    A7        1.88121  -0.00045  -0.00187  -0.00388  -0.00613   1.87508
    A8        2.21465  -0.00091  -0.00862  -0.00411  -0.01263   2.20202
    A9        2.18547   0.00139   0.00987   0.00890   0.01880   2.20427
   A10        1.93161   0.00088  -0.00700   0.00266  -0.00607   1.92553
   A11        2.21980   0.00002   0.01534  -0.00053   0.01436   2.23415
   A12        2.12970  -0.00086  -0.00923  -0.00145  -0.01080   2.11890
   A13        2.97307   0.00655   0.04527   0.03112   0.07606   3.04913
   A14        1.88841  -0.00049   0.01174   0.00438   0.01523   1.90364
   A15        2.16033   0.00006   0.02758  -0.03093  -0.00531   2.15502
   A16        2.10321  -0.00044   0.02667   0.00630   0.02710   2.13031
   A17        1.92697   0.00094  -0.02435   0.02488   0.00098   1.92795
   A18        1.99434  -0.00166  -0.03747  -0.01799  -0.05451   1.93982
   A19        1.92877   0.00189  -0.00173   0.02358   0.01513   1.94389
   A20        1.64952   0.00032  -0.00854   0.00370  -0.00668   1.64284
   A21        2.47055  -0.00265  -0.00383   0.00644  -0.01128   2.45927
   A22        1.94028   0.00225   0.03621   0.04050   0.06360   2.00387
   A23        2.53710  -0.00170   0.02669   0.01176   0.02940   2.56650
   A24        1.76133   0.00140   0.02842  -0.00367   0.02104   1.78237
    D1       -2.99513  -0.00080  -0.16262   0.04072  -0.12306  -3.11819
    D2        0.09858  -0.00029  -0.13678   0.08024  -0.05820   0.04038
    D3        0.20480  -0.00394  -0.13905  -0.28454  -0.42193  -0.21713
    D4       -2.98467  -0.00343  -0.11321  -0.24502  -0.35707   2.94145
    D5       -3.11253   0.00107   0.00277   0.03168   0.03382  -3.07871
    D6        0.09217   0.00050   0.01627   0.01592   0.03237   0.12454
    D7        0.07727   0.00050  -0.02123  -0.00856  -0.03165   0.04561
    D8       -3.00122  -0.00007  -0.00772  -0.02432  -0.03310  -3.03432
    D9        3.07704  -0.00124   0.01632  -0.01799   0.00069   3.07773
   D10        2.87163   0.00227   0.09833   0.03113   0.12904   3.00068
   D11        0.34917  -0.00144  -0.04348  -0.08377  -0.13020   0.21897
   D12       -0.10970  -0.00080   0.04043   0.01907   0.06196  -0.04774
   D13       -0.31510   0.00271   0.12244   0.06819   0.19031  -0.12480
   D14       -2.83757  -0.00100  -0.01937  -0.04671  -0.06894  -2.90650
   D15        0.01612  -0.00005  -0.01654  -0.01274  -0.02960  -0.01348
   D16       -3.05665  -0.00062   0.02675  -0.02387   0.00464  -3.05201
   D17        3.09593   0.00040  -0.03021   0.00211  -0.02959   3.06635
   D18        0.02316  -0.00016   0.01308  -0.00902   0.00466   0.02783
   D19        0.23992   0.00009   0.05079  -0.00058   0.05019   0.29010
   D20       -0.08139  -0.00051   0.04069   0.02331   0.06645  -0.01494
   D21       -2.96634   0.00066   0.00976   0.00991   0.01973  -2.94662
   D22        2.99553   0.00006  -0.00034   0.03380   0.03599   3.03152
   D23       -2.11196   0.00135   0.04116   0.00302   0.04739  -2.06457
   D24        1.51750  -0.00294  -0.05957  -0.00090  -0.06329   1.45421
   D25        0.11170   0.00060  -0.04758  -0.02537  -0.07558   0.03612
   D26        2.53297   0.00393   0.05195   0.10494   0.16028   2.69325
   D27        2.36378  -0.00474  -0.07647  -0.10869  -0.18508   2.17870
   D28       -1.36154  -0.00091   0.06135   0.00864   0.06558  -1.29596
   D29       -1.73258  -0.00273  -0.13690  -0.07067  -0.20497  -1.93755
   D30        0.82528   0.00111   0.00092   0.04666   0.04569   0.87097
         Item               Value     Threshold  Converged?
 Maximum Force            0.009460     0.000450     NO 
 RMS     Force            0.002797     0.000300     NO 
 Maximum Displacement     0.502829     0.001800     NO 
 RMS     Displacement     0.101363     0.001200     NO 
 Predicted change in Energy=-5.138535D-03
 GradGradGradGradGradGradGradGradGradGradGradGradGradGradGradGradGradGrad

                          Input orientation:                          
 ---------------------------------------------------------------------
 Center     Atomic      Atomic             Coordinates (Angstroms)
 Number     Number       Type             X           Y           Z
 ---------------------------------------------------------------------
      1          8           0        1.131408    0.425867   -0.305908
      2          6           0        2.181600   -0.029356    0.083462
      3          6           0        3.021713   -0.979762   -0.653310
      4          6           0        4.228982   -1.510713   -0.155041
      5          6           0        4.783020   -2.306277   -1.160878
      6          6           0        3.976079   -2.313621   -2.255668
      7          6           0        3.114041   -2.219659   -3.300627
      8          6           0        2.591412   -1.355710   -1.937045
      9          1           0        2.477976    0.057983    1.156411
     10          1           0        4.620221   -1.376886    0.842097
     11          1           0        5.665592   -2.929332   -1.107013
     12          1           0        2.388817   -3.003008   -3.560195
     13          1           0        3.298652   -1.543968   -4.153246
     14          1           0        1.790428   -0.745506   -2.346608
 ---------------------------------------------------------------------
                    Distance matrix (angstroms):
                    1          2          3          4          5
     1  O    0.000000
     2  C    1.209025   0.000000
     3  C    2.381120   1.466933   0.000000
     4  C    3.656236   2.538321   1.409850   0.000000
     5  C    4.640027   3.674253   2.262624   1.396993   0.000000
     6  C    4.404374   3.729551   2.292934   2.263019   1.360063
     7  C    4.460715   4.137503   2.924749   3.411805   2.715054
     8  C    2.822452   2.451450   1.405159   2.425119   2.511804
     9  H    2.021623   1.116551   2.155842   2.691976   4.033954
    10  H    4.091412   2.887600   2.224675   1.079473   2.214087
    11  H    5.697189   4.686715   3.316138   2.232170   1.081681
    12  H    4.891691   4.707630   3.597786   4.148280   3.460399
    13  H    4.835204   4.635897   3.555921   4.105151   3.426183
    14  H    2.443538   2.563421   2.106703   3.366757   3.577369
                    6          7          8          9         10
     6  C    0.000000
     7  C    1.357895   0.000000
     8  C    1.713598   1.696733   0.000000
     9  H    4.417137   5.045534   3.403067   0.000000
    10  H    3.299779   4.487873   3.440952   2.597471   0.000000
    11  H    2.133767   3.438894   3.551876   4.920167   2.702207
    12  H    2.167129   1.098618   2.321476   5.623521   5.196500
    13  H    2.156867   1.103448   2.333918   5.606444   5.169904
    14  H    2.691529   2.198916   1.087045   3.659161   4.309781
                   11         12         13         14
    11  H    0.000000
    12  H    4.093994   0.000000
    13  H    4.098924   1.818875   0.000000
    14  H    4.617639   2.631953   2.485201   0.000000
 Stoichiometry    C7H6O
 Framework group  C1[X(C7H6O)]
 Deg. of freedom    36
 Full point group                 C1      NOp   1
 Largest Abelian subgroup         C1      NOp   1
 Largest concise Abelian subgroup C1      NOp   1
                         Standard orientation:                         
 ---------------------------------------------------------------------
 Center     Atomic      Atomic             Coordinates (Angstroms)
 Number     Number       Type             X           Y           Z
 ---------------------------------------------------------------------
      1          8           0        2.635950   -0.719637    0.000349
      2          6           0        1.978105    0.293943    0.040785
      3          6           0        0.513637    0.359874   -0.012886
      4          6           0       -0.219442    1.563937    0.009583
      5          6           0       -1.575370    1.228162    0.027062
      6          6           0       -1.727831   -0.123047   -0.000514
      7          6           0       -1.759382   -1.480563    0.005414
      8          6           0       -0.182156   -0.859595   -0.069822
      9          1           0        2.455367    1.290210   -0.121568
     10          1           0        0.191364    2.560902   -0.041008
     11          1           0       -2.426909    1.892736   -0.029999
     12          1           0       -1.976895   -2.085508   -0.885479
     13          1           0       -1.915724   -2.058731    0.932170
     14          1           0        0.419830   -1.738780    0.145377
 ---------------------------------------------------------------------
 Rotational constants (GHZ):           4.2528261           1.7622353           1.2570579
 Standard basis: 6-31G(2df,p) (6D, 7F)
 There are   278 symmetry adapted cartesian basis functions of A   symmetry.
 There are   254 symmetry adapted basis functions of A   symmetry.
   254 basis functions,   394 primitive gaussians,   278 cartesian basis functions
    28 alpha electrons       28 beta electrons
       nuclear repulsion energy       323.5238351022 Hartrees.
 NAtoms=   14 NActive=   14 NUniq=   14 SFac= 1.00D+00 NAtFMM=   60 NAOKFM=F Big=F
 Integral buffers will be    131072 words long.
 Raffenetti 2 integral format.
 Two-electron integral symmetry is turned on.
 One-electron integrals computed using PRISM.
 PrsmSu:  requested number of processors reduced to:  13 ShMem   1 Linda.
 NBasis=   254 RedAO= T EigKep=  2.34D-04  NBF=   254
 NBsUse=   254 1.00D-06 EigRej= -1.00D+00 NBFU=   254
 Initial guess from the checkpoint file:  "OdCC1dCCdC2CC12.chk"
 B after Tr=    -0.000000    0.000000   -0.000000
         Rot=    0.999981   -0.001269    0.000082    0.005994 Ang=  -0.70 deg.
 ExpMin= 1.61D-01 ExpMax= 5.48D+03 ExpMxC= 8.25D+02 IAcc=2 IRadAn=         4 AccDes= 0.00D+00
 Harris functional with IExCor=  402 and IRadAn=       4 diagonalized for initial guess.
 HarFok:  IExCor=  402 AccDes= 0.00D+00 IRadAn=         4 IDoV= 1 UseB2=F ITyADJ=14
 ICtDFT=  3500011 ScaDFX=  1.000000  1.000000  1.000000  1.000000
 FoFCou: FMM=F IPFlag=           0 FMFlag=      100000 FMFlg1=           0
         NFxFlg=           0 DoJE=T BraDBF=F KetDBF=T FulRan=T
         wScrn=  0.000000 ICntrl=       500 IOpCl=  0 I1Cent=   200000004 NGrid=           0
         NMat0=    1 NMatS0=      1 NMatT0=    0 NMatD0=    1 NMtDS0=    0 NMtDT0=    0
 Petite list used in FoFCou.
 Requested convergence on RMS density matrix=1.00D-08 within 128 cycles.
 Requested convergence on MAX density matrix=1.00D-06.
 Requested convergence on             energy=1.00D-06.
 No special actions if energy rises.
 Integral accuracy reduced to 1.0D-05 until final iterations.
 Initial convergence to 1.0D-05 achieved.  Increase integral accuracy.
 SCF Done:  E(RB3LYP) =  -345.406665575     A.U. after   14 cycles
            NFock= 14  Conv=0.49D-08     -V/T= 2.0078
 PrsmSu:  requested number of processors reduced to:  13 ShMem   1 Linda.
 Calling FoFJK, ICntrl=      2127 FMM=F ISym2X=0 I1Cent= 0 IOpClX= 0 NMat=1 NMatS=1 NMatT=0.
 ***** Axes restored to original set *****
 -------------------------------------------------------------------
 Center     Atomic                   Forces (Hartrees/Bohr)
 Number     Number              X              Y              Z
 -------------------------------------------------------------------
      1        8           0.000000469    0.010597470   -0.005214317
      2        6          -0.009455964   -0.023819326    0.013843272
      3        6           0.006662394    0.001236486    0.002661669
      4        6          -0.006887436    0.004046070   -0.001458337
      5        6          -0.000380022   -0.005785495   -0.003987916
      6        6          -0.007963415    0.009410238    0.003776711
      7        6          -0.001894537   -0.003523452   -0.008096732
      8        6           0.012467624    0.001460881    0.000112943
      9        1           0.004633137    0.008507251   -0.003478720
     10        1           0.000333250    0.000875299   -0.000533437
     11        1           0.000743708    0.000604531    0.000114310
     12        1           0.001178426   -0.001111485    0.001698633
     13        1           0.000055992   -0.000307314    0.002526044
     14        1           0.000506374   -0.002191156   -0.001964122
 -------------------------------------------------------------------
 Cartesian Forces:  Max     0.023819326 RMS     0.006344629

 GradGradGradGradGradGradGradGradGradGradGradGradGradGradGradGradGradGrad
 Berny optimization.
 Using GEDIIS/GDIIS optimizer.
 FormGI is forming the generalized inverse of G from B-inverse, IUseBI=4.
 Internal  Forces:  Max     0.010114139 RMS     0.003124510
 Search for a local minimum.
 Step number   4 out of a maximum of   79
 All quantities printed in internal units (Hartrees-Bohrs-Radians)
 Mixed Optimization -- RFO/linear search
 Update second derivatives using D2CorX and points    3    4
 DE= -2.28D-03 DEPred=-5.14D-03 R= 4.44D-01
 Trust test= 4.44D-01 RLast= 7.53D-01 DXMaxT set to 8.49D-01
 ITU=  0  1  1  0
 Use linear search instead of GDIIS.
     Eigenvalues ---    0.00516   0.01074   0.01223   0.01622   0.02155
     Eigenvalues ---    0.02181   0.02512   0.02790   0.05098   0.05475
     Eigenvalues ---    0.06254   0.10768   0.11930   0.14377   0.15200
     Eigenvalues ---    0.15911   0.16044   0.17286   0.19896   0.22336
     Eigenvalues ---    0.23411   0.25116   0.27936   0.33497   0.33822
     Eigenvalues ---    0.34305   0.34591   0.35396   0.35552   0.36027
     Eigenvalues ---    0.36246   0.39343   0.49491   0.54355   0.58173
     Eigenvalues ---    0.92895
 RFO step:  Lambda=-7.55534438D-03 EMin= 5.16479622D-03
 Quartic linear search produced a step of -0.31922.
 Iteration  1 RMS(Cart)=  0.04665527 RMS(Int)=  0.01569433
 Iteration  2 RMS(Cart)=  0.01378639 RMS(Int)=  0.00347250
 Iteration  3 RMS(Cart)=  0.00043117 RMS(Int)=  0.00343736
 Iteration  4 RMS(Cart)=  0.00000127 RMS(Int)=  0.00343736
 Iteration  5 RMS(Cart)=  0.00000002 RMS(Int)=  0.00343736
 Variable       Old X    -DE/DX   Delta X   Delta X   Delta X     New X
                                 (Linear)    (Quad)   (Total)
    R1        2.28473   0.00567  -0.00118   0.00965   0.00847   2.29320
    R2        2.77210   0.00229   0.00050   0.00443   0.00493   2.77703
    R3        2.10998  -0.00145  -0.00110  -0.00094  -0.00204   2.10793
    R4        2.66423  -0.00693  -0.00168  -0.00632  -0.00807   2.65616
    R5        2.65537   0.00267   0.00128   0.00526   0.00653   2.66189
    R6        2.63993   0.00273   0.00386  -0.00502  -0.00121   2.63872
[...]
 ! D2    D(1,2,3,8)              0.0001         -DE/DX =    0.0                 !
 ! D3    D(9,2,3,4)              0.0            -DE/DX =    0.0                 !
 ! D4    D(9,2,3,8)           -179.9999         -DE/DX =    0.0                 !
 ! D5    D(2,3,4,5)           -180.0            -DE/DX =    0.0                 !
 ! D6    D(2,3,4,10)             0.0            -DE/DX =    0.0                 !
 ! D7    D(8,3,4,5)              0.0            -DE/DX =    0.0                 !
 ! D8    D(8,3,4,10)           180.0            -DE/DX =    0.0                 !
 ! D9    D(2,3,8,6)            180.0            -DE/DX =    0.0                 !
 ! D10   D(2,3,8,7)            180.0            -DE/DX =    0.0                 !
 ! D11   D(2,3,8,14)             0.0            -DE/DX =    0.0                 !
 ! D12   D(4,3,8,6)              0.0            -DE/DX =    0.0                 !
 ! D13   D(4,3,8,7)              0.0            -DE/DX =    0.0                 !
 ! D14   D(4,3,8,14)          -180.0            -DE/DX =    0.0                 !
 ! D15   D(3,4,5,6)              0.0            -DE/DX =    0.0                 !
 ! D16   D(3,4,5,11)          -180.0            -DE/DX =    0.0                 !
 ! D17   D(10,4,5,6)          -180.0            -DE/DX =    0.0                 !
 ! D18   D(10,4,5,11)            0.0            -DE/DX =    0.0                 !
 ! D19   D(4,5,6,7)            180.0            -DE/DX =    0.0                 !
 ! D20   D(4,5,6,8)              0.0            -DE/DX =    0.0                 !
 ! D21   D(11,5,6,7)             0.0            -DE/DX =    0.0                 !
 ! D22   D(11,5,6,8)           180.0            -DE/DX =    0.0                 !
 ! D23   D(5,6,7,12)             0.0            -DE/DX =    0.0                 !
 ! D24   D(5,6,7,13)          -180.0            -DE/DX =    0.0                 !
 ! D25   D(5,6,8,3)              0.0            -DE/DX =    0.0                 !
 ! D26   D(5,6,8,14)          -180.0            -DE/DX =    0.0                 !
 ! D27   D(12,7,8,3)             0.0            -DE/DX =    0.0                 !
 ! D28   D(12,7,8,14)          180.0            -DE/DX =    0.0                 !
 ! D29   D(13,7,8,3)          -180.0            -DE/DX =    0.0                 !
 ! D30   D(13,7,8,14)            0.0            -DE/DX =    0.0                 !
 --------------------------------------------------------------------------------
 GradGradGradGradGradGradGradGradGradGradGradGradGradGradGradGradGradGrad


 ----------------------------------------------------------------------

 Electric dipole moment (input orientation):
 (Debye = 10**-18 statcoulomb cm , SI units = C m)
                  (au)            (Debye)         (10**-30 SI)
   Tot        0.140093D+01      0.356080D+01      0.118776D+02
   x          0.822256D+00      0.208997D+01      0.697138D+01
   y         -0.987993D+00     -0.251123D+01     -0.837656D+01
   z         -0.557099D+00     -0.141601D+01     -0.472328D+01

 Dipole polarizability, Alpha (input orientation).
 (esu units = cm**3 , SI units = C**2 m**2 J**-1)
 Alpha(0;0):
               (au)            (10**-24 esu)      (10**-40 SI)
   iso        0.785535D+02      0.116404D+02      0.129517D+02
   aniso      0.820261D+02      0.121550D+02      0.135243D+02
   xx         0.598320D+02      0.886619D+01      0.986496D+01
   yx        -0.245937D+02     -0.364441D+01     -0.405495D+01
   yy         0.681690D+02      0.101016D+02      0.112395D+02
   zx         0.983872D+00      0.145795D+00      0.162219D+00
   zy         0.313718D+02      0.464882D+01      0.517251D+01
   zz         0.107660D+03      0.159535D+02      0.177507D+02

 ----------------------------------------------------------------------

 Dipole orientation:
     8          2.51012053         -1.76288529          0.19279626
     6          3.76882146         -1.00597158          1.94923785
     6          3.13564140         -1.38719341          4.62418966
     6          4.64520549         -0.48212340          6.79308760
     6          3.49319461         -1.17679556          8.95777706
     6          1.17597429         -2.56826967          8.29130161
     6         -0.52124231         -3.58778175          9.87602450
     6          1.07265098         -2.62791745          5.52400884
     1          5.54910292          0.06396854          1.61287726
     1          6.39147508          0.56912790          6.61456398
     1          4.10374106         -0.81118828         10.87248633
     1         -0.30407511         -3.45972274         11.91126859
     1         -2.17531046         -4.57926876          9.17977775
     1         -0.39280671         -3.50817952          4.40751528

 Electric dipole moment (dipole orientation):
 (Debye = 10**-18 statcoulomb cm , SI units = C m)
                  (au)            (Debye)         (10**-30 SI)
   Tot        0.140093D+01      0.356080D+01      0.118776D+02
   x          0.000000D+00      0.000000D+00      0.000000D+00
   y          0.000000D+00      0.000000D+00      0.000000D+00
   z          0.140093D+01      0.356080D+01      0.118776D+02

 Dipole polarizability, Alpha (dipole orientation).
 (esu units = cm**3 , SI units = C**2 m**2 J**-1)
 Alpha(0;0):
               (au)            (10**-24 esu)      (10**-40 SI)
   iso        0.785535D+02      0.116404D+02      0.129517D+02
   aniso      0.820261D+02      0.121550D+02      0.135243D+02
   xx         0.778397D+02      0.115346D+02      0.128340D+02
   yx         0.273448D+02      0.405208D+01      0.450855D+01
   yy         0.487815D+02      0.722868D+01      0.804299D+01
   zx        -0.207465D+02     -0.307432D+01     -0.342064D+01
   zy        -0.125087D+02     -0.185360D+01     -0.206241D+01
   zz         0.109039D+03      0.161580D+02      0.179782D+02

 ----------------------------------------------------------------------
 1\1\GINC-LEWIS4-Z10PH-HPC3-NODE399\Freq\RB3LYP\6-31G(2df,p)\C7H6O1\YXI
 E\04-Aug-2022\0\\#N Geom=AllCheck Guess=TCheck SCRF=Check GenChk RB3LY
 P/6-31G(2df,p) Freq\\Title Card Required\\0,1\O,1.337063698,0.92234687
 71,0.0811511564\C,2.2658810335,0.2061047758,0.3849578135\C,2.903972376
 1,-0.7614699396,-0.5168793482\C,4.0377075374,-1.6428259331,-0.16665975
 85\C,4.3595572025,-2.3944388103,-1.2392445958\C,3.4466455814,-2.034562
 6068,-2.3380050098\C,3.421871976,-2.5444513357,-3.5791117623\C,2.55528
 96771,-0.9976746254,-1.8100213128\H,2.7036069718,0.2459356048,1.407984
 3265\H,4.5138235183,-1.6608595964,0.8056137883\H,5.1404086411,-3.13794
 26322,-1.3160907488\H,4.1205313113,-3.3136172852,-3.8921564917\H,2.701
 4562691,-2.205876533,-4.3163617161\H,1.7621242064,-0.5106179601,-2.358
 7463408\\Version=ES64L-G16RevA.03\State=1-A\HF=-345.5393422\RMSD=5.282
 e-09\RMSF=2.781e-05\ZeroPoint=0.1072144\Thermal=0.1141463\Dipole=0.822
 2563,-0.9879932,-0.5570993\DipoleDeriv=-0.7693124,0.4909829,0.209232,0
 .3739791,-0.7804403,-0.2598163,-0.064358,-0.0106518,-0.4903335,0.73472
 22,-0.5468125,-0.1535713,-0.5090716,0.9085073,0.5561525,-0.0653808,0.4
 759573,1.1787407,0.0176293,-0.1185825,-0.2091783,0.0738944,-0.173315,-
 0.2141831,0.2399824,-0.623558,-0.9598688,0.0172557,-0.0053921,0.276475
 ,-0.0785921,-0.1406106,-0.2174732,0.1059432,-0.0620191,-0.0376548,-0.1
 020167,-0.017933,0.0889521,-0.0362327,-0.1091694,0.0502117,0.0468264,0
 .0880205,0.1410598,0.0323018,0.0337309,0.0473559,0.0500005,-0.0896737,
 -0.2128822,0.0852027,-0.2468313,-0.3480818,0.0082901,-0.1272188,0.0911
 117,-0.1574257,-0.0004352,0.072765,0.0207017,0.1370536,0.1886232,-0.10
 90478,-0.0113328,-0.046409,-0.0428098,0.0543895,0.2682554,-0.1197329,0
 .3352594,0.4287884,-0.020177,-0.0101211,-0.1443543,0.0164472,0.0216812
 ,0.0000719,-0.0822663,-0.0563908,-0.2699717,0.0589687,0.0325086,-0.056
 5471,0.0254859,0.0921682,-0.0138313,-0.0730832,0.0010694,-0.0317624,0.
 0233638,0.089045,-0.0184908,0.0967213,0.0374154,-0.0106197,-0.0009408,
 -0.0265536,0.066014,0.0291588,0.0855865,0.0126963,0.0722473,0.0341632,
 -0.0407586,-0.0183726,-0.0125961,0.0489925,0.0275894,0.052468,-0.06484
 11,0.0655064,0.0650386,0.0202225,-0.0344371,-0.0075239,0.0253287,0.051
 2741,0.053071,-0.0324311,0.0498495,0.0802809,0.0018855,-0.0400848,0.00
 87645,0.0601256\Polar=59.8319854,-24.5936994,68.1689817,0.9838718,31.3
 718231,107.6595827\Quadrupole=-2.2455825,-2.8675802,5.1131627,1.772189
 ,2.510762,0.5385083\PG=C01 [X(C7H6O1)]\NImag=0\\0.50031364,-0.36699894
 ,0.31705546,0.15508681,-0.09805166,0.12561953,-0.45781167,0.30018647,-
 0.13643171,0.63727235,0.29737143,-0.29750151,0.08806389,-0.33243546,0.
 49814339,-0.14299449,0.09404191,-0.14884694,0.16896884,0.00534967,0.56
 464851,-0.02455226,0.04596665,0.01681250,-0.10401218,0.03637000,0.0298
 2161,0.38409318,0.04672959,-0.02916631,-0.01069404,0.02540187,-0.12940
 974,-0.06571166,-0.19413761,0.38056970,0.01859252,-0.01230261,0.028764
 32,0.00429274,-0.04250836,-0.16811101,0.07873761,0.16372037,0.68347859
 ,0.00440532,-0.00035367,0.00050437,-0.01028635,0.00773947,-0.00094287,
 -0.14631011,0.06720350,-0.02665557,0.37358769,0.00033264,0.00194442,-0
 .00358877,0.01529787,-0.01238873,0.00670328,0.06365645,-0.11485452,0.0
 0685909,-0.17371390,0.35748757,0.00209103,-0.00504098,-0.00351902,0.01
 669399,-0.00933156,0.01232062,-0.03495270,0.01440072,-0.10058366,0.122
 15496,0.17339605,0.79094052,-0.00176526,0.00197121,0.00217743,-0.00207
 944,0.00035896,-0.00679143,-0.02200337,0.03254968,0.00958271,-0.101721
 15,0.06833991,0.06221884,0.47342726,0.00155756,-0.00264220,-0.00138686
 ,0.00185026,0.00211114,0.00532085,0.03712317,-0.02814376,-0.00854507,0
 .06465892,-0.19031786,-0.17681803,-0.32241375,0.49010767,0.00122652,-0
 .00052230,0.00075933,-0.00331677,0.00216537,-0.00048283,0.02025102,-0.
 01825315,0.00968860,0.05359764,-0.16894313,-0.33693285,0.00516154,0.18
 736779,0.56539653,-0.00122058,0.00030474,-0.00033575,0.00452358,0.0045
 8076,-0.00250510,0.01011762,0.00232473,0.01147532,0.01009992,-0.010851
 96,-0.01185277,-0.13627684,0.03674376,-0.05583527,0.33688318,0.0016909
 6,-0.00158237,0.00161482,0.00115580,0.00826048,-0.00336828,0.00060928,
 -0.00826048,-0.03497651,-0.00733186,0.00345214,-0.01632354,0.03450594,
 -0.09114668,0.02300950,-0.14074931,0.36881002,0.00291406,-0.00134253,0
 .00233306,-0.01053841,0.00394959,-0.00244428,0.00750779,-0.03135783,-0
 .05002089,-0.00369146,-0.02375576,-0.05957488,-0.06098440,0.02773369,-
 0.13444208,0.06676401,0.21016584,0.78260023,-0.00064169,0.00063474,-0.
 00011185,0.00174576,-0.00173629,-0.00044008,-0.00425292,0.00749529,0.0
 0352036,-0.00464429,0.00307126,-0.00536890,0.00508777,-0.00996736,-0.0
 2275748,-0.08284238,0.02070210,-0.01706094,0.42501156,-0.00002787,0.00
 009280,-0.00009664,-0.00033184,0.00023579,-0.00026679,0.00562961,-0.00
 312934,-0.00078720,0.00356323,0.00014593,0.00497950,-0.00144152,0.0081
 3482,0.00458990,0.02039638,-0.13601958,-0.15256734,-0.23480635,0.40596
 416,-0.00165899,0.00131264,-0.00035395,0.00283306,-0.00324720,-0.00151
 622,-0.00083740,0.00316845,0.00796097,-0.00420429,0.00392624,0.0014816
 7,-0.00289961,-0.01349346,-0.03274123,-0.01774181,-0.15192557,-0.44379
 998,0.10414309,0.17490318,0.74600825,-0.00138131,-0.00008826,-0.000655
 57,0.01113768,0.00126834,0.01550019,-0.10655284,-0.00059836,-0.0885340
 8,-0.02319028,0.01862145,-0.02731845,-0.02803353,0.02979928,-0.0172642
 1,-0.14018732,0.07091450,0.02004539,0.00530061,0.00020266,0.00354644,0
 .48968869,-0.00453485,0.00295617,-0.00001954,-0.00089959,-0.00495485,-
 0.02571081,0.00069899,-0.09035532,-0.05641136,0.01375569,0.00316247,0.
 01295963,0.03330342,-0.01355046,0.00909250,0.06993495,-0.14586818,-0.0
 2474679,0.00797790,-0.00910183,-0.01330448,-0.23607576,0.36192314,-0.0
 1104231,0.00944422,-0.00260268,0.01042806,-0.02109637,-0.02184140,-0.0
 8552419,-0.05916607,-0.38560070,-0.03866005,0.02326538,-0.01766446,-0.
 00905039,0.00162011,-0.00258101,0.01772387,-0.02261828,-0.08686742,0.0
 2167894,-0.02979641,-0.01967563,0.21279765,0.03954954,0.67494660,-0.01
 727412,0.01786719,-0.03849728,-0.07867432,-0.00956826,-0.05894499,0.01
 334873,0.00868639,0.00702024,0.00031743,-0.00126273,-0.00000634,0.0004
 0628,-0.00035430,-0.00015500,-0.00083302,-0.00082998,0.00102649,-0.000
 06224,-0.00001840,0.00021638,-0.00031209,0.00262719,0.00123331,0.08281
 374,0.02322677,0.00996002,0.02492148,-0.00709674,-0.06381549,-0.020645
 12,0.00005950,0.00999063,-0.02223484,-0.00148491,0.00041230,0.00029769
 ,0.00003955,0.00010567,0.00012246,-0.00153857,-0.00107865,-0.00059534,
 0.00017724,-0.00037712,-0.00007479,0.00335156,-0.00191370,-0.00200085,
 -0.01732121,0.04673611,-0.02599985,0.01353054,-0.00325931,-0.05317733,
 -0.02588408,-0.23481118,-0.01309356,-0.00392809,-0.01739762,-0.0005234
 1,0.00077198,-0.00038112,0.00076506,-0.00071455,0.00004720,-0.00063565
 ,0.00091836,-0.00143300,0.00067202,-0.00048849,0.00010202,0.00292073,-
 0.00353541,-0.00005433,0.08821571,0.02019851,0.25688226,-0.00005713,0.
 00034528,0.00073513,0.00041886,-0.00177304,-0.00189293,-0.00328753,-0.
 00367114,-0.01684078,-0.10457957,0.01277919,-0.11892996,0.00813818,0.0
 0005693,0.00893974,0.00339481,0.00646704,-0.00066620,0.00070000,-0.000
 41611,0.00014410,-0.00296515,0.00324578,-0.00105203,0.00005562,0.00038
 211,0.00094916,0.09989971,-0.00008960,-0.00020253,-0.00060714,-0.00077
 881,0.00085682,0.00182945,0.00411764,0.00326324,0.01504869,0.01376650,
 -0.04688934,0.00076894,-0.00935193,0.00617538,-0.01481352,0.00631557,0
 .00304280,-0.00473545,-0.00085654,0.00075919,-0.00045172,0.00360963,-0
 .00205211,0.00032004,-0.00012086,-0.00018179,-0.00074614,-0.01453602,0
 .03696349,-0.00027806,0.00031651,0.00012311,0.00042219,-0.00028215,-0.
 00039383,0.00142079,-0.00155112,-0.00002522,-0.11666781,-0.00132705,-0
 .28635782,-0.01306733,0.00523173,-0.01158643,-0.00100772,-0.00441271,-
 0.00166344,-0.00088942,0.00048690,-0.00057657,-0.00019746,-0.00046130,
 -0.00040552,-0.00022405,0.00032325,0.00030544,0.12907985,0.00096337,0.
 30056929,-0.00037015,-0.00010603,0.00030213,0.00063422,0.00039933,-0.0
 0063103,0.00315920,0.00380422,-0.00083548,-0.00005089,0.00103074,-0.00
 297672,-0.19760300,0.15893253,0.00962975,-0.00696689,0.00807311,0.0061
 6651,-0.00026157,-0.00055447,0.00082685,-0.00136632,0.00029172,-0.0019
 5994,0.00001509,-0.00000057,0.00009282,-0.00167732,-0.00206420,0.00121
 140,0.20362378,-0.00000891,-0.00068734,-0.00015212,0.00089556,0.000804
 12,0.00057366,0.00372735,0.00262360,-0.00400905,0.01029087,-0.00518264
 ,0.00398188,0.15846433,-0.18060059,-0.02083231,-0.00044366,-0.00170510
 ,-0.00258588,-0.00071662,-0.00039991,0.00048614,-0.00010908,0.00000371
 ,0.00006560,-0.00005311,-0.00001939,-0.00008886,-0.00241936,-0.0019072
 4,0.00094849,-0.17079093,0.18587139,0.00052867,-0.00036102,-0.00034565
 ,0.00053157,-0.00048225,0.00137102,-0.00102452,-0.00384539,-0.00343271
 ,0.01868572,-0.01572835,0.00545543,0.00849660,-0.01980579,-0.05566542,
 -0.01370896,0.01550576,0.00607145,0.00044948,0.00082845,0.00162760,-0.
 00290108,0.00092743,-0.00412113,-0.00002935,0.00002229,-0.00003982,0.0
 0038204,0.00170714,0.00028731,-0.01109577,0.02169100,0.04823973,0.0000
 4386,0.00007064,-0.00000202,-0.00068263,-0.00085880,0.00032834,-0.0012
 9343,-0.00094198,0.00009577,0.00085371,0.00039136,-0.00025401,-0.00224
 329,-0.00421460,0.00139221,0.00513116,0.00076102,-0.00302838,-0.168709
 27,0.13949275,0.04846292,0.00567736,0.00517097,-0.00229999,0.00018531,
 0.00022718,-0.00008168,0.00027676,0.00030352,-0.00009485,0.00023460,0.
 00031239,0.00038529,0.16754553,0.00010032,0.00002108,-0.00002379,-0.00
 102441,-0.00073131,0.00027887,-0.00018358,-0.00190826,0.00070607,0.000
 33069,0.00101677,-0.00020574,-0.00385144,-0.00301644,0.00238637,0.0108
 2264,-0.00327279,-0.00195263,0.13806411,-0.18965556,-0.06082708,0.0043
 1035,0.00664450,-0.00441358,0.00023896,0.00017879,-0.00018128,0.000277
 70,0.00033369,-0.00016316,-0.00011579,0.00022942,-0.00063681,-0.153792
 17,0.19199160,0.00006646,-0.00008693,0.00006125,-0.00005059,0.00062797
 ,-0.00042933,0.00187209,-0.00090436,-0.00051445,-0.00040090,-0.0000727
 8,0.00038571,0.00226419,0.00159973,0.00099563,0.02038981,-0.02324049,-
 0.00356482,0.04515752,-0.05783013,-0.07725120,-0.00431785,-0.00258335,
 -0.00272383,-0.00005649,-0.00020455,-0.00012230,-0.00015713,-0.0001081
 6,0.00007099,-0.00061515,0.00027307,-0.00027318,-0.05122629,0.06930612
 ,0.07554388,-0.00000790,-0.00004626,-0.00000123,0.00027220,0.00030166,
 -0.00013939,0.00109758,0.00063023,-0.00016509,-0.00074457,-0.00008626,
 0.00031298,0.00559456,0.00490568,-0.00194741,0.00367667,0.00274453,0.0
 0097558,-0.17607626,0.06935046,-0.13286106,-0.00231935,-0.00421458,0.0
 0217114,-0.00005640,-0.00006980,0.00001913,-0.00069106,-0.00083584,0.0
 0037511,0.00003223,-0.00008340,0.00025152,-0.00706167,0.00491568,-0.01
 317169,0.17599608,-0.00000482,-0.00003701,0.00003931,0.00029588,0.0003
 3323,-0.00015826,0.00067564,0.00110007,-0.00035949,-0.00079028,-0.0004
 0427,-0.00031684,0.00579334,0.00503698,-0.00374913,-0.00742397,0.00850
 228,-0.01045359,0.07084629,-0.07645712,0.05833525,-0.00456151,-0.00307
 118,0.00177507,-0.00006078,-0.00006201,0.00005804,-0.00075525,-0.00100
 906,0.00021333,-0.00025455,-0.00003768,-0.00021387,0.01333686,-0.00180
 008,0.01343865,-0.07750598,0.06769315,0.00009620,-0.00004922,0.0000315
 0,-0.00015716,-0.00014245,0.00000417,-0.00007002,-0.00045565,0.0006622
 7,-0.00131323,0.00116528,-0.00106130,0.00009015,-0.00561287,-0.0009665
 7,-0.02269788,0.01106518,-0.01608797,-0.12938092,0.05517735,-0.1826043
 2,0.00136224,0.00251963,0.00077565,0.00004062,0.00003838,0.00003349,0.
 00056634,0.00004459,-0.00048628,-0.00014717,0.00014955,-0.00014183,0.0
 0646482,-0.00441200,0.00797591,0.14468923,-0.05875703,0.19207647,0.000
 31927,0.00024623,0.00041704,-0.00245806,-0.00201810,0.00066334,0.00044
 833,0.00452358,-0.00028626,0.00226314,0.00239397,-0.00181195,-0.000928
 17,0.00132191,0.00107771,-0.00549990,0.00128687,-0.00943004,-0.0003550
 9,-0.00103853,0.00003030,-0.20549613,0.10871817,-0.11644409,0.00006999
 ,0.00004789,-0.00012315,0.00037381,0.00052094,-0.00008263,0.00059701,0
 .00093457,-0.00095121,0.00004200,-0.00009306,0.00024602,0.00028791,0.0
 0040913,0.00045679,0.21033590,0.00065573,-0.00021069,-0.00001894,-0.00
 251687,-0.00194334,0.00176323,-0.00431311,0.00768049,-0.00419974,0.002
 36575,0.00241577,-0.00274773,0.00173231,-0.00225366,-0.00162035,0.0095
 8393,-0.00313392,0.01224400,-0.00088577,-0.00019224,0.00119240,0.10935
 520,-0.10382235,0.06305159,0.00016991,0.00006464,0.00008947,0.00001688
 ,0.00084749,-0.00028609,0.00135488,0.00100766,0.00039141,-0.00025913,-
 0.00003142,-0.00021480,-0.00000612,0.00021270,-0.00073075,-0.11725358,
 0.09935887,0.00137141,-0.00088858,0.00123545,-0.00049849,0.00281792,0.
 00053271,-0.02092103,0.01457781,-0.00486850,-0.00188310,-0.00267148,-0
 .00450884,0.00203662,-0.00249729,-0.00148889,0.00996790,-0.00541409,0.
 00889402,0.00038818,0.00086773,0.00133858,-0.11498392,0.06172432,-0.13
 158415,0.00016074,-0.00016858,0.00012826,-0.00125732,0.00077991,0.0001
 3898,0.00003180,-0.00050117,0.00096720,-0.00014213,0.00013865,-0.00015
 425,-0.00050882,0.00014857,-0.00021120,0.12623815,-0.06891371,0.129580
 63\\-0.00000261,0.00002858,-0.00000511,-0.00000797,-0.00002698,0.00001
 530,-0.00003376,-0.00002320,-0.00000090,0.00009060,-0.00001839,-0.0000
 0979,0.00001720,0.00000486,0.00004957,0.00000317,-0.00000541,-0.000065
 09,-0.00004522,0.00002974,0.00006044,-0.00002538,0.00001510,-0.0000547
 4,0.00000371,0.00001796,0.00000415,-0.00002322,-0.00001164,0.00001589,
 -0.00000600,-0.00000169,-0.00001214,0.00001739,0.00000940,0.00000089,0
 .00000523,-0.00002417,-0.00001009,0.00000685,0.00000585,0.00001160\\\@


 I WANT IT ALL - RICH, THIN, AND CHOCOLATE.
 Job cpu time:       0 days  1 hours  8 minutes 18.5 seconds.
 Elapsed time:       0 days  0 hours 17 minutes  5.0 seconds.
 File lengths (MBytes):  RWF=     79 Int=      0 D2E=      0 Chk=      6 Scr=      1
 Normal termination of Gaussian 16 at Thu Aug  4 11:54:18 2022.
### All Done ###
