### Starting Gaussian ###
 Entering Gaussian System, Link 0=g16
 Initial command:
 /cluster/software/gaussian/gaussian-16-A.03/avx2/g16/l1.exe "/local/scratch/ks29c/Gau-31000.inp" -scrdir="/local/scratch/ks29c/"
 Entering Link 1 = /cluster/software/gaussian/gaussian-16-A.03/avx2/g16/l1.exe PID=     31001.
  
 Copyright (c) 1988,1990,1992,1993,1995,1998,2003,2009,2016,
            Gaussian, Inc.  All Rights Reserved.
  
 This is part of the Gaussian(R) 16 program.  It is based on
 the Gaussian(R) 09 system (copyright 2009, Gaussian, Inc.),
 the Gaussian(R) 03 system (copyright 2003, Gaussian, Inc.),
 the Gaussian(R) 98 system (copyright 1998, Gaussian, Inc.),
 the Gaussian(R) 94 system (copyright 1995, Gaussian, Inc.),
 the Gaussian 92(TM) system (copyright 1992, Gaussian, Inc.),
 the Gaussian 90(TM) system (copyright 1990, Gaussian, Inc.),
 the Gaussian 88(TM) system (copyright 1988, Gaussian, Inc.),
 the Gaussian 86(TM) system (copyright 1986, Carnegie Mellon
 University), and the Gaussian 82(TM) system (copyright 1983,
 Carnegie Mellon University). Gaussian is a federally registered
 trademark of Gaussian, Inc.
  
 This software contains proprietary and confidential information,
 including trade secrets, belonging to Gaussian, Inc.
  
 This software is provided under written license and may be
 used, copied, transmitted, or stored only in accord with that
 written license.
  
 The following legend is applicable only to US Government
 contracts under FAR:
  
                    RESTRICTED RIGHTS LEGEND
  
 Use, reproduction and disclosure by the US Government is
 subject to restrictions as set forth in subparagraphs (a)
 and (c) of the Commercial Computer Software - Restricted
 Rights clause in FAR 52.227-19.
  
 Gaussian, Inc.
 340 Quinnipiac St., Bldg. 40, Wallingford CT 06492
  
  
 ---------------------------------------------------------------
 Warning -- This program may not be used in any manner that
 competes with the business of Gaussian, Inc. or will provide
 assistance to any competitor of Gaussian, Inc.  The licensee
 of this program is prohibited from giving any competitor of
 Gaussian, Inc. access to this program.  By using this program,
 the user acknowledges that Gaussian, Inc. is engaged in the
 business of creating and licensing software in the field of
 computational chemistry and represents and warrants to the
 licensee that it is not a competitor of Gaussian, Inc. and that
 it will not use this program in any manner prohibited above.
 ---------------------------------------------------------------
  

 Cite this work as:
 Gaussian 16, Revision A.03,
 M. J. Frisch, G. W. Trucks, H. B. Schlegel, G. E. Scuseria, 
 M. A. Robb, J. R. Cheeseman, G. Scalmani, V. Barone, 
 G. A. Petersson, H. Nakatsuji, X. Li, M. Caricato, A. V. Marenich, 
 J. Bloino, B. G. Janesko, R. Gomperts, B. Mennucci, H. P. Hratchian, 
 J. V. Ortiz, A. F. Izmaylov, J. L. Sonnenberg, D. Williams-Young, 
 F. Ding, F. Lipparini, F. Egidi, J. Goings, B. Peng, A. Petrone, 
 T. Henderson, D. Ranasinghe, V. G. Zakrzewski, J. Gao, N. Rega, 
 G. Zheng, W. Liang, M. Hada, M. Ehara, K. Toyota, R. Fukuda, 
 J. Hasegawa, M. Ishida, T. Nakajima, Y. Honda, O. Kitao, H. Nakai, 
 T. Vreven, K. Throssell, J. A. Montgomery, Jr., J. E. Peralta, 
 F. Ogliaro, M. J. Bearpark, J. J. Heyd, E. N. Brothers, K. N. Kudin, 
 V. N. Staroverov, T. A. Keith, R. Kobayashi, J. Normand, 
 K. Raghavachari, A. P. Rendell, J. C. Burant, S. S. Iyengar, 
 J. Tomasi, M. Cossi, J. M. Millam, M. Klene, C. Adamo, R. Cammi, 
 J. W. Ochterski, R. L. Martin, K. Morokuma, O. Farkas, 
 J. B. Foresman, and D. J. Fox, Gaussian, Inc., Wallingford CT, 2016.
 
 ******************************************
 Gaussian 16:  ES64L-G16RevA.03 25-Dec-2016
                 3-Jul-2022 
 ******************************************
 %chk=OdCC12CCCOC1N2.chk
 %NProcShared=20
 Will use up to   20 processors via shared memory.
 -----------------------------
 # opt freq b3lyp/6-31g(2df,p)
 -----------------------------
 1/18=20,19=15,26=3,38=1/1,3;
 2/9=110,12=2,17=6,18=5,40=1/2;
 3/5=1,6=6,7=104,11=2,25=1,30=1,71=1,74=-5/1,2,3;
 4//1;
 5/5=2,38=5/2;
 6/7=2,8=2,9=2,10=2,28=1/1;
 7//1,2,3,16;
 1/18=20,19=15,26=3/3(2);
 2/9=110/2;
 99//99;
 2/9=110/2;
 3/5=1,6=6,7=104,11=2,25=1,30=1,71=1,74=-5/1,2,3;
 4/5=5,16=3,69=1/1;
 5/5=2,38=5/2;
 7//1,2,3,16;
 1/18=20,19=15,26=3/3(-5);
 2/9=110/2;
 6/7=2,8=2,9=2,10=2,19=2,28=1/1;
 99/9=1/99;
 -------------------
 Title Card Required
 -------------------
 Symbolic Z-matrix:
 Charge =  0 Multiplicity = 1
 O                     1.16238   0.00323   0.43759 
 C                     2.36927  -0.07478   0.5079 
 C                     3.05908  -1.31839   0.96024 
 C                     3.04918  -2.3775   -0.10232 
 C                     2.61355  -3.67685   0.54027 
 C                     3.76879  -4.05673   1.43982 
 O                     3.77422  -3.20713   2.59801 
 C                     3.29785  -1.82683   2.40489 
 N                     4.27172  -0.99924   1.73408 
 H                     3.02648   0.6639   -0.00061 
 H                     4.03679  -2.44428  -0.57462 
 H                     2.34147  -2.12076  -0.89824 
 H                     2.38607  -4.42925  -0.21529 
 H                     1.70811  -3.50956   1.14356 
 H                     4.73369  -3.93504   0.92741 
 H                     3.69933  -5.10654   1.73758 
 H                     2.86891  -1.36361   3.2887 
 H                     5.06628  -1.59696   1.5258 
 

 GradGradGradGradGradGradGradGradGradGradGradGradGradGradGradGradGradGrad
 Berny optimization.
 Initialization pass.
                           ----------------------------
                           !    Initial Parameters    !
                           ! (Angstroms and Degrees)  !
 --------------------------                            --------------------------
 ! Name  Definition              Value          Derivative Info.                !
 --------------------------------------------------------------------------------
 ! R1    R(1,2)                  1.2115         estimate D2E/DX2                !
 ! R2    R(2,3)                  1.4923         estimate D2E/DX2                !
 ! R3    R(2,10)                 1.1118         estimate D2E/DX2                !
 ! R4    R(3,4)                  1.5003         estimate D2E/DX2                !
 ! R5    R(3,8)                  1.55           estimate D2E/DX2                !
 ! R6    R(3,9)                  1.4735         estimate D2E/DX2                !
 ! R7    R(4,5)                  1.5136         estimate D2E/DX2                !
 ! R8    R(4,11)                 1.0968         estimate D2E/DX2                !
 ! R9    R(4,12)                 1.0956         estimate D2E/DX2                !
 ! R10   R(5,6)                  1.5126         estimate D2E/DX2                !
 ! R11   R(5,13)                 1.0903         estimate D2E/DX2                !
 ! R12   R(5,14)                 1.1008         estimate D2E/DX2                !
 ! R13   R(6,7)                  1.4364         estimate D2E/DX2                !
 ! R14   R(6,15)                 1.0993         estimate D2E/DX2                !
 ! R15   R(6,16)                 1.0934         estimate D2E/DX2                !
 ! R16   R(7,8)                  1.4729         estimate D2E/DX2                !
 ! R17   R(8,9)                  1.4434         estimate D2E/DX2                !
 ! R18   R(8,17)                 1.0861         estimate D2E/DX2                !
 ! R19   R(9,18)                 1.0159         estimate D2E/DX2                !
 ! A1    A(1,2,3)              122.1241         estimate D2E/DX2                !
 ! A2    A(1,2,10)             121.3025         estimate D2E/DX2                !
 ! A3    A(3,2,10)             114.7751         estimate D2E/DX2                !
 ! A4    A(2,3,4)              111.7503         estimate D2E/DX2                !
 ! A5    A(2,3,8)              128.8342         estimate D2E/DX2                !
 ! A6    A(2,3,9)              111.0449         estimate D2E/DX2                !
 ! A7    A(4,3,8)              115.439          estimate D2E/DX2                !
 ! A8    A(4,3,9)              122.0245         estimate D2E/DX2                !
 ! A9    A(3,4,5)              107.8926         estimate D2E/DX2                !
 ! A10   A(3,4,11)             110.0006         estimate D2E/DX2                !
 ! A11   A(3,4,12)             110.693          estimate D2E/DX2                !
 ! A12   A(5,4,11)             112.9368         estimate D2E/DX2                !
 ! A13   A(5,4,12)             108.8857         estimate D2E/DX2                !
 ! A14   A(11,4,12)            106.4456         estimate D2E/DX2                !
 ! A15   A(4,5,6)              104.3741         estimate D2E/DX2                !
 ! A16   A(4,5,13)             110.993          estimate D2E/DX2                !
 ! A17   A(4,5,14)             109.8123         estimate D2E/DX2                !
 ! A18   A(6,5,13)             113.4627         estimate D2E/DX2                !
 ! A19   A(6,5,14)             109.9033         estimate D2E/DX2                !
 ! A20   A(13,5,14)            108.2432         estimate D2E/DX2                !
 ! A21   A(5,6,7)              109.5026         estimate D2E/DX2                !
 ! A22   A(5,6,15)             111.4298         estimate D2E/DX2                !
 ! A23   A(5,6,16)             110.7657         estimate D2E/DX2                !
 ! A24   A(7,6,15)             107.8819         estimate D2E/DX2                !
 ! A25   A(7,6,16)             110.3986         estimate D2E/DX2                !
 ! A26   A(15,6,16)            106.7969         estimate D2E/DX2                !
 ! A27   A(6,7,8)              116.5736         estimate D2E/DX2                !
 ! A28   A(3,8,7)              118.6477         estimate D2E/DX2                !
 ! A29   A(3,8,17)             123.8953         estimate D2E/DX2                !
 ! A30   A(7,8,9)              112.3362         estimate D2E/DX2                !
 ! A31   A(7,8,17)             114.8793         estimate D2E/DX2                !
 ! A32   A(9,8,17)             113.5849         estimate D2E/DX2                !
 ! A33   A(3,9,18)             114.1152         estimate D2E/DX2                !
 ! A34   A(8,9,18)             106.5981         estimate D2E/DX2                !
 ! D1    D(1,2,3,4)             75.3255         estimate D2E/DX2                !
 ! D2    D(1,2,3,8)            -80.8622         estimate D2E/DX2                !
 ! D3    D(1,2,3,9)           -144.7462         estimate D2E/DX2                !
 ! D4    D(10,2,3,4)           -89.5723         estimate D2E/DX2                !
 ! D5    D(10,2,3,8)           114.2399         estimate D2E/DX2                !
 ! D6    D(10,2,3,9)            50.3559         estimate D2E/DX2                !
 ! D7    D(2,3,4,5)           -132.5028         estimate D2E/DX2                !
 ! D8    D(2,3,4,11)           103.9023         estimate D2E/DX2                !
 ! D9    D(2,3,4,12)           -13.4551         estimate D2E/DX2                !
 ! D10   D(8,3,4,5)             27.1159         estimate D2E/DX2                !
 ! D11   D(8,3,4,11)           -96.479          estimate D2E/DX2                !
 ! D12   D(8,3,4,12)           146.1636         estimate D2E/DX2                !
 ! D13   D(9,3,4,5)             92.6223         estimate D2E/DX2                !
 ! D14   D(9,3,4,11)           -30.9725         estimate D2E/DX2                !
 ! D15   D(9,3,4,12)          -148.3299         estimate D2E/DX2                !
 ! D16   D(2,3,8,7)            168.3636         estimate D2E/DX2                !
 ! D17   D(2,3,8,17)             7.5291         estimate D2E/DX2                !
 ! D18   D(4,3,8,7)             12.8993         estimate D2E/DX2                !
 ! D19   D(4,3,8,17)          -147.9352         estimate D2E/DX2                !
 ! D20   D(2,3,9,18)          -139.0111         estimate D2E/DX2                !
 ! D21   D(4,3,9,18)            -3.86           estimate D2E/DX2                !
 ! D22   D(3,4,5,6)            -69.3427         estimate D2E/DX2                !
 ! D23   D(3,4,5,13)           168.0704         estimate D2E/DX2                !
 ! D24   D(3,4,5,14)            48.4239         estimate D2E/DX2                !
 ! D25   D(11,4,5,6)            52.4529         estimate D2E/DX2                !
 ! D26   D(11,4,5,13)          -70.134          estimate D2E/DX2                !
 ! D27   D(11,4,5,14)          170.2196         estimate D2E/DX2                !
 ! D28   D(12,4,5,6)           170.4657         estimate D2E/DX2                !
 ! D29   D(12,4,5,13)           47.8788         estimate D2E/DX2                !
 ! D30   D(12,4,5,14)          -71.7677         estimate D2E/DX2                !
 ! D31   D(4,5,6,7)             74.1491         estimate D2E/DX2                !
 ! D32   D(4,5,6,15)           -45.1224         estimate D2E/DX2                !
 ! D33   D(4,5,6,16)          -163.8625         estimate D2E/DX2                !
 ! D34   D(13,5,6,7)          -164.8937         estimate D2E/DX2                !
 ! D35   D(13,5,6,15)           75.8348         estimate D2E/DX2                !
 ! D36   D(13,5,6,16)          -42.9053         estimate D2E/DX2                !
 ! D37   D(14,5,6,7)           -43.5551         estimate D2E/DX2                !
 ! D38   D(14,5,6,15)         -162.8266         estimate D2E/DX2                !
 ! D39   D(14,5,6,16)           78.4333         estimate D2E/DX2                !
 ! D40   D(5,6,7,8)            -32.6699         estimate D2E/DX2                !
 ! D41   D(15,6,7,8)            88.766          estimate D2E/DX2                !
 ! D42   D(16,6,7,8)          -154.8781         estimate D2E/DX2                !
 ! D43   D(6,7,8,3)            -10.1733         estimate D2E/DX2                !
 ! D44   D(6,7,8,9)            -75.791          estimate D2E/DX2                !
 ! D45   D(6,7,8,17)           152.3461         estimate D2E/DX2                !
 ! D46   D(7,8,9,18)             1.7002         estimate D2E/DX2                !
 ! D47   D(17,8,9,18)          134.206          estimate D2E/DX2                !
 --------------------------------------------------------------------------------
 Trust Radius=3.00D-01 FncErr=1.00D-07 GrdErr=1.00D-06 EigMax=2.50D+02 EigMin=1.00D-04
 Number of steps in this run=    108 maximum allowed number of steps=    108.
 GradGradGradGradGradGradGradGradGradGradGradGradGradGradGradGradGradGrad

                          Input orientation:                          
 ---------------------------------------------------------------------
 Center     Atomic      Atomic             Coordinates (Angstroms)
 Number     Number       Type             X           Y           Z
 ---------------------------------------------------------------------
      1          8           0        1.162380    0.003230    0.437590
      2          6           0        2.369270   -0.074780    0.507900
      3          6           0        3.059080   -1.318390    0.960240
      4          6           0        3.049180   -2.377500   -0.102320
      5          6           0        2.613550   -3.676850    0.540270
      6          6           0        3.768790   -4.056730    1.439820
      7          8           0        3.774220   -3.207130    2.598010
      8          6           0        3.297850   -1.826830    2.404890
      9          7           0        4.271720   -0.999240    1.734080
     10          1           0        3.026480    0.663900   -0.000610
     11          1           0        4.036790   -2.444280   -0.574620
     12          1           0        2.341470   -2.120760   -0.898240
     13          1           0        2.386070   -4.429250   -0.215290
     14          1           0        1.708110   -3.509560    1.143560
     15          1           0        4.733690   -3.935040    0.927410
     16          1           0        3.699330   -5.106540    1.737580
     17          1           0        2.868910   -1.363610    3.288700
     18          1           0        5.066280   -1.596960    1.525800
 ---------------------------------------------------------------------
                    Distance matrix (angstroms):
                    1          2          3          4          5
     1  O    0.000000
     2  C    1.211451   0.000000
     3  C    2.370087   1.492319   0.000000
     4  C    3.085351   2.477330   1.500282   0.000000
     5  C    3.957199   3.610489   2.436638   1.513607   0.000000
     6  C    4.927587   4.322390   2.869180   2.390784   1.512640
     7  O    4.668569   4.019211   2.600203   2.916462   2.408752
     8  C    3.432145   2.744178   1.550012   2.578987   2.714341
     9  N    3.514801   2.444884   1.473493   2.601263   3.368131
    10  H    2.025678   1.111825   2.203127   3.043185   4.393765
    11  H    3.908594   3.093057   2.139939   1.096768   2.188109
    12  H    2.772369   2.482748   2.147722   1.095563   2.136529
    13  H    4.644410   4.414147   3.392973   2.159202   1.090286
    14  H    3.624349   3.555124   2.580688   2.152265   1.100803
    15  H    5.338928   4.546216   3.106808   2.514726   2.170607
    16  H    5.851140   5.347876   3.919727   3.354935   2.157889
    17  H    3.592955   3.105410   2.336650   3.543937   3.601410
    18  H    4.357206   3.259910   2.103880   2.707159   3.363495
                    6          7          8          9         10
     6  C    0.000000
     7  O    1.436403   0.000000
     8  C    2.474995   1.472906   0.000000
     9  N    3.112519   2.422532   1.443369   0.000000
    10  H    4.991013   4.721950   3.473299   2.706623   0.000000
    11  H    2.594183   3.273601   3.131255   2.733757   3.318282
    12  H    3.354362   3.931506   3.451337   3.451490   3.004881
    13  H    2.188624   3.366778   3.803850   4.372721   5.137742
    14  H    2.152572   2.544740   2.636249   3.636278   4.523825
    15  H    1.099275   2.059451   2.947734   3.079457   4.992598
    16  H    1.093429   2.086554   3.370903   4.146994   6.063993
    17  H    3.388368   2.166842   1.086132   2.125438   3.867193
    18  H    2.782327   2.326306   1.988211   1.015862   3.406200
                   11         12         13         14         15
    11  H    0.000000
    12  H    1.755991   0.000000
    13  H    2.606550   2.407807   0.000000
    14  H    3.083783   2.549286   1.775368   0.000000
    15  H    2.228033   3.513876   2.657316   3.062987   0.000000
    16  H    3.542284   4.207875   2.448893   2.620718   1.760309
    17  H    4.178161   4.287416   4.680730   3.248720   3.957947
    18  H    2.487884   3.684417   4.270455   3.883485   2.436248
                   16         17         18
    16  H    0.000000
    17  H    4.135831   0.000000
    18  H    3.772341   2.826783   0.000000
 Stoichiometry    C6H9NO2
 Framework group  C1[X(C6H9NO2)]
 Deg. of freedom    48
 Full point group                 C1      NOp   1
 Largest Abelian subgroup         C1      NOp   1
 Largest concise Abelian subgroup C1      NOp   1
                         Standard orientation:                         
 ---------------------------------------------------------------------
 Center     Atomic      Atomic             Coordinates (Angstroms)
 Number     Number       Type             X           Y           Z
 ---------------------------------------------------------------------
      1          8           0       -2.715956    0.507158   -0.717448
      2          6           0       -2.140672   -0.093626    0.163301
      3          6           0       -0.652168   -0.182860    0.221684
      4          6           0       -0.036183    1.102031    0.691217
      5          6           0        1.100126    1.443665   -0.248513
      6          6           0        2.152157    0.395108    0.037557
      7          8           0        1.743698   -0.860680   -0.527608
      8          6           0        0.296000   -1.130473   -0.556483
      9          7           0       -0.220576   -1.492194    0.741831
     10          1           0       -2.661821   -0.380453    1.102604
     11          1           0        0.286951    1.003817    1.734691
     12          1           0       -0.770965    1.914355    0.669215
     13          1           0        1.448480    2.463866   -0.085531
     14          1           0        0.759893    1.358248   -1.291927
     15          1           0        2.290824    0.249697    1.118312
     16          1           0        3.121589    0.697998   -0.367468
     17          1           0       -0.029632   -1.792470   -1.353606
     18          1           0        0.561210   -1.444586    1.388762
 ---------------------------------------------------------------------
 Rotational constants (GHZ):           3.0472337           1.3750263           1.1296319
 Standard basis: 6-31G(2df,p) (6D, 7F)
 There are   324 symmetry adapted cartesian basis functions of A   symmetry.
 There are   297 symmetry adapted basis functions of A   symmetry.
   297 basis functions,   459 primitive gaussians,   324 cartesian basis functions
    34 alpha electrons       34 beta electrons
       nuclear repulsion energy       469.1355359272 Hartrees.
 NAtoms=   18 NActive=   18 NUniq=   18 SFac= 1.00D+00 NAtFMM=   60 NAOKFM=F Big=F
 Integral buffers will be    131072 words long.
 Raffenetti 2 integral format.
 Two-electron integral symmetry is turned on.
 One-electron integrals computed using PRISM.
 PrsmSu:  requested number of processors reduced to:  13 ShMem   1 Linda.
 NBasis=   297 RedAO= T EigKep=  3.40D-04  NBF=   297
 NBsUse=   297 1.00D-06 EigRej= -1.00D+00 NBFU=   297
 ExpMin= 1.61D-01 ExpMax= 5.48D+03 ExpMxC= 8.25D+02 IAcc=3 IRadAn=         5 AccDes= 0.00D+00
 Harris functional with IExCor=  402 and IRadAn=       5 diagonalized for initial guess.
 HarFok:  IExCor=  402 AccDes= 0.00D+00 IRadAn=         5 IDoV= 1 UseB2=F ITyADJ=14
 ICtDFT=  3500011 ScaDFX=  1.000000  1.000000  1.000000  1.000000
 FoFCou: FMM=F IPFlag=           0 FMFlag=      100000 FMFlg1=           0
         NFxFlg=           0 DoJE=T BraDBF=F KetDBF=T FulRan=T
         wScrn=  0.000000 ICntrl=       500 IOpCl=  0 I1Cent=   200000004 NGrid=           0
         NMat0=    1 NMatS0=      1 NMatT0=    0 NMatD0=    1 NMtDS0=    0 NMtDT0=    0
 Petite list used in FoFCou.
 Requested convergence on RMS density matrix=1.00D-08 within 128 cycles.
 Requested convergence on MAX density matrix=1.00D-06.
 Requested convergence on             energy=1.00D-06.
 No special actions if energy rises.
 Integral accuracy reduced to 1.0D-05 until final iterations.
 Initial convergence to 1.0D-05 achieved.  Increase integral accuracy.
 SCF Done:  E(RB3LYP) =  -439.188077460     A.U. after   14 cycles
            NFock= 14  Conv=0.44D-08     -V/T= 2.0072

 **********************************************************************

            Population analysis using the SCF density.

 **********************************************************************

 Orbital symmetries:
       Occupied  (A) (A) (A) (A) (A) (A) (A) (A) (A) (A) (A) (A)
                 (A) (A) (A) (A) (A) (A) (A) (A) (A) (A) (A) (A)
                 (A) (A) (A) (A) (A) (A) (A) (A) (A) (A)
       Virtual   (A) (A) (A) (A) (A) (A) (A) (A) (A) (A) (A) (A)
                 (A) (A) (A) (A) (A) (A) (A) (A) (A) (A) (A) (A)
                 (A) (A) (A) (A) (A) (A) (A) (A) (A) (A) (A) (A)
                 (A) (A) (A) (A) (A) (A) (A) (A) (A) (A) (A) (A)
                 (A) (A) (A) (A) (A) (A) (A) (A) (A) (A) (A) (A)
                 (A) (A) (A) (A) (A) (A) (A) (A) (A) (A) (A) (A)
                 (A) (A) (A) (A) (A) (A) (A) (A) (A) (A) (A) (A)
                 (A) (A) (A) (A) (A) (A) (A) (A) (A) (A) (A) (A)
                 (A) (A) (A) (A) (A) (A) (A) (A) (A) (A) (A) (A)
                 (A) (A) (A) (A) (A) (A) (A) (A) (A) (A) (A) (A)
                 (A) (A) (A) (A) (A) (A) (A) (A) (A) (A) (A) (A)
                 (A) (A) (A) (A) (A) (A) (A) (A) (A) (A) (A) (A)
                 (A) (A) (A) (A) (A) (A) (A) (A) (A) (A) (A) (A)
                 (A) (A) (A) (A) (A) (A) (A) (A) (A) (A) (A) (A)
                 (A) (A) (A) (A) (A) (A) (A) (A) (A) (A) (A) (A)
                 (A) (A) (A) (A) (A) (A) (A) (A) (A) (A) (A) (A)
                 (A) (A) (A) (A) (A) (A) (A) (A) (A) (A) (A) (A)
                 (A) (A) (A) (A) (A) (A) (A) (A) (A) (A) (A) (A)
                 (A) (A) (A) (A) (A) (A) (A) (A) (A) (A) (A) (A)
                 (A) (A) (A) (A) (A) (A) (A) (A) (A) (A) (A) (A)
                 (A) (A) (A) (A) (A) (A) (A) (A) (A) (A) (A) (A)
                 (A) (A) (A) (A) (A) (A) (A) (A) (A) (A) (A)
 The electronic state is 1-A.
 Alpha  occ. eigenvalues --  -19.15891 -19.14195 -14.33296 -10.28130 -10.27444
 Alpha  occ. eigenvalues --  -10.24151 -10.23815 -10.20224 -10.19551  -1.04970
 Alpha  occ. eigenvalues --   -1.04201  -0.95536  -0.81910  -0.72388  -0.68238
 Alpha  occ. eigenvalues --   -0.64899  -0.59970  -0.55895  -0.51888  -0.50806
 Alpha  occ. eigenvalues --   -0.47546  -0.46634  -0.45098  -0.43898  -0.41124
 Alpha  occ. eigenvalues --   -0.39487  -0.38248  -0.37707  -0.36584  -0.34108
 Alpha  occ. eigenvalues --   -0.30148  -0.28319  -0.26337  -0.24204
 Alpha virt. eigenvalues --   -0.03590   0.05800   0.08203   0.09588   0.10114
 Alpha virt. eigenvalues --    0.12962   0.13894   0.13968   0.15071   0.15840
 Alpha virt. eigenvalues --    0.17066   0.18282   0.19225   0.21486   0.23536
 Alpha virt. eigenvalues --    0.24191   0.27312   0.29080   0.30572   0.36134
 Alpha virt. eigenvalues --    0.41387   0.43904   0.45577   0.46657   0.47591
 Alpha virt. eigenvalues --    0.49072   0.50415   0.52521   0.53673   0.54213
 Alpha virt. eigenvalues --    0.56048   0.56240   0.58244   0.60325   0.60846
 Alpha virt. eigenvalues --    0.63988   0.65862   0.67090   0.67370   0.70157
 Alpha virt. eigenvalues --    0.71999   0.72363   0.73864   0.74684   0.75760
 Alpha virt. eigenvalues --    0.76312   0.78841   0.79165   0.80835   0.82084
 Alpha virt. eigenvalues --    0.83948   0.85364   0.87050   0.88436   0.92426
 Alpha virt. eigenvalues --    0.93177   0.95223   0.96157   0.98654   0.99890
 Alpha virt. eigenvalues --    1.00574   1.04823   1.07617   1.09443   1.12392
 Alpha virt. eigenvalues --    1.14820   1.17796   1.18642   1.22502   1.25653
 Alpha virt. eigenvalues --    1.27517   1.28046   1.30513   1.31584   1.35484
 Alpha virt. eigenvalues --    1.37583   1.38582   1.39397   1.40798   1.43789
 Alpha virt. eigenvalues --    1.46210   1.47329   1.52031   1.52590   1.55144
 Alpha virt. eigenvalues --    1.56409   1.57411   1.58587   1.59254   1.60478
 Alpha virt. eigenvalues --    1.63219   1.64947   1.66175   1.68860   1.70572
 Alpha virt. eigenvalues --    1.71728   1.78573   1.80791   1.81958   1.85434
 Alpha virt. eigenvalues --    1.87913   1.92276   1.93914   1.94360   1.96985
 Alpha virt. eigenvalues --    1.99911   2.06998   2.13511   2.14442   2.18551
 Alpha virt. eigenvalues --    2.23735   2.25071   2.25721   2.31787   2.36892
 Alpha virt. eigenvalues --    2.39576   2.41245   2.50080   2.50337   2.52103
 Alpha virt. eigenvalues --    2.57393   2.57786   2.60697   2.64024   2.68002
 Alpha virt. eigenvalues --    2.69756   2.71873   2.72484   2.78025   2.78817
 Alpha virt. eigenvalues --    2.83287   2.86924   2.89225   2.90015   2.93392
 Alpha virt. eigenvalues --    2.95157   2.96311   2.97759   3.00340   3.01122
 Alpha virt. eigenvalues --    3.06264   3.07149   3.08799   3.11781   3.18412
 Alpha virt. eigenvalues --    3.19207   3.20123   3.22586   3.25970   3.28308
 Alpha virt. eigenvalues --    3.28696   3.31091   3.33735   3.35137   3.38207
 Alpha virt. eigenvalues --    3.40997   3.42954   3.46195   3.47905   3.49782
 Alpha virt. eigenvalues --    3.51998   3.55306   3.58275   3.61425   3.63621
 Alpha virt. eigenvalues --    3.68423   3.72246   3.74054   3.75832   3.79159
 Alpha virt. eigenvalues --    3.80457   3.85409   3.91260   4.01707   4.02722
 Alpha virt. eigenvalues --    4.07199   4.07961   4.10496   4.13597   4.17636
 Alpha virt. eigenvalues --    4.20078   4.20904   4.22348   4.26140   4.26778
 Alpha virt. eigenvalues --    4.29463   4.31697   4.35426   4.38068   4.38951
 Alpha virt. eigenvalues --    4.40892   4.43487   4.45339   4.48345   4.49772
 Alpha virt. eigenvalues --    4.51057   4.52771   4.56024   4.57221   4.59544
 Alpha virt. eigenvalues --    4.60557   4.61829   4.62540   4.64597   4.66171
 Alpha virt. eigenvalues --    4.68547   4.70682   4.73080   4.75962   4.79097
 Alpha virt. eigenvalues --    4.79730   4.82121   4.82867   4.85984   4.87220
 Alpha virt. eigenvalues --    4.90253   4.92340   4.94150   4.95496   4.96683
 Alpha virt. eigenvalues --    5.00910   5.03313   5.03575   5.07629   5.08283
 Alpha virt. eigenvalues --    5.10886   5.15006   5.20458   5.23110   5.28176
 Alpha virt. eigenvalues --    5.31276   5.39688   5.41085   5.42716   5.45031
 Alpha virt. eigenvalues --    5.51260   5.55064   5.57592   5.59750   5.66737
 Alpha virt. eigenvalues --    5.70846   5.74475   5.82213   5.88326   5.98823
 Alpha virt. eigenvalues --    6.00559   6.03680   6.18854   6.26744   6.32800
 Alpha virt. eigenvalues --    6.59431   6.89260   7.15199  10.25194  11.10900
 Alpha virt. eigenvalues --   11.25381  11.44404  11.83382  12.25027  12.57453
 Alpha virt. eigenvalues --   12.98471  13.54523  15.29432
          Condensed to atoms (all electrons):
               1          2          3          4          5          6
     1  O    7.636677   0.751199  -0.077549  -0.002170  -0.000223   0.000000
     2  C    0.751199   4.638016   0.247656  -0.043449  -0.000600   0.000334
     3  C   -0.077549   0.247656   4.995245   0.405569  -0.017447  -0.023321
     4  C   -0.002170  -0.043449   0.405569   4.943617   0.400289  -0.019731
     5  C   -0.000223  -0.000600  -0.017447   0.400289   4.910260   0.377541
     6  C    0.000000   0.000334  -0.023321  -0.019731   0.377541   4.751523
     7  O    0.000004   0.001168  -0.003644  -0.009504  -0.041857   0.353706
     8  C   -0.000555  -0.017939   0.261814  -0.015840  -0.009861  -0.080618
     9  N    0.001787  -0.010513   0.233399  -0.028084  -0.002737   0.015228
    10  H   -0.053844   0.351084  -0.116910   0.004400  -0.000123  -0.000038
    11  H    0.000191   0.004296  -0.023583   0.355295  -0.030381  -0.012381
    12  H    0.001800  -0.001816  -0.033400   0.354886  -0.027110   0.004243
    13  H   -0.000008  -0.000032   0.004041  -0.028552   0.355204  -0.023177
    14  H    0.000599   0.000979  -0.006900  -0.032694   0.369251  -0.028205
    15  H   -0.000001   0.000019  -0.001482  -0.010253  -0.048031   0.368178
    16  H    0.000000   0.000003   0.000722   0.004097  -0.031228   0.370459
    17  H    0.000427  -0.002162  -0.032510   0.002652  -0.000078   0.004110
    18  H   -0.000093   0.001396  -0.030337  -0.008990   0.000831   0.002714
               7          8          9         10         11         12
     1  O    0.000004  -0.000555   0.001787  -0.053844   0.000191   0.001800
     2  C    0.001168  -0.017939  -0.010513   0.351084   0.004296  -0.001816
     3  C   -0.003644   0.261814   0.233399  -0.116910  -0.023583  -0.033400
     4  C   -0.009504  -0.015840  -0.028084   0.004400   0.355295   0.354886
     5  C   -0.041857  -0.009861  -0.002737  -0.000123  -0.030381  -0.027110
     6  C    0.353706  -0.080618   0.015228  -0.000038  -0.012381   0.004243
     7  O    7.759000   0.370311  -0.061218  -0.000016  -0.000045  -0.000059
     8  C    0.370311   4.871472   0.260297   0.005456  -0.000448   0.002878
     9  N   -0.061218   0.260297   6.639168   0.011357  -0.010325   0.003581
    10  H   -0.000016   0.005456   0.011357   0.702777   0.000021   0.002539
    11  H   -0.000045  -0.000448  -0.010325   0.000021   0.625790  -0.035322
    12  H   -0.000059   0.002878   0.003581   0.002539  -0.035322   0.613980
    13  H    0.002572   0.000760  -0.000270   0.000009  -0.000416  -0.005226
    14  H   -0.002277   0.003593   0.000265   0.000034   0.005400  -0.000759
    15  H   -0.039315  -0.001675   0.004276  -0.000005   0.006894   0.000231
    16  H   -0.018540   0.001959  -0.000157  -0.000000   0.000294  -0.000279
    17  H   -0.023252   0.380572  -0.035026   0.000022  -0.000207   0.000018
    18  H    0.005912  -0.052072   0.331407  -0.000174   0.005547   0.000196
              13         14         15         16         17         18
     1  O   -0.000008   0.000599  -0.000001   0.000000   0.000427  -0.000093
     2  C   -0.000032   0.000979   0.000019   0.000003  -0.002162   0.001396
     3  C    0.004041  -0.006900  -0.001482   0.000722  -0.032510  -0.030337
     4  C   -0.028552  -0.032694  -0.010253   0.004097   0.002652  -0.008990
     5  C    0.355204   0.369251  -0.048031  -0.031228  -0.000078   0.000831
     6  C   -0.023177  -0.028205   0.368178   0.370459   0.004110   0.002714
     7  O    0.002572  -0.002277  -0.039315  -0.018540  -0.023252   0.005912
     8  C    0.000760   0.003593  -0.001675   0.001959   0.380572  -0.052072
     9  N   -0.000270   0.000265   0.004276  -0.000157  -0.035026   0.331407
    10  H    0.000009   0.000034  -0.000005  -0.000000   0.000022  -0.000174
    11  H   -0.000416   0.005400   0.006894   0.000294  -0.000207   0.005547
    12  H   -0.005226  -0.000759   0.000231  -0.000279   0.000018   0.000196
    13  H    0.629665  -0.032153   0.001422  -0.003024  -0.000016  -0.000038
    14  H   -0.032153   0.588204   0.005865  -0.001726  -0.000881   0.000083
    15  H    0.001422   0.005865   0.675946  -0.051911  -0.000299  -0.000354
    16  H   -0.003024  -0.001726  -0.051911   0.615739  -0.000071  -0.000021
    17  H   -0.000016  -0.000881  -0.000299  -0.000071   0.567492   0.003070
    18  H   -0.000038   0.000083  -0.000354  -0.000021   0.003070   0.513678
 Mulliken charges:
               1
     1  O   -0.258242
     2  C    0.080360
     3  C    0.218636
     4  C   -0.271538
     5  C   -0.203697
     6  C   -0.060566
     7  O   -0.292946
     8  C    0.019894
     9  N   -0.352436
    10  H    0.093410
    11  H    0.109381
    12  H    0.119620
    13  H    0.099239
    14  H    0.131323
    15  H    0.090496
    16  H    0.113682
    17  H    0.136137
    18  H    0.227246
 Sum of Mulliken charges =  -0.00000
 Mulliken charges with hydrogens summed into heavy atoms:
               1
     1  O   -0.258242
     2  C    0.173770
     3  C    0.218636
     4  C   -0.042537
     5  C    0.026864
     6  C    0.143612
     7  O   -0.292946
     8  C    0.156032
     9  N   -0.125190
 Electronic spatial extent (au):  <R**2>=           1097.4161
 Charge=             -0.0000 electrons
 Dipole moment (field-independent basis, Debye):
    X=              2.0647    Y=              1.2781    Z=              1.7864  Tot=              3.0146
 Quadrupole moment (field-independent basis, Debye-Ang):
   XX=            -58.7650   YY=            -53.8938   ZZ=            -51.6137
   XY=              4.1261   XZ=             -1.5912   YZ=              2.0179
 Traceless Quadrupole moment (field-independent basis, Debye-Ang):
   XX=             -4.0075   YY=              0.8637   ZZ=              3.1438
   XY=              4.1261   XZ=             -1.5912   YZ=              2.0179
 Octapole moment (field-independent basis, Debye-Ang**2):
  XXX=             19.9236  YYY=              5.2489  ZZZ=             -0.8300  XYY=              1.7642
  XXY=             -1.0390  XXZ=             13.5820  XZZ=              1.9968  YZZ=             -3.1773
  YYZ=             -5.0978  XYZ=             -6.9272
 Hexadecapole moment (field-independent basis, Debye-Ang**3):
 XXXX=           -875.8590 YYYY=           -381.6130 ZZZZ=           -163.1009 XXXY=             28.0070
 XXXZ=            -26.5124 YYYX=            -14.3522 YYYZ=              9.8198 ZZZX=              5.8172
 ZZZY=             -0.8564 XXYY=           -206.3036 XXZZ=           -171.3156 YYZZ=            -88.7345
 XXYZ=              0.9281 YYXZ=              6.5050 ZZXY=             -3.4441
 N-N= 4.691355359272D+02 E-N=-1.963051056070D+03  KE= 4.360528099954D+02
 PrsmSu:  requested number of processors reduced to:  13 ShMem   1 Linda.
 Calling FoFJK, ICntrl=      2127 FMM=F ISym2X=0 I1Cent= 0 IOpClX= 0 NMat=1 NMatS=1 NMatT=0.
 ***** Axes restored to original set *****
 -------------------------------------------------------------------
 Center     Atomic                   Forces (Hartrees/Bohr)
 Number     Number              X              Y              Z
 -------------------------------------------------------------------
      1        8           0.007072296    0.008765219    0.005141807
      2        6          -0.027980090   -0.010254617   -0.011973494
      3        6           0.023185571    0.004553982    0.029491243
      4        6          -0.015459830    0.000830360   -0.018159720
      5        6           0.008256517   -0.004929298   -0.007502266
      6        6          -0.005640807   -0.002217381    0.006275274
      7        8          -0.025586848    0.027826181    0.006886542
      8        6           0.022647752   -0.013818423   -0.019278451
      9        7           0.006655397    0.003603397   -0.001226118
     10        1           0.002930583    0.003056910    0.009176845
     11        1          -0.001064288   -0.004103385   -0.000587819
     12        1           0.000916217    0.004638592    0.000788109
     13        1           0.002925345   -0.004362934   -0.000234434
     14        1           0.003118867   -0.003179961   -0.003371229
     15        1          -0.001330843   -0.003178088   -0.004033976
     16        1           0.000922830    0.002303977    0.011348232
     17        1          -0.005103907   -0.012099336    0.001490691
     18        1           0.003535238    0.002564806   -0.004231234
 -------------------------------------------------------------------
 Cartesian Forces:  Max     0.029491243 RMS     0.011051073

 GradGradGradGradGradGradGradGradGradGradGradGradGradGradGradGradGradGrad
 Berny optimization.
 FormGI is forming the generalized inverse of G from B-inverse, IUseBI=4.
 Internal  Forces:  Max     0.031039210 RMS     0.006741163
 Search for a local minimum.
 Step number   1 out of a maximum of  108
 All quantities printed in internal units (Hartrees-Bohrs-Radians)
 Mixed Optimization -- RFO/linear search
 Second derivative matrix not updated -- first step.
 ITU=  0
     Eigenvalues ---    0.00868   0.00898   0.01080   0.01085   0.01597
     Eigenvalues ---    0.02016   0.02492   0.03325   0.03783   0.04193
     Eigenvalues ---    0.05013   0.05231   0.05798   0.06551   0.07003
     Eigenvalues ---    0.07136   0.07361   0.07766   0.10487   0.11436
     Eigenvalues ---    0.12018   0.13058   0.14060   0.16000   0.17106
     Eigenvalues ---    0.18980   0.19086   0.19750   0.21978   0.22102
     Eigenvalues ---    0.27383   0.29656   0.30130   0.31491   0.32408
     Eigenvalues ---    0.33197   0.33594   0.33762   0.34042   0.34178
     Eigenvalues ---    0.34419   0.34599   0.34780   0.35264   0.35402
     Eigenvalues ---    0.38928   0.45005   0.99274
 RFO step:  Lambda=-3.11432611D-02 EMin= 8.67556215D-03
 Linear search not attempted -- first point.
 Iteration  1 RMS(Cart)=  0.10060265 RMS(Int)=  0.00638749
 Iteration  2 RMS(Cart)=  0.00829600 RMS(Int)=  0.00237436
 Iteration  3 RMS(Cart)=  0.00004847 RMS(Int)=  0.00237396
 Iteration  4 RMS(Cart)=  0.00000007 RMS(Int)=  0.00237396
 Variable       Old X    -DE/DX   Delta X   Delta X   Delta X     New X
                                 (Linear)    (Quad)   (Total)
    R1        2.28931  -0.00678   0.00000  -0.00662  -0.00662   2.28269
    R2        2.82007   0.00891   0.00000   0.02452   0.02452   2.84460
    R3        2.10105  -0.00043   0.00000  -0.00122  -0.00122   2.09983
    R4        2.83512   0.02115   0.00000   0.06427   0.06459   2.89972
    R5        2.92910  -0.01150   0.00000  -0.06562  -0.06579   2.86331
    R6        2.78450   0.00181   0.00000   0.01487   0.01389   2.79839
    R7        2.86030   0.01059   0.00000   0.03993   0.03947   2.89977
    R8        2.07259  -0.00046   0.00000  -0.00123  -0.00123   2.07136
    R9        2.07031  -0.00008   0.00000  -0.00021  -0.00021   2.07011
   R10        2.85847   0.00115   0.00000   0.01258   0.01183   2.87031
   R11        2.06034   0.00256   0.00000   0.00676   0.00676   2.06710
   R12        2.08022  -0.00489   0.00000  -0.01333  -0.01333   2.06688
   R13        2.71441  -0.00047   0.00000  -0.00365  -0.00402   2.71039
   R14        2.07733   0.00036   0.00000   0.00098   0.00098   2.07830
   R15        2.06628   0.00082   0.00000   0.00218   0.00218   2.06847
   R16        2.78339  -0.03104   0.00000  -0.09142  -0.09095   2.69244
   R17        2.72757   0.00723   0.00000   0.02305   0.02506   2.75263
   R18        2.05249  -0.00193   0.00000  -0.00503  -0.00503   2.04746
   R19        1.91970   0.00212   0.00000   0.00442   0.00442   1.92412
    A1        2.13147   0.01311   0.00000   0.06470   0.05302   2.18449
    A2        2.11713  -0.00347   0.00000   0.00951  -0.00216   2.11497
    A3        2.00320  -0.00661   0.00000  -0.00785  -0.01952   1.98368
    A4        1.95041   0.00893   0.00000   0.02282   0.02100   1.97142
    A5        2.24858  -0.00988   0.00000  -0.06937  -0.06925   2.17934
    A6        1.93810  -0.00471   0.00000   0.01166   0.01267   1.95077
    A7        2.01479  -0.00066   0.00000   0.01911   0.01803   2.03282
    A8        2.12973  -0.00213   0.00000   0.00069   0.00080   2.13054
    A9        1.88308  -0.00895   0.00000   0.00422   0.00107   1.88416
   A10        1.91987   0.00063   0.00000  -0.01045  -0.00935   1.91053
   A11        1.93196   0.00467   0.00000   0.00640   0.00666   1.93862
   A12        1.97112   0.00173   0.00000  -0.02362  -0.02315   1.94797
   A13        1.90041   0.00386   0.00000   0.02417   0.02533   1.92574
   A14        1.85783  -0.00150   0.00000  -0.00008  -0.00036   1.85746
   A15        1.82167   0.00855   0.00000   0.06403   0.05939   1.88106
   A16        1.93719   0.00278   0.00000   0.03579   0.03649   1.97368
   A17        1.91659  -0.00564   0.00000  -0.04229  -0.04056   1.87602
   A18        1.98030  -0.00030   0.00000  -0.00302  -0.00518   1.97512
   A19        1.91817  -0.00727   0.00000  -0.05198  -0.05008   1.86810
   A20        1.88920   0.00158   0.00000  -0.00388  -0.00457   1.88463
   A21        1.91118  -0.00274   0.00000   0.02144   0.02062   1.93180
   A22        1.94482  -0.00258   0.00000  -0.02162  -0.02210   1.92271
   A23        1.93323   0.00786   0.00000   0.04046   0.04165   1.97488
   A24        1.88289   0.00276   0.00000   0.00900   0.00878   1.89168
   A25        1.92682  -0.00506   0.00000  -0.05492  -0.05427   1.87255
   A26        1.86396  -0.00038   0.00000   0.00315   0.00308   1.86704
   A27        2.03459   0.00591   0.00000   0.02727   0.02520   2.05980
   A28        2.07079   0.01208   0.00000   0.04933   0.04620   2.11700
   A29        2.16238  -0.00033   0.00000  -0.01089  -0.01391   2.14847
   A30        1.96064   0.00869   0.00000   0.07410   0.07355   2.03419
   A31        2.00502  -0.01450   0.00000  -0.08124  -0.08406   1.92096
   A32        1.98243   0.00427   0.00000   0.06053   0.06047   2.04290
   A33        1.99169   0.00592   0.00000   0.00626   0.00756   1.99924
   A34        1.86049   0.00916   0.00000   0.05700   0.05603   1.91652
    D1        1.31468   0.00337   0.00000   0.08164   0.08159   1.39627
    D2       -1.41131   0.00730   0.00000   0.15151   0.15009  -1.26122
    D3       -2.52630   0.00462   0.00000   0.11972   0.12108  -2.40522
    D4       -1.56333  -0.00834   0.00000  -0.19173  -0.19171  -1.75505
    D5        1.99386  -0.00441   0.00000  -0.12187  -0.12322   1.87065
    D6        0.87888  -0.00709   0.00000  -0.15366  -0.15223   0.72665
    D7       -2.31261   0.00266   0.00000   0.05024   0.05098  -2.26163
    D8        1.81344   0.00595   0.00000   0.08327   0.08444   1.89788
    D9       -0.23484   0.00458   0.00000   0.08591   0.08663  -0.14820
   D10        0.47326  -0.00348   0.00000  -0.03270  -0.03402   0.43925
   D11       -1.68388  -0.00019   0.00000   0.00033  -0.00056  -1.68443
   D12        2.55104  -0.00156   0.00000   0.00297   0.00163   2.55267
   D13        1.61656   0.00164   0.00000   0.00071   0.00009   1.61665
   D14       -0.54057   0.00494   0.00000   0.03374   0.03355  -0.50703
   D15       -2.58885   0.00356   0.00000   0.03638   0.03574  -2.55311
   D16        2.93850  -0.00890   0.00000  -0.15083  -0.15021   2.78828
   D17        0.13141   0.00355   0.00000   0.01802   0.01967   0.15107
   D18        0.22513  -0.00661   0.00000  -0.07857  -0.07920   0.14593
   D19       -2.58196   0.00584   0.00000   0.09028   0.09068  -2.49128
   D20       -2.42620  -0.00360   0.00000  -0.03811  -0.03791  -2.46411
   D21       -0.06737   0.00275   0.00000   0.01554   0.01581  -0.05156
   D22       -1.21026   0.01123   0.00000   0.13029   0.13074  -1.07952
   D23        2.93338   0.00478   0.00000   0.07462   0.07371   3.00709
   D24        0.84516   0.00470   0.00000   0.08413   0.08349   0.92864
   D25        0.91548   0.00689   0.00000   0.10489   0.10534   1.02082
   D26       -1.22407   0.00043   0.00000   0.04921   0.04831  -1.17576
   D27        2.97089   0.00035   0.00000   0.05873   0.05809   3.02898
   D28        2.97519   0.00864   0.00000   0.10630   0.10706   3.08225
   D29        0.83564   0.00218   0.00000   0.05063   0.05003   0.88567
   D30       -1.25258   0.00210   0.00000   0.06014   0.05981  -1.19278
   D31        1.29415  -0.00715   0.00000  -0.10190  -0.10385   1.19030
   D32       -0.78753  -0.00718   0.00000  -0.11346  -0.11400  -0.90154
   D33       -2.85994  -0.01018   0.00000  -0.12994  -0.13052  -2.99046
   D34       -2.87794   0.00173   0.00000  -0.01749  -0.01922  -2.89716
   D35        1.32357   0.00170   0.00000  -0.02905  -0.02938   1.29419
   D36       -0.74884  -0.00130   0.00000  -0.04553  -0.04589  -0.79473
   D37       -0.76018  -0.00174   0.00000  -0.06244  -0.06292  -0.82310
   D38       -2.84186  -0.00177   0.00000  -0.07400  -0.07307  -2.91493
   D39        1.36892  -0.00477   0.00000  -0.09048  -0.08959   1.27933
   D40       -0.57020   0.00049   0.00000  -0.01300  -0.01155  -0.58174
   D41        1.54926  -0.00260   0.00000  -0.02103  -0.02066   1.52860
   D42       -2.70313  -0.00423   0.00000  -0.04197  -0.04098  -2.74411
   D43       -0.17756   0.00637   0.00000   0.09648   0.09791  -0.07965
   D44       -1.32280  -0.00201   0.00000   0.03665   0.03590  -1.28690
   D45        2.65894  -0.00287   0.00000  -0.04696  -0.04260   2.61634
   D46        0.02967   0.00863   0.00000   0.04734   0.04684   0.07651
   D47        2.34234   0.00010   0.00000   0.05915   0.06059   2.40292
         Item               Value     Threshold  Converged?
 Maximum Force            0.031039     0.000450     NO 
 RMS     Force            0.006741     0.000300     NO 
 Maximum Displacement     0.369586     0.001800     NO 
 RMS     Displacement     0.100757     0.001200     NO 
 Predicted change in Energy=-2.192983D-02
 GradGradGradGradGradGradGradGradGradGradGradGradGradGradGradGradGradGrad

                          Input orientation:                          
 ---------------------------------------------------------------------
 Center     Atomic      Atomic             Coordinates (Angstroms)
 Number     Number       Type             X           Y           Z
 ---------------------------------------------------------------------
      1          8           0        1.124644    0.042046    0.633166
      2          6           0        2.323899   -0.077187    0.551279
      3          6           0        3.099203   -1.313996    0.918870
      4          6           0        3.062653   -2.390153   -0.174350
      5          6           0        2.656562   -3.716793    0.481227
      6          6           0        3.719817   -4.072238    1.506022
      7          8           0        3.692433   -3.150864    2.604872
      8          6           0        3.338391   -1.797455    2.334810
      9          7           0        4.339937   -0.985211    1.657365
     10          1           0        2.961924    0.758695    0.192188
     11          1           0        4.047199   -2.460150   -0.651053
     12          1           0        2.353568   -2.123805   -0.965726
     13          1           0        2.473735   -4.515188   -0.243810
     14          1           0        1.727632   -3.540867    1.031153
     15          1           0        4.717912   -4.033611    1.045745
     16          1           0        3.598171   -5.077619    1.921385
     17          1           0        2.852335   -1.360853    3.199120
     18          1           0        5.143156   -1.561069    1.412508
 ---------------------------------------------------------------------
                    Distance matrix (angstroms):
                    1          2          3          4          5
     1  O    0.000000
     2  C    1.207946   0.000000
     3  C    2.412335   1.505297   0.000000
     4  C    3.213028   2.534187   1.534464   0.000000
     5  C    4.061863   3.655449   2.482115   1.534492   0.000000
     6  C    4.942078   4.338267   2.887526   2.466764   1.518900
     7  O    4.547069   3.941779   2.562929   2.949471   2.429645
     8  C    3.343655   2.677592   1.515199   2.592914   2.754001
     9  N    3.527372   2.472316   1.480843   2.638275   3.417395
    10  H    2.020803   1.111180   2.200673   3.171709   4.495196
    11  H    4.056048   3.177086   2.162642   1.096119   2.189767
    12  H    2.959328   2.547710   2.182536   1.095453   2.173267
    13  H    4.832962   4.511150   3.462754   2.206224   1.093864
    14  H    3.655031   3.547237   2.617779   2.135337   1.093746
    15  H    5.449108   4.650708   3.167431   2.632388   2.160606
    16  H    5.829993   5.339034   3.926686   3.449835   2.193748
    17  H    3.396639   2.989667   2.294053   3.533269   3.602183
    18  H    4.396111   3.300278   2.117184   2.744812   3.420173
                    6          7          8          9         10
     6  C    0.000000
     7  O    1.434277   0.000000
     8  C    2.450921   1.424779   0.000000
     9  N    3.152331   2.450935   1.456628   0.000000
    10  H    5.063445   4.651810   3.356554   2.662118   0.000000
    11  H    2.712744   3.347236   3.139577   2.754983   3.499977
    12  H    3.431117   3.949250   3.459756   3.481761   3.165386
    13  H    2.193363   3.385498   3.844865   4.422433   5.314345
    14  H    2.115811   2.547378   2.708053   3.707783   4.551217
    15  H    1.099791   2.064395   2.926629   3.132041   5.174770
    16  H    1.094585   2.046565   3.316306   4.167460   6.120253
    17  H    3.312207   2.064711   1.083468   2.175103   3.680507
    18  H    2.888012   2.460443   2.040514   1.018198   3.410023
                   11         12         13         14         15
    11  H    0.000000
    12  H    1.755145   0.000000
    13  H    2.620080   2.500863   0.000000
    14  H    3.062378   2.527328   1.769606   0.000000
    15  H    2.409306   3.644653   2.632717   3.030641   0.000000
    16  H    3.697324   4.313869   2.503748   2.579348   1.763667
    17  H    4.178514   4.263426   4.684756   3.273759   3.906537
    18  H    2.503547   3.708702   4.312311   3.966212   2.535510
                   16         17         18
    16  H    0.000000
    17  H    4.000403   0.000000
    18  H    3.874541   2.912032   0.000000
 Stoichiometry    C6H9NO2
 Framework group  C1[X(C6H9NO2)]
 Deg. of freedom    48
 Full point group                 C1      NOp   1
 Largest Abelian subgroup         C1      NOp   1
 Largest concise Abelian subgroup C1      NOp   1
                         Standard orientation:                         
 ---------------------------------------------------------------------
 Center     Atomic      Atomic             Coordinates (Angstroms)
 Number     Number       Type             X           Y           Z
 ---------------------------------------------------------------------
      1          8           0       -2.695052    0.499587   -0.810894
      2          6           0       -2.137511    0.005483    0.139971
      3          6           0       -0.646853   -0.137732    0.292767
      4          6           0        0.035184    1.158715    0.749527
      5          6           0        1.210008    1.434463   -0.198322
      6          6           0        2.186864    0.277942   -0.074753
      7          8           0        1.618562   -0.924732   -0.611187
      8          6           0        0.212953   -1.117214   -0.480005
      9          7           0       -0.276173   -1.459244    0.848730
     10          1           0       -2.714806   -0.401985    0.997538
     11          1           0        0.370863    1.048859    1.787182
     12          1           0       -0.667953    1.998655    0.738715
     13          1           0        1.675278    2.410380   -0.032043
     14          1           0        0.819460    1.416242   -1.219801
     15          1           0        2.435262    0.102801    0.982207
     16          1           0        3.130944    0.454035   -0.599938
     17          1           0       -0.160546   -1.706111   -1.309222
     18          1           0        0.492768   -1.436947    1.515784
 ---------------------------------------------------------------------
 Rotational constants (GHZ):           2.9390659           1.3599312           1.1364976
 Standard basis: 6-31G(2df,p) (6D, 7F)
 There are   324 symmetry adapted cartesian basis functions of A   symmetry.
 There are   297 symmetry adapted basis functions of A   symmetry.
   297 basis functions,   459 primitive gaussians,   324 cartesian basis functions
    34 alpha electrons       34 beta electrons
       nuclear repulsion energy       467.1046355461 Hartrees.
 NAtoms=   18 NActive=   18 NUniq=   18 SFac= 1.00D+00 NAtFMM=   60 NAOKFM=F Big=F
 Integral buffers will be    131072 words long.
 Raffenetti 2 integral format.
 Two-electron integral symmetry is turned on.
 One-electron integrals computed using PRISM.
 PrsmSu:  requested number of processors reduced to:  13 ShMem   1 Linda.
 NBasis=   297 RedAO= T EigKep=  3.48D-04  NBF=   297
 NBsUse=   297 1.00D-06 EigRej= -1.00D+00 NBFU=   297
 Initial guess from the checkpoint file:  "OdCC12CCCOC1N2.chk"
 B after Tr=     0.000000   -0.000000   -0.000000
         Rot=    0.999757    0.008227   -0.004230    0.020022 Ang=   2.53 deg.
 ExpMin= 1.61D-01 ExpMax= 5.48D+03 ExpMxC= 8.25D+02 IAcc=2 IRadAn=         4 AccDes= 0.00D+00
 Harris functional with IExCor=  402 and IRadAn=       4 diagonalized for initial guess.
 HarFok:  IExCor=  402 AccDes= 0.00D+00 IRadAn=         4 IDoV= 1 UseB2=F ITyADJ=14
 ICtDFT=  3500011 ScaDFX=  1.000000  1.000000  1.000000  1.000000
 FoFCou: FMM=F IPFlag=           0 FMFlag=      100000 FMFlg1=           0
         NFxFlg=           0 DoJE=T BraDBF=F KetDBF=T FulRan=T
         wScrn=  0.000000 ICntrl=       500 IOpCl=  0 I1Cent=   200000004 NGrid=           0
         NMat0=    1 NMatS0=      1 NMatT0=    0 NMatD0=    1 NMtDS0=    0 NMtDT0=    0
 Petite list used in FoFCou.
 Requested convergence on RMS density matrix=1.00D-08 within 128 cycles.
 Requested convergence on MAX density matrix=1.00D-06.
 Requested convergence on             energy=1.00D-06.
 No special actions if energy rises.
 Integral accuracy reduced to 1.0D-05 until final iterations.
 Initial convergence to 1.0D-05 achieved.  Increase integral accuracy.
 SCF Done:  E(RB3LYP) =  -439.207685039     A.U. after   14 cycles
            NFock= 14  Conv=0.28D-08     -V/T= 2.0074
 PrsmSu:  requested number of processors reduced to:  13 ShMem   1 Linda.
 Calling FoFJK, ICntrl=      2127 FMM=F ISym2X=0 I1Cent= 0 IOpClX= 0 NMat=1 NMatS=1 NMatT=0.
 ***** Axes restored to original set *****
 -------------------------------------------------------------------
 Center     Atomic                   Forces (Hartrees/Bohr)
 Number     Number              X              Y              Z
 -------------------------------------------------------------------
      1        8           0.005193805   -0.002940320   -0.002080678
      2        6          -0.010164619    0.004655487    0.009981405
      3        6           0.010540604   -0.005660367    0.002037966
      4        6          -0.004241019   -0.002645669   -0.000212989
      5        6           0.002096936    0.002181098   -0.000348256
      6        6           0.002400984    0.002603374   -0.000716525
      7        8          -0.015389941    0.014886047    0.000994944
      8        6           0.014191807   -0.012654558   -0.008228663
      9        7          -0.003958528    0.004039533   -0.000088333
     10        1           0.002031447   -0.000643267   -0.000107332
     11        1           0.000202944   -0.002100894   -0.000802526
     12        1          -0.000281836    0.002224728    0.002356245
     13        1           0.004314566   -0.000110454   -0.000159230
     14        1          -0.003808478   -0.003372419   -0.001964915
     15        1           0.000731128   -0.002744105   -0.002324672
     16        1          -0.002029997    0.002690112    0.003188491
     17        1          -0.000752216   -0.000591814    0.000826063
     18        1          -0.001077588    0.000183490   -0.002350997
 -------------------------------------------------------------------
 Cartesian Forces:  Max     0.015389941 RMS     0.005256133

 GradGradGradGradGradGradGradGradGradGradGradGradGradGradGradGradGradGrad
 Berny optimization.
 Using GEDIIS/GDIIS optimizer.
 FormGI is forming the generalized inverse of G from B-inverse, IUseBI=4.
 Internal  Forces:  Max     0.017006988 RMS     0.002772577
 Search for a local minimum.
 Step number   2 out of a maximum of  108
 All quantities printed in internal units (Hartrees-Bohrs-Radians)
 Mixed Optimization -- RFO/linear search
 Update second derivatives using D2CorX and points    1    2
 DE= -1.96D-02 DEPred=-2.19D-02 R= 8.94D-01
 TightC=F SS=  1.41D+00  RLast= 6.26D-01 DXNew= 5.0454D-01 1.8795D+00
 Trust test= 8.94D-01 RLast= 6.26D-01 DXMaxT set to 5.05D-01
 ITU=  1  0
 Use linear search instead of GDIIS.
     Eigenvalues ---    0.00852   0.00871   0.00951   0.01293   0.01634
     Eigenvalues ---    0.02155   0.02692   0.03209   0.03721   0.04108
     Eigenvalues ---    0.04964   0.05255   0.05760   0.06563   0.07172
     Eigenvalues ---    0.07421   0.07756   0.07772   0.10560   0.11665
     Eigenvalues ---    0.11859   0.12307   0.13733   0.15901   0.16975
     Eigenvalues ---    0.18408   0.18839   0.19626   0.20933   0.22489
     Eigenvalues ---    0.27237   0.28734   0.29975   0.30614   0.32412
     Eigenvalues ---    0.33003   0.33521   0.33768   0.34023   0.34116
     Eigenvalues ---    0.34200   0.34447   0.34813   0.35277   0.35983
     Eigenvalues ---    0.38958   0.45015   0.99079
 RFO step:  Lambda=-9.48143481D-03 EMin= 8.52109733D-03
 Quartic linear search produced a step of  0.39380.
 Iteration  1 RMS(Cart)=  0.08589000 RMS(Int)=  0.00460740
 Iteration  2 RMS(Cart)=  0.00521292 RMS(Int)=  0.00218734
 Iteration  3 RMS(Cart)=  0.00001420 RMS(Int)=  0.00218728
 Iteration  4 RMS(Cart)=  0.00000004 RMS(Int)=  0.00218728
 Variable       Old X    -DE/DX   Delta X   Delta X   Delta X     New X
                                 (Linear)    (Quad)   (Total)
    R1        2.28269  -0.00559  -0.00261  -0.00727  -0.00988   2.27281
    R2        2.84460   0.00049   0.00966   0.00038   0.01004   2.85463
    R3        2.09983   0.00072  -0.00048   0.00300   0.00252   2.10235
    R4        2.89972   0.00195   0.02544   0.00606   0.03185   2.93157
    R5        2.86331  -0.00594  -0.02591  -0.03972  -0.06668   2.79663
    R6        2.79839  -0.00450   0.00547  -0.01426  -0.00973   2.78866
    R7        2.89977  -0.00203   0.01554  -0.00755   0.00752   2.90729
    R8        2.07136   0.00067  -0.00048   0.00266   0.00218   2.07354
    R9        2.07011  -0.00098  -0.00008  -0.00377  -0.00385   2.06625
   R10        2.87031  -0.00234   0.00466  -0.00285   0.00158   2.87188
   R11        2.06710  -0.00054   0.00266  -0.00246   0.00020   2.06730
   R12        2.06688   0.00171  -0.00525   0.00756   0.00231   2.06919
   R13        2.71039  -0.00019  -0.00158  -0.00190  -0.00389   2.70650
   R14        2.07830   0.00154   0.00038   0.00596   0.00634   2.08465
   R15        2.06847  -0.00104   0.00086  -0.00411  -0.00325   2.06521
   R16        2.69244  -0.01701  -0.03581  -0.06447  -0.10009   2.59235
   R17        2.75263  -0.00019   0.00987   0.00289   0.01533   2.76796
   R18        2.04746   0.00076  -0.00198   0.00316   0.00118   2.04863
   R19        1.92412  -0.00039   0.00174  -0.00140   0.00034   1.92446
    A1        2.18449  -0.00113   0.02088  -0.01076   0.00090   2.18540
    A2        2.11497   0.00268  -0.00085   0.02286   0.01263   2.12760
    A3        1.98368  -0.00153  -0.00769  -0.00964  -0.02659   1.95709
    A4        1.97142   0.00518   0.00827   0.02427   0.03046   2.00187
    A5        2.17934  -0.00594  -0.02727  -0.06228  -0.08923   2.09010
    A6        1.95077  -0.00494   0.00499   0.00013   0.00627   1.95704
    A7        2.03282  -0.00001   0.00710   0.01812   0.02336   2.05618
    A8        2.13054   0.00141   0.00032   0.00051   0.00017   2.13070
    A9        1.88416  -0.00190   0.00042   0.01376   0.00996   1.89412
   A10        1.91053  -0.00032  -0.00368  -0.00402  -0.00587   1.90466
   A11        1.93862   0.00104   0.00262  -0.01009  -0.00711   1.93150
   A12        1.94797   0.00101  -0.00912  -0.01084  -0.01949   1.92848
   A13        1.92574   0.00009   0.00997   0.00285   0.01480   1.94054
   A14        1.85746   0.00016  -0.00014   0.00767   0.00698   1.86444
   A15        1.88106   0.00037   0.02339   0.00551   0.02385   1.90491
   A16        1.97368   0.00087   0.01437  -0.00692   0.00958   1.98327
   A17        1.87602  -0.00035  -0.01597   0.01468  -0.00046   1.87556
   A18        1.97512  -0.00008  -0.00204  -0.02096  -0.02341   1.95171
   A19        1.86810  -0.00062  -0.01972   0.01613  -0.00169   1.86641
   A20        1.88463  -0.00029  -0.00180  -0.00533  -0.00807   1.87657
   A21        1.93180  -0.00084   0.00812   0.01328   0.02009   1.95189
   A22        1.92271   0.00016  -0.00870   0.00523  -0.00439   1.91833
   A23        1.97488   0.00002   0.01640  -0.01586   0.00177   1.97665
   A24        1.89168   0.00134   0.00346   0.02225   0.02514   1.91682
   A25        1.87255  -0.00096  -0.02137  -0.02911  -0.04928   1.82327
   A26        1.86704   0.00037   0.00121   0.00484   0.00614   1.87318
   A27        2.05980   0.00146   0.00992   0.00974   0.01523   2.07503
   A28        2.11700   0.00326   0.01820   0.00847   0.02172   2.13871
   A29        2.14847  -0.00058  -0.00548  -0.01062  -0.01812   2.13035
   A30        2.03419   0.00510   0.02896   0.06423   0.09332   2.12750
   A31        1.92096  -0.00362  -0.03310  -0.02478  -0.06055   1.86041
   A32        2.04290  -0.00110   0.02381  -0.00868   0.01425   2.05714
   A33        1.99924  -0.00014   0.00298  -0.02602  -0.02162   1.97762
   A34        1.91652   0.00203   0.02207   0.01931   0.03985   1.95637
    D1        1.39627  -0.00281   0.03213  -0.20989  -0.17720   1.21907
    D2       -1.26122  -0.00145   0.05911  -0.17271  -0.11493  -1.37615
    D3       -2.40522  -0.00027   0.04768  -0.17985  -0.12998  -2.53520
    D4       -1.75505  -0.00122  -0.07550   0.07968   0.00379  -1.75125
    D5        1.87065   0.00014  -0.04852   0.11686   0.06607   1.93671
    D6        0.72665   0.00132  -0.05995   0.10972   0.05101   0.77766
    D7       -2.26163   0.00278   0.02008   0.05526   0.07608  -2.18554
    D8        1.89788   0.00291   0.03325   0.06241   0.09722   1.99510
    D9       -0.14820   0.00230   0.03412   0.06150   0.09646  -0.05174
   D10        0.43925  -0.00039  -0.01340  -0.00281  -0.01838   0.42087
   D11       -1.68443  -0.00026  -0.00022   0.00434   0.00276  -1.68168
   D12        2.55267  -0.00087   0.00064   0.00342   0.00200   2.55467
   D13        1.61665   0.00240   0.00003   0.02039   0.01927   1.63592
   D14       -0.50703   0.00254   0.01321   0.02754   0.04040  -0.46662
   D15       -2.55311   0.00192   0.01407   0.02662   0.03965  -2.51346
   D16        2.78828  -0.00264  -0.05915  -0.12003  -0.17817   2.61011
   D17        0.15107   0.00064   0.00775  -0.04758  -0.03796   0.11312
   D18        0.14593  -0.00243  -0.03119  -0.08216  -0.11444   0.03149
   D19       -2.49128   0.00085   0.03571  -0.00970   0.02578  -2.46550
   D20       -2.46411  -0.00243  -0.01493  -0.04273  -0.05717  -2.52128
   D21       -0.05156   0.00166   0.00623   0.00075   0.00745  -0.04411
   D22       -1.07952   0.00326   0.05149   0.07262   0.12360  -0.95592
   D23        3.00709   0.00247   0.02903   0.10045   0.12887   3.13596
   D24        0.92864   0.00255   0.03288   0.10147   0.13346   1.06211
   D25        1.02082   0.00224   0.04148   0.06999   0.11096   1.13178
   D26       -1.17576   0.00145   0.01903   0.09782   0.11623  -1.05953
   D27        3.02898   0.00153   0.02288   0.09884   0.12082  -3.13338
   D28        3.08225   0.00313   0.04216   0.07454   0.11672  -3.08422
   D29        0.88567   0.00234   0.01970   0.10238   0.12199   1.00766
   D30       -1.19278   0.00242   0.02355   0.10339   0.12659  -1.06619
   D31        1.19030  -0.00146  -0.04090  -0.03698  -0.07991   1.11039
   D32       -0.90154  -0.00269  -0.04489  -0.07659  -0.12189  -1.02343
   D33       -2.99046  -0.00329  -0.05140  -0.07586  -0.12782  -3.11828
   D34       -2.89716  -0.00011  -0.00757  -0.05653  -0.06618  -2.96334
   D35        1.29419  -0.00134  -0.01157  -0.09613  -0.10816   1.18603
   D36       -0.79473  -0.00193  -0.01807  -0.09541  -0.11409  -0.90882
   D37       -0.82310  -0.00092  -0.02478  -0.06477  -0.09041  -0.91350
   D38       -2.91493  -0.00216  -0.02877  -0.10438  -0.13239  -3.04732
   D39        1.27933  -0.00275  -0.03528  -0.10365  -0.13832   1.14102
   D40       -0.58174  -0.00205  -0.00455  -0.06528  -0.06820  -0.64994
   D41        1.52860  -0.00151  -0.00813  -0.03647  -0.04387   1.48474
   D42       -2.74411  -0.00090  -0.01614  -0.03464  -0.05016  -2.79428
   D43       -0.07965   0.00367   0.03856   0.11809   0.15784   0.07820
   D44       -1.28690   0.00096   0.01414   0.08330   0.09727  -1.18963
   D45        2.61634   0.00129  -0.01678   0.05641   0.04324   2.65958
   D46        0.07651   0.00293   0.01845   0.02481   0.04226   0.11877
   D47        2.40292   0.00176   0.02386   0.04983   0.07550   2.47842
         Item               Value     Threshold  Converged?
 Maximum Force            0.017007     0.000450     NO 
 RMS     Force            0.002773     0.000300     NO 
 Maximum Displacement     0.262738     0.001800     NO 
 RMS     Displacement     0.086100     0.001200     NO 
 Predicted change in Energy=-7.902796D-03
 GradGradGradGradGradGradGradGradGradGradGradGradGradGradGradGradGradGrad

                          Input orientation:                          
 ---------------------------------------------------------------------
 Center     Atomic      Atomic             Coordinates (Angstroms)
 Number     Number       Type             X           Y           Z
 ---------------------------------------------------------------------
      1          8           0        1.095272   -0.062322    0.710859
      2          6           0        2.297243   -0.087051    0.676356
      3          6           0        3.150531   -1.310509    0.915069
      4          6           0        3.073421   -2.382848   -0.203294
      5          6           0        2.682322   -3.727113    0.434586
      6          6           0        3.662061   -4.053438    1.549584
      7          8           0        3.600646   -3.093365    2.610592
      8          6           0        3.401349   -1.772481    2.298477
      9          7           0        4.415981   -0.980890    1.598928
     10          1           0        2.892076    0.769896    0.289700
     11          1           0        4.051412   -2.460886   -0.694667
     12          1           0        2.355297   -2.086878   -0.972874
     13          1           0        2.598210   -4.546284   -0.285592
     14          1           0        1.700350   -3.596138    0.900987
     15          1           0        4.687860   -4.100524    1.146526
     16          1           0        3.459136   -5.010947    2.035742
     17          1           0        2.908810   -1.323254    3.153376
     18          1           0        5.201194   -1.551288    1.290415
 ---------------------------------------------------------------------
                    Distance matrix (angstroms):
                    1          2          3          4          5
     1  O    0.000000
     2  C    1.202720   0.000000
     3  C    2.413247   1.510607   0.000000
     4  C    3.183331   2.578163   1.551320   0.000000
     5  C    4.003217   3.668350   2.507999   1.538473   0.000000
     6  C    4.818804   4.284563   2.861456   2.491977   1.519736
     7  O    4.367277   3.805004   2.501196   2.949705   2.445395
     8  C    3.280726   2.586697   1.479914   2.595948   2.794938
     9  N    3.558024   2.477728   1.475695   2.648765   3.450074
    10  H    2.024466   1.112514   2.187687   3.196206   4.504230
    11  H    4.058002   3.254521   2.173983   1.097271   2.180127
    12  H    2.919152   2.592806   2.190770   1.093414   2.185923
    13  H    4.832975   4.571726   3.495265   2.216540   1.093970
    14  H    3.590282   3.566571   2.706902   2.139353   1.094967
    15  H    5.422506   4.695112   3.193922   2.716402   2.160666
    16  H    5.641990   5.238575   3.878709   3.474041   2.194394
    17  H    3.293137   2.835108   2.251357   3.523786   3.636159
    18  H    4.405848   3.309681   2.098590   2.729483   3.436768
                    6          7          8          9         10
     6  C    0.000000
     7  O    1.432219   0.000000
     8  C    2.414866   1.371813   0.000000
     9  N    3.164077   2.480079   1.464740   0.000000
    10  H    5.044278   4.562171   3.279974   2.664885   0.000000
    11  H    2.779295   3.395285   3.139330   2.753884   3.570854
    12  H    3.455110   3.924939   3.448885   3.476175   3.169130
    13  H    2.177738   3.391715   3.875103   4.423543   5.355286
    14  H    2.116154   2.605120   2.858688   3.834226   4.566852
    15  H    1.103148   2.083241   2.898601   3.163970   5.261178
    16  H    1.092863   2.006887   3.249620   4.165059   6.065341
    17  H    3.254757   1.976498   1.084090   2.192050   3.547139
    18  H    2.949043   2.585077   2.074742   1.018378   3.423647
                   11         12         13         14         15
    11  H    0.000000
    12  H    1.759002   0.000000
    13  H    2.574494   2.565159   0.000000
    14  H    3.059804   2.493627   1.765474   0.000000
    15  H    2.546266   3.739984   2.572217   3.039722   0.000000
    16  H    3.782688   4.338249   2.519066   2.526396   1.768993
    17  H    4.172191   4.232663   4.723441   3.420472   3.860789
    18  H    2.467776   3.675387   4.269581   4.072956   2.604385
                   16         17         18
    16  H    0.000000
    17  H    3.892434   0.000000
    18  H    3.944555   2.962709   0.000000
 Stoichiometry    C6H9NO2
 Framework group  C1[X(C6H9NO2)]
 Deg. of freedom    48
 Full point group                 C1      NOp   1
 Largest Abelian subgroup         C1      NOp   1
 Largest concise Abelian subgroup C1      NOp   1
                         Standard orientation:                         
 ---------------------------------------------------------------------
 Center     Atomic      Atomic             Coordinates (Angstroms)
 Number     Number       Type             X           Y           Z
 ---------------------------------------------------------------------
      1          8           0       -2.594082    0.590128   -0.853620
      2          6           0       -2.113045   -0.017026    0.066436
      3          6           0       -0.634088   -0.151679    0.343003
      4          6           0        0.059120    1.154337    0.812448
      5          6           0        1.248844    1.438833   -0.120567
      6          6           0        2.159224    0.222366   -0.152404
      7          8           0        1.500726   -0.921378   -0.708714
      8          6           0        0.172425   -1.121801   -0.430654
      9          7           0       -0.293006   -1.468950    0.914085
     10          1           0       -2.733197   -0.397949    0.907861
     11          1           0        0.403668    1.026910    1.846398
     12          1           0       -0.648916    1.987543    0.815214
     13          1           0        1.797219    2.350675    0.133598
     14          1           0        0.849958    1.565312   -1.132419
     15          1           0        2.513392   -0.008618    0.866491
     16          1           0        3.042779    0.361011   -0.780464
     17          1           0       -0.239163   -1.674311   -1.267660
     18          1           0        0.457261   -1.428099    1.601489
 ---------------------------------------------------------------------
 Rotational constants (GHZ):           2.8192627           1.3976521           1.1738891
 Standard basis: 6-31G(2df,p) (6D, 7F)
 There are   324 symmetry adapted cartesian basis functions of A   symmetry.
 There are   297 symmetry adapted basis functions of A   symmetry.
   297 basis functions,   459 primitive gaussians,   324 cartesian basis functions
    34 alpha electrons       34 beta electrons
       nuclear repulsion energy       468.6871335421 Hartrees.
 NAtoms=   18 NActive=   18 NUniq=   18 SFac= 1.00D+00 NAtFMM=   60 NAOKFM=F Big=F
 Integral buffers will be    131072 words long.
 Raffenetti 2 integral format.
 Two-electron integral symmetry is turned on.
 One-electron integrals computed using PRISM.
 PrsmSu:  requested number of processors reduced to:  13 ShMem   1 Linda.
 NBasis=   297 RedAO= T EigKep=  3.43D-04  NBF=   297
 NBsUse=   297 1.00D-06 EigRej= -1.00D+00 NBFU=   297
 Initial guess from the checkpoint file:  "OdCC12CCCOC1N2.chk"
 B after Tr=    -0.000000    0.000000   -0.000000
         Rot=    0.999887   -0.009597   -0.001461    0.011464 Ang=  -1.72 deg.
 ExpMin= 1.61D-01 ExpMax= 5.48D+03 ExpMxC= 8.25D+02 IAcc=2 IRadAn=         4 AccDes= 0.00D+00
 Harris functional with IExCor=  402 and IRadAn=       4 diagonalized for initial guess.
 HarFok:  IExCor=  402 AccDes= 0.00D+00 IRadAn=         4 IDoV= 1 UseB2=F ITyADJ=14
 ICtDFT=  3500011 ScaDFX=  1.000000  1.000000  1.000000  1.000000
 FoFCou: FMM=F IPFlag=           0 FMFlag=      100000 FMFlg1=           0
         NFxFlg=           0 DoJE=T BraDBF=F KetDBF=T FulRan=T
         wScrn=  0.000000 ICntrl=       500 IOpCl=  0 I1Cent=   200000004 NGrid=           0
         NMat0=    1 NMatS0=      1 NMatT0=    0 NMatD0=    1 NMtDS0=    0 NMtDT0=    0
 Petite list used in FoFCou.
 Requested convergence on RMS density matrix=1.00D-08 within 128 cycles.
 Requested convergence on MAX density matrix=1.00D-06.
 Requested convergence on             energy=1.00D-06.
 No special actions if energy rises.
 Integral accuracy reduced to 1.0D-05 until final iterations.
 Initial convergence to 1.0D-05 achieved.  Increase integral accuracy.
 SCF Done:  E(RB3LYP) =  -439.212377036     A.U. after   13 cycles
            NFock= 13  Conv=0.67D-08     -V/T= 2.0072
 PrsmSu:  requested number of processors reduced to:  13 ShMem   1 Linda.
 Calling FoFJK, ICntrl=      2127 FMM=F ISym2X=0 I1Cent= 0 IOpClX= 0 NMat=1 NMatS=1 NMatT=0.
 ***** Axes restored to original set *****
 -------------------------------------------------------------------
 Center     Atomic                   Forces (Hartrees/Bohr)
 Number     Number              X              Y              Z
 -------------------------------------------------------------------
      1        8          -0.002081425   -0.000683787    0.005958039
      2        6           0.004427547   -0.004794698   -0.019022473
      3        6          -0.004193747   -0.000208476   -0.008268436
      4        6           0.000956896    0.000168534    0.006409851
      5        6          -0.003999364    0.005284965    0.004258935
      6        6           0.005580040   -0.000201889   -0.000105850
      7        8          -0.000272758   -0.010927858    0.000558048
      8        6           0.002036754   -0.000990550    0.003992003
      9        7          -0.001016364    0.003260968    0.001674715
     10        1           0.000173039    0.004371288    0.007259383
     11        1          -0.000181466    0.000032679   -0.000467429
     12        1          -0.000823139    0.000742991    0.001660155
     13        1           0.003805695    0.001222723   -0.000971481
     14        1          -0.003020041   -0.002436122   -0.001773602
     15        1          -0.000199300   -0.000632993    0.000410140
     16        1          -0.001387663   -0.000205354   -0.001489067
     17        1           0.001993940    0.007417904   -0.000231952
     18        1          -0.001798643   -0.001420324    0.000149019
 -------------------------------------------------------------------
 Cartesian Forces:  Max     0.019022473 RMS     0.004306947

 GradGradGradGradGradGradGradGradGradGradGradGradGradGradGradGradGradGrad
 Berny optimization.
 Using GEDIIS/GDIIS optimizer.
 FormGI is forming the generalized inverse of G from B-inverse, IUseBI=4.
 Internal  Forces:  Max     0.010710397 RMS     0.002366223
 Search for a local minimum.
 Step number   3 out of a maximum of  108
 All quantities printed in internal units (Hartrees-Bohrs-Radians)
 Mixed Optimization -- RFO/linear search
 Update second derivatives using D2CorX and points    2    3
 DE= -4.69D-03 DEPred=-7.90D-03 R= 5.94D-01
 TightC=F SS=  1.41D+00  RLast= 7.03D-01 DXNew= 8.4853D-01 2.1086D+00
 Trust test= 5.94D-01 RLast= 7.03D-01 DXMaxT set to 8.49D-01
 ITU=  1  1  0
 Use linear search instead of GDIIS.
     Eigenvalues ---    0.00718   0.00868   0.01024   0.01366   0.02153
     Eigenvalues ---    0.02463   0.02957   0.03136   0.03637   0.04131
     Eigenvalues ---    0.04897   0.05253   0.05711   0.06524   0.07299
     Eigenvalues ---    0.07428   0.07846   0.07993   0.10778   0.11763
     Eigenvalues ---    0.12102   0.12456   0.13670   0.16144   0.16924
     Eigenvalues ---    0.18081   0.19120   0.19724   0.21359   0.22595
     Eigenvalues ---    0.26815   0.30037   0.30155   0.31442   0.32425
     Eigenvalues ---    0.32981   0.33620   0.33772   0.33959   0.34052
     Eigenvalues ---    0.34191   0.34429   0.34798   0.35311   0.36023
     Eigenvalues ---    0.38967   0.45012   0.99104
 RFO step:  Lambda=-6.26062218D-03 EMin= 7.18252385D-03
 Quartic linear search produced a step of -0.20200.
 Iteration  1 RMS(Cart)=  0.05314873 RMS(Int)=  0.00452764
 Iteration  2 RMS(Cart)=  0.00425448 RMS(Int)=  0.00198024
 Iteration  3 RMS(Cart)=  0.00002612 RMS(Int)=  0.00198010
 Iteration  4 RMS(Cart)=  0.00000009 RMS(Int)=  0.00198010
 Variable       Old X    -DE/DX   Delta X   Delta X   Delta X     New X
                                 (Linear)    (Quad)   (Total)
    R1        2.27281   0.00224   0.00199  -0.00304  -0.00105   2.27177
    R2        2.85463  -0.00140  -0.00203  -0.00441  -0.00643   2.84820
    R3        2.10235   0.00094  -0.00051   0.00423   0.00372   2.10607
    R4        2.93157  -0.00832  -0.00643  -0.01823  -0.02470   2.90687
    R5        2.79663   0.00535   0.01347  -0.00520   0.00807   2.80471
    R6        2.78866   0.00031   0.00197  -0.01245  -0.01030   2.77836
    R7        2.90729  -0.00250  -0.00152  -0.01405  -0.01533   2.89196
    R8        2.07354   0.00004  -0.00044   0.00205   0.00161   2.07515
    R9        2.06625  -0.00043   0.00078  -0.00351  -0.00274   2.06352
[...]
 -0.0634252,0.5912283,0.0981564,-0.058013,0.3526261,0.4215097,-0.426069
 ,0.137585,-0.0547494,0.0765479,-1.2336078,0.1041439,-0.0127181,-0.0400
 409,-0.6332096,0.6255413,-0.093372,0.1061761,0.0672936,1.0161955,-0.17
 29663,0.0913454,-0.4697548,0.6817885,-0.7237357,-0.1455354,-0.0330885,
 -0.2346687,-0.4352615,-0.0094689,0.1718811,-0.0330057,-0.1974279,0.013
 3153,-0.0656437,-0.0571902,-0.029374,-0.1577648,-0.0950462,-0.0354449,
 -0.1369712,-0.0389955,-0.0740714,-0.0125041,0.1231532,-0.0160785,-0.01
 96376,-0.0304455,0.0627302,-0.0144977,-0.030558,0.0046647,-0.0234981,-
 0.0740799,0.00386,0.0736818,0.0512612,-0.045782,0.0174954,0.0100201,0.
 0580177,0.0091898,0.015192,-0.0039763,-0.0925655,-0.0893083,0.0003487,
 -0.1032969,-0.0280608,-0.1064205,-0.0244901,0.0315026,0.0123525,0.0216
 987,0.0274824,0.0584875,0.044862,0.0023163,-0.1796701,0.0341173,0.0399
 548,-0.0478925,0.0004272,-0.0086058,0.0589529,-0.0845206,-0.0220178,0.
 0558989,-0.0244051,0.008498,0.0039789,-0.1171419,0.0569062,-0.0085757,
 0.0810227,-0.0087315,0.042253,0.0174465,0.0235611,0.0122107,-0.030027,
 -0.0490362,0.0462955,-0.0138948,-0.0758217,0.1877931,0.1002892,-0.0021
 959,0.1451776,0.1362804,-0.0576641,0.0293174,-0.002772,0.1102388\Polar
 =66.6260128,-6.4443003,82.155653,8.2517261,-1.3208265,69.1090178\Quadr
 upole=-0.7696906,1.1139351,-0.3442445,0.9009039,-3.446156,3.5129884\PG
 =C01 [X(C6H9N1O2)]\NImag=0\\0.53086215,-0.07398334,0.09058506,0.402367
 75,-0.03541787,0.35306836,-0.48887598,0.05146279,-0.33924170,0.6733064
 4,0.04941580,-0.11020852,0.02357525,-0.05983070,0.51580185,-0.34043894
 ,0.02554456,-0.34431515,0.37591869,0.07508326,0.55496533,-0.02601057,0
 .03258737,-0.03087939,-0.08262809,0.04641284,0.00932013,0.35496905,0.0
 3216842,0.00661231,0.01723411,0.02570957,-0.18525769,-0.01640698,-0.08
 157165,0.47995217,-0.03998837,0.02344317,-0.00323312,0.01784343,-0.020
 53038,-0.07531145,0.11128277,0.08107442,0.44758257,-0.00222409,-0.0003
 8632,-0.00210501,0.00779141,0.00631382,0.01381560,-0.07538422,0.003169
 70,-0.00245537,0.58423419,-0.00353547,0.00079518,-0.00192969,0.0011955
 3,-0.02561287,-0.01740903,-0.00307347,-0.13215465,-0.05444169,-0.04016
 237,0.45056093,-0.00278453,-0.00045988,-0.00277430,0.00552868,-0.00224
 668,0.00697605,-0.01031913,-0.05487035,-0.12358717,0.00627708,-0.01943
 693,0.51722251,-0.00005958,0.00064031,0.00109483,-0.00037058,0.0009546
 8,-0.00044090,-0.00074048,-0.00309662,0.00043437,-0.08311421,-0.016368
 89,0.00890664,0.54912748,0.00024215,0.00087074,0.00098977,-0.00233485,
 -0.00064278,-0.00221724,-0.00277736,-0.02922771,0.00163910,-0.01648272
 ,-0.15532745,0.04076160,-0.00355216,0.50973208,0.00079204,0.00027031,0
 .00130502,-0.00268586,-0.00150866,-0.00358444,-0.00186938,-0.02038070,
 0.01260018,0.00603298,0.03852750,-0.09794950,-0.04717092,0.06819858,0.
 52355895,0.00088380,-0.00036315,0.00002802,-0.00194025,0.00121714,0.00
 032521,0.00348164,-0.00131950,0.00206246,0.00478639,0.00545493,0.00095
 182,-0.13405298,0.01591669,-0.04840229,0.53947499,-0.00294670,0.000304
 09,-0.00195133,0.00442440,-0.00357349,-0.00002759,-0.00053477,0.007771
 20,-0.00503601,0.02499656,-0.00721389,0.02947352,0.01179907,-0.0854762
 8,0.01629729,0.01665288,0.56596173,-0.00218737,0.00065183,-0.00086909,
 0.00224650,-0.00240227,-0.00130078,-0.00246131,0.00404664,-0.00276333,
 -0.00992061,0.01460262,-0.01407606,-0.05451872,0.02280863,-0.12984292,
 -0.03672800,-0.09269965,0.46615131,-0.00254916,0.00053689,-0.00046543,
 0.00582016,-0.00361683,-0.00202165,-0.00544238,0.02135159,-0.00528701,
 0.00125700,-0.00119141,0.00312204,0.00566275,-0.01510831,-0.01729361,-
 0.06321573,0.01164905,0.02122155,0.09243383,0.00710876,-0.00178185,0.0
 0300001,-0.00899366,0.00857911,0.00206493,0.00861168,-0.02393361,0.018
 94436,-0.00209083,-0.00738139,-0.00265502,-0.00081929,-0.00521773,-0.0
 1347935,0.01166684,-0.12062712,-0.05817425,-0.03571452,0.47921901,-0.0
 0269070,0.00087832,-0.00058672,0.00619093,-0.00376758,-0.00223724,0.00
 139065,0.03468560,-0.00923792,-0.00036565,-0.00335714,0.00564998,0.002
 69850,-0.03134905,-0.03548671,0.01377860,-0.03287195,-0.15111784,-0.03
 202165,0.03218406,0.30711812,0.00468718,-0.00024626,0.00421714,-0.0157
 0690,0.01974596,-0.01752149,0.00345749,-0.01440648,0.00563371,-0.00674
 204,-0.00028553,-0.00916079,0.00199507,-0.00090943,-0.00041017,-0.0068
 1685,0.00881112,0.00103750,-0.05372055,0.01325618,0.00962317,0.3114641
 9,-0.00178220,0.00040399,-0.00502055,-0.00388085,-0.01256508,0.0237350
 2,0.01706675,-0.06452410,0.03633224,0.00725150,0.01325324,-0.02084476,
 -0.00107371,0.00653334,0.00305526,0.00352557,-0.05560590,-0.01212319,0
 .02069210,-0.23417481,0.02496488,-0.06192272,0.55496197,0.01256304,-0.
 00255465,0.00589638,-0.02084233,0.01801162,-0.00716275,-0.04685032,-0.
 00054299,-0.17150389,0.00446619,-0.00172190,-0.02229665,-0.00027945,-0
 .00159125,-0.00061305,0.00100111,-0.02088894,0.01623778,0.00756807,0.0
 4597586,-0.10884643,-0.14906162,0.05015242,0.61885425,-0.00372379,0.00
 612448,-0.00020849,-0.02581091,-0.01062503,-0.01427761,-0.15536276,0.0
 0240802,-0.07984401,-0.00791338,-0.00161112,0.00048070,-0.00002318,-0.
 00063664,-0.00109310,0.00015950,-0.00002469,0.00050509,0.00963728,-0.0
 1466781,-0.00095187,-0.14305947,-0.03681734,0.11768918,0.51879720,-0.0
 0159576,-0.00383346,0.00402943,0.03088493,0.00975683,-0.00323566,0.004
 98470,-0.03797181,-0.03759268,-0.02098521,-0.00369302,0.00163894,0.000
 51679,-0.00134814,-0.00230179,-0.00123055,0.00330474,0.00429293,-0.035
 81321,-0.02537079,0.01605891,0.00299838,-0.08985120,0.02768077,-0.1420
 4539,0.34449165,0.00146073,-0.00023882,0.00579271,-0.01318291,0.009888
 64,-0.00974617,-0.00532422,-0.05385361,-0.04860464,-0.02869603,-0.0010
 5110,-0.00791318,0.00029774,0.00106071,-0.00038808,-0.00164247,-0.0027
 2756,-0.00192171,0.01249109,0.01513297,-0.00541940,0.06293512,0.051917
 92,-0.08921225,-0.13363697,0.06847240,0.24935725,-0.01334155,-0.020303
 22,-0.03621825,-0.06875384,-0.04461564,-0.02544749,0.00803082,0.014039
 91,-0.00024412,-0.00016488,0.00243659,-0.00131224,0.00005767,0.0004016
 4,0.00073925,0.00010247,-0.00013549,0.00000445,-0.00020147,0.00004368,
 -0.00045564,-0.00020329,0.00179557,0.00046892,0.00329012,-0.00167593,0
 .00135720,0.07130477,-0.00677043,0.01809549,-0.00646368,-0.03715367,-0
 .19689208,-0.08371767,-0.00607517,-0.02005029,-0.02082680,0.00311894,-
 0.00218660,0.00294767,0.00018110,-0.00050109,-0.00117601,-0.00040013,-
 0.00005758,-0.00053044,0.00020227,0.00049513,0.00055214,-0.00151647,-0
 .00044100,-0.00146451,0.00037804,0.00187126,0.00054934,0.04786129,0.19
 967189,-0.03091420,-0.01834648,-0.01430072,-0.02207729,-0.08973885,-0.
 11605648,-0.00755234,-0.00112718,0.01139602,-0.00182870,-0.00027150,0.
 00095493,-0.00004961,0.00011565,-0.00041057,-0.00014764,0.00039989,0.0
 0030784,0.00086041,-0.00070934,0.00086361,-0.00020468,-0.00213978,-0.0
 0077243,0.00098675,0.00286432,-0.00086043,0.06087945,0.10867550,0.1179
 1223,0.00062625,0.00103937,0.00033315,-0.00090295,-0.00006614,-0.00029
 268,0.00300856,-0.00135563,-0.00481583,-0.21008547,0.00890146,0.120057
 88,-0.00505982,-0.00062863,0.00214787,0.00033921,0.00028008,-0.0000818
 6,0.00023648,-0.00038765,0.00009145,-0.00057073,-0.00096690,-0.0023575
 2,0.00323420,0.00025499,0.00008138,-0.00009470,-0.00000758,0.00024155,
 0.22655889,0.00036023,-0.00024647,0.00044027,-0.00105554,-0.00005708,-
 0.00211052,0.01761607,-0.00385038,-0.01766811,0.00887881,-0.04551186,-
 0.00508505,-0.02667226,-0.00205397,0.01839523,-0.00131443,0.00057599,-
 0.00173427,0.00019273,0.00116018,0.00049527,0.00238619,-0.00327449,-0.
 00098660,0.00063503,0.00142207,0.00350696,-0.00000034,-0.00055731,0.00
 030837,-0.00613833,0.05532251,0.00094167,0.00073343,0.00064715,-0.0017
 6226,0.00066202,-0.00236457,0.01575880,-0.00618071,-0.01817615,0.11975
 341,-0.00351305,-0.13425615,0.01164678,0.00069197,-0.00801081,0.001424
 79,-0.00079931,0.00010236,-0.00032875,0.00032530,0.00067353,0.00255683
 ,-0.00345460,-0.00155113,0.00042481,0.00109686,0.00362783,-0.00000453,
 -0.00041452,0.00033549,-0.13232483,0.00796174,0.14779630,-0.00016030,0
 .00172822,0.00217863,-0.00105636,0.00135802,-0.00148280,-0.00340971,-0
 .00210543,-0.00305891,-0.21234367,0.05196031,-0.11807129,0.00641689,-0
 .00206030,0.00599027,0.00033141,-0.00210263,0.00062272,-0.00002623,0.0
 0063684,-0.00018572,-0.00098772,-0.00090444,0.00058132,0.00008397,-0.0
 0000231,-0.00150627,-0.00002141,-0.00019033,-0.00036715,-0.02003801,0.
 00632561,-0.01400461,0.22879019,0.00111756,-0.00103090,0.00140424,-0.0
 0251134,0.00034797,-0.00253367,-0.01880065,0.00675051,-0.01087392,0.05
 383853,-0.06288422,0.03802842,0.02335878,-0.00749956,0.01775570,-0.002
 12760,-0.00644003,0.00091140,0.00027816,0.00124987,0.00001894,-0.00198
 381,-0.00240676,0.00019964,-0.00093771,-0.00326525,-0.00577732,0.00043
 337,0.00061418,0.00042550,0.00034736,-0.00032650,0.00021212,-0.0548289
 3,0.07292674,0.00201865,0.00206597,0.00138970,-0.00359801,0.00112403,-
 0.00122384,-0.01765627,0.00253217,-0.01341473,-0.11540583,0.03591839,-
 0.13053259,-0.00983083,0.00447344,-0.00844156,0.00115617,0.00278669,-0
 .00003051,0.00030963,0.00009259,0.00075523,-0.00163052,-0.00167003,-0.
 00074581,0.00028571,-0.00140561,-0.00341539,-0.00003388,0.00013931,0.0
 0027904,0.01610998,-0.00518637,0.01189446,0.12856363,-0.04032004,0.143
 37865,0.00022987,0.00005437,0.00010180,-0.00043167,0.00004514,-0.00045
 457,0.00108276,-0.00158856,0.00092864,-0.00079016,-0.00536486,-0.00298
 557,-0.05194261,0.02301409,0.02040213,0.00316084,-0.01662173,-0.012853
 43,-0.00202534,-0.00107071,-0.00533731,-0.00030176,0.00151094,-0.00072
 974,0.00017173,0.00005264,0.00001648,0.00001295,-0.00013744,0.00004805
 ,0.00061709,-0.00008516,-0.00053560,-0.00007770,0.00021922,0.00019487,
 0.05166621,0.00029938,-0.00002795,0.00035338,-0.00104748,-0.00021739,-
 0.00134720,0.00001202,-0.00367458,0.00392066,0.00181356,-0.02187674,-0
 .01999753,0.02135008,-0.18036618,-0.12943683,-0.00132503,0.00315681,0.
 00340066,0.00110645,0.00192135,0.00248028,0.00065106,-0.00046250,0.001
 16934,-0.00036117,-0.00059355,-0.00030156,0.00022524,-0.00047442,-0.00
 005890,-0.00046215,0.00161231,-0.00035944,0.00043811,0.00038858,0.0001
 0484,-0.02198805,0.19875030,0.00016087,-0.00011676,0.00000537,0.000061
 45,0.00068371,0.00054198,0.00033414,0.00277118,-0.00049133,-0.00072342
 ,0.01206953,0.01097168,0.01858085,-0.12961297,-0.16946177,0.00711703,-
 0.01856488,-0.01491344,-0.00473671,-0.00226112,-0.00518639,-0.00041414
 ,0.00320934,-0.00145630,0.00018033,-0.00000301,0.00030679,-0.00011437,
 0.00023775,0.00002238,-0.00020234,-0.00052191,0.00123190,-0.00026842,-
 0.00065513,0.00020971,-0.02112661,0.13944279,0.18447548,0.00010587,-0.
 00007838,-0.00002862,-0.00014365,-0.00012342,-0.00008908,-0.00009029,-
 0.00001179,0.00033533,-0.00310296,-0.00033344,0.00172406,-0.26980188,-
 0.01255345,0.08674154,-0.02499634,0.00072797,0.00741943,0.00316963,0.0
 0006605,0.00094286,-0.00034041,-0.00071853,-0.00025268,0.00025971,0.00
 005622,-0.00012354,0.00000050,-0.00004659,0.00000617,0.00131126,-0.000
 51527,-0.00018866,0.00108758,-0.00012108,-0.00004864,-0.00245258,0.000
 10693,0.00080672,0.29564144,0.00024904,0.00007609,-0.00005840,-0.00021
 792,-0.00004720,-0.00010749,0.00017137,0.00128432,0.00072989,-0.027964
 24,-0.00328562,0.01334164,-0.01135132,-0.04971251,0.00300740,0.0063038
 9,-0.00079702,-0.00330244,-0.00124052,0.00100276,0.00022004,-0.0001477
 5,-0.00087153,-0.00000298,0.00032747,0.00031227,-0.00044741,-0.0000185
 7,-0.00008486,0.00005329,-0.00136090,-0.00527853,0.00233182,0.00016148
 ,0.00178016,-0.00051872,0.02173327,0.00115278,-0.00728287,0.01240828,0
 .05335296,-0.00023406,0.00003994,-0.00004277,0.00027175,-0.00010008,0.
 00016870,-0.00060249,-0.00038803,0.00003895,0.01326617,0.00193594,-0.0
 0742838,0.08826116,0.00255264,-0.08156734,-0.02744269,-0.00060612,0.00
 780614,0.00192375,0.00101626,0.00231337,-0.00020118,-0.00019645,0.0002
 3273,-0.00007198,0.00009253,0.00006503,-0.00000697,0.00006385,-0.00002
 181,0.00034210,0.00345347,-0.00023162,0.00011304,-0.00038172,0.0003862
 7,0.02064875,0.00145508,-0.00764936,-0.09318277,-0.00886762,0.08852502
 ,-0.00005479,0.00001258,0.00004856,0.00026026,-0.00009993,-0.00024331,
 -0.00064772,0.00054131,-0.00061347,0.00104527,-0.00050446,0.00130421,-
 0.02178097,-0.00264161,0.00663341,-0.26419630,-0.01351427,0.06655797,0
 .00150784,0.00968653,0.00774664,-0.00042965,-0.00343129,0.00173797,0.0
 0048026,0.00014222,-0.00047758,-0.00003049,0.00004075,0.00003543,0.000
 43998,0.00080064,-0.00071013,0.00027245,-0.00014840,-0.00016229,0.0002
 6384,-0.00035130,-0.00038840,-0.00162237,0.00068842,-0.00395805,0.2891
 9436,0.00012108,0.00005567,0.00008103,-0.00032925,0.00008613,-0.000087
 23,0.00033351,-0.00061794,0.00006086,0.00041630,0.00049678,-0.00099622
 ,0.00485119,0.00145443,0.00024069,-0.01504275,-0.05387338,0.00870892,0
 .02578392,-0.00698543,-0.01741806,0.00284244,0.00444040,-0.00261980,-0
 .00166139,-0.00015177,0.00087791,0.00001687,0.00003858,-0.00001956,-0.
 00003706,0.00015687,0.00016540,-0.00012276,0.00002105,-0.00002979,0.00
 000477,0.00013496,0.00020489,0.00083679,0.00099227,0.00015062,0.009130
 43,0.05632386,0.00043066,-0.00009048,0.00015138,-0.00057844,0.00040551
 ,0.00008549,0.00022136,-0.00064125,0.00036259,0.00039954,-0.00106153,0
 .00121706,-0.02524296,-0.00027518,0.00874477,0.06568869,0.00663359,-0.
 06975650,0.02553810,-0.01471147,-0.01777312,0.00071304,0.00611227,-0.0
 0250813,-0.00108898,-0.00060637,0.00119588,0.00000245,0.00003713,-0.00
 002232,0.00031289,0.00009059,-0.00018092,0.00017966,-0.00023979,-0.000
 02178,0.00114775,-0.00028524,0.00096873,-0.00395385,0.00141893,-0.0037
 2041,-0.07836593,0.00172134,0.08353285,0.00003577,0.00004208,0.0001482
 4,0.00003427,0.00006772,-0.00000165,-0.00038981,-0.00044183,-0.0000879
 2,-0.00286136,-0.00009779,-0.00295910,0.00393111,0.02005555,-0.0107437
 2,-0.05823276,-0.04204295,0.02073097,0.00237598,0.00751361,-0.00143620
 ,-0.00042616,0.00038910,0.00097503,0.00062476,0.00002140,-0.00043367,-
 0.00000270,0.00004621,-0.00000087,0.00014550,0.00022301,-0.00029225,0.
 00041732,0.00102817,-0.00058695,0.00071099,-0.00046363,0.00061212,0.00
 093243,0.00022891,0.00082901,-0.00563462,-0.02655710,0.01481944,0.0580
 0373,0.00033102,-0.00014497,0.00014413,-0.00040555,0.00044599,-0.00004
 124,0.00024551,0.00003330,0.00009364,0.00040946,0.00084652,0.00010439,
 -0.00075280,-0.00109181,0.00227832,-0.03752035,-0.24558796,0.10649751,
 -0.00055043,-0.03303012,0.00103480,-0.00040379,0.00115981,-0.00427858,
 -0.00010886,-0.00023178,0.00003254,-0.00001196,0.00000095,-0.00001389,
 -0.00001709,0.00008317,0.00000144,-0.00017715,-0.00008509,-0.00004268,
 0.00029771,0.00033477,0.00056195,0.00022896,0.00013644,-0.00022958,-0.
 00089803,0.00005015,0.00226883,0.03911983,0.27791035,0.00018669,0.0001
 8438,0.00029213,-0.00033908,0.00016636,-0.00007098,0.00017435,-0.00081
 631,-0.00007753,-0.00524497,-0.00084605,-0.00308592,0.00561901,0.02169
 715,-0.01049310,0.02105934,0.11760963,-0.10494928,-0.00217905,-0.03433
 528,0.00736587,-0.00000228,-0.00231927,-0.00408496,-0.00005502,-0.0003
 4338,0.00034530,0.00001222,0.00012579,0.00000089,0.00010506,-0.0002176
 0,0.00017913,0.00045471,0.00150266,-0.00054491,0.00050944,-0.00042933,
 0.00034037,-0.00000963,-0.00057131,0.00120894,0.00109557,0.00832879,-0
 .00293614,-0.02143818,-0.10882284,0.11613027,-0.00042004,0.00005940,-0
 .00024256,0.00158737,-0.00177284,0.00080634,0.00167364,-0.00968435,-0.
 01169009,0.00169832,0.00172435,-0.00125714,0.00014536,0.00028571,0.000
 26934,0.00134747,-0.00114930,-0.00157850,0.00177288,0.00360522,0.00143
 963,-0.07266224,0.05033951,0.06728117,-0.01313259,0.01157048,0.0235211
 8,-0.00013545,0.00025333,0.00014674,0.00003317,-0.00074445,-0.00091447
 ,0.00018212,-0.00006560,-0.00012429,0.00005195,-0.00005539,0.00008268,
 -0.00007932,-0.00008475,0.00006112,0.00008598,-0.00029875,-0.00016708,
 0.00004631,0.00016361,0.00023151,0.07832509,-0.00057240,-0.00045516,-0
 .00028077,0.00119207,0.00166202,0.00128353,-0.00239744,0.00313638,0.00
 376379,-0.00072114,-0.00036828,0.00053673,0.00033467,-0.00031640,0.000
 30533,0.00145711,-0.00176004,0.00485725,0.00914301,-0.03562176,-0.0246
 4078,0.05317690,-0.12288892,-0.11549559,-0.00937156,0.00631248,0.01047
 965,-0.00003101,-0.00017320,-0.00035886,0.00026200,0.00029123,0.000286
 29,0.00003777,0.00019961,0.00000711,-0.00013241,0.00017482,-0.00015231
 ,-0.00009584,0.00008185,-0.00006599,0.00030519,-0.00064321,-0.00062482
 ,0.00025858,-0.00104806,-0.00106561,-0.05276568,0.15126901,-0.00081562
 ,0.00110121,-0.00050210,0.00110207,-0.00452379,0.00040282,0.00612353,-
 0.00676750,-0.01383105,0.00219136,0.00139288,-0.00104765,-0.00001064,0
 .00039182,0.00013161,-0.00028233,0.00180471,-0.00011490,-0.00366380,0.
 00875051,0.00963927,0.07331781,-0.12487566,-0.21644618,0.00821048,0.00
 410780,-0.00656478,0.00004953,0.00103561,0.00031363,-0.00050020,-0.000
 78265,-0.00072794,0.00004463,-0.00012541,-0.00004976,0.00006417,-0.000
 12025,0.00011677,-0.00009215,-0.00014172,0.00012478,-0.00014117,0.0001
 3019,0.00014846,-0.00003560,0.00034413,0.00034500,-0.08354419,0.118392
 03,0.22909294,-0.00001104,0.00107281,-0.00112867,-0.00217873,-0.004780
 58,0.00252620,-0.02559794,0.01619329,0.00956440,0.00391386,0.00085565,
 0.00049668,-0.00039005,-0.00023034,-0.00007978,-0.00061652,-0.00026860
 ,-0.00001640,0.00330703,0.00154907,-0.00045768,-0.01963614,0.00892695,
 0.00604168,-0.18771265,0.15186561,0.08286274,0.00015046,0.00021587,-0.
 00006209,0.00020109,-0.00089253,-0.00144101,0.00053920,0.00090394,0.00
 043885,0.00005359,0.00005137,0.00003822,0.00012139,0.00011384,-0.00001
 665,0.00084666,-0.00028825,-0.00005633,0.00028923,0.00004989,-0.000179
 69,-0.00052000,-0.00007982,-0.00201790,0.22724056,-0.00022715,-0.00006
 933,-0.00012933,0.00289154,-0.00160572,0.00153020,-0.01281131,-0.00427
 743,-0.00303253,-0.00141436,0.00154393,-0.00024049,-0.00029963,0.00019
 101,-0.00004825,-0.00155158,-0.00006185,0.00018812,0.00229907,0.000497
 18,-0.00016867,-0.02204601,0.00631352,0.00895812,0.20899567,-0.2011605
 1,-0.09752167,-0.00046199,0.00063097,-0.00005817,0.00034280,0.00053225
 ,0.00025324,-0.00015210,-0.00034037,-0.00007130,0.00005680,0.00006663,
 -0.00001016,0.00016659,-0.00009464,0.00007526,0.00024121,-0.00197942,-
 0.00015204,0.00060913,0.00021833,0.00015221,-0.00138050,0.00014763,-0.
 00011389,-0.17525817,0.19944779,-0.00086830,0.00231182,-0.00192425,-0.
 00485562,-0.00478212,0.00023348,-0.02109088,0.01963148,0.00825201,0.00
 054326,0.00059277,0.00195534,0.00000414,-0.00033536,-0.00009066,0.0000
 5218,0.00116800,0.00105093,-0.00503701,-0.00116102,0.00151280,0.018572
 54,-0.02683505,-0.01402119,0.10246498,-0.08484639,-0.08664475,0.000324
 02,0.00022956,0.00005869,0.00075195,-0.00035884,-0.00098888,0.00021655
 ,0.00044837,0.00012782,-0.00003925,0.00000926,-0.00003257,-0.00000648,
 0.00019797,-0.00020825,-0.00009945,0.00050004,0.00051210,-0.00009871,0
 .00006715,0.00003493,0.00567862,0.00277302,-0.00103092,-0.09651255,0.0
 9038934,0.09120337\\0.00000572,0.00000187,-0.00001185,-0.00003156,0.00
 002587,0.00002712,0.00008389,-0.00001175,0.00004177,-0.00001026,-0.000
 01206,0.00000339,-0.00002246,0.00001470,-0.00001678,0.00000397,0.00001
 393,0.00003256,-0.00000645,-0.00003651,-0.00000139,-0.00001456,0.00005
 767,-0.00002877,-0.00005725,-0.00003744,-0.00003742,0.00000806,-0.0000
 0822,-0.00001088,0.00000219,-0.00000028,0.00000017,0.00000276,0.000002
 41,-0.00000070,0.00000673,-0.00000327,-0.00000588,0.00000953,-0.000004
 23,0.00000003,-0.00000576,0.00000114,-0.00000466,0.00000274,-0.0000095
 3,-0.00000724,0.00001025,-0.00001104,0.00000328,0.00001246,0.00001674,
 0.00001725\\\@


 HONESTY IN A LAWYER IS LIKE A HEN'S HIND LEGS.
  -- MAGNUS OLESON, LAKE WOBEGON PATRIARCH, C.1875
 Job cpu time:       0 days  1 hours 50 minutes 40.6 seconds.
 Elapsed time:       0 days  0 hours 27 minutes 40.9 seconds.
 File lengths (MBytes):  RWF=    130 Int=      0 D2E=      0 Chk=      8 Scr=      1
 Normal termination of Gaussian 16 at Sun Jul  3 19:56:07 2022.
### All Done ###
