### Starting Gaussian ###
 Entering Gaussian System, Link 0=g16
 Initial command:
 /cluster/software/gaussian/gaussian-16-A.03/avx2/g16/l1.exe "/local/scratch/cz9n3/Gau-7781.inp" -scrdir="/local/scratch/cz9n3/"
 Entering Link 1 = /cluster/software/gaussian/gaussian-16-A.03/avx2/g16/l1.exe PID=      7782.
  
 Copyright (c) 1988,1990,1992,1993,1995,1998,2003,2009,2016,
            Gaussian, Inc.  All Rights Reserved.
  
 This is part of the Gaussian(R) 16 program.  It is based on
 the Gaussian(R) 09 system (copyright 2009, Gaussian, Inc.),
 the Gaussian(R) 03 system (copyright 2003, Gaussian, Inc.),
 the Gaussian(R) 98 system (copyright 1998, Gaussian, Inc.),
 the Gaussian(R) 94 system (copyright 1995, Gaussian, Inc.),
 the Gaussian 92(TM) system (copyright 1992, Gaussian, Inc.),
 the Gaussian 90(TM) system (copyright 1990, Gaussian, Inc.),
 the Gaussian 88(TM) system (copyright 1988, Gaussian, Inc.),
 the Gaussian 86(TM) system (copyright 1986, Carnegie Mellon
 University), and the Gaussian 82(TM) system (copyright 1983,
 Carnegie Mellon University). Gaussian is a federally registered
 trademark of Gaussian, Inc.
  
 This software contains proprietary and confidential information,
 including trade secrets, belonging to Gaussian, Inc.
  
 This software is provided under written license and may be
 used, copied, transmitted, or stored only in accord with that
 written license.
  
 The following legend is applicable only to US Government
 contracts under FAR:
  
                    RESTRICTED RIGHTS LEGEND
  
 Use, reproduction and disclosure by the US Government is
 subject to restrictions as set forth in subparagraphs (a)
 and (c) of the Commercial Computer Software - Restricted
 Rights clause in FAR 52.227-19.
  
 Gaussian, Inc.
 340 Quinnipiac St., Bldg. 40, Wallingford CT 06492
  
  
 ---------------------------------------------------------------
 Warning -- This program may not be used in any manner that
 competes with the business of Gaussian, Inc. or will provide
 assistance to any competitor of Gaussian, Inc.  The licensee
 of this program is prohibited from giving any competitor of
 Gaussian, Inc. access to this program.  By using this program,
 the user acknowledges that Gaussian, Inc. is engaged in the
 business of creating and licensing software in the field of
 computational chemistry and represents and warrants to the
 licensee that it is not a competitor of Gaussian, Inc. and that
 it will not use this program in any manner prohibited above.
 ---------------------------------------------------------------
  

 Cite this work as:
 Gaussian 16, Revision A.03,
 M. J. Frisch, G. W. Trucks, H. B. Schlegel, G. E. Scuseria, 
 M. A. Robb, J. R. Cheeseman, G. Scalmani, V. Barone, 
 G. A. Petersson, H. Nakatsuji, X. Li, M. Caricato, A. V. Marenich, 
 J. Bloino, B. G. Janesko, R. Gomperts, B. Mennucci, H. P. Hratchian, 
 J. V. Ortiz, A. F. Izmaylov, J. L. Sonnenberg, D. Williams-Young, 
 F. Ding, F. Lipparini, F. Egidi, J. Goings, B. Peng, A. Petrone, 
 T. Henderson, D. Ranasinghe, V. G. Zakrzewski, J. Gao, N. Rega, 
 G. Zheng, W. Liang, M. Hada, M. Ehara, K. Toyota, R. Fukuda, 
 J. Hasegawa, M. Ishida, T. Nakajima, Y. Honda, O. Kitao, H. Nakai, 
 T. Vreven, K. Throssell, J. A. Montgomery, Jr., J. E. Peralta, 
 F. Ogliaro, M. J. Bearpark, J. J. Heyd, E. N. Brothers, K. N. Kudin, 
 V. N. Staroverov, T. A. Keith, R. Kobayashi, J. Normand, 
 K. Raghavachari, A. P. Rendell, J. C. Burant, S. S. Iyengar, 
 J. Tomasi, M. Cossi, J. M. Millam, M. Klene, C. Adamo, R. Cammi, 
 J. W. Ochterski, R. L. Martin, K. Morokuma, O. Farkas, 
 J. B. Foresman, and D. J. Fox, Gaussian, Inc., Wallingford CT, 2016.
 
 ******************************************
 Gaussian 16:  ES64L-G16RevA.03 25-Dec-2016
                 1-Jun-2021 
 ******************************************
 %chk=CC1NN1CNCCtN.chk
 %NProcShared=20
 Will use up to   20 processors via shared memory.
 -----------------------------
 # opt freq b3lyp/6-31g(2df,p)
 -----------------------------
 1/18=20,19=15,26=3,38=1/1,3;
 2/9=110,12=2,17=6,18=5,40=1/2;
 3/5=1,6=6,7=104,11=2,25=1,30=1,71=1,74=-5/1,2,3;
 4//1;
 5/5=2,38=5/2;
 6/7=2,8=2,9=2,10=2,28=1/1;
 7//1,2,3,16;
 1/18=20,19=15,26=3/3(2);
 2/9=110/2;
 99//99;
 2/9=110/2;
 3/5=1,6=6,7=104,11=2,25=1,30=1,71=1,74=-5/1,2,3;
 4/5=5,16=3,69=1/1;
 5/5=2,38=5/2;
 7//1,2,3,16;
 1/18=20,19=15,26=3/3(-5);
 2/9=110/2;
 6/7=2,8=2,9=2,10=2,19=2,28=1/1;
 99/9=1/99;
 -------------------
 Title Card Required
 -------------------
 Symbolic Z-matrix:
 Charge =  0 Multiplicity = 1
 C                     1.0935    0.06683   0.00044 
 C                     2.58123   0.16578   0.04877 
 N                     3.40994  -0.5396   -0.9191 
 N                     3.26425   0.88425  -1.02608 
 C                     4.52886   1.52289  -0.64194 
 N                     4.3266    2.9654   -0.7355 
 C                     5.53426   3.74134  -0.40772 
 C                     5.26717   5.23576  -0.48379 
 N                     5.04559   6.4755   -0.54689 
 H                     0.72632  -0.56424   0.8174 
 H                     0.72157  -0.35445  -0.9399 
 H                     0.64991   1.06056   0.12459 
 H                     2.9648    0.22354   1.05839 
 H                     2.84035  -0.98796  -1.63967 
 H                     5.31027   1.22126  -1.35047 
 H                     4.85936   1.24969   0.3689 
 H                     3.55966   3.21576  -0.11565 
 H                     6.33879   3.4966   -1.10996 
 H                     5.87427   3.50242   0.60633 
 

 GradGradGradGradGradGradGradGradGradGradGradGradGradGradGradGradGradGrad
 Berny optimization.
 Initialization pass.
                           ----------------------------
                           !    Initial Parameters    !
                           ! (Angstroms and Degrees)  !
 --------------------------                            --------------------------
 ! Name  Definition              Value          Derivative Info.                !
 --------------------------------------------------------------------------------
 ! R1    R(1,2)                  1.4918         estimate D2E/DX2                !
 ! R2    R(1,10)                 1.0957         estimate D2E/DX2                !
 ! R3    R(1,11)                 1.0955         estimate D2E/DX2                !
 ! R4    R(1,12)                 1.0953         estimate D2E/DX2                !
 ! R5    R(2,3)                  1.4564         estimate D2E/DX2                !
 ! R6    R(2,4)                  1.4622         estimate D2E/DX2                !
 ! R7    R(2,13)                 1.0816         estimate D2E/DX2                !
 ! R8    R(3,4)                  1.4353         estimate D2E/DX2                !
 ! R9    R(3,14)                 1.0221         estimate D2E/DX2                !
 ! R10   R(4,5)                  1.4679         estimate D2E/DX2                !
 ! R11   R(5,6)                  1.4596         estimate D2E/DX2                !
 ! R12   R(5,15)                 1.0971         estimate D2E/DX2                !
 ! R13   R(5,16)                 1.098          estimate D2E/DX2                !
 ! R14   R(6,7)                  1.4724         estimate D2E/DX2                !
 ! R15   R(6,17)                 1.0174         estimate D2E/DX2                !
 ! R16   R(7,8)                  1.52           estimate D2E/DX2                !
 ! R17   R(7,18)                 1.0956         estimate D2E/DX2                !
 ! R18   R(7,19)                 1.0959         estimate D2E/DX2                !
 ! R19   R(8,9)                  1.261          estimate D2E/DX2                !
 ! A1    A(2,1,10)             110.3804         estimate D2E/DX2                !
 ! A2    A(2,1,11)             113.0733         estimate D2E/DX2                !
 ! A3    A(2,1,12)             109.8792         estimate D2E/DX2                !
 ! A4    A(10,1,11)            107.7439         estimate D2E/DX2                !
 ! A5    A(10,1,12)            107.597          estimate D2E/DX2                !
 ! A6    A(11,1,12)            107.9808         estimate D2E/DX2                !
 ! A7    A(1,2,3)              120.9177         estimate D2E/DX2                !
 ! A8    A(1,2,4)              118.3347         estimate D2E/DX2                !
 ! A9    A(1,2,13)             112.7964         estimate D2E/DX2                !
 ! A10   A(3,2,13)             116.3865         estimate D2E/DX2                !
 ! A11   A(4,2,13)             119.623          estimate D2E/DX2                !
 ! A12   A(2,3,14)             111.3384         estimate D2E/DX2                !
 ! A13   A(4,3,14)             109.0298         estimate D2E/DX2                !
 ! A14   A(2,4,5)              115.0775         estimate D2E/DX2                !
 ! A15   A(3,4,5)              108.9448         estimate D2E/DX2                !
 ! A16   A(4,5,6)              107.0868         estimate D2E/DX2                !
 ! A17   A(4,5,15)             108.9654         estimate D2E/DX2                !
 ! A18   A(4,5,16)             113.0777         estimate D2E/DX2                !
 ! A19   A(6,5,15)             109.209          estimate D2E/DX2                !
 ! A20   A(6,5,16)             110.2801         estimate D2E/DX2                !
 ! A21   A(15,5,16)            108.165          estimate D2E/DX2                !
 ! A22   A(5,6,7)              113.1342         estimate D2E/DX2                !
 ! A23   A(5,6,17)             107.9749         estimate D2E/DX2                !
 ! A24   A(7,6,17)             110.6695         estimate D2E/DX2                !
 ! A25   A(6,7,8)              111.2757         estimate D2E/DX2                !
 ! A26   A(6,7,18)             109.992          estimate D2E/DX2                !
 ! A27   A(6,7,19)             110.2167         estimate D2E/DX2                !
 ! A28   A(8,7,18)             108.4565         estimate D2E/DX2                !
 ! A29   A(8,7,19)             108.371          estimate D2E/DX2                !
 ! A30   A(18,7,19)            108.4554         estimate D2E/DX2                !
 ! A31   L(7,8,9,12,-1)        179.9996         estimate D2E/DX2                !
 ! A32   L(7,8,9,12,-2)        179.9997         estimate D2E/DX2                !
 ! D1    D(10,1,2,3)           106.4929         estimate D2E/DX2                !
 ! D2    D(10,1,2,4)           175.342          estimate D2E/DX2                !
 ! D3    D(10,1,2,13)          -37.9602         estimate D2E/DX2                !
 ! D4    D(11,1,2,3)           -14.2803         estimate D2E/DX2                !
 ! D5    D(11,1,2,4)            54.5688         estimate D2E/DX2                !
 ! D6    D(11,1,2,13)         -158.7334         estimate D2E/DX2                !
 ! D7    D(12,1,2,3)          -134.9995         estimate D2E/DX2                !
 ! D8    D(12,1,2,4)           -66.1505         estimate D2E/DX2                !
 ! D9    D(12,1,2,13)           80.5473         estimate D2E/DX2                !
 ! D10   D(1,2,3,14)             6.0437         estimate D2E/DX2                !
 ! D11   D(13,2,3,14)          149.2963         estimate D2E/DX2                !
 ! D12   D(1,2,4,5)            150.7167         estimate D2E/DX2                !
 ! D13   D(13,2,4,5)             6.3272         estimate D2E/DX2                !
 ! D14   D(14,3,4,5)          -146.9656         estimate D2E/DX2                !
 ! D15   D(2,4,5,6)           -113.373          estimate D2E/DX2                !
 ! D16   D(2,4,5,15)           128.6186         estimate D2E/DX2                !
 ! D17   D(2,4,5,16)             8.304          estimate D2E/DX2                !
 ! D18   D(3,4,5,6)           -178.7284         estimate D2E/DX2                !
 ! D19   D(3,4,5,15)            63.2632         estimate D2E/DX2                !
 ! D20   D(3,4,5,16)           -57.0513         estimate D2E/DX2                !
 ! D21   D(4,5,6,7)           -178.5627         estimate D2E/DX2                !
 ! D22   D(4,5,6,17)            58.6071         estimate D2E/DX2                !
 ! D23   D(15,5,6,7)           -60.7133         estimate D2E/DX2                !
 ! D24   D(15,5,6,17)          176.4565         estimate D2E/DX2                !
 ! D25   D(16,5,6,7)            58.0177         estimate D2E/DX2                !
 ! D26   D(16,5,6,17)          -64.8126         estimate D2E/DX2                !
 ! D27   D(5,6,7,8)           -178.5467         estimate D2E/DX2                !
 ! D28   D(5,6,7,18)            61.242          estimate D2E/DX2                !
 ! D29   D(5,6,7,19)           -58.2933         estimate D2E/DX2                !
 ! D30   D(17,6,7,8)           -57.2242         estimate D2E/DX2                !
 ! D31   D(17,6,7,18)         -177.4355         estimate D2E/DX2                !
 ! D32   D(17,6,7,19)           63.0292         estimate D2E/DX2                !
 --------------------------------------------------------------------------------
 Trust Radius=3.00D-01 FncErr=1.00D-07 GrdErr=1.00D-06 EigMax=2.50D+02 EigMin=1.00D-04
 Number of steps in this run=     93 maximum allowed number of steps=    114.
 GradGradGradGradGradGradGradGradGradGradGradGradGradGradGradGradGradGrad

                          Input orientation:                          
 ---------------------------------------------------------------------
 Center     Atomic      Atomic             Coordinates (Angstroms)
 Number     Number       Type             X           Y           Z
 ---------------------------------------------------------------------
      1          6           0        1.093500    0.066830    0.000440
      2          6           0        2.581230    0.165780    0.048770
      3          7           0        3.409940   -0.539600   -0.919100
      4          7           0        3.264250    0.884250   -1.026080
      5          6           0        4.528860    1.522890   -0.641940
      6          7           0        4.326600    2.965400   -0.735500
      7          6           0        5.534260    3.741340   -0.407720
      8          6           0        5.267170    5.235760   -0.483790
      9          7           0        5.045590    6.475500   -0.546890
     10          1           0        0.726320   -0.564240    0.817400
     11          1           0        0.721570   -0.354450   -0.939900
     12          1           0        0.649910    1.060560    0.124590
     13          1           0        2.964800    0.223540    1.058390
     14          1           0        2.840350   -0.987960   -1.639670
     15          1           0        5.310270    1.221260   -1.350470
     16          1           0        4.859360    1.249690    0.368900
     17          1           0        3.559660    3.215760   -0.115650
     18          1           0        6.338790    3.496600   -1.109960
     19          1           0        5.874270    3.502420    0.606330
 ---------------------------------------------------------------------
                    Distance matrix (angstroms):
                    1          2          3          4          5
     1  C    0.000000
     2  C    1.491800   0.000000
     3  N    2.564996   1.456397   0.000000
     4  N    2.536548   1.462196   1.435277   0.000000
     5  C    3.786088   2.472264   2.362766   1.467877   0.000000
     6  N    4.404118   3.391057   3.627534   2.354615   1.459622
     7  C    5.778319   4.659764   4.806318   3.701118   2.446877
     8  C    6.661219   5.762169   6.082235   4.820934   3.788867
     9  N    7.549148   6.800033   7.212872   5.887688   4.980401
    10  H    1.095671   2.136449   3.196538   3.455088   4.576581
    11  H    1.095467   2.169434   2.694818   2.829669   4.255425
    12  H    1.095301   2.129877   3.356720   2.861800   3.980901
    13  H    2.155361   1.081570   2.165871   2.207085   2.650607
    14  H    2.618020   2.061332   1.022096   2.015280   3.186048
    15  H    4.575895   3.243389   2.626397   2.098810   1.097086
    16  H    3.964420   2.543073   2.638432   2.150324   1.098028
    17  H    4.001398   3.207294   3.843264   2.520335   2.020430
    18  H    6.364698   5.153278   4.990541   4.035369   2.718533
    19  H    5.918289   4.721033   4.973709   4.041260   2.699416
                    6          7          8          9         10
     6  N    0.000000
     7  C    1.472401   0.000000
     8  C    2.470337   1.520005   0.000000
     9  N    3.587941   2.780971   1.260966   0.000000
    10  H    5.275592   6.569264   7.480135   8.371100   0.000000
    11  H    4.905041   6.341979   7.219485   8.093196   1.769785
    12  H    4.229210   5.597036   6.254719   7.006744   1.767993
    13  H    3.548286   4.596359   5.727266   6.781859   2.385260
    14  H    4.319203   5.580424   6.779396   7.858784   3.268923
    15  H    2.094712   2.699954   4.107213   5.321920   5.375897
    16  H    2.108837   2.695728   4.096601   5.308714   4.535804
    17  H    1.017394   2.064118   2.670490   3.608304   4.815267
    18  H    2.114545   1.095585   2.136618   3.295946   7.190616
    19  H    2.117588   1.095896   2.135743   3.294819   6.563815
                   11         12         13         14         15
    11  H    0.000000
    12  H    1.772153   0.000000
    13  H    3.059300   2.632736   0.000000
    14  H    2.319535   3.479522   2.960194   0.000000
    15  H    4.869045   4.890867   3.507033   3.326379   0.000000
    16  H    4.626827   4.220773   2.262242   3.621855   1.777741
    17  H    4.634711   3.628946   3.268885   4.528941   2.927020
    18  H    6.812684   6.310448   5.176724   5.712351   2.508559
    19  H    6.619410   5.786941   4.406861   5.866234   3.057916
                   16         17         18         19
    16  H    0.000000
    17  H    2.406126   0.000000
    18  H    3.069910   2.964977   0.000000
    19  H    2.482178   2.441485   1.778051   0.000000
 Stoichiometry    C5H10N4
 Framework group  C1[X(C5H10N4)]
 Deg. of freedom    51
 Full point group                 C1      NOp   1
 Largest Abelian subgroup         C1      NOp   1
 Largest concise Abelian subgroup C1      NOp   1
                         Standard orientation:                         
 ---------------------------------------------------------------------
 Center     Atomic      Atomic             Coordinates (Angstroms)
 Number     Number       Type             X           Y           Z
 ---------------------------------------------------------------------
      1          6           0       -3.146515    1.441107    0.036502
      2          6           0       -2.334945    0.256313    0.440342
      3          7           0       -2.524805   -1.035714   -0.204416
      4          7           0       -1.351341   -0.266590   -0.506819
      5          6           0       -0.185117   -0.916898    0.102842
      6          7           0        0.976720   -0.087918   -0.202812
      7          6           0        2.236154   -0.640695    0.322762
      8          6           0        3.411253    0.271954    0.011911
      9          7           0        4.386087    1.029077   -0.245961
     10          1           0       -3.894082    1.671017    0.803821
     11          1           0       -3.675237    1.296235   -0.911925
     12          1           0       -2.498762    2.318132   -0.068030
     13          1           0       -2.119204    0.237632    1.500012
     14          1           0       -3.178417   -0.968214   -0.987306
     15          1           0       -0.051435   -1.906958   -0.350487
     16          1           0       -0.284063   -1.048044    1.188510
     17          1           0        0.807294    0.841538    0.174677
     18          1           0        2.430621   -1.621368   -0.125313
     19          1           0        2.171689   -0.762642    1.409942
 ---------------------------------------------------------------------
 Rotational constants (GHZ):           4.6220291           0.5873265           0.5407408
 Standard basis: 6-31G(2df,p) (6D, 7F)
 There are   329 symmetry adapted cartesian basis functions of A   symmetry.
 There are   302 symmetry adapted basis functions of A   symmetry.
   302 basis functions,   466 primitive gaussians,   329 cartesian basis functions
    34 alpha electrons       34 beta electrons
       nuclear repulsion energy       414.7748668368 Hartrees.
 NAtoms=   19 NActive=   19 NUniq=   19 SFac= 1.00D+00 NAtFMM=   60 NAOKFM=F Big=F
 Integral buffers will be    131072 words long.
 Raffenetti 2 integral format.
 Two-electron integral symmetry is turned on.
 One-electron integrals computed using PRISM.
 PrsmSu:  requested number of processors reduced to:  13 ShMem   1 Linda.
 NBasis=   302 RedAO= T EigKep=  2.11D-04  NBF=   302
 NBsUse=   302 1.00D-06 EigRej= -1.00D+00 NBFU=   302
 ExpMin= 1.61D-01 ExpMax= 4.17D+03 ExpMxC= 6.27D+02 IAcc=3 IRadAn=         5 AccDes= 0.00D+00
 Harris functional with IExCor=  402 and IRadAn=       5 diagonalized for initial guess.
 HarFok:  IExCor=  402 AccDes= 0.00D+00 IRadAn=         5 IDoV= 1 UseB2=F ITyADJ=14
 ICtDFT=  3500011 ScaDFX=  1.000000  1.000000  1.000000  1.000000
 FoFCou: FMM=F IPFlag=           0 FMFlag=      100000 FMFlg1=           0
         NFxFlg=           0 DoJE=T BraDBF=F KetDBF=T FulRan=T
         wScrn=  0.000000 ICntrl=       500 IOpCl=  0 I1Cent=   200000004 NGrid=           0
         NMat0=    1 NMatS0=      1 NMatT0=    0 NMatD0=    1 NMtDS0=    0 NMtDT0=    0
 Petite list used in FoFCou.
 Requested convergence on RMS density matrix=1.00D-08 within 128 cycles.
 Requested convergence on MAX density matrix=1.00D-06.
 Requested convergence on             energy=1.00D-06.
 No special actions if energy rises.
 Integral accuracy reduced to 1.0D-05 until final iterations.
 Initial convergence to 1.0D-05 achieved.  Increase integral accuracy.
 SCF Done:  E(RB3LYP) =  -415.453546194     A.U. after   14 cycles
            NFock= 14  Conv=0.41D-08     -V/T= 2.0087

 **********************************************************************

            Population analysis using the SCF density.

 **********************************************************************

 Orbital symmetries:
       Occupied  (A) (A) (A) (A) (A) (A) (A) (A) (A) (A) (A) (A)
                 (A) (A) (A) (A) (A) (A) (A) (A) (A) (A) (A) (A)
                 (A) (A) (A) (A) (A) (A) (A) (A) (A) (A)
       Virtual   (A) (A) (A) (A) (A) (A) (A) (A) (A) (A) (A) (A)
                 (A) (A) (A) (A) (A) (A) (A) (A) (A) (A) (A) (A)
                 (A) (A) (A) (A) (A) (A) (A) (A) (A) (A) (A) (A)
                 (A) (A) (A) (A) (A) (A) (A) (A) (A) (A) (A) (A)
                 (A) (A) (A) (A) (A) (A) (A) (A) (A) (A) (A) (A)
                 (A) (A) (A) (A) (A) (A) (A) (A) (A) (A) (A) (A)
                 (A) (A) (A) (A) (A) (A) (A) (A) (A) (A) (A) (A)
                 (A) (A) (A) (A) (A) (A) (A) (A) (A) (A) (A) (A)
                 (A) (A) (A) (A) (A) (A) (A) (A) (A) (A) (A) (A)
                 (A) (A) (A) (A) (A) (A) (A) (A) (A) (A) (A) (A)
                 (A) (A) (A) (A) (A) (A) (A) (A) (A) (A) (A) (A)
                 (A) (A) (A) (A) (A) (A) (A) (A) (A) (A) (A) (A)
                 (A) (A) (A) (A) (A) (A) (A) (A) (A) (A) (A) (A)
                 (A) (A) (A) (A) (A) (A) (A) (A) (A) (A) (A) (A)
                 (A) (A) (A) (A) (A) (A) (A) (A) (A) (A) (A) (A)
                 (A) (A) (A) (A) (A) (A) (A) (A) (A) (A) (A) (A)
                 (A) (A) (A) (A) (A) (A) (A) (A) (A) (A) (A) (A)
                 (A) (A) (A) (A) (A) (A) (A) (A) (A) (A) (A) (A)
                 (A) (A) (A) (A) (A) (A) (A) (A) (A) (A) (A) (A)
                 (A) (A) (A) (A) (A) (A) (A) (A) (A) (A) (A) (A)
                 (A) (A) (A) (A) (A) (A) (A) (A) (A) (A) (A) (A)
                 (A) (A) (A) (A) (A) (A) (A) (A) (A) (A) (A) (A)
                 (A) (A) (A) (A)
 The electronic state is 1-A.
 Alpha  occ. eigenvalues --  -14.36529 -14.35772 -14.35573 -14.33880 -10.27148
 Alpha  occ. eigenvalues --  -10.25349 -10.25102 -10.24604 -10.19535  -1.05144
 Alpha  occ. eigenvalues --   -0.93224  -0.86249  -0.78723  -0.75407  -0.71246
 Alpha  occ. eigenvalues --   -0.64634  -0.60496  -0.54459  -0.50842  -0.50158
 Alpha  occ. eigenvalues --   -0.49024  -0.46417  -0.44710  -0.42717  -0.42148
 Alpha  occ. eigenvalues --   -0.40686  -0.36978  -0.36175  -0.35377  -0.31322
 Alpha  occ. eigenvalues --   -0.31027  -0.28434  -0.25117  -0.24466
 Alpha virt. eigenvalues --   -0.00563   0.00725   0.06921   0.08268   0.08424
 Alpha virt. eigenvalues --    0.09414   0.10032   0.12399   0.12780   0.14661
 Alpha virt. eigenvalues --    0.15817   0.16116   0.16431   0.18059   0.18746
 Alpha virt. eigenvalues --    0.20645   0.22477   0.24057   0.26457   0.31591
 Alpha virt. eigenvalues --    0.34107   0.38662   0.42856   0.44449   0.45864
 Alpha virt. eigenvalues --    0.48779   0.49633   0.51110   0.51743   0.51973
 Alpha virt. eigenvalues --    0.55260   0.55963   0.57497   0.58619   0.59280
 Alpha virt. eigenvalues --    0.60615   0.62174   0.65116   0.65931   0.67065
 Alpha virt. eigenvalues --    0.67723   0.68725   0.68784   0.72377   0.72850
 Alpha virt. eigenvalues --    0.73371   0.73975   0.74527   0.74662   0.76543
 Alpha virt. eigenvalues --    0.76824   0.77595   0.78752   0.80138   0.81142
 Alpha virt. eigenvalues --    0.81634   0.82166   0.82991   0.83476   0.85760
 Alpha virt. eigenvalues --    0.86161   0.87158   0.89401   0.95861   1.00161
 Alpha virt. eigenvalues --    1.06142   1.07592   1.08854   1.12729   1.13199
 Alpha virt. eigenvalues --    1.14293   1.16074   1.17562   1.21257   1.23004
 Alpha virt. eigenvalues --    1.24769   1.25818   1.27920   1.30280   1.33225
 Alpha virt. eigenvalues --    1.35003   1.38485   1.39800   1.40979   1.43644
 Alpha virt. eigenvalues --    1.46548   1.48426   1.50894   1.52197   1.56973
 Alpha virt. eigenvalues --    1.59858   1.60747   1.62415   1.62709   1.64427
 Alpha virt. eigenvalues --    1.65868   1.69580   1.70136   1.74799   1.77383
 Alpha virt. eigenvalues --    1.79918   1.83159   1.84199   1.85415   1.87702
 Alpha virt. eigenvalues --    1.92767   1.93725   1.97815   1.99685   2.01118
 Alpha virt. eigenvalues --    2.04370   2.19133   2.20024   2.21781   2.23624
 Alpha virt. eigenvalues --    2.25747   2.32141   2.33378   2.37725   2.39077
 Alpha virt. eigenvalues --    2.41968   2.44987   2.47662   2.48395   2.57051
 Alpha virt. eigenvalues --    2.57464   2.59709   2.65378   2.67589   2.67948
 Alpha virt. eigenvalues --    2.69999   2.72844   2.76821   2.77402   2.78067
 Alpha virt. eigenvalues --    2.79256   2.82962   2.83576   2.86650   2.88224
 Alpha virt. eigenvalues --    2.90663   2.91982   2.92570   2.94266   2.98679
 Alpha virt. eigenvalues --    2.99900   3.00295   3.03621   3.06607   3.08732
 Alpha virt. eigenvalues --    3.14650   3.15177   3.18256   3.18815   3.22894
 Alpha virt. eigenvalues --    3.26910   3.27892   3.31205   3.33405   3.35807
 Alpha virt. eigenvalues --    3.39103   3.41998   3.43725   3.45389   3.48189
 Alpha virt. eigenvalues --    3.51428   3.54235   3.59244   3.60443   3.63362
 Alpha virt. eigenvalues --    3.63959   3.64556   3.66015   3.66951   3.68790
 Alpha virt. eigenvalues --    3.69904   3.70458   3.74635   3.80157   3.82605
 Alpha virt. eigenvalues --    3.84878   3.87508   3.89263   3.91361   3.93911
 Alpha virt. eigenvalues --    3.96734   4.01415   4.02640   4.06808   4.09868
 Alpha virt. eigenvalues --    4.11680   4.13538   4.17781   4.20290   4.22046
 Alpha virt. eigenvalues --    4.25469   4.26450   4.27429   4.28503   4.30788
 Alpha virt. eigenvalues --    4.32630   4.36030   4.39284   4.39823   4.40468
 Alpha virt. eigenvalues --    4.43210   4.44732   4.47766   4.50419   4.51378
 Alpha virt. eigenvalues --    4.52688   4.54532   4.56260   4.59109   4.60056
 Alpha virt. eigenvalues --    4.60097   4.62974   4.65589   4.67066   4.69248
 Alpha virt. eigenvalues --    4.70883   4.72122   4.72921   4.74774   4.76787
 Alpha virt. eigenvalues --    4.77301   4.78660   4.80290   4.81110   4.84284
 Alpha virt. eigenvalues --    4.87053   4.88985   4.91389   4.93806   4.96463
 Alpha virt. eigenvalues --    4.99549   5.01102   5.05021   5.05294   5.10401
 Alpha virt. eigenvalues --    5.10770   5.13650   5.17908   5.23446   5.29966
 Alpha virt. eigenvalues --    5.34320   5.38504   5.39757   5.48176   5.53637
 Alpha virt. eigenvalues --    5.59029   5.64486   5.68921   5.86837   6.01992
 Alpha virt. eigenvalues --   10.10941  10.19479  10.57311  11.21169  11.30358
 Alpha virt. eigenvalues --   11.40738  11.45958  11.70116  11.92172  12.44094
 Alpha virt. eigenvalues --   13.32708  14.06393  17.69718
          Condensed to atoms (all electrons):
               1          2          3          4          5          6
     1  C    5.013424   0.408358  -0.024574  -0.017079   0.003629   0.000183
     2  C    0.408358   4.745820   0.312018   0.282105  -0.068594   0.002375
     3  N   -0.024574   0.312018   6.588775   0.158510  -0.043013   0.002257
     4  N   -0.017079   0.282105   0.158510   6.490530   0.378684  -0.030917
     5  C    0.003629  -0.068594  -0.043013   0.378684   4.822772   0.372239
     6  N    0.000183   0.002375   0.002257  -0.030917   0.372239   6.439321
     7  C    0.000002  -0.000178  -0.000139   0.003026  -0.060977   0.351125
     8  C   -0.000000   0.000003   0.000000  -0.000029   0.002170  -0.034174
     9  N    0.000000  -0.000000  -0.000000  -0.000000  -0.000009  -0.001643
    10  H    0.367586  -0.019204  -0.000210   0.002759  -0.000183  -0.000001
    11  H    0.366458  -0.013362  -0.006749  -0.002765   0.000001  -0.000006
    12  H    0.367456  -0.024967   0.003949  -0.003714   0.000354  -0.000078
    13  H   -0.069862   0.382747  -0.021629  -0.034638  -0.003861  -0.000889
    14  H   -0.006944  -0.049981   0.336612  -0.042773   0.003146  -0.000189
    15  H   -0.000201   0.005430  -0.002354  -0.006642   0.341665  -0.019933
    16  H    0.000332  -0.005300   0.007520  -0.046801   0.357242  -0.054232
    17  H   -0.000242   0.002498  -0.000273   0.004746  -0.053467   0.340064
    18  H   -0.000000  -0.000002  -0.000006   0.000137  -0.003404  -0.025127
    19  H    0.000001   0.000012   0.000019  -0.000186  -0.002620  -0.040107
               7          8          9         10         11         12
     1  C    0.000002  -0.000000   0.000000   0.367586   0.366458   0.367456
     2  C   -0.000178   0.000003  -0.000000  -0.019204  -0.013362  -0.024967
     3  N   -0.000139   0.000000  -0.000000  -0.000210  -0.006749   0.003949
     4  N    0.003026  -0.000029  -0.000000   0.002759  -0.002765  -0.003714
     5  C   -0.060977   0.002170  -0.000009  -0.000183   0.000001   0.000354
     6  N    0.351125  -0.034174  -0.001643  -0.000001  -0.000006  -0.000078
     7  C    4.947050   0.380664  -0.041329   0.000000  -0.000000   0.000002
     8  C    0.380664   4.465178   0.936746   0.000000   0.000000  -0.000000
     9  N   -0.041329   0.936746   6.468029  -0.000000   0.000000  -0.000000
    10  H    0.000000   0.000000  -0.000000   0.583938  -0.030418  -0.029768
    11  H   -0.000000   0.000000   0.000000  -0.030418   0.574614  -0.026328
    12  H    0.000002  -0.000000  -0.000000  -0.029768  -0.026328   0.574349
    13  H   -0.000021   0.000001  -0.000000  -0.002928   0.005174   0.002884
    14  H   -0.000002  -0.000000  -0.000000   0.000113   0.006871  -0.000160
    15  H   -0.003409   0.000226   0.000001   0.000005   0.000008  -0.000009
    16  H   -0.000900   0.000045  -0.000000   0.000006   0.000004   0.000054
    17  H   -0.043361   0.003293   0.000498   0.000008   0.000000   0.000120
    18  H    0.358091  -0.013940  -0.000067   0.000000   0.000000   0.000000
    19  H    0.350426  -0.027344  -0.000212   0.000000  -0.000000  -0.000000
              13         14         15         16         17         18
     1  C   -0.069862  -0.006944  -0.000201   0.000332  -0.000242  -0.000000
     2  C    0.382747  -0.049981   0.005430  -0.005300   0.002498  -0.000002
     3  N   -0.021629   0.336612  -0.002354   0.007520  -0.000273  -0.000006
     4  N   -0.034638  -0.042773  -0.006642  -0.046801   0.004746   0.000137
     5  C   -0.003861   0.003146   0.341665   0.357242  -0.053467  -0.003404
     6  N   -0.000889  -0.000189  -0.019933  -0.054232   0.340064  -0.025127
     7  C   -0.000021  -0.000002  -0.003409  -0.000900  -0.043361   0.358091
     8  C    0.000001  -0.000000   0.000226   0.000045   0.003293  -0.013940
     9  N   -0.000000  -0.000000   0.000001  -0.000000   0.000498  -0.000067
    10  H   -0.002928   0.000113   0.000005   0.000006   0.000008   0.000000
    11  H    0.005174   0.006871   0.000008   0.000004   0.000000   0.000000
    12  H    0.002884  -0.000160  -0.000009   0.000054   0.000120   0.000000
    13  H    0.626750   0.003503   0.000011   0.010753   0.000087  -0.000000
    14  H    0.003503   0.506067   0.000426  -0.000563  -0.000001   0.000000
    15  H    0.000011   0.000426   0.606304  -0.054313   0.006923   0.005770
    16  H    0.010753  -0.000563  -0.054313   0.698564  -0.005326  -0.001836
    17  H    0.000087  -0.000001   0.006923  -0.005326   0.513925   0.005750
    18  H   -0.000000   0.000000   0.005770  -0.001836   0.005750   0.554246
    19  H    0.000019   0.000000  -0.001835   0.012458  -0.005587  -0.046161
              19
     1  C    0.000001
     2  C    0.000012
     3  N    0.000019
     4  N   -0.000186
     5  C   -0.002620
     6  N   -0.040107
     7  C    0.350426
     8  C   -0.027344
     9  N   -0.000212
    10  H    0.000000
    11  H   -0.000000
    12  H   -0.000000
    13  H    0.000019
    14  H    0.000000
    15  H   -0.001835
    16  H    0.012458
    17  H   -0.005587
    18  H   -0.046161
    19  H    0.623732
 Mulliken charges:
               1
     1  C   -0.408523
     2  C    0.040222
     3  N   -0.310713
     4  N   -0.134954
     5  C   -0.045776
     6  N   -0.300265
     7  C   -0.240072
     8  C    0.287163
     9  N   -0.362013
    10  H    0.128298
    11  H    0.126498
    12  H    0.135857
    13  H    0.101899
    14  H    0.243873
    15  H    0.121929
    16  H    0.082296
    17  H    0.230344
    18  H    0.166550
    19  H    0.137386
 Sum of Mulliken charges =  -0.00000
 Mulliken charges with hydrogens summed into heavy atoms:
               1
     1  C   -0.017870
     2  C    0.142122
     3  N   -0.066839
     4  N   -0.134954
     5  C    0.158448
     6  N   -0.069920
     7  C    0.063864
     8  C    0.287163
     9  N   -0.362013
 Electronic spatial extent (au):  <R**2>=           1989.6392
 Charge=             -0.0000 electrons
 Dipole moment (field-independent basis, Debye):
    X=             -4.0827    Y=             -0.9832    Z=              2.0554  Tot=              4.6754
 Quadrupole moment (field-independent basis, Debye-Ang):
   XX=            -67.7357   YY=            -54.4092   ZZ=            -54.0614
   XY=            -12.3881   XZ=              4.5436   YZ=              2.4910
 Traceless Quadrupole moment (field-independent basis, Debye-Ang):
   XX=             -9.0002   YY=              4.3262   ZZ=              4.6740
   XY=            -12.3881   XZ=              4.5436   YZ=              2.4910
 Octapole moment (field-independent basis, Debye-Ang**2):
  XXX=           -135.9882  YYY=             -1.7205  ZZZ=              2.0139  XYY=             -3.5182
  XXY=            -29.1254  XXZ=              1.7484  XZZ=             -7.6897  YZZ=             -2.0742
  YYZ=             -2.2973  XYZ=             -2.3233
 Hexadecapole moment (field-independent basis, Debye-Ang**3):
 XXXX=          -2675.8843 YYYY=           -318.7631 ZZZZ=           -108.1447 XXXY=           -177.2730
 XXXZ=             72.0661 YYYX=            -25.9336 YYYZ=              7.2780 ZZZX=              6.6240
 ZZZY=              3.2052 XXYY=           -467.9472 XXZZ=           -378.3842 YYZZ=            -70.5341
 XXYZ=             24.8603 YYXZ=              6.3218 ZZXY=              0.1173
 N-N= 4.147748668368D+02 E-N=-1.795002872728D+03  KE= 4.118676736153D+02
 PrsmSu:  requested number of processors reduced to:  13 ShMem   1 Linda.
 Calling FoFJK, ICntrl=      2127 FMM=F ISym2X=0 I1Cent= 0 IOpClX= 0 NMat=1 NMatS=1 NMatT=0.
 ***** Axes restored to original set *****
 -------------------------------------------------------------------
 Center     Atomic                   Forces (Hartrees/Bohr)
 Number     Number              X              Y              Z
 -------------------------------------------------------------------
      1        6          -0.012175589    0.002652592    0.000541780
      2        6           0.002400958   -0.003946505   -0.019468879
      3        7           0.009328711   -0.024296031    0.013960790
      4        7          -0.003789956    0.014908889    0.004827303
      5        6          -0.000842842    0.011775414   -0.004360655
      6        7           0.002148494    0.006350895   -0.007393076
      7        6          -0.019774639    0.014567028    0.001935918
      8        6          -0.027197703    0.149500249   -0.009257383
      9        7           0.031949970   -0.178346210    0.009856355
     10        1           0.000412534   -0.000313285   -0.000796681
     11        1           0.001986710    0.002135452   -0.000238483
     12        1          -0.001799163   -0.000414122    0.000374942
     13        1           0.010061130    0.000588284    0.002471229
     14        1          -0.002410285    0.005521419    0.000910679
     15        1          -0.002250743   -0.000252948   -0.000053728
     16        1           0.001827183   -0.008554761    0.004196575
     17        1           0.002960100    0.003525650   -0.001140400
     18        1          -0.000926577    0.000177173   -0.000332524
     19        1           0.008091706    0.004420817    0.003966239
 -------------------------------------------------------------------
 Cartesian Forces:  Max     0.178346210 RMS     0.032182452

 GradGradGradGradGradGradGradGradGradGradGradGradGradGradGradGradGradGrad
 Berny optimization.
 FormGI is forming the generalized inverse of G from B-inverse, IUseBI=4.
 Internal  Forces:  Max     0.181451717 RMS     0.020652029
 Search for a local minimum.
 Step number   1 out of a maximum of   93
 All quantities printed in internal units (Hartrees-Bohrs-Radians)
 Mixed Optimization -- RFO/linear search
 Second derivative matrix not updated -- first step.
 ITU=  0
     Eigenvalues ---    0.00734   0.00794   0.00874   0.00903   0.02523
     Eigenvalues ---    0.02744   0.03210   0.03531   0.03531   0.04779
     Eigenvalues ---    0.05645   0.05670   0.06009   0.06797   0.07247
     Eigenvalues ---    0.07280   0.07697   0.09206   0.11146   0.12693
     Eigenvalues ---    0.12773   0.15451   0.16000   0.16000   0.16000
     Eigenvalues ---    0.16000   0.16000   0.18292   0.19262   0.21911
     Eigenvalues ---    0.22422   0.23380   0.29308   0.30366   0.32539
     Eigenvalues ---    0.33253   0.33901   0.34006   0.34140   0.34165
     Eigenvalues ---    0.34175   0.34188   0.34207   0.35454   0.35805
     Eigenvalues ---    0.35996   0.37012   0.38334   0.44005   0.44756
     Eigenvalues ---    0.79313
 RFO step:  Lambda=-4.80577288D-02 EMin= 7.34051342D-03
 Linear search not attempted -- first point.
 Iteration  1 RMS(Cart)=  0.04490753 RMS(Int)=  0.00185520
 Iteration  2 RMS(Cart)=  0.00196596 RMS(Int)=  0.00019400
 Iteration  3 RMS(Cart)=  0.00000180 RMS(Int)=  0.00019400
 Iteration  4 RMS(Cart)=  0.00000000 RMS(Int)=  0.00019400
 Variable       Old X    -DE/DX   Delta X   Delta X   Delta X     New X
                                 (Linear)    (Quad)   (Total)
    R1        2.81909   0.01128   0.00000   0.02963   0.02963   2.84873
    R2        2.07052  -0.00055   0.00000  -0.00142  -0.00142   2.06910
    R3        2.07013  -0.00129   0.00000  -0.00331  -0.00331   2.06682
    R4        2.06982   0.00040   0.00000   0.00101   0.00101   2.07083
    R5        2.75219  -0.00245   0.00000  -0.01450  -0.01440   2.73779
    R6        2.76315  -0.00726   0.00000  -0.02086  -0.02111   2.74204
    R7        2.04387   0.00591   0.00000   0.01454   0.01454   2.05842
    R8        2.71228   0.01673   0.00000   0.04856   0.04872   2.76100
    R9        1.93148  -0.00172   0.00000  -0.00353  -0.00353   1.92796
   R10        2.77389  -0.00276   0.00000  -0.00676  -0.00676   2.76712
   R11        2.75829   0.00073   0.00000   0.00173   0.00173   2.76002
   R12        2.07319  -0.00150   0.00000  -0.00386  -0.00386   2.06933
   R13        2.07497   0.00654   0.00000   0.01690   0.01690   2.09187
   R14        2.78244  -0.01017   0.00000  -0.02527  -0.02527   2.75717
   R15        1.92260  -0.00206   0.00000  -0.00415  -0.00415   1.91844
   R16        2.87239  -0.02923   0.00000  -0.08309  -0.08309   2.78930
   R17        2.07036  -0.00051   0.00000  -0.00130  -0.00130   2.06906
   R18        2.07094   0.00522   0.00000   0.01339   0.01339   2.08434
   R19        2.38288  -0.18145   0.00000  -0.21571  -0.21571   2.16717
    A1        1.92650   0.00000   0.00000   0.00079   0.00075   1.92725
    A2        1.97350  -0.00311   0.00000  -0.01621  -0.01618   1.95732
    A3        1.91775   0.00302   0.00000   0.01494   0.01494   1.93270
    A4        1.88049   0.00141   0.00000   0.00594   0.00592   1.88641
    A5        1.87792  -0.00081   0.00000  -0.00139  -0.00144   1.87648
    A6        1.88462  -0.00047   0.00000  -0.00375  -0.00369   1.88093
    A7        2.11041   0.00218   0.00000   0.02419   0.02464   2.13505
    A8        2.06533  -0.00847   0.00000  -0.02469  -0.02471   2.04062
    A9        1.96867   0.00709   0.00000   0.02728   0.02714   1.99581
   A10        2.03133  -0.00935   0.00000  -0.04585  -0.04608   1.98525
   A11        2.08782  -0.00139   0.00000  -0.01473  -0.01465   2.07317
   A12        1.94322  -0.00658   0.00000  -0.02698  -0.02717   1.91606
   A13        1.90293  -0.00701   0.00000  -0.03329  -0.03307   1.86986
   A14        2.00848   0.00541   0.00000   0.01774   0.01753   2.02601
   A15        1.90145  -0.00198   0.00000  -0.00652  -0.00594   1.89551
   A16        1.86902   0.00346   0.00000   0.01506   0.01507   1.88408
   A17        1.90181  -0.00184   0.00000  -0.01518  -0.01534   1.88647
   A18        1.97358  -0.00486   0.00000  -0.02546  -0.02592   1.94766
   A19        1.90606  -0.00121   0.00000  -0.00389  -0.00379   1.90227
   A20        1.92475   0.00466   0.00000   0.03594   0.03606   1.96081
   A21        1.88784  -0.00022   0.00000  -0.00649  -0.00694   1.88090
   A22        1.97457  -0.00598   0.00000  -0.02181  -0.02182   1.95274
   A23        1.88452   0.00499   0.00000   0.02445   0.02426   1.90877
   A24        1.93155  -0.00161   0.00000  -0.01634  -0.01617   1.91537
   A25        1.94213  -0.00318   0.00000  -0.01308  -0.01336   1.92877
   A26        1.91972  -0.00308   0.00000  -0.01794  -0.01814   1.90158
   A27        1.92364   0.01371   0.00000   0.06952   0.06941   1.99305
   A28        1.89292   0.00010   0.00000  -0.00927  -0.00964   1.88328
   A29        1.89143  -0.00410   0.00000  -0.01668  -0.01685   1.87458
   A30        1.89290  -0.00370   0.00000  -0.01381  -0.01384   1.87907
   A31        3.14159   0.00002   0.00000   0.00022   0.00022   3.14181
   A32        3.14159  -0.00158   0.00000  -0.01890  -0.01890   3.12269
    D1        1.85865  -0.00485   0.00000  -0.02841  -0.02816   1.83049
    D2        3.06029   0.00314   0.00000   0.00267   0.00254   3.06283
    D3       -0.66253  -0.00151   0.00000  -0.02100  -0.02114  -0.68368
    D4       -0.24924  -0.00453   0.00000  -0.02550  -0.02526  -0.27450
    D5        0.95241   0.00345   0.00000   0.00558   0.00544   0.95784
    D6       -2.77042  -0.00119   0.00000  -0.01808  -0.01824  -2.78867
    D7       -2.35619  -0.00398   0.00000  -0.02039  -0.02010  -2.37629
    D8       -1.15454   0.00400   0.00000   0.01069   0.01059  -1.14395
    D9        1.40582  -0.00064   0.00000  -0.01298  -0.01309   1.39273
   D10        0.10548  -0.00078   0.00000   0.00110   0.00140   0.10688
   D11        2.60571   0.00142   0.00000   0.01890   0.01875   2.62446
   D12        2.63050  -0.00321   0.00000  -0.02843  -0.02796   2.60254
   D13        0.11043  -0.00085   0.00000  -0.01685  -0.01702   0.09341
   D14       -2.56503   0.00123   0.00000   0.00330   0.00339  -2.56164
   D15       -1.97873  -0.00268   0.00000  -0.00726  -0.00730  -1.98604
   D16        2.24482  -0.00218   0.00000  -0.00293  -0.00285   2.24196
   D17        0.14493   0.00252   0.00000   0.03230   0.03184   0.17677
   D18       -3.11940   0.00039   0.00000   0.00513   0.00537  -3.11403
   D19        1.10415   0.00089   0.00000   0.00946   0.00982   1.11397
   D20       -0.99573   0.00560   0.00000   0.04468   0.04451  -0.95123
   D21       -3.11651  -0.00151   0.00000  -0.01013  -0.01005  -3.12656
   D22        1.02289   0.00092   0.00000   0.00756   0.00784   1.03073
   D23       -1.05965  -0.00242   0.00000  -0.02180  -0.02192  -1.08157
   D24        3.07975   0.00001   0.00000  -0.00412  -0.00403   3.07571
   D25        1.01260  -0.00063   0.00000  -0.01055  -0.01082   1.00178
   D26       -1.13119   0.00180   0.00000   0.00713   0.00707  -1.12412
   D27       -3.11623  -0.00238   0.00000  -0.01629  -0.01631  -3.13254
   D28        1.06887   0.00159   0.00000   0.01569   0.01544   1.08431
   D29       -1.01741  -0.00048   0.00000   0.00047   0.00042  -1.01699
   D30       -0.99875  -0.00130   0.00000  -0.01187  -0.01168  -1.01043
   D31       -3.09683   0.00268   0.00000   0.02010   0.02007  -3.07676
   D32        1.10007   0.00060   0.00000   0.00489   0.00505   1.10511
         Item               Value     Threshold  Converged?
 Maximum Force            0.181452     0.000450     NO 
 RMS     Force            0.020652     0.000300     NO 
 Maximum Displacement     0.283782     0.001800     NO 
 RMS     Displacement     0.046090     0.001200     NO 
 Predicted change in Energy=-2.606776D-02
 GradGradGradGradGradGradGradGradGradGradGradGradGradGradGradGradGradGrad

                          Input orientation:                          
 ---------------------------------------------------------------------
 Center     Atomic      Atomic             Coordinates (Angstroms)
 Number     Number       Type             X           Y           Z
 ---------------------------------------------------------------------
      1          6           0        1.090858    0.079082   -0.010391
      2          6           0        2.595283    0.153182    0.050565
      3          7           0        3.444439   -0.554213   -0.886174
      4          7           0        3.260130    0.890048   -1.007960
      5          6           0        4.513103    1.553429   -0.641687
      6          7           0        4.301806    2.995797   -0.731723
      7          6           0        5.510097    3.744074   -0.401752
      8          6           0        5.259571    5.196002   -0.490172
      9          7           0        5.066528    6.325329   -0.540633
     10          1           0        0.707338   -0.564348    0.788210
     11          1           0        0.735976   -0.317584   -0.965863
     12          1           0        0.647696    1.072161    0.124752
     13          1           0        3.001974    0.203251    1.059821
     14          1           0        2.872083   -0.992229   -1.608269
     15          1           0        5.278322    1.259357   -1.367689
     16          1           0        4.861388    1.240897    0.361511
     17          1           0        3.549646    3.265558   -0.105537
     18          1           0        6.292628    3.492858   -1.125171
     19          1           0        5.907831    3.538677    0.606312
 ---------------------------------------------------------------------
                    Distance matrix (angstroms):
                    1          2          3          4          5
     1  C    0.000000
     2  C    1.507482   0.000000
     3  N    2.589866   1.448777   0.000000
     4  N    2.521617   1.451023   1.461057   0.000000
     5  C    3.779418   2.473447   2.375704   1.464299   0.000000
     6  N    4.397469   3.406561   3.655339   2.365497   1.460541
     7  C    5.754564   4.647068   4.793420   3.684468   2.418779
     8  C    6.617494   5.728950   6.042888   4.775679   3.721359
     9  N    7.423120   6.674726   7.076628   5.746629   4.804947
    10  H    1.094922   2.150187   3.208643   3.443580   4.584041
    11  H    1.093715   2.170660   2.719947   2.798481   4.227584
    12  H    1.095838   2.154789   3.389518   2.853246   3.969939
    13  H    2.193887   1.089267   2.134578   2.194095   2.646058
    14  H    2.621771   2.034777   1.020231   2.013434   3.179245
    15  H    4.557430   3.230135   2.623741   2.083001   1.095042
    16  H    3.962956   2.532794   2.605165   2.136018   1.106972
    17  H    4.025956   3.259151   3.900143   2.557584   2.036441
    18  H    6.320998   5.119195   4.954602   3.998050   2.676163
    19  H    5.962579   4.769005   5.004754   4.078165   2.728365
                    6          7          8          9         10
     6  N    0.000000
     7  C    1.459030   0.000000
     8  C    2.411755   1.476034   0.000000
     9  N    3.421564   2.622769   1.146818   0.000000
    10  H    5.282521   6.560869   7.452431   8.260509   0.000000
    11  H    4.873238   6.293450   7.147644   7.941208   1.771577
    12  H    4.217397   5.573084   6.217201   6.896708   1.766888
    13  H    3.563356   4.578679   5.694452   6.656100   2.434818
    14  H    4.326291   5.554041   6.726399   7.713760   3.257654
    15  H    2.091235   2.675925   4.033307   5.137407   5.372867
    16  H    2.141954   2.696162   4.065313   5.167920   4.549408
    17  H    1.015196   2.039629   2.607374   3.442737   4.852389
    18  H    2.089317   1.094898   2.090725   3.141321   7.163617
    19  H    2.159716   1.102984   2.090274   3.128690   6.626691
                   11         12         13         14         15
    11  H    0.000000
    12  H    1.768792   0.000000
    13  H    3.083733   2.678056   0.000000
    14  H    2.330404   3.494704   2.926559   0.000000
    15  H    4.825050   4.868790   3.491407   3.304165   0.000000
    16  H    4.605410   4.223710   2.240930   3.581092   1.778850
    17  H    4.636357   3.644906   3.322007   4.565747   2.933631
    18  H    6.739527   6.267961   5.140438   5.661229   2.464987
    19  H    6.640072   5.829633   4.446880   5.886361   3.080302
                   16         17         18         19
    16  H    0.000000
    17  H    2.457245   0.000000
    18  H    3.054505   2.935178   0.000000
    19  H    2.536684   2.478378   1.774317   0.000000
 Stoichiometry    C5H10N4
 Framework group  C1[X(C5H10N4)]
 Deg. of freedom    51
 Full point group                 C1      NOp   1
 Largest Abelian subgroup         C1      NOp   1
 Largest concise Abelian subgroup C1      NOp   1
                         Standard orientation:                         
 ---------------------------------------------------------------------
 Center     Atomic      Atomic             Coordinates (Angstroms)
 Number     Number       Type             X           Y           Z
 ---------------------------------------------------------------------
      1          6           0       -3.135786    1.429489    0.026318
      2          6           0       -2.329884    0.225672    0.443268
      3          7           0       -2.503864   -1.074234   -0.172305
      4          7           0       -1.336622   -0.257860   -0.497526
      5          6           0       -0.149691   -0.886478    0.085746
      6          7           0        1.001846   -0.039992   -0.215255
      7          6           0        2.241347   -0.600166    0.312580
      8          6           0        3.381786    0.284098    0.002497
      9          7           0        4.269309    0.975271   -0.220605
     10          1           0       -3.902909    1.653615    0.774745
     11          1           0       -3.633790    1.279169   -0.935767
     12          1           0       -2.494492    2.313527   -0.063570
     13          1           0       -2.108820    0.180321    1.508903
     14          1           0       -3.150588   -1.000481   -0.957912
     15          1           0       -0.010696   -1.861007   -0.393931
     16          1           0       -0.272526   -1.059213    1.172236
     17          1           0        0.850470    0.885229    0.174199
     18          1           0        2.426085   -1.567829   -0.165228
     19          1           0        2.235947   -0.761314    1.403715
 ---------------------------------------------------------------------
 Rotational constants (GHZ):           4.7581905           0.6009459           0.5535172
 Standard basis: 6-31G(2df,p) (6D, 7F)
 There are   329 symmetry adapted cartesian basis functions of A   symmetry.
 There are   302 symmetry adapted basis functions of A   symmetry.
   302 basis functions,   466 primitive gaussians,   329 cartesian basis functions
    34 alpha electrons       34 beta electrons
       nuclear repulsion energy       418.7992433343 Hartrees.
 NAtoms=   19 NActive=   19 NUniq=   19 SFac= 1.00D+00 NAtFMM=   60 NAOKFM=F Big=F
 Integral buffers will be    131072 words long.
 Raffenetti 2 integral format.
 Two-electron integral symmetry is turned on.
 One-electron integrals computed using PRISM.
 PrsmSu:  requested number of processors reduced to:  13 ShMem   1 Linda.
 NBasis=   302 RedAO= T EigKep=  1.51D-04  NBF=   302
 NBsUse=   302 1.00D-06 EigRej= -1.00D+00 NBFU=   302
 Initial guess from the checkpoint file:  "CC1NN1CNCCtN.chk"
 B after Tr=    -0.000000    0.000000   -0.000000
         Rot=    0.999997   -0.000467   -0.000345   -0.002476 Ang=  -0.29 deg.
 ExpMin= 1.61D-01 ExpMax= 4.17D+03 ExpMxC= 6.27D+02 IAcc=2 IRadAn=         4 AccDes= 0.00D+00
 Harris functional with IExCor=  402 and IRadAn=       4 diagonalized for initial guess.
 HarFok:  IExCor=  402 AccDes= 0.00D+00 IRadAn=         4 IDoV= 1 UseB2=F ITyADJ=14
 ICtDFT=  3500011 ScaDFX=  1.000000  1.000000  1.000000  1.000000
 FoFCou: FMM=F IPFlag=           0 FMFlag=      100000 FMFlg1=           0
         NFxFlg=           0 DoJE=T BraDBF=F KetDBF=T FulRan=T
         wScrn=  0.000000 ICntrl=       500 IOpCl=  0 I1Cent=   200000004 NGrid=           0
         NMat0=    1 NMatS0=      1 NMatT0=    0 NMatD0=    1 NMtDS0=    0 NMtDT0=    0
 Petite list used in FoFCou.
 Requested convergence on RMS density matrix=1.00D-08 within 128 cycles.
 Requested convergence on MAX density matrix=1.00D-06.
 Requested convergence on             energy=1.00D-06.
 No special actions if energy rises.
 Integral accuracy reduced to 1.0D-05 until final iterations.
 Initial convergence to 1.0D-05 achieved.  Increase integral accuracy.
 SCF Done:  E(RB3LYP) =  -415.479336373     A.U. after   12 cycles
            NFock= 12  Conv=0.47D-08     -V/T= 2.0075
 PrsmSu:  requested number of processors reduced to:  13 ShMem   1 Linda.
 Calling FoFJK, ICntrl=      2127 FMM=F ISym2X=0 I1Cent= 0 IOpClX= 0 NMat=1 NMatS=1 NMatT=0.
 ***** Axes restored to original set *****
 -------------------------------------------------------------------
 Center     Atomic                   Forces (Hartrees/Bohr)
 Number     Number              X              Y              Z
 -------------------------------------------------------------------
      1        6          -0.003397861   -0.000470895    0.002536257
      2        6          -0.003183171    0.001775980   -0.006338495
      3        7           0.004030990   -0.014025067    0.006196535
      4        7          -0.000743301    0.006339723    0.000625297
      5        6          -0.003158940    0.005021530    0.000261979
      6        7           0.002642492   -0.002722940   -0.000728734
      7        6          -0.006141918    0.007175635   -0.000121583
      8        6           0.004570848   -0.024386223    0.000734205
      9        7          -0.003373921    0.019334180   -0.000569713
     10        1           0.000056030   -0.000833690   -0.000696070
     11        1           0.001294075    0.001177763   -0.000950021
     12        1           0.000809276   -0.000335968    0.000362031
     13        1           0.003417507    0.002005711   -0.000072329
     14        1          -0.001099694    0.002851624   -0.001417422
     15        1          -0.000257843    0.000712443   -0.000459519
     16        1           0.001377698   -0.002288744    0.000151433
     17        1          -0.000265492    0.000704286   -0.000158699
     18        1           0.001159382   -0.001186675    0.000194444
     19        1           0.002263843   -0.000848674    0.000450403
 -------------------------------------------------------------------
 Cartesian Forces:  Max     0.024386223 RMS     0.005224239

 GradGradGradGradGradGradGradGradGradGradGradGradGradGradGradGradGradGrad
 Berny optimization.
 Using GEDIIS/GDIIS optimizer.
 FormGI is forming the generalized inverse of G from B-inverse, IUseBI=4.
 Internal  Forces:  Max     0.019632259 RMS     0.002656098
 Search for a local minimum.
 Step number   2 out of a maximum of   93
 All quantities printed in internal units (Hartrees-Bohrs-Radians)
 Mixed Optimization -- RFO/linear search
 Update second derivatives using D2CorX and points    1    2
 DE= -2.58D-02 DEPred=-2.61D-02 R= 9.89D-01
 TightC=F SS=  1.41D+00  RLast= 2.92D-01 DXNew= 5.0454D-01 8.7612D-01
 Trust test= 9.89D-01 RLast= 2.92D-01 DXMaxT set to 5.05D-01
 ITU=  1  0
 Use linear search instead of GDIIS.
     Eigenvalues ---    0.00734   0.00794   0.00874   0.00903   0.02532
     Eigenvalues ---    0.02832   0.03161   0.03531   0.03532   0.04692
     Eigenvalues ---    0.05497   0.05747   0.05940   0.06801   0.07053
     Eigenvalues ---    0.07440   0.07623   0.09360   0.10977   0.12560
     Eigenvalues ---    0.12876   0.15216   0.15959   0.16000   0.16000
     Eigenvalues ---    0.16000   0.16071   0.18181   0.19345   0.21906
     Eigenvalues ---    0.22314   0.23399   0.29151   0.30077   0.32487
     Eigenvalues ---    0.33249   0.33887   0.34007   0.34125   0.34165
     Eigenvalues ---    0.34178   0.34189   0.34208   0.35439   0.35788
     Eigenvalues ---    0.35994   0.37016   0.38238   0.44008   0.44759
     Eigenvalues ---    0.93469
 RFO step:  Lambda=-2.35527887D-03 EMin= 7.34048587D-03
 Quartic linear search produced a step of -0.03206.
 Iteration  1 RMS(Cart)=  0.04605053 RMS(Int)=  0.00097249
 Iteration  2 RMS(Cart)=  0.00127574 RMS(Int)=  0.00005711
 Iteration  3 RMS(Cart)=  0.00000102 RMS(Int)=  0.00005710
 Iteration  4 RMS(Cart)=  0.00000000 RMS(Int)=  0.00005710
 Variable       Old X    -DE/DX   Delta X   Delta X   Delta X     New X
                                 (Linear)    (Quad)   (Total)
    R1        2.84873   0.00121  -0.00095   0.00574   0.00479   2.85352
    R2        2.06910  -0.00004   0.00005  -0.00021  -0.00017   2.06894
    R3        2.06682  -0.00002   0.00011  -0.00030  -0.00019   2.06663
    R4        2.07083  -0.00059  -0.00003  -0.00157  -0.00160   2.06923
    R5        2.73779   0.00111   0.00046  -0.00193  -0.00143   2.73636
    R6        2.74204  -0.00244   0.00068  -0.01193  -0.01124   2.73080
    R7        2.05842   0.00130  -0.00047   0.00457   0.00411   2.06252
    R8        2.76100   0.00818  -0.00156   0.03008   0.02846   2.78946
    R9        1.92796   0.00040   0.00011   0.00062   0.00073   1.92869
   R10        2.76712  -0.00039   0.00022  -0.00154  -0.00132   2.76580
   R11        2.76002  -0.00202  -0.00006  -0.00511  -0.00517   2.75486
   R12        2.06933  -0.00007   0.00012  -0.00048  -0.00036   2.06897
   R13        2.09187   0.00122  -0.00054   0.00472   0.00418   2.09606
   R14        2.75717  -0.00106   0.00081  -0.00476  -0.00395   2.75322
   R15        1.91844   0.00029   0.00013   0.00032   0.00046   1.91890
   R16        2.78930  -0.00518   0.00266  -0.02289  -0.02022   2.76907
   R17        2.06906   0.00097   0.00004   0.00263   0.00268   2.07173
   R18        2.08434   0.00139  -0.00043   0.00491   0.00448   2.08882
   R19        2.16717   0.01963   0.00692   0.01042   0.01734   2.18451
    A1        1.92725   0.00072  -0.00002   0.00701   0.00699   1.93425
    A2        1.95732  -0.00205   0.00052  -0.01606  -0.01558   1.94174
    A3        1.93270  -0.00063  -0.00048  -0.00268  -0.00322   1.92948
    A4        1.88641   0.00079  -0.00019   0.00600   0.00584   1.89225
    A5        1.87648   0.00046   0.00005   0.00695   0.00699   1.88347
    A6        1.88093   0.00084   0.00012  -0.00027  -0.00025   1.88068
    A7        2.13505  -0.00032  -0.00079   0.00881   0.00793   2.14298
    A8        2.04062  -0.00228   0.00079  -0.00022   0.00050   2.04112
    A9        1.99581   0.00247  -0.00087   0.01312   0.01222   2.00803
   A10        1.98525  -0.00250   0.00148  -0.01704  -0.01552   1.96973
   A11        2.07317  -0.00122   0.00047  -0.02327  -0.02280   2.05036
   A12        1.91606  -0.00177   0.00087  -0.00474  -0.00407   1.91199
   A13        1.86986  -0.00223   0.00106  -0.03471  -0.03353   1.83634
   A14        2.02601   0.00161  -0.00056   0.00545   0.00478   2.03079
   A15        1.89551   0.00025   0.00019   0.00376   0.00392   1.89943
   A16        1.88408   0.00138  -0.00048   0.00936   0.00882   1.89291
   A17        1.88647  -0.00033   0.00049  -0.00749  -0.00700   1.87946
   A18        1.94766  -0.00094   0.00083  -0.00507  -0.00439   1.94327
   A19        1.90227  -0.00087   0.00012  -0.00772  -0.00756   1.89471
   A20        1.96081   0.00094  -0.00116   0.01796   0.01677   1.97758
   A21        1.88090  -0.00025   0.00022  -0.00822  -0.00799   1.87291
   A22        1.95274  -0.00005   0.00070  -0.00199  -0.00129   1.95145
   A23        1.90877   0.00045  -0.00078   0.00668   0.00591   1.91468
   A24        1.91537  -0.00035   0.00052  -0.00523  -0.00471   1.91067
   A25        1.92877   0.00079   0.00043   0.00473   0.00510   1.93387
   A26        1.90158  -0.00061   0.00058  -0.00857  -0.00796   1.89362
   A27        1.99305   0.00128  -0.00223   0.01497   0.01269   2.00575
   A28        1.88328   0.00026   0.00031   0.00165   0.00198   1.88526
   A29        1.87458  -0.00019   0.00054   0.00381   0.00423   1.87881
   A30        1.87907  -0.00162   0.00044  -0.01753  -0.01706   1.86201
   A31        3.14181  -0.00020  -0.00001  -0.00517  -0.00517   3.13663
   A32        3.12269  -0.00053   0.00061  -0.01854  -0.01793   3.10476
    D1        1.83049  -0.00236   0.00090  -0.07262  -0.07175   1.75875
    D2        3.06283   0.00100  -0.00008  -0.05076  -0.05080   3.01204
    D3       -0.68368  -0.00099   0.00068  -0.07493  -0.07431  -0.75798
    D4       -0.27450  -0.00249   0.00081  -0.07430  -0.07347  -0.34796
    D5        0.95784   0.00087  -0.00017  -0.05244  -0.05252   0.90533
    D6       -2.78867  -0.00111   0.00058  -0.07660  -0.07603  -2.86469
    D7       -2.37629  -0.00173   0.00064  -0.06121  -0.06060  -2.43689
    D8       -1.14395   0.00163  -0.00034  -0.03934  -0.03965  -1.18360
    D9        1.39273  -0.00035   0.00042  -0.06351  -0.06316   1.32957
   D10        0.10688   0.00168  -0.00004   0.04570   0.04574   0.15262
   D11        2.62446   0.00192  -0.00060   0.05766   0.05701   2.68147
   D12        2.60254  -0.00081   0.00090  -0.01515  -0.01423   2.58831
   D13        0.09341  -0.00002   0.00055  -0.00326  -0.00285   0.09057
   D14       -2.56164   0.00021  -0.00011   0.01449   0.01454  -2.54710
   D15       -1.98604  -0.00016   0.00023   0.07015   0.07036  -1.91568
   D16        2.24196   0.00030   0.00009   0.07825   0.07833   2.32030
   D17        0.17677   0.00136  -0.00102   0.09595   0.09488   0.27165
   D18       -3.11403   0.00037  -0.00017   0.07320   0.07306  -3.04097
   D19        1.11397   0.00082  -0.00031   0.08130   0.08104   1.19501
   D20       -0.95123   0.00189  -0.00143   0.09901   0.09758  -0.85364
   D21       -3.12656  -0.00007   0.00032  -0.01218  -0.01179  -3.13835
   D22        1.03073   0.00010  -0.00025  -0.00886  -0.00905   1.02167
   D23       -1.08157  -0.00018   0.00070  -0.02008  -0.01936  -1.10093
   D24        3.07571  -0.00001   0.00013  -0.01676  -0.01662   3.05910
   D25        1.00178  -0.00047   0.00035  -0.02423  -0.02396   0.97782
   D26       -1.12412  -0.00030  -0.00023  -0.02091  -0.02122  -1.14534
   D27       -3.13254  -0.00031   0.00052   0.00458   0.00505  -3.12749
   D28        1.08431  -0.00073  -0.00050   0.00500   0.00450   1.08882
   D29       -1.01699   0.00094  -0.00001   0.02373   0.02377  -0.99322
   D30       -1.01043  -0.00002   0.00037   0.00810   0.00842  -1.00201
   D31       -3.07676  -0.00044  -0.00064   0.00852   0.00787  -3.06889
   D32        1.10511   0.00123  -0.00016   0.02725   0.02714   1.13225
         Item               Value     Threshold  Converged?
 Maximum Force            0.019632     0.000450     NO 
 RMS     Force            0.002656     0.000300     NO 
 Maximum Displacement     0.156347     0.001800     NO 
 RMS     Displacement     0.046048     0.001200     NO 
 Predicted change in Energy=-1.158742D-03
 GradGradGradGradGradGradGradGradGradGradGradGradGradGradGradGradGradGrad

                          Input orientation:                          
 ---------------------------------------------------------------------
 Center     Atomic      Atomic             Coordinates (Angstroms)
 Number     Number       Type             X           Y           Z
 ---------------------------------------------------------------------
      1          6           0        1.089595    0.109110   -0.018493
      2          6           0        2.596353    0.173932    0.056580
      3          7           0        3.458683   -0.592883   -0.818147
      4          7           0        3.276800    0.858136   -1.019108
      5          6           0        4.521753    1.543275   -0.668685
      6          7           0        4.292222    2.981265   -0.737241
      7          6           0        5.492226    3.737439   -0.404270
      8          6           0        5.231934    5.178336   -0.461367
      9          7           0        5.024219    6.315482   -0.469675
     10          1           0        0.688190   -0.538055    0.768089
     11          1           0        0.757121   -0.276504   -0.986352
     12          1           0        0.655046    1.105809    0.110974
     13          1           0        3.004563    0.285987    1.062587
     14          1           0        2.898469   -1.036504   -1.546859
     15          1           0        5.272171    1.274010   -1.419067
     16          1           0        4.904410    1.206410    0.316398
     17          1           0        3.542712    3.238962   -0.102464
     18          1           0        6.267173    3.503291   -1.143550
     19          1           0        5.923060    3.513832    0.588801
 ---------------------------------------------------------------------
                    Distance matrix (angstroms):
                    1          2          3          4          5
     1  C    0.000000
     2  C    1.510019   0.000000
     3  N    2.597079   1.448021   0.000000
     4  N    2.519153   1.445077   1.476117   0.000000
     5  C    3.776147   2.471493   2.390739   1.463599   0.000000
     6  N    4.361501   3.374499   3.670950   2.370277   1.457807
     7  C    5.718107   4.614873   4.801905   3.684634   2.413729
     8  C    6.561415   5.679668   6.048032   4.774700   3.709583
     9  N    7.362329   6.624962   7.092098   5.756560   4.802712
    10  H    1.094834   2.157373   3.192927   3.441558   4.592653
    11  H    1.093613   2.161799   2.725220   2.763559   4.193443
    12  H    1.094990   2.154072   3.407228   2.865663   3.968712
    13  H    2.206156   1.091440   2.125041   2.175988   2.622964
    14  H    2.630657   2.031611   1.020617   2.002826   3.171987
    15  H    4.562076   3.247724   2.671168   2.077120   1.094853
    16  H    3.983596   2.541780   2.571921   2.134008   1.109185
    17  H    3.977537   3.211744   3.899013   2.565011   2.038255
    18  H    6.292338   5.099006   4.977162   3.994329   2.667142
    19  H    5.943342   4.743962   4.991770   4.079312   2.725440
                    6          7          8          9         10
     6  N    0.000000
     7  C    1.456942   0.000000
     8  C    2.405470   1.465331   0.000000
     9  N    3.424093   2.620995   1.155991   0.000000
    10  H    5.257441   6.537052   7.405019   8.203913   0.000000
    11  H    4.813736   6.234724   7.074945   7.869521   1.775168
    12  H    4.179217   5.530756   6.153126   6.824040   1.770646
    13  H    3.487402   4.500296   5.587370   6.540769   2.476159
    14  H    4.329029   5.551902   6.726633   7.728573   3.239254
    15  H    2.083244   2.673335   4.020270   5.136075   5.392598
    16  H    2.152914   2.696479   4.060589   5.170578   4.585161
    17  H    1.015438   2.034741   2.596816   3.434339   4.813733
    18  H    2.082793   1.096313   2.083955   3.147612   7.149258
    19  H    2.168328   1.105354   2.085924   3.126904   6.622220
                   11         12         13         14         15
    11  H    0.000000
    12  H    1.767861   0.000000
    13  H    3.092822   2.664190   0.000000
    14  H    2.340328   3.517223   2.927361   0.000000
    15  H    4.793434   4.866946   3.503833   3.315007   0.000000
    16  H    4.593060   4.255516   2.239061   3.539236   1.775291
    17  H    4.571573   3.596459   3.219785   4.558611   2.930104
    18  H    6.683729   6.230387   5.085539   5.667500   2.456752
    19  H    6.598081   5.811959   4.377337   5.866409   3.077660
                   16         17         18         19
    16  H    0.000000
    17  H    2.482123   0.000000
    18  H    3.043720   2.928552   0.000000
    19  H    2.536936   2.493884   1.766228   0.000000
 Stoichiometry    C5H10N4
 Framework group  C1[X(C5H10N4)]
 Deg. of freedom    51
 Full point group                 C1      NOp   1
 Largest Abelian subgroup         C1      NOp   1
 Largest concise Abelian subgroup C1      NOp   1
                         Standard orientation:                         
 ---------------------------------------------------------------------
 Center     Atomic      Atomic             Coordinates (Angstroms)
 Number     Number       Type             X           Y           Z
 ---------------------------------------------------------------------
      1          6           0       -3.091436    1.460809    0.012487
      2          6           0       -2.299818    0.249277    0.443402
      3          7           0       -2.530960   -1.072539   -0.100789
      4          7           0       -1.350543   -0.284511   -0.506439
      5          6           0       -0.150939   -0.907950    0.054271
      6          7           0        0.992372   -0.050640   -0.233930
      7          6           0        2.232287   -0.607344    0.290829
      8          6           0        3.362886    0.280197    0.005854
      9          7           0        4.253346    0.992429   -0.184207
     10          1           0       -3.866663    1.700771    0.747403
     11          1           0       -3.572359    1.296264   -0.955824
     12          1           0       -2.436899    2.333348   -0.083746
     13          1           0       -2.021184    0.230599    1.498511
     14          1           0       -3.178219   -1.009622   -0.887400
     15          1           0       -0.005114   -1.866153   -0.454931
     16          1           0       -0.275961   -1.124181    1.134967
     17          1           0        0.839042    0.870265    0.165490
     18          1           0        2.420524   -1.566430   -0.205783
     19          1           0        2.229449   -0.807972    1.377819
 ---------------------------------------------------------------------
 Rotational constants (GHZ):           4.6607007           0.6072052           0.5565898
 Standard basis: 6-31G(2df,p) (6D, 7F)
 There are   329 symmetry adapted cartesian basis functions of A   symmetry.
 There are   302 symmetry adapted basis functions of A   symmetry.
   302 basis functions,   466 primitive gaussians,   329 cartesian basis functions
    34 alpha electrons       34 beta electrons
       nuclear repulsion energy       419.0280445863 Hartrees.
 NAtoms=   19 NActive=   19 NUniq=   19 SFac= 1.00D+00 NAtFMM=   60 NAOKFM=F Big=F
 Integral buffers will be    131072 words long.
 Raffenetti 2 integral format.
 Two-electron integral symmetry is turned on.
 One-electron integrals computed using PRISM.
 PrsmSu:  requested number of processors reduced to:  13 ShMem   1 Linda.
 NBasis=   302 RedAO= T EigKep=  1.53D-04  NBF=   302
 NBsUse=   302 1.00D-06 EigRej= -1.00D+00 NBFU=   302
 Initial guess from the checkpoint file:  "CC1NN1CNCCtN.chk"
 B after Tr=     0.000000   -0.000000    0.000000
         Rot=    0.999997    0.001342   -0.000633    0.001767 Ang=   0.26 deg.
 ExpMin= 1.61D-01 ExpMax= 4.17D+03 ExpMxC= 6.27D+02 IAcc=2 IRadAn=         4 AccDes= 0.00D+00
 Harris functional with IExCor=  402 and IRadAn=       4 diagonalized for initial guess.
 HarFok:  IExCor=  402 AccDes= 0.00D+00 IRadAn=         4 IDoV= 1 UseB2=F ITyADJ=14
 ICtDFT=  3500011 ScaDFX=  1.000000  1.000000  1.000000  1.000000
 FoFCou: FMM=F IPFlag=           0 FMFlag=      100000 FMFlg1=           0
         NFxFlg=           0 DoJE=T BraDBF=F KetDBF=T FulRan=T
         wScrn=  0.000000 ICntrl=       500 IOpCl=  0 I1Cent=   200000004 NGrid=           0
         NMat0=    1 NMatS0=      1 NMatT0=    0 NMatD0=    1 NMtDS0=    0 NMtDT0=    0
 Petite list used in FoFCou.
 Requested convergence on RMS density matrix=1.00D-08 within 128 cycles.
 Requested convergence on MAX density matrix=1.00D-06.
 Requested convergence on             energy=1.00D-06.
 No special actions if energy rises.
 Integral accuracy reduced to 1.0D-05 until final iterations.
 Initial convergence to 1.0D-05 achieved.  Increase integral accuracy.
 SCF Done:  E(RB3LYP) =  -415.480864476     A.U. after   12 cycles
            NFock= 12  Conv=0.46D-08     -V/T= 2.0076
 PrsmSu:  requested number of processors reduced to:  13 ShMem   1 Linda.
 Calling FoFJK, ICntrl=      2127 FMM=F ISym2X=0 I1Cent= 0 IOpClX= 0 NMat=1 NMatS=1 NMatT=0.
 ***** Axes restored to original set *****
 -------------------------------------------------------------------
 Center     Atomic                   Forces (Hartrees/Bohr)
 Number     Number              X              Y              Z
 -------------------------------------------------------------------
      1        6          -0.000454452   -0.001156233    0.001299242
      2        6          -0.003153850    0.002960497   -0.001797785
      3        7           0.002643554   -0.006911503    0.002399348
      4        7           0.000819385    0.004081794   -0.001573498
      5        6          -0.002047704    0.000664901    0.000051818
      6        7           0.000477105   -0.002273654    0.001803528
      7        6          -0.000776959    0.001529954   -0.001666240
      8        6          -0.000631686    0.003308036    0.000993224
      9        7           0.000547008   -0.002688934   -0.000346671
     10        1           0.000269255   -0.000565104   -0.000625572
     11        1           0.000514811    0.000859348   -0.000633737
     12        1           0.000478876   -0.000047736    0.000766792
     13        1           0.000860635    0.000702730   -0.000067148
     14        1          -0.000842028    0.000736161   -0.000010409
     15        1           0.000331052    0.000373460   -0.000598032
     16        1           0.000448973   -0.000305780   -0.000027537
     17        1          -0.000550229    0.000089773   -0.000147857
     18        1           0.000992057   -0.000596974    0.000068547
     19        1           0.000074197   -0.000760736    0.000111985
 -------------------------------------------------------------------
 Cartesian Forces:  Max     0.006911503 RMS     0.001639209

 GradGradGradGradGradGradGradGradGradGradGradGradGradGradGradGradGradGrad
 Berny optimization.
 Using GEDIIS/GDIIS optimizer.
 FormGI is forming the generalized inverse of G from B-inverse, IUseBI=4.
 Internal  Forces:  Max     0.003991471 RMS     0.000781533
 Search for a local minimum.
 Step number   3 out of a maximum of   93
 All quantities printed in internal units (Hartrees-Bohrs-Radians)
 Mixed Optimization -- En-DIIS/RFO-DIIS
 Update second derivatives using D2CorX and points    1    2    3
 DE= -1.53D-03 DEPred=-1.16D-03 R= 1.32D+00
 TightC=F SS=  1.41D+00  RLast= 3.05D-01 DXNew= 8.4853D-01 9.1444D-01
 Trust test= 1.32D+00 RLast= 3.05D-01 DXMaxT set to 8.49D-01
 ITU=  1  1  0
 Use linear search instead of GDIIS.
     Eigenvalues ---    0.00462   0.00735   0.00835   0.00907   0.02602
     Eigenvalues ---    0.02835   0.03121   0.03531   0.03600   0.04645
     Eigenvalues ---    0.05458   0.05831   0.05906   0.06792   0.06936
     Eigenvalues ---    0.07411   0.07632   0.09496   0.11003   0.12413
     Eigenvalues ---    0.13000   0.14579   0.15841   0.16000   0.16000
     Eigenvalues ---    0.16006   0.16416   0.17932   0.19237   0.21991
     Eigenvalues ---    0.22280   0.23414   0.28799   0.30541   0.32020
     Eigenvalues ---    0.33462   0.33875   0.34048   0.34103   0.34167
     Eigenvalues ---    0.34187   0.34207   0.34239   0.35485   0.35752
     Eigenvalues ---    0.36149   0.36988   0.37787   0.44006   0.44762
     Eigenvalues ---    1.08122
 RFO step:  Lambda=-1.12985268D-03 EMin= 4.61577546D-03
 Quartic linear search produced a step of  0.55794.
 Iteration  1 RMS(Cart)=  0.07746025 RMS(Int)=  0.00254173
 Iteration  2 RMS(Cart)=  0.00313994 RMS(Int)=  0.00007253
 Iteration  3 RMS(Cart)=  0.00000557 RMS(Int)=  0.00007245
 Iteration  4 RMS(Cart)=  0.00000000 RMS(Int)=  0.00007245
 Variable       Old X    -DE/DX   Delta X   Delta X   Delta X     New X
                                 (Linear)    (Quad)   (Total)
    R1        2.85352  -0.00081   0.00268  -0.00324  -0.00056   2.85296
    R2        2.06894  -0.00021  -0.00009  -0.00098  -0.00108   2.06786
    R3        2.06663   0.00010  -0.00011   0.00038   0.00027   2.06690
    R4        2.06923  -0.00014  -0.00089  -0.00051  -0.00140   2.06783
    R5        2.73636   0.00156  -0.00080   0.00276   0.00206   2.73843
    R6        2.73080  -0.00028  -0.00627  -0.00341  -0.00966   2.72114
    R7        2.06252   0.00033   0.00229   0.00153   0.00382   2.06634
    R8        2.78946   0.00399   0.01588   0.01982   0.03559   2.82504
    R9        1.92869   0.00015   0.00041   0.00038   0.00079   1.92947
   R10        2.76580  -0.00122  -0.00074  -0.00526  -0.00600   2.75980
   R11        2.75486  -0.00143  -0.00288  -0.00551  -0.00840   2.74646
   R12        2.06897   0.00055  -0.00020   0.00237   0.00217   2.07114
   R13        2.09606   0.00022   0.00233   0.00118   0.00351   2.09957
   R14        2.75322   0.00039  -0.00220   0.00126  -0.00094   2.75228
   R15        1.91890   0.00034   0.00025   0.00101   0.00127   1.92017
   R16        2.76907   0.00060  -0.01128   0.00210  -0.00918   2.75989
   R17        2.07173   0.00078   0.00149   0.00328   0.00477   2.07651
   R18        2.08882   0.00028   0.00250   0.00133   0.00382   2.09264
   R19        2.18451  -0.00274   0.00967  -0.01168  -0.00201   2.18250
    A1        1.93425   0.00010   0.00390   0.00177   0.00570   1.93994
    A2        1.94174  -0.00074  -0.00869  -0.00714  -0.01591   1.92583
    A3        1.92948  -0.00058  -0.00179  -0.00544  -0.00733   1.92215
    A4        1.89225   0.00043   0.00326   0.00496   0.00826   1.90051
    A5        1.88347   0.00035   0.00390   0.00404   0.00794   1.89141
    A6        1.88068   0.00050  -0.00014   0.00234   0.00200   1.88268
    A7        2.14298  -0.00019   0.00443  -0.00178   0.00243   2.14541
    A8        2.04112  -0.00034   0.00028   0.00847   0.00874   2.04986
    A9        2.00803   0.00061   0.00682   0.00221   0.00902   2.01705
[...]
 4005695,0.38570332,-0.00213530,-0.00434070,0.00392599,-0.07295231,-0.0
 3868389,0.05847281,0.02173425,-0.16036209,0.02814348,0.13908285,0.3430
 5170,0.00572366,-0.00518871,0.00208651,0.04854222,0.01906094,-0.179577
 16,-0.02248628,0.05107600,-0.04352497,-0.02252047,-0.06133613,0.314170
 76,-0.00049707,-0.00419849,0.00169521,-0.03254556,-0.00991224,-0.00722
 179,0.01322211,0.00823833,0.00381819,-0.18309127,-0.05494350,-0.009981
 26,0.54601926,0.00107558,0.00168481,-0.00207635,-0.00134019,-0.0070556
 6,0.00851386,-0.03106387,-0.03333643,-0.01154430,-0.02567324,-0.079290
 01,-0.00387981,-0.02607545,0.48215557,-0.00026958,0.00360970,-0.003433
 17,0.02925005,0.01842159,-0.00036553,0.00228480,0.00481681,-0.00569862
 ,-0.05170829,-0.03386455,-0.08581569,-0.05469466,-0.01151961,0.5853311
 9,0.00015583,0.00038091,-0.00004090,0.00274987,-0.00025404,-0.00123008
 ,-0.00452347,-0.00796064,-0.00243102,0.00909753,-0.03388315,0.00072197
 ,-0.10718993,0.02647435,0.01253068,0.53397245,0.00001577,0.00041086,-0
 .00000846,0.00278980,-0.00002328,-0.00008998,-0.00437669,-0.00175081,-
 0.00285437,-0.00434103,-0.03381024,-0.00497893,0.04452565,-0.20014247,
 0.02646480,0.01150132,0.49493681,-0.00009096,0.00012748,0.00021176,-0.
 00062966,0.00015979,-0.00033814,-0.00025077,0.00059059,0.00081523,0.00
 190550,-0.00647842,0.00220070,0.01919273,-0.02276306,-0.07137672,-0.19
 620796,0.09534535,0.34729995,-0.00001270,0.00004410,-0.00009678,-0.000
 74365,-0.00035108,0.00059091,0.00077709,0.00191320,0.00012984,-0.00051
 390,0.00141531,-0.00006904,0.00221298,-0.00189481,-0.00716883,-0.17676
 785,-0.06604548,0.01415293,0.49662395,-0.00002262,0.00004860,0.0000133
 6,-0.00003138,-0.00034966,0.00022824,-0.00111817,0.00012210,-0.0013661
 3,0.00297818,-0.00552660,0.00054311,-0.03565513,-0.03066405,-0.0110425
 2,-0.03697405,-0.11506623,-0.00643437,-0.03360632,0.50555592,0.0000024
 6,0.00002227,-0.00002620,0.00005314,-0.00041035,0.00015734,-0.00029224
 ,-0.00038599,0.00096506,-0.00019996,-0.00171555,-0.00140550,-0.0042193
 9,0.00693423,-0.00493913,-0.01901946,-0.03951788,-0.07002645,-0.033839
 66,0.00409610,0.53826924,0.00001631,0.00000319,0.00001239,0.00032862,0
 .00003895,-0.00013302,-0.00054351,-0.00049296,-0.00043424,0.00093724,-
 0.00181851,0.00021935,-0.00630068,-0.00015861,-0.00024921,0.00840366,-
 0.03336868,-0.00326555,-0.08001361,0.05098761,0.00399426,0.18634749,-0
 .00000998,-0.00000322,0.00001453,-0.00002821,-0.00006796,-0.00004441,-
 0.00016478,-0.00036143,-0.00008134,0.00099006,-0.00008572,0.00025755,-
 0.00427351,-0.00359995,-0.00011190,-0.00681320,-0.03785107,-0.00654805
 ,0.04456438,-0.24440650,-0.00539555,-0.32258731,1.50392249,0.00000073,
 -0.00001096,0.00001836,-0.00010084,-0.00010519,-0.00000309,-0.00009359
 ,-0.00014687,0.00001839,0.00015679,-0.00021243,0.00060911,-0.00074015,
 -0.00034324,-0.00071825,0.00266073,-0.00649181,-0.00103830,0.00168365,
 -0.00899585,-0.07274483,-0.02168317,0.09939683,0.11542874,-0.00001810,
 0.00002830,-0.00000109,-0.00012938,0.00001087,0.00005579,0.00017298,0.
 00007290,0.00012706,-0.00024037,0.00046481,-0.00008410,0.00165910,-0.0
 0063160,-0.00019010,-0.00191671,0.00341201,0.00054003,0.01535610,0.003
 31180,0.00021341,-0.09912671,0.27092394,0.01999019,0.08203397,0.000016
 01,-0.00003139,0.00003024,0.00016959,0.00011202,-0.00019707,-0.0001002
 6,-0.00013166,-0.00011150,-0.00010856,-0.00054454,0.00015918,-0.000779
 45,0.00177310,0.00024083,0.00283812,0.00181390,0.00032597,0.00720934,0
 .00094543,-0.00241413,0.26928186,-1.19391815,-0.08545320,-0.27532144,1
 .19356439,0.00000078,-0.00000651,0.00000465,0.00002854,0.00002304,-0.0
 0007571,0.00000971,0.00002667,0.00000219,-0.00001967,-0.00001364,-0.00
 004534,-0.00003051,0.00012494,0.00027710,-0.00049588,0.00028742,0.0007
 5606,0.00067773,-0.00045399,0.01928985,0.02003442,-0.08636722,-0.04554
 452,-0.02028376,0.08723646,0.02584005,-0.08152616,-0.06880319,0.054160
 31,-0.01131100,-0.02484821,0.02283163,0.00285265,0.00109363,-0.0004066
 6,-0.00624678,-0.00263509,-0.00290488,-0.00102704,0.00138986,0.0018499
 2,0.00006432,-0.00005547,0.00003007,0.00012592,0.00005856,0.00000702,-
 0.00002475,0.00000568,-0.00000904,0.00002061,-0.00004693,-0.00000410,0
 .08981142,-0.06984463,-0.18431259,0.11139898,0.00015473,-0.00136405,0.
 00035031,-0.00126083,0.00111045,0.00036306,0.00121399,0.00070961,-0.00
 136374,0.00025898,0.00026566,0.00017640,-0.00006445,-0.00006945,-0.000
 08124,0.00007633,0.00007668,0.00002620,-0.00000268,0.00000482,0.000000
 89,-0.00000732,-0.00001863,-0.00000647,0.07712508,0.19807552,0.0547213
 7,0.11108465,-0.13719957,-0.00162340,-0.00401391,0.00199156,0.00068606
 ,0.00000759,-0.00015857,-0.00012344,0.00046479,0.00053026,0.00010169,-
 0.00037420,0.00040594,-0.00002423,-0.00001607,-0.00001475,-0.00002939,
 -0.00002721,0.00000676,-0.00000282,-0.00000102,-0.00000463,0.00000376,
 0.00000626,0.00000300,-0.06181190,-0.12297075,0.14500627,-0.06113694,-
 0.01075624,-0.05674325,-0.01154680,-0.00728878,-0.03510318,0.00266180,
 -0.00006455,-0.00133213,0.00298016,0.00001190,-0.00031831,-0.00011863,
 -0.00027504,0.00008604,0.00008823,-0.00001759,0.00008240,-0.00001688,0
 .00002162,0.00000884,0.00000317,0.00000686,-0.00000187,0.00000153,0.00
 000249,0.00000340,0.00237159,0.00362508,0.01147543,0.06764244,-0.01145
 357,-0.05554731,-0.04786868,-0.00055586,-0.00247545,-0.00266537,0.0002
 6569,0.00080361,0.00119062,0.00028965,-0.00006169,-0.00065523,-0.00012
 051,-0.00008998,0.00000070,0.00004148,-0.00004800,0.00002640,-0.000016
 51,-0.00001056,0.00001023,-0.00000367,0.00000151,-0.00000857,0.0000035
 6,-0.00000167,0.00001306,0.00673093,0.00527685,0.02258627,0.01246875,0
 .05600169,-0.06065163,-0.04900841,-0.28968611,-0.00018977,-0.00126716,
 -0.00509987,0.00041660,0.00083566,0.00116750,0.00045264,0.00017877,0.0
 0122255,0.00026034,0.00000537,0.00036633,-0.00000238,-0.00000986,-0.00
 001096,0.00000699,0.00001820,0.00000188,-0.00000077,0.00000272,-0.0000
 0448,-0.00000043,-0.00000700,0.00000843,-0.00418097,-0.00453118,-0.015
 51831,0.06672062,0.05369236,0.31315141,-0.09300194,0.09559978,0.028421
 01,-0.01391119,0.03136573,0.01132276,-0.00742835,-0.00068728,-0.000664
 40,0.00192047,-0.00072343,0.00042299,0.00053686,0.00067316,-0.00002553
 ,-0.00008061,-0.00026152,0.00014989,0.00004346,-0.00010276,-0.00009834
 ,-0.00004662,0.00000576,0.00000390,0.00003639,-0.00002161,-0.00001035,
 0.00522764,-0.01062204,-0.00412249,0.00311878,-0.00750426,-0.00161913,
 0.10261057,0.09643270,-0.24396513,-0.06180661,-0.00149371,0.00278993,0
 .00117901,-0.00196914,0.00158246,0.00080129,0.00154690,0.00056887,-0.0
 0047092,-0.00004763,-0.00014551,-0.00022486,0.00006508,0.00007268,-0.0
 0003196,-0.00005377,-0.00002326,0.00000640,0.00001333,-0.00000208,0.00
 000222,-0.00001005,0.00001879,0.00000446,0.00978118,-0.01980135,-0.007
 16168,0.00156335,-0.00471077,-0.00042883,-0.10630520,0.26326497,0.0287
 3720,-0.06196923,-0.06514697,-0.00134352,0.00411179,-0.00005732,0.0000
 8511,-0.00002815,0.00062445,0.00002128,-0.00045173,0.00013198,0.000162
 88,-0.00018165,0.00024103,-0.00009060,0.00004882,-0.00009898,0.0000129
 6,0.00002879,0.00002148,0.00001203,-0.00000434,0.00000449,-0.00001537,
 0.00000430,-0.00001189,-0.00896059,0.01686894,0.00503752,0.01348987,-0
 .02675051,-0.00682689,-0.03219560,0.06758992,0.06568691,-0.00777717,-0
 .00714854,-0.02837268,-0.08461219,-0.02745787,-0.08823576,0.00274453,0
 .00742722,0.01619672,0.00006291,0.00456905,0.01307316,0.00289020,-0.00
 082478,0.00357772,-0.00037287,0.00028100,-0.00018641,-0.00001002,-0.00
 005117,0.00005033,-0.00002560,-0.00001006,-0.00002295,0.00000346,-0.00
 000332,0.00001376,0.00078577,-0.00037773,0.00063825,-0.00611783,-0.000
 49791,-0.00038242,0.00104724,0.00063711,0.00044209,0.09296312,0.000454
 96,0.00189494,-0.00202617,-0.02709837,-0.05890983,-0.05586664,-0.00707
 875,-0.01122987,-0.02784992,0.00567608,0.00372978,0.02397497,0.0020592
 7,0.00156275,-0.00019250,0.00033782,0.00000610,0.00020487,-0.00000712,
 -0.00002660,-0.00014758,0.00000991,0.00000256,0.00001683,0.00000662,0.
 00000393,-0.00000896,0.00041726,-0.00004116,-0.00001197,-0.00038930,0.
 00088385,0.00010442,-0.00073972,0.00023364,0.00014600,0.02291069,0.062
 19442,0.00068098,-0.00023434,-0.00024415,-0.08356270,-0.05968342,-0.25
 865949,0.00408898,-0.00280273,-0.00698609,-0.00022327,-0.00652043,-0.0
 2498088,-0.00370436,-0.00160243,0.00059304,0.00038536,0.00030835,0.000
 36408,-0.00003206,0.00029143,0.00018568,0.00006391,0.00003895,-0.00001
 128,-0.00002466,0.00000502,0.00002372,-0.00072114,-0.00018890,0.000136
 79,0.00033569,0.00020235,0.00107669,-0.00061270,0.00020817,0.00007713,
 0.08158119,0.06772328,0.28715113,0.00179987,-0.00105814,0.00226667,0.0
 0854116,0.02381593,0.02357177,-0.14893121,-0.12551521,-0.15314313,-0.0
 0568903,0.00434442,-0.00208200,0.00039441,-0.00282897,-0.00084495,-0.0
 0078329,-0.00086807,0.00045070,0.00042502,-0.00011905,-0.00001555,-0.0
 0013496,-0.00006749,-0.00001939,0.00003348,-0.00005747,0.00000184,-0.0
 0032470,-0.00021462,0.00008244,-0.00021935,0.00026748,-0.00098221,0.00
 012708,-0.00022683,-0.00038866,-0.00128641,0.00324900,0.00027549,0.145
 40426,-0.00043059,0.00195893,-0.00107551,-0.00274235,-0.01368133,-0.00
 983466,-0.07993501,-0.11340284,-0.10668213,-0.01904748,-0.02740281,-0.
 01703251,0.00433880,-0.00515065,-0.00097303,-0.00190482,-0.00063727,-0
 .00019464,0.00019054,-0.00051309,0.00013387,-0.00019041,-0.00008107,-0
 .00000968,0.00005625,-0.00002555,0.00000072,0.00033207,0.00008331,0.00
 039891,0.00103056,-0.00006553,0.00028865,-0.00055363,0.00003982,0.0005
 0381,-0.00028463,-0.00024550,0.00168406,0.09905481,0.15860842,-0.00083
 916,0.00269363,0.00211710,-0.01870412,-0.00975907,-0.02243588,-0.12844
 095,-0.14482398,-0.21643830,0.01507035,0.01790919,0.01521007,-0.002544
 67,0.00416424,0.00034766,0.00161172,0.00106384,0.00011695,-0.00014853,
 0.00048813,0.00010256,0.00019082,0.00005592,0.00001999,-0.00006074,0.0
 0006086,-0.00000082,0.00038639,-0.00005902,-0.00025210,0.00089649,0.00
 010133,0.00031935,-0.00075564,0.00030263,0.00028271,0.00264856,-0.0049
 7839,-0.00009649,0.13028807,0.13275178,0.22064910,0.00006200,-0.001415
 60,0.00121571,-0.00342651,0.00075929,-0.00337426,0.00195104,-0.0003525
 4,-0.00092834,-0.02693503,-0.00149050,0.02156362,-0.15231990,0.0261665
 7,0.11687849,-0.00656858,0.00589734,0.00562592,0.00060223,-0.00080008,
 -0.00066575,0.00030654,-0.00003158,-0.00039973,-0.00004156,-0.00004481
 ,0.00005297,-0.00065230,-0.00005415,-0.00009254,0.00002279,0.00000164,
 -0.00006078,0.00006595,0.00005120,-0.00002713,-0.00013849,0.00023287,0
 .00002585,0.00002259,-0.00000238,0.00011029,0.17680337,0.00001499,-0.0
 0125039,0.00069490,-0.00465948,0.00017696,-0.00078141,0.00178852,0.001
 62127,-0.00089995,-0.01580993,0.00060129,0.01374780,0.02530223,-0.0547
 4595,-0.02673411,0.02750934,-0.01353173,-0.02602572,0.00214540,0.00133
 261,-0.00122342,0.00016512,0.00028261,0.00024405,-0.00014119,0.0000784
 6,0.00000334,-0.00048664,-0.00002000,-0.00003688,-0.00003652,0.0000003
 2,-0.00004830,0.00004090,0.00005141,0.00001971,0.00014566,0.00025508,-
 0.00032088,-0.00009155,0.00013425,-0.00005728,-0.02942785,0.06832038,-
 0.00020035,0.00003511,0.00058514,-0.00162731,-0.00106999,0.00069925,0.
 00034781,0.00124428,0.00025574,-0.00659292,0.00164311,0.00853607,0.124
 72347,-0.02997591,-0.19387221,0.00009324,-0.00235659,0.00212354,0.0005
 7220,0.00038303,0.00043453,-0.00047446,-0.00001577,0.00026284,0.000061
 09,0.00006515,-0.00004125,-0.00013052,-0.00001293,-0.00000123,0.000122
 17,0.00003759,-0.00000251,-0.00004550,-0.00000185,-0.00002078,-0.00030
 433,-0.00025717,0.00058898,0.00006910,0.00011830,-0.00011319,-0.132755
 74,0.03405296,0.20084630,-0.00022840,0.00012059,0.00064214,0.00146565,
 0.00221764,-0.00610483,0.00190293,0.00185574,0.00157904,-0.02542242,-0
 .00080882,-0.02880205,-0.07867832,0.02312236,-0.05956698,-0.00116393,0
 .00719009,-0.00648586,0.00095362,-0.00059110,0.00136591,0.00013311,0.0
 0013742,-0.00004416,-0.00004255,0.00002946,0.00004308,-0.00010567,-0.0
 0003210,0.00011622,0.00030868,0.00006547,0.00021644,-0.00007424,0.0000
 0734,-0.00000088,-0.00027370,-0.00000719,0.00150546,0.00072445,0.00013
 483,0.00031127,0.00844251,-0.00570281,0.01742795,0.09116499,-0.0001686
 4,-0.00002469,-0.00003631,0.00022040,0.00157577,-0.00209543,0.00004437
 ,0.00252205,-0.00124234,-0.01370327,-0.00000698,-0.01368902,0.02640333
 ,-0.06991271,0.06292054,0.01407045,-0.02995936,0.02801900,0.00564427,0
 .00334001,0.00204487,-0.00010726,0.00029419,-0.00042815,0.00000063,-0.
 00007619,0.00002649,-0.00006383,0.00000644,0.00006873,0.00000990,-0.00
 000405,0.00014004,-0.00008438,0.00001881,0.00008182,0.00061128,-0.0000
 3811,0.00029176,0.00034705,0.00016200,0.00011601,-0.00086352,0.0038804
 0,-0.00354757,-0.02894415,0.08681836,0.00013682,0.00028037,0.00046998,
 0.00276540,0.00047865,0.00208994,0.00069578,0.00026919,0.00148690,-0.0
 1076068,-0.00017785,-0.00984793,-0.06363019,0.05851669,-0.21947226,-0.
 00161075,0.00289897,0.00690101,0.00070098,-0.00019922,0.00154855,0.000
 22429,0.00011795,0.00027183,-0.00002399,-0.00000504,-0.00002171,-0.000
 08786,-0.00004083,0.00003096,0.00034298,0.00013826,-0.00012825,-0.0000
 4694,0.00001288,-0.00007011,-0.00067879,-0.00092128,0.00105285,0.00055
 592,-0.00006114,0.00022723,-0.00803118,0.00791536,-0.02115635,0.078474
 85,-0.07121117,0.23587342,0.00006426,-0.00013682,-0.00017788,0.0006565
 8,-0.00028759,0.00095732,-0.00068749,0.00021078,-0.00016282,0.00125668
 ,-0.00002908,-0.00111152,-0.00532196,0.00472492,0.00673559,-0.20126773
 ,0.03835815,0.17125973,-0.02550390,0.00245724,0.02339844,0.00090428,0.
 00045198,0.00050069,0.00001036,-0.00025899,-0.00025681,-0.00002386,0.0
 0007444,-0.00000256,-0.00005364,0.00001291,-0.00000467,-0.00022233,-0.
 00000456,0.00008698,0.00013262,-0.00006620,-0.00003443,-0.00006526,-0.
 00004673,-0.00004179,0.00111594,0.00050516,-0.00102779,0.00025474,-0.0
 0119380,0.00019349,0.23059268,-0.00016886,-0.00003782,0.00026066,-0.00
 122844,-0.00104911,0.00007958,-0.00011006,0.00102618,0.00077282,0.0008
 1623,0.00177421,-0.00047999,0.02895625,-0.01081487,-0.03080367,0.03603
 926,-0.06871013,-0.05279116,-0.01685067,0.00305302,0.01813140,-0.00155
 232,0.00214720,0.00121949,0.00086067,-0.00065145,-0.00035926,-0.000009
 85,0.00003041,-0.00000674,0.00008847,0.00004932,0.00004095,-0.00011331
 ,0.00000619,-0.00000819,0.00011382,-0.00033146,0.00066460,-0.00007368,
 0.00021722,-0.00002401,0.00076514,-0.00681958,0.00028753,-0.00022961,0
 .00114910,0.00053306,-0.04259455,0.08135404,0.00008801,-0.00011053,-0.
 00024115,-0.00024983,-0.00066391,0.00125588,-0.00044322,0.00031708,-0.
 00016440,0.00037220,-0.00001651,-0.00020179,-0.00329715,0.00533263,-0.
 00390992,0.21622117,-0.06729831,-0.22608638,-0.01338447,-0.00039614,0.
 00050808,0.00082369,-0.00003923,0.00049222,-0.00034823,0.00006619,-0.0
 0022466,-0.00001860,0.00008937,-0.00000211,-0.00007307,-0.00005445,-0.
 00003680,-0.00013716,0.00001056,0.00013741,-0.00001871,0.00006430,-0.0
 0025460,-0.00006585,-0.00000769,-0.00006312,0.00046682,-0.00118892,0.0
 0128277,-0.00050979,0.00027773,0.00162020,-0.19889583,0.06381801,0.223
 57559,0.00000658,0.00004770,-0.00001718,0.00021563,0.00019767,-0.00004
 515,0.00001205,-0.00016501,-0.00007225,0.00021317,0.00008412,-0.000287
 43,0.00020861,0.00182585,0.00085574,-0.02866578,0.00102352,0.02042120,
 -0.13652948,0.02105319,0.11676172,-0.00612148,0.00713471,0.00583176,0.
 00118481,-0.00153531,-0.00041585,0.00001198,-0.00001607,0.00000062,-0.
 00000585,-0.00000938,-0.00000517,0.00003521,-0.00000205,-0.00000586,-0
 .00001440,0.00003783,-0.00007703,0.00000230,-0.00002330,-0.00000617,0.
 00054391,-0.00085618,-0.00032056,0.00013817,-0.00034423,-0.00005900,-0
 .00288537,-0.00487254,0.00014856,0.16204151,0.00001158,0.00002411,-0.0
 0003520,0.00011903,-0.00002259,-0.00001397,0.00001184,-0.00011797,-0.0
 0002173,-0.00003509,0.00006982,-0.00001325,-0.00170695,0.00184778,0.00
 220391,-0.01617489,0.00245591,0.01371735,0.02622442,-0.05282598,-0.030
 92172,0.02252699,-0.01010094,-0.02839765,-0.00199202,-0.00171661,0.003
 59146,0.00001393,-0.00000237,0.00000270,-0.00000685,-0.00000458,-0.000
 00314,0.00002529,-0.00000098,-0.00000292,-0.00000613,0.00003724,-0.000
 07056,0.00001346,-0.00001032,-0.00001547,0.00056935,-0.00005060,-0.000
 70258,0.00018592,-0.00023279,-0.00026827,-0.00329447,-0.00254986,0.000
 08682,-0.02147107,0.06032642,0.00000374,-0.00003351,0.00003555,-0.0000
 9730,-0.00003565,-0.00015604,0.00007256,0.00006544,-0.00001343,-0.0003
 5130,0.00018057,0.00036404,-0.00018451,-0.00040017,0.00049263,-0.00295
 526,0.00210771,0.00778732,0.12272386,-0.02828913,-0.20243426,-0.001018
 05,-0.00438538,0.00033054,0.00010627,0.00222653,0.00019934,-0.00001853
 ,-0.00000007,-0.00000174,0.00000291,-0.00000156,0.00000148,-0.00000170
 ,0.00000514,-0.00000002,-0.00000357,0.00000416,-0.00000379,0.00000812,
 0.00000053,-0.00000545,0.00023322,0.00053904,0.00008266,0.00007137,-0.
 00007385,-0.00041964,-0.00188471,-0.00054416,0.00083412,-0.13193403,0.
 03304414,0.21551166,-0.00000545,0.00000969,0.00005810,0.00012146,0.000
 09027,-0.00039799,-0.00005048,-0.00043798,0.00023641,0.00019391,-0.000
 28703,0.00038038,-0.00005317,0.00531392,0.00066910,-0.02523114,-0.0056
 6015,-0.02669391,-0.09700837,0.02820361,-0.08750519,-0.00504248,0.0097
 6534,-0.00771353,0.00100259,-0.00126873,0.00065071,-0.00002962,-0.0000
 3199,0.00000694,0.00001675,0.00001410,0.00000670,-0.00000438,0.0000147
 5,-0.00002219,-0.00000119,-0.00000567,0.00004946,-0.00004043,0.0000234
 8,0.00002780,0.00014349,-0.00040518,0.00006246,0.00050038,-0.00187859,
 0.00083887,0.00104339,0.00016405,-0.00067853,0.00960845,-0.00501433,0.
 01522691,0.11483630,0.00000272,0.00001729,0.00000822,0.00001976,0.0000
 0598,-0.00006431,-0.00000646,-0.00030575,0.00023570,0.00028027,-0.0003
 9002,0.00026871,-0.00236999,0.00565858,-0.00338852,-0.01522888,0.00190
 380,-0.01716815,0.02939847,-0.06506183,0.05072661,0.01725544,-0.016177
 29,0.02972330,-0.00104876,-0.00119417,-0.00412202,0.00000104,-0.000010
 15,0.00000051,0.00000589,0.00000244,-0.00000327,0.00000853,0.00000150,
 -0.00000716,-0.00003368,0.00001822,0.00000571,0.00002893,0.00001202,0.
 00000966,0.00003961,-0.00031678,0.00007331,0.00124894,0.00048775,0.001
 72343,0.00111722,0.00015741,-0.00028698,-0.00210947,0.00287431,-0.0044
 0978,-0.02860957,0.07231668,0.00000155,0.00001146,0.00001427,0.0000890
 8,0.00008833,-0.00008753,-0.00008377,-0.00026216,-0.00005338,0.0002971
 9,-0.00013146,0.00033723,0.00029412,0.00106877,0.00154660,-0.01011632,
 -0.00490298,0.00041411,-0.08648328,0.05111418,-0.20991466,0.00168615,0
 .00310977,0.00261286,-0.00006511,-0.00223905,-0.00043850,-0.00001055,-
 0.00001901,0.00000393,0.00000497,0.00000521,-0.00000144,0.00001495,0.0
 0000403,-0.00001216,-0.00001615,0.00002175,-0.00001333,-0.00002838,-0.
 00000963,0.00001264,0.00016256,0.00009973,-0.00049030,-0.00023919,-0.0
 0166317,-0.00045662,0.00046858,-0.00079091,0.00147866,-0.01077393,0.00
 782009,-0.02260498,0.10479753,-0.05332495,0.22765260\\-0.00004575,0.00
 000064,0.00000283,0.00005457,-0.00001594,-0.00000772,-0.00006521,0.000
 10635,-0.00001039,-0.00000775,-0.00010386,0.00003773,0.00001419,0.0000
 2904,0.00000672,-0.00000213,-0.00001402,-0.00002462,-0.00002710,0.0000
 6842,0.00001502,0.00000619,-0.00002037,-0.00000747,0.00000363,-0.00001
 589,0.00000095,-0.00000472,0.00000219,-0.00000619,0.00001030,-0.000002
 43,-0.00000202,0.00000774,-0.00000444,-0.00000262,0.00001518,0.0000079
 4,0.00000303,0.00002309,-0.00000800,-0.00000997,-0.00000575,0.00000189
 ,-0.00000475,0.00000336,-0.00000502,0.00000084,-0.00000965,-0.00000147
 ,0.00000771,0.00001663,-0.00001237,-0.00000062,0.00001319,-0.00001266,
 0.00000153\\\@


 QUANTUM MECHANICS IS BOHRING -- M.S. GORDON
 Job cpu time:       0 days  1 hours 39 minutes 48.8 seconds.
 Elapsed time:       0 days  0 hours 24 minutes 57.6 seconds.
 File lengths (MBytes):  RWF=    137 Int=      0 D2E=      0 Chk=      9 Scr=      1
 Normal termination of Gaussian 16 at Tue Jun  1 13:49:32 2021.
### All Done ###
