### Starting Gaussian ###
 Entering Gaussian System, Link 0=g16
 Initial command:
 /cluster/software/gaussian/gaussian-16-A.03/avx2/g16/l1.exe "/local/scratch/cz9n3/Gau-19463.inp" -scrdir="/local/scratch/cz9n3/"
 Entering Link 1 = /cluster/software/gaussian/gaussian-16-A.03/avx2/g16/l1.exe PID=     19464.
  
 Copyright (c) 1988,1990,1992,1993,1995,1998,2003,2009,2016,
            Gaussian, Inc.  All Rights Reserved.
  
 This is part of the Gaussian(R) 16 program.  It is based on
 the Gaussian(R) 09 system (copyright 2009, Gaussian, Inc.),
 the Gaussian(R) 03 system (copyright 2003, Gaussian, Inc.),
 the Gaussian(R) 98 system (copyright 1998, Gaussian, Inc.),
 the Gaussian(R) 94 system (copyright 1995, Gaussian, Inc.),
 the Gaussian 92(TM) system (copyright 1992, Gaussian, Inc.),
 the Gaussian 90(TM) system (copyright 1990, Gaussian, Inc.),
 the Gaussian 88(TM) system (copyright 1988, Gaussian, Inc.),
 the Gaussian 86(TM) system (copyright 1986, Carnegie Mellon
 University), and the Gaussian 82(TM) system (copyright 1983,
 Carnegie Mellon University). Gaussian is a federally registered
 trademark of Gaussian, Inc.
  
 This software contains proprietary and confidential information,
 including trade secrets, belonging to Gaussian, Inc.
  
 This software is provided under written license and may be
 used, copied, transmitted, or stored only in accord with that
 written license.
  
 The following legend is applicable only to US Government
 contracts under FAR:
  
                    RESTRICTED RIGHTS LEGEND
  
 Use, reproduction and disclosure by the US Government is
 subject to restrictions as set forth in subparagraphs (a)
 and (c) of the Commercial Computer Software - Restricted
 Rights clause in FAR 52.227-19.
  
 Gaussian, Inc.
 340 Quinnipiac St., Bldg. 40, Wallingford CT 06492
  
  
 ---------------------------------------------------------------
 Warning -- This program may not be used in any manner that
 competes with the business of Gaussian, Inc. or will provide
 assistance to any competitor of Gaussian, Inc.  The licensee
 of this program is prohibited from giving any competitor of
 Gaussian, Inc. access to this program.  By using this program,
 the user acknowledges that Gaussian, Inc. is engaged in the
 business of creating and licensing software in the field of
 computational chemistry and represents and warrants to the
 licensee that it is not a competitor of Gaussian, Inc. and that
 it will not use this program in any manner prohibited above.
 ---------------------------------------------------------------
  

 Cite this work as:
 Gaussian 16, Revision A.03,
 M. J. Frisch, G. W. Trucks, H. B. Schlegel, G. E. Scuseria, 
 M. A. Robb, J. R. Cheeseman, G. Scalmani, V. Barone, 
 G. A. Petersson, H. Nakatsuji, X. Li, M. Caricato, A. V. Marenich, 
 J. Bloino, B. G. Janesko, R. Gomperts, B. Mennucci, H. P. Hratchian, 
 J. V. Ortiz, A. F. Izmaylov, J. L. Sonnenberg, D. Williams-Young, 
 F. Ding, F. Lipparini, F. Egidi, J. Goings, B. Peng, A. Petrone, 
 T. Henderson, D. Ranasinghe, V. G. Zakrzewski, J. Gao, N. Rega, 
 G. Zheng, W. Liang, M. Hada, M. Ehara, K. Toyota, R. Fukuda, 
 J. Hasegawa, M. Ishida, T. Nakajima, Y. Honda, O. Kitao, H. Nakai, 
 T. Vreven, K. Throssell, J. A. Montgomery, Jr., J. E. Peralta, 
 F. Ogliaro, M. J. Bearpark, J. J. Heyd, E. N. Brothers, K. N. Kudin, 
 V. N. Staroverov, T. A. Keith, R. Kobayashi, J. Normand, 
 K. Raghavachari, A. P. Rendell, J. C. Burant, S. S. Iyengar, 
 J. Tomasi, M. Cossi, J. M. Millam, M. Klene, C. Adamo, R. Cammi, 
 J. W. Ochterski, R. L. Martin, K. Morokuma, O. Farkas, 
 J. B. Foresman, and D. J. Fox, Gaussian, Inc., Wallingford CT, 2016.
 
 ******************************************
 Gaussian 16:  ES64L-G16RevA.03 25-Dec-2016
                 1-Jun-2021 
 ******************************************
 %chk=CC1pCNCCtNpCN1.chk
 %NProcShared=20
 Will use up to   20 processors via shared memory.
 -----------------------------
 # opt freq b3lyp/6-31g(2df,p)
 -----------------------------
 1/18=20,19=15,26=3,38=1/1,3;
 2/9=110,12=2,17=6,18=5,40=1/2;
 3/5=1,6=6,7=104,11=2,25=1,30=1,71=1,74=-5/1,2,3;
 4//1;
 5/5=2,38=5/2;
 6/7=2,8=2,9=2,10=2,28=1/1;
 7//1,2,3,16;
 1/18=20,19=15,26=3/3(2);
 2/9=110/2;
 99//99;
 2/9=110/2;
 3/5=1,6=6,7=104,11=2,25=1,30=1,71=1,74=-5/1,2,3;
 4/5=5,16=3,69=1/1;
 5/5=2,38=5/2;
 7//1,2,3,16;
 1/18=20,19=15,26=3/3(-5);
 2/9=110/2;
 6/7=2,8=2,9=2,10=2,19=2,28=1/1;
 99/9=1/99;
 -------------------
 Title Card Required
 -------------------
 Symbolic Z-matrix:
 Charge =  0 Multiplicity = 1
 C                     0.9041    0.02127  -0.30536 
 C                     2.38089  -0.04852  -0.02569 
 C                     2.63403  -0.04506   1.45987 
 N                     4.00186  -0.0439    1.93394 
 C                     3.97758   0.00099   3.40992 
 C                     5.41069   0.00099   3.91648 
 N                     6.59957   0.00099   4.33672 
 C                     3.26722  -0.77796  -1.02888 
 N                     3.29645   0.68423  -0.92233 
 H                     0.36763  -0.58974   0.43284 
 H                     0.63451  -0.3499   -1.29497 
 H                     0.55512   1.05266  -0.19198 
 H                     2.13885  -0.93005   1.87344 
 H                     2.13133   0.84396   1.86218 
 H                     4.48027   0.77859   1.55834 
 H                     3.47309  -0.88599   3.80954 
 H                     3.47062   0.90017   3.77736 
 H                     2.81182  -1.18101  -1.9282 
 H                     4.16786  -1.2844   -0.71516 
 H                     2.80514   1.10337  -1.70745 
 

 GradGradGradGradGradGradGradGradGradGradGradGradGradGradGradGradGradGrad
 Berny optimization.
 Initialization pass.
                           ----------------------------
                           !    Initial Parameters    !
                           ! (Angstroms and Degrees)  !
 --------------------------                            --------------------------
 ! Name  Definition              Value          Derivative Info.                !
 --------------------------------------------------------------------------------
 ! R1    R(1,2)                  1.5047         estimate D2E/DX2                !
 ! R2    R(1,10)                 1.0982         estimate D2E/DX2                !
 ! R3    R(1,11)                 1.0908         estimate D2E/DX2                !
 ! R4    R(1,12)                 1.0947         estimate D2E/DX2                !
 ! R5    R(2,3)                  1.507          estimate D2E/DX2                !
 ! R6    R(2,8)                  1.5245         estimate D2E/DX2                !
 ! R7    R(2,9)                  1.4762         estimate D2E/DX2                !
 ! R8    R(3,4)                  1.4477         estimate D2E/DX2                !
 ! R9    R(3,13)                 1.0952         estimate D2E/DX2                !
 ! R10   R(3,14)                 1.0977         estimate D2E/DX2                !
 ! R11   R(4,5)                  1.4769         estimate D2E/DX2                !
 ! R12   R(4,15)                 1.023          estimate D2E/DX2                !
 ! R13   R(5,6)                  1.52           estimate D2E/DX2                !
 ! R14   R(5,16)                 1.0959         estimate D2E/DX2                !
 ! R15   R(5,17)                 1.0957         estimate D2E/DX2                !
 ! R16   R(6,7)                  1.261          estimate D2E/DX2                !
 ! R17   R(8,9)                  1.4664         estimate D2E/DX2                !
 ! R18   R(8,18)                 1.0856         estimate D2E/DX2                !
 ! R19   R(8,19)                 1.0798         estimate D2E/DX2                !
 ! R20   R(9,20)                 1.0166         estimate D2E/DX2                !
 ! A1    A(2,1,10)             109.19           estimate D2E/DX2                !
 ! A2    A(2,1,11)             113.2926         estimate D2E/DX2                !
 ! A3    A(2,1,12)             109.7143         estimate D2E/DX2                !
 ! A4    A(10,1,11)            107.4449         estimate D2E/DX2                !
 ! A5    A(10,1,12)            107.3879         estimate D2E/DX2                !
 ! A6    A(11,1,12)            109.6196         estimate D2E/DX2                !
 ! A7    A(1,2,3)              110.3644         estimate D2E/DX2                !
 ! A8    A(1,2,8)              118.0674         estimate D2E/DX2                !
 ! A9    A(1,2,9)              118.2169         estimate D2E/DX2                !
 ! A10   A(3,2,8)              123.5137         estimate D2E/DX2                !
 ! A11   A(3,2,9)              119.5673         estimate D2E/DX2                !
 ! A12   A(2,3,4)              118.7859         estimate D2E/DX2                !
 ! A13   A(2,3,13)             107.1246         estimate D2E/DX2                !
 ! A14   A(2,3,14)             106.6324         estimate D2E/DX2                !
 ! A15   A(4,3,13)             107.7097         estimate D2E/DX2                !
 ! A16   A(4,3,14)             108.1822         estimate D2E/DX2                !
 ! A17   A(13,3,14)            107.9985         estimate D2E/DX2                !
 ! A18   A(3,4,5)              108.1659         estimate D2E/DX2                !
 ! A19   A(3,4,15)             108.8015         estimate D2E/DX2                !
 ! A20   A(5,4,15)             110.4996         estimate D2E/DX2                !
 ! A21   A(4,5,6)              108.5156         estimate D2E/DX2                !
 ! A22   A(4,5,16)             110.3288         estimate D2E/DX2                !
 ! A23   A(4,5,17)             111.5738         estimate D2E/DX2                !
 ! A24   A(6,5,16)             108.2106         estimate D2E/DX2                !
 ! A25   A(6,5,17)             108.9338         estimate D2E/DX2                !
 ! A26   A(16,5,17)            109.2039         estimate D2E/DX2                !
 ! A27   A(2,8,18)             118.6118         estimate D2E/DX2                !
 ! A28   A(2,8,19)             121.2075         estimate D2E/DX2                !
 ! A29   A(9,8,18)             116.0244         estimate D2E/DX2                !
 ! A30   A(9,8,19)             115.4629         estimate D2E/DX2                !
 ! A31   A(18,8,19)            114.6082         estimate D2E/DX2                !
 ! A32   A(2,9,20)             111.963          estimate D2E/DX2                !
 ! A33   A(8,9,20)             110.2045         estimate D2E/DX2                !
 ! A34   L(5,6,7,19,-1)        180.0003         estimate D2E/DX2                !
 ! A35   L(5,6,7,19,-2)        180.0001         estimate D2E/DX2                !
 ! D1    D(10,1,2,3)           -38.4214         estimate D2E/DX2                !
 ! D2    D(10,1,2,8)           111.503          estimate D2E/DX2                !
 ! D3    D(10,1,2,9)           178.7816         estimate D2E/DX2                !
 ! D4    D(11,1,2,3)          -158.1196         estimate D2E/DX2                !
 ! D5    D(11,1,2,8)            -8.1951         estimate D2E/DX2                !
 ! D6    D(11,1,2,9)            59.0835         estimate D2E/DX2                !
 ! D7    D(12,1,2,3)            79.0198         estimate D2E/DX2                !
 ! D8    D(12,1,2,8)          -131.0558         estimate D2E/DX2                !
 ! D9    D(12,1,2,9)           -63.7772         estimate D2E/DX2                !
 ! D10   D(1,2,3,4)           -177.1351         estimate D2E/DX2                !
 ! D11   D(1,2,3,13)            60.6922         estimate D2E/DX2                !
 ! D12   D(1,2,3,14)           -54.7427         estimate D2E/DX2                !
 ! D13   D(8,2,3,4)             34.8958         estimate D2E/DX2                !
 ! D14   D(8,2,3,13)           -87.2768         estimate D2E/DX2                !
 ! D15   D(8,2,3,14)           157.2883         estimate D2E/DX2                !
 ! D16   D(9,2,3,4)            -34.9098         estimate D2E/DX2                !
 ! D17   D(9,2,3,13)          -157.0825         estimate D2E/DX2                !
 ! D18   D(9,2,3,14)            87.4826         estimate D2E/DX2                !
 ! D19   D(1,2,8,18)             2.7137         estimate D2E/DX2                !
 ! D20   D(1,2,8,19)          -149.5428         estimate D2E/DX2                !
 ! D21   D(3,2,8,18)           148.4156         estimate D2E/DX2                !
 ! D22   D(3,2,8,19)            -3.8409         estimate D2E/DX2                !
 ! D23   D(1,2,9,20)            -5.2078         estimate D2E/DX2                !
 ! D24   D(3,2,9,20)          -144.5364         estimate D2E/DX2                !
 ! D25   D(2,3,4,5)            178.3067         estimate D2E/DX2                !
 ! D26   D(2,3,4,15)            58.2366         estimate D2E/DX2                !
 ! D27   D(13,3,4,5)           -59.814          estimate D2E/DX2                !
 ! D28   D(13,3,4,15)         -179.8841         estimate D2E/DX2                !
 ! D29   D(14,3,4,5)            56.6918         estimate D2E/DX2                !
 ! D30   D(14,3,4,15)          -63.3783         estimate D2E/DX2                !
 ! D31   D(3,4,5,6)            179.9399         estimate D2E/DX2                !
 ! D32   D(3,4,5,16)            61.5457         estimate D2E/DX2                !
 ! D33   D(3,4,5,17)           -60.0347         estimate D2E/DX2                !
 ! D34   D(15,4,5,6)           -61.0603         estimate D2E/DX2                !
 ! D35   D(15,4,5,16)         -179.4545         estimate D2E/DX2                !
 ! D36   D(15,4,5,17)           58.9651         estimate D2E/DX2                !
 ! D37   D(18,8,9,20)            4.2901         estimate D2E/DX2                !
 ! D38   D(19,8,9,20)          142.5137         estimate D2E/DX2                !
 --------------------------------------------------------------------------------
 Trust Radius=3.00D-01 FncErr=1.00D-07 GrdErr=1.00D-06 EigMax=2.50D+02 EigMin=1.00D-04
 Number of steps in this run=    103 maximum allowed number of steps=    120.
 GradGradGradGradGradGradGradGradGradGradGradGradGradGradGradGradGradGrad

                          Input orientation:                          
 ---------------------------------------------------------------------
 Center     Atomic      Atomic             Coordinates (Angstroms)
 Number     Number       Type             X           Y           Z
 ---------------------------------------------------------------------
      1          6           0        0.904100    0.021270   -0.305360
      2          6           0        2.380890   -0.048520   -0.025690
      3          6           0        2.634030   -0.045060    1.459870
      4          7           0        4.001860   -0.043900    1.933940
      5          6           0        3.977580    0.000990    3.409920
      6          6           0        5.410690    0.000990    3.916480
      7          7           0        6.599570    0.000990    4.336720
      8          6           0        3.267220   -0.777960   -1.028880
      9          7           0        3.296450    0.684230   -0.922330
     10          1           0        0.367630   -0.589740    0.432840
     11          1           0        0.634510   -0.349900   -1.294970
     12          1           0        0.555120    1.052660   -0.191980
     13          1           0        2.138850   -0.930050    1.873440
     14          1           0        2.131330    0.843960    1.862180
     15          1           0        4.480270    0.778590    1.558340
     16          1           0        3.473090   -0.885990    3.809540
     17          1           0        3.470620    0.900170    3.777360
     18          1           0        2.811820   -1.181010   -1.928200
     19          1           0        4.167860   -1.284400   -0.715160
     20          1           0        2.805140    1.103370   -1.707450
 ---------------------------------------------------------------------
                    Distance matrix (angstroms):
                    1          2          3          4          5
     1  C    0.000000
     2  C    1.504658   0.000000
     3  C    2.472467   1.506977   0.000000
     4  N    3.822935   2.543170   1.447654   0.000000
     5  C    4.821825   3.788837   2.368532   1.476862   0.000000
     6  C    6.175249   4.972207   3.707680   2.432546   1.520002
     7  N    7.347632   6.068800   4.899377   3.538851   2.780969
     8  C    2.597419   1.524485   2.670571   3.139561   4.562271
     9  N    2.558028   1.476190   2.577895   3.030851   4.438372
    10  H    1.098213   2.134569   2.547162   3.969744   4.716323
    11  H    1.090768   2.179850   3.417624   4.675312   5.782321
    12  H    1.094718   2.138618   2.873232   4.195473   5.078674
    13  H    2.678953   2.107694   1.095194   2.063911   2.570707
    14  H    2.623193   2.103058   1.097687   2.071793   2.552398
    15  H    4.103158   2.756929   2.024030   1.022957   2.070195
    16  H    4.935102   4.074708   2.632895   2.122873   1.095874
    17  H    4.901846   4.068257   2.638959   2.138149   1.095694
    18  H    2.778216   2.255610   3.577850   4.198254   5.590317
    19  H    3.539045   2.279480   2.935874   2.929868   4.324895
    20  H    2.598221   2.082104   3.373438   4.001011   5.364451
                    6          7          8          9         10
     6  C    0.000000
     7  N    1.260967   0.000000
     8  C    5.445899   6.364038   0.000000
     9  N    5.324557   6.247802   1.466358   0.000000
    10  H    6.157691   7.377419   3.252641   3.469506   0.000000
    11  H    7.077728   8.211029   2.680523   2.879967   1.764674
    12  H    6.446861   7.625648   3.377434   2.860776   1.767210
    13  H    3.968096   5.180020   3.117661   3.429616   2.308324
    14  H    3.960423   5.176786   3.504154   3.022667   2.684985
    15  H    2.651635   3.579873   3.253928   2.750283   4.478045
    16  H    2.133650   3.292344   4.844003   4.988726   4.597146
    17  H    2.142837   3.303292   5.094844   4.707871   4.799395
    18  H    6.504732   7.415753   1.085640   2.173882   3.449373
    19  H    4.964770   5.752124   1.079840   2.162817   4.030162
    20  H    6.295452   7.221145   2.052651   1.016601   3.659087
                   11         12         13         14         15
    11  H    0.000000
    12  H    1.786075   0.000000
    13  H    3.555058   3.271895   0.000000
    14  H    3.692339   2.597608   1.774062   0.000000
    15  H    4.919831   4.306453   2.915645   2.369412   0.000000
    16  H    5.865232   5.318371   2.351727   2.930061   2.975423
    17  H    5.944302   4.927378   2.957740   2.337685   2.440947
    18  H    2.415037   3.618900   3.868893   4.350925   4.333557
    19  H    3.700545   4.334450   3.308065   3.914084   3.085827
    20  H    2.644573   2.713266   4.171512   3.641919   3.684688
                   16         17         18         19         20
    16  H    0.000000
    17  H    1.786452   0.000000
    18  H    5.783250   6.108907   0.000000
    19  H    4.595035   5.043930   1.822361   0.000000
    20  H    5.902617   5.528770   2.295031   2.922857   0.000000
 Stoichiometry    C6H11N3
 Framework group  C1[X(C6H11N3)]
 Deg. of freedom    54
 Full point group                 C1      NOp   1
 Largest Abelian subgroup         C1      NOp   1
 Largest concise Abelian subgroup C1      NOp   1
                         Standard orientation:                         
 ---------------------------------------------------------------------
 Center     Atomic      Atomic             Coordinates (Angstroms)
 Number     Number       Type             X           Y           Z
 ---------------------------------------------------------------------
      1          6           0       -2.828846   -1.093834    0.007781
      2          6           0       -1.724772   -0.072034   -0.022874
      3          6           0       -0.380932   -0.752974   -0.060237
      4          7           0        0.814829    0.062467   -0.030007
      5          6           0        1.985961   -0.837282   -0.034742
      6          6           0        3.246704    0.011262   -0.004610
      7          7           0        4.292597    0.715193    0.020387
      8          6           0       -2.007392    1.269588   -0.689378
      9          7           0       -1.894088    1.162443    0.768665
     10          1           0       -2.560017   -1.935449   -0.644513
     11          1           0       -3.786812   -0.704283   -0.339098
     12          1           0       -2.938463   -1.488724    1.022894
     13          1           0       -0.350127   -1.355711   -0.974134
     14          1           0       -0.351127   -1.436580    0.798083
     15          1           0        0.804081    0.632028    0.819655
     16          1           0        2.000002   -1.439098   -0.950471
     17          1           0        1.985297   -1.504026    0.834739
     18          1           0       -3.003795    1.457786   -1.077164
     19          1           0       -1.222368    1.828887   -1.176181
     20          1           0       -2.814376    1.216090    1.197230
 ---------------------------------------------------------------------
 Rotational constants (GHZ):           4.1874175           0.6713422           0.6114989
 Standard basis: 6-31G(2df,p) (6D, 7F)
 There are   334 symmetry adapted cartesian basis functions of A   symmetry.
 There are   307 symmetry adapted basis functions of A   symmetry.
   307 basis functions,   473 primitive gaussians,   334 cartesian basis functions
    34 alpha electrons       34 beta electrons
       nuclear repulsion energy       420.6690396557 Hartrees.
 NAtoms=   20 NActive=   20 NUniq=   20 SFac= 1.00D+00 NAtFMM=   60 NAOKFM=F Big=F
 Integral buffers will be    131072 words long.
 Raffenetti 2 integral format.
 Two-electron integral symmetry is turned on.
 One-electron integrals computed using PRISM.
 PrsmSu:  requested number of processors reduced to:  13 ShMem   1 Linda.
 NBasis=   307 RedAO= T EigKep=  2.09D-04  NBF=   307
 NBsUse=   307 1.00D-06 EigRej= -1.00D+00 NBFU=   307
 ExpMin= 1.61D-01 ExpMax= 4.17D+03 ExpMxC= 6.27D+02 IAcc=3 IRadAn=         5 AccDes= 0.00D+00
 Harris functional with IExCor=  402 and IRadAn=       5 diagonalized for initial guess.
 HarFok:  IExCor=  402 AccDes= 0.00D+00 IRadAn=         5 IDoV= 1 UseB2=F ITyADJ=14
 ICtDFT=  3500011 ScaDFX=  1.000000  1.000000  1.000000  1.000000
 FoFCou: FMM=F IPFlag=           0 FMFlag=      100000 FMFlg1=           0
         NFxFlg=           0 DoJE=T BraDBF=F KetDBF=T FulRan=T
         wScrn=  0.000000 ICntrl=       500 IOpCl=  0 I1Cent=   200000004 NGrid=           0
         NMat0=    1 NMatS0=      1 NMatT0=    0 NMatD0=    1 NMtDS0=    0 NMtDT0=    0
 Petite list used in FoFCou.
 Requested convergence on RMS density matrix=1.00D-08 within 128 cycles.
 Requested convergence on MAX density matrix=1.00D-06.
 Requested convergence on             energy=1.00D-06.
 No special actions if energy rises.
 Integral accuracy reduced to 1.0D-05 until final iterations.
 Initial convergence to 1.0D-05 achieved.  Increase integral accuracy.
 SCF Done:  E(RB3LYP) =  -399.445444062     A.U. after   14 cycles
            NFock= 14  Conv=0.37D-08     -V/T= 2.0092

 **********************************************************************

            Population analysis using the SCF density.

 **********************************************************************

 Orbital symmetries:
       Occupied  (A) (A) (A) (A) (A) (A) (A) (A) (A) (A) (A) (A)
                 (A) (A) (A) (A) (A) (A) (A) (A) (A) (A) (A) (A)
                 (A) (A) (A) (A) (A) (A) (A) (A) (A) (A)
       Virtual   (A) (A) (A) (A) (A) (A) (A) (A) (A) (A) (A) (A)
                 (A) (A) (A) (A) (A) (A) (A) (A) (A) (A) (A) (A)
                 (A) (A) (A) (A) (A) (A) (A) (A) (A) (A) (A) (A)
                 (A) (A) (A) (A) (A) (A) (A) (A) (A) (A) (A) (A)
                 (A) (A) (A) (A) (A) (A) (A) (A) (A) (A) (A) (A)
                 (A) (A) (A) (A) (A) (A) (A) (A) (A) (A) (A) (A)
                 (A) (A) (A) (A) (A) (A) (A) (A) (A) (A) (A) (A)
                 (A) (A) (A) (A) (A) (A) (A) (A) (A) (A) (A) (A)
                 (A) (A) (A) (A) (A) (A) (A) (A) (A) (A) (A) (A)
                 (A) (A) (A) (A) (A) (A) (A) (A) (A) (A) (A) (A)
                 (A) (A) (A) (A) (A) (A) (A) (A) (A) (A) (A) (A)
                 (A) (A) (A) (A) (A) (A) (A) (A) (A) (A) (A) (A)
                 (A) (A) (A) (A) (A) (A) (A) (A) (A) (A) (A) (A)
                 (A) (A) (A) (A) (A) (A) (A) (A) (A) (A) (A) (A)
                 (A) (A) (A) (A) (A) (A) (A) (A) (A) (A) (A) (A)
                 (A) (A) (A) (A) (A) (A) (A) (A) (A) (A) (A) (A)
                 (A) (A) (A) (A) (A) (A) (A) (A) (A) (A) (A) (A)
                 (A) (A) (A) (A) (A) (A) (A) (A) (A) (A) (A) (A)
                 (A) (A) (A) (A) (A) (A) (A) (A) (A) (A) (A) (A)
                 (A) (A) (A) (A) (A) (A) (A) (A) (A) (A) (A) (A)
                 (A) (A) (A) (A) (A) (A) (A) (A) (A) (A) (A) (A)
                 (A) (A) (A) (A) (A) (A) (A) (A) (A) (A) (A) (A)
                 (A) (A) (A) (A) (A) (A) (A) (A) (A)
 The electronic state is 1-A.
 Alpha  occ. eigenvalues --  -14.35141 -14.33782 -14.33030 -10.26836 -10.24654
 Alpha  occ. eigenvalues --  -10.23321 -10.22163 -10.21191 -10.19232  -0.96229
 Alpha  occ. eigenvalues --   -0.92752  -0.85796  -0.77234  -0.73349  -0.66943
 Alpha  occ. eigenvalues --   -0.64627  -0.58190  -0.53143  -0.50438  -0.49664
 Alpha  occ. eigenvalues --   -0.46511  -0.46408  -0.44990  -0.42382  -0.40127
 Alpha  occ. eigenvalues --   -0.39488  -0.37234  -0.35606  -0.33763  -0.32005
 Alpha  occ. eigenvalues --   -0.30837  -0.30537  -0.25609  -0.23916
 Alpha virt. eigenvalues --   -0.00059   0.01075   0.06500   0.08020   0.09419
 Alpha virt. eigenvalues --    0.10447   0.11789   0.12138   0.13878   0.14650
 Alpha virt. eigenvalues --    0.15626   0.16081   0.17343   0.19231   0.19555
 Alpha virt. eigenvalues --    0.20036   0.22432   0.23245   0.25528   0.27140
 Alpha virt. eigenvalues --    0.29290   0.34780   0.40503   0.43765   0.44476
 Alpha virt. eigenvalues --    0.46435   0.49654   0.50470   0.50985   0.52612
 Alpha virt. eigenvalues --    0.53470   0.55597   0.56510   0.57527   0.58267
 Alpha virt. eigenvalues --    0.58737   0.60621   0.61746   0.62490   0.65854
 Alpha virt. eigenvalues --    0.67135   0.67648   0.69051   0.71628   0.71940
 Alpha virt. eigenvalues --    0.72394   0.72933   0.73897   0.74594   0.75231
 Alpha virt. eigenvalues --    0.76771   0.77167   0.77625   0.78103   0.79589
 Alpha virt. eigenvalues --    0.79851   0.81709   0.82780   0.83425   0.84493
 Alpha virt. eigenvalues --    0.85526   0.85727   0.88167   0.90013   0.92276
 Alpha virt. eigenvalues --    1.01028   1.02492   1.04950   1.07961   1.09399
 Alpha virt. eigenvalues --    1.11412   1.12922   1.14008   1.20320   1.22154
 Alpha virt. eigenvalues --    1.23326   1.25090   1.26910   1.28382   1.31018
 Alpha virt. eigenvalues --    1.32309   1.33530   1.34567   1.36096   1.40218
 Alpha virt. eigenvalues --    1.42650   1.43857   1.48522   1.49175   1.50209
 Alpha virt. eigenvalues --    1.53519   1.54364   1.56790   1.59995   1.62578
 Alpha virt. eigenvalues --    1.63974   1.65697   1.68007   1.69979   1.72113
 Alpha virt. eigenvalues --    1.75455   1.77269   1.79183   1.80831   1.82316
 Alpha virt. eigenvalues --    1.87758   1.89745   1.91185   1.94737   1.95568
 Alpha virt. eigenvalues --    1.99514   1.99738   2.05745   2.11933   2.19743
 Alpha virt. eigenvalues --    2.20648   2.22416   2.24722   2.30051   2.31902
 Alpha virt. eigenvalues --    2.33841   2.35970   2.37133   2.40738   2.42745
 Alpha virt. eigenvalues --    2.45216   2.46918   2.51555   2.55865   2.57310
 Alpha virt. eigenvalues --    2.65451   2.66734   2.69928   2.73264   2.75591
 Alpha virt. eigenvalues --    2.76665   2.77861   2.79205   2.80724   2.82052
 Alpha virt. eigenvalues --    2.82644   2.84128   2.86623   2.88095   2.89149
 Alpha virt. eigenvalues --    2.90103   2.90688   2.94068   2.95590   2.98442
 Alpha virt. eigenvalues --    2.99365   3.00905   3.03152   3.04826   3.09248
 Alpha virt. eigenvalues --    3.11368   3.13271   3.18272   3.19046   3.21673
 Alpha virt. eigenvalues --    3.26506   3.27941   3.29561   3.31004   3.33373
 Alpha virt. eigenvalues --    3.36261   3.38759   3.40156   3.42484   3.47000
 Alpha virt. eigenvalues --    3.48783   3.53272   3.54762   3.56739   3.59857
 Alpha virt. eigenvalues --    3.60990   3.61193   3.63983   3.64512   3.64897
 Alpha virt. eigenvalues --    3.68287   3.69852   3.73098   3.76157   3.77365
 Alpha virt. eigenvalues --    3.86341   3.87739   3.89843   3.90930   3.94504
 Alpha virt. eigenvalues --    3.95727   3.96402   3.97724   4.01679   4.09107
 Alpha virt. eigenvalues --    4.11718   4.13297   4.14241   4.17418   4.18612
 Alpha virt. eigenvalues --    4.21548   4.22017   4.26076   4.26232   4.26815
 Alpha virt. eigenvalues --    4.28833   4.31929   4.33842   4.37345   4.40756
 Alpha virt. eigenvalues --    4.43691   4.44596   4.45488   4.46419   4.49529
 Alpha virt. eigenvalues --    4.51827   4.55166   4.56734   4.59241   4.60422
 Alpha virt. eigenvalues --    4.61394   4.63268   4.65256   4.66761   4.67734
 Alpha virt. eigenvalues --    4.68415   4.72396   4.73378   4.74485   4.76138
 Alpha virt. eigenvalues --    4.77493   4.78716   4.79089   4.81182   4.81950
 Alpha virt. eigenvalues --    4.84581   4.86090   4.89539   4.91707   4.95084
 Alpha virt. eigenvalues --    4.95736   4.99153   5.01633   5.07577   5.10356
 Alpha virt. eigenvalues --    5.11708   5.12704   5.17118   5.23128   5.28332
 Alpha virt. eigenvalues --    5.32227   5.36806   5.40574   5.42551   5.51700
 Alpha virt. eigenvalues --    5.58536   5.60958   5.67809   5.74444   6.02001
 Alpha virt. eigenvalues --    6.04786   9.96223  10.21477  10.85813  11.30916
 Alpha virt. eigenvalues --   11.36058  11.48671  11.59837  11.86751  12.19754
 Alpha virt. eigenvalues --   12.77747  13.44510  15.95738
          Condensed to atoms (all electrons):
               1          2          3          4          5          6
     1  C    5.120375   0.406769  -0.075598   0.002717  -0.000213   0.000001
     2  C    0.406769   4.410410   0.429285  -0.023809   0.002337  -0.000048
     3  C   -0.075598   0.429285   4.924061   0.381407  -0.063624   0.002641
     4  N    0.002717  -0.023809   0.381407   6.419862   0.360900  -0.034649
     5  C   -0.000213   0.002337  -0.063624   0.360900   4.954391   0.373652
     6  C    0.000001  -0.000048   0.002641  -0.034649   0.373652   4.470931
     7  N   -0.000000   0.000000  -0.000010  -0.001937  -0.041656   0.938432
     8  C   -0.029767   0.315060  -0.030078   0.000313   0.000076  -0.000003
     9  N   -0.038703   0.340577  -0.024246  -0.003795   0.000081   0.000005
    10  H    0.364023  -0.027621  -0.003369   0.000144  -0.000014   0.000000
    11  H    0.363627  -0.012940   0.003796  -0.000076   0.000001  -0.000000
    12  H    0.359209  -0.019377  -0.002836  -0.000033   0.000008   0.000000
    13  H   -0.003049  -0.010651   0.336947  -0.020120  -0.005374   0.000538
    14  H   -0.000101  -0.038430   0.341768  -0.052019  -0.008066   0.000149
    15  H    0.000194   0.002251  -0.056069   0.342396  -0.043316   0.004992
    16  H   -0.000015   0.000239  -0.005397  -0.023542   0.357589  -0.013299
    17  H    0.000037  -0.000308  -0.001742  -0.040435   0.352296  -0.027174
    18  H   -0.008799  -0.000706   0.002598   0.000083   0.000000   0.000000
    19  H    0.003153  -0.013911  -0.004494   0.006299  -0.000183   0.000000
    20  H   -0.009911  -0.057125   0.005167  -0.000096   0.000004  -0.000000
               7          8          9         10         11         12
     1  C   -0.000000  -0.029767  -0.038703   0.364023   0.363627   0.359209
     2  C    0.000000   0.315060   0.340577  -0.027621  -0.012940  -0.019377
     3  C   -0.000010  -0.030078  -0.024246  -0.003369   0.003796  -0.002836
     4  N   -0.001937   0.000313  -0.003795   0.000144  -0.000076  -0.000033
     5  C   -0.041656   0.000076   0.000081  -0.000014   0.000001   0.000008
     6  C    0.938432  -0.000003   0.000005   0.000000  -0.000000   0.000000
     7  N    6.470330  -0.000000  -0.000000  -0.000000  -0.000000  -0.000000
     8  C   -0.000000   5.047321   0.268068  -0.001676  -0.008179   0.005846
     9  N   -0.000000   0.268068   6.505651   0.004642   0.001263  -0.006839
    10  H   -0.000000  -0.001676   0.004642   0.597113  -0.026928  -0.033435
    11  H   -0.000000  -0.008179   0.001263  -0.026928   0.585001  -0.033030
    12  H   -0.000000   0.005846  -0.006839  -0.033435  -0.033030   0.599834
    13  H    0.000001  -0.005873   0.003008   0.004831  -0.000131  -0.000184
    14  H   -0.000002   0.007942  -0.003192  -0.000556  -0.000102   0.004648
    15  H    0.000502  -0.001008   0.011705  -0.000018  -0.000004   0.000037
    16  H    0.000007  -0.000024  -0.000005   0.000001   0.000000  -0.000000
    17  H   -0.000300   0.000036   0.000004   0.000000   0.000000  -0.000000
    18  H    0.000000   0.371485  -0.029039  -0.000001   0.004642   0.000166
    19  H   -0.000000   0.368328  -0.019075   0.000102   0.000124  -0.000165
    20  H    0.000000  -0.035956   0.345410   0.000042   0.001622   0.002566
              13         14         15         16         17         18
     1  C   -0.003049  -0.000101   0.000194  -0.000015   0.000037  -0.008799
     2  C   -0.010651  -0.038430   0.002251   0.000239  -0.000308  -0.000706
     3  C    0.336947   0.341768  -0.056069  -0.005397  -0.001742   0.002598
     4  N   -0.020120  -0.052019   0.342396  -0.023542  -0.040435   0.000083
     5  C   -0.005374  -0.008066  -0.043316   0.357589   0.352296   0.000000
     6  C    0.000538   0.000149   0.004992  -0.013299  -0.027174   0.000000
     7  N    0.000001  -0.000002   0.000502   0.000007  -0.000300   0.000000
     8  C   -0.005873   0.007942  -0.001008  -0.000024   0.000036   0.371485
     9  N    0.003008  -0.003192   0.011705  -0.000005   0.000004  -0.029039
    10  H    0.004831  -0.000556  -0.000018   0.000001   0.000000  -0.000001
    11  H   -0.000131  -0.000102  -0.000004   0.000000   0.000000   0.004642
    12  H   -0.000184   0.004648   0.000037  -0.000000  -0.000000   0.000166
    13  H    0.628010  -0.051432   0.006907   0.006764  -0.001911   0.000129
    14  H   -0.051432   0.711575  -0.004647  -0.002281   0.015926  -0.000061
    15  H    0.006907  -0.004647   0.491616   0.005157  -0.005602   0.000048
    16  H    0.006764  -0.002281   0.005157   0.557394  -0.045915  -0.000000
    17  H   -0.001911   0.015926  -0.005602  -0.045915   0.616373   0.000000
    18  H    0.000129  -0.000061   0.000048  -0.000000   0.000000   0.608923
    19  H    0.000282   0.000133  -0.000860  -0.000005   0.000011  -0.046400
    20  H   -0.000180   0.000138  -0.000358   0.000000  -0.000000  -0.011220
              19         20
     1  C    0.003153  -0.009911
     2  C   -0.013911  -0.057125
     3  C   -0.004494   0.005167
     4  N    0.006299  -0.000096
     5  C   -0.000183   0.000004
     6  C    0.000000  -0.000000
     7  N   -0.000000   0.000000
     8  C    0.368328  -0.035956
     9  N   -0.019075   0.345410
    10  H    0.000102   0.000042
    11  H    0.000124   0.001622
    12  H   -0.000165   0.002566
    13  H    0.000282  -0.000180
    14  H    0.000133   0.000138
    15  H   -0.000860  -0.000358
    16  H   -0.000005   0.000000
    17  H    0.000011  -0.000000
    18  H   -0.046400  -0.011220
    19  H    0.569804   0.003353
    20  H    0.003353   0.526415
 Mulliken charges:
               1
     1  C   -0.453948
     2  C    0.298000
     3  C   -0.160205
     4  N   -0.313608
     5  C   -0.238889
     6  C    0.283832
     7  N   -0.365367
     8  C   -0.271911
     9  N   -0.355521
    10  H    0.122718
    11  H    0.121315
    12  H    0.123584
    13  H    0.111488
    14  H    0.078611
    15  H    0.246076
    16  H    0.163334
    17  H    0.138705
    18  H    0.108152
    19  H    0.133505
    20  H    0.230130
 Sum of Mulliken charges =  -0.00000
 Mulliken charges with hydrogens summed into heavy atoms:
               1
     1  C   -0.086331
     2  C    0.298000
     3  C    0.029895
     4  N   -0.067532
     5  C    0.063150
     6  C    0.283832
     7  N   -0.365367
     8  C   -0.030254
     9  N   -0.125391
 Electronic spatial extent (au):  <R**2>=           1807.8602
 Charge=             -0.0000 electrons
 Dipole moment (field-independent basis, Debye):
    X=             -4.8461    Y=             -3.0481    Z=              0.0469  Tot=              5.7252
 Quadrupole moment (field-independent basis, Debye-Ang):
   XX=            -68.0670   YY=            -54.9363   ZZ=            -53.9755
   XY=             -7.9670   XZ=              0.3316   YZ=             -0.2748
 Traceless Quadrupole moment (field-independent basis, Debye-Ang):
   XX=             -9.0741   YY=              4.0566   ZZ=              5.0174
   XY=             -7.9670   XZ=              0.3316   YZ=             -0.2748
 Octapole moment (field-independent basis, Debye-Ang**2):
  XXX=           -134.1271  YYY=             -2.3611  ZZZ=              2.1319  XYY=             -3.9623
  XXY=            -20.1295  XXZ=              2.8220  XZZ=             -1.5153  YZZ=             -1.4633
  YYZ=             -3.1639  XYZ=              2.1279
 Hexadecapole moment (field-independent basis, Debye-Ang**3):
 XXXX=          -2407.8113 YYYY=           -344.1307 ZZZZ=           -126.3771 XXXY=           -148.0023
 XXXZ=            -20.5904 YYYX=            -12.3917 YYYZ=             -0.9387 ZZZX=             -6.9254
 ZZZY=              1.5885 XXYY=           -396.5775 XXZZ=           -341.6203 YYZZ=            -73.5533
 XXYZ=              4.4723 YYXZ=              1.3305 ZZXY=             -5.2972
 N-N= 4.206690396557D+02 E-N=-1.768385028573D+03  KE= 3.958197609330D+02
 PrsmSu:  requested number of processors reduced to:  13 ShMem   1 Linda.
 Calling FoFJK, ICntrl=      2127 FMM=F ISym2X=0 I1Cent= 0 IOpClX= 0 NMat=1 NMatS=1 NMatT=0.
 ***** Axes restored to original set *****
 -------------------------------------------------------------------
 Center     Atomic                   Forces (Hartrees/Bohr)
 Number     Number              X              Y              Z
 -------------------------------------------------------------------
      1        6          -0.006066178   -0.001312394    0.004412075
      2        6           0.014312369   -0.014253409   -0.028539488
      3        6           0.001122834    0.005448092    0.002160329
      4        7           0.005172815   -0.004666567    0.001648572
      5        6           0.036881436    0.003105838   -0.009861082
      6        6           0.144679037   -0.000374271    0.055351453
      7        7          -0.171019952    0.000499026   -0.060525579
      8        6          -0.008605422    0.007289684    0.009508231
      9        7           0.005510305    0.005076178    0.010409414
     10        1          -0.002135437    0.001028964   -0.002756324
     11        1           0.000934717    0.001894009   -0.002192994
     12        1          -0.003031667    0.000620254   -0.000862652
     13        1          -0.001927024   -0.000217546    0.001392899
     14        1          -0.010765052    0.002571227    0.002659691
     15        1          -0.001072015   -0.005192661    0.003421275
     16        1           0.000065114    0.000849054   -0.001334617
     17        1          -0.001715626    0.001725657    0.006942356
     18        1          -0.003310323   -0.003830905    0.002221526
     19        1           0.003334924   -0.001050971    0.003349179
     20        1          -0.002364855    0.000790741    0.002595735
 -------------------------------------------------------------------
 Cartesian Forces:  Max     0.171019952 RMS     0.031742564

 GradGradGradGradGradGradGradGradGradGradGradGradGradGradGradGradGradGrad
 Berny optimization.
 FormGI is forming the generalized inverse of G from B-inverse, IUseBI=4.
 Internal  Forces:  Max     0.181414103 RMS     0.019854315
 Search for a local minimum.
 Step number   1 out of a maximum of  103
 All quantities printed in internal units (Hartrees-Bohrs-Radians)
 Mixed Optimization -- RFO/linear search
 Second derivative matrix not updated -- first step.
 ITU=  0
     Eigenvalues ---    0.00674   0.00675   0.00704   0.01061   0.02074
     Eigenvalues ---    0.02321   0.03218   0.03329   0.03504   0.03531
     Eigenvalues ---    0.03531   0.03860   0.05383   0.05536   0.05642
     Eigenvalues ---    0.06037   0.07436   0.07584   0.10351   0.10361
     Eigenvalues ---    0.12121   0.12657   0.13473   0.16000   0.16000
     Eigenvalues ---    0.16000   0.16000   0.16000   0.16000   0.17085
     Eigenvalues ---    0.18310   0.22135   0.22430   0.23449   0.25402
     Eigenvalues ---    0.29734   0.30366   0.31656   0.31894   0.33880
     Eigenvalues ---    0.33939   0.34143   0.34163   0.34219   0.34273
     Eigenvalues ---    0.34645   0.34724   0.34931   0.35321   0.36014
     Eigenvalues ---    0.38554   0.43870   0.44885   0.79313
 RFO step:  Lambda=-5.23217509D-02 EMin= 6.73652267D-03
 Linear search not attempted -- first point.
 Iteration  1 RMS(Cart)=  0.12634157 RMS(Int)=  0.00421599
 Iteration  2 RMS(Cart)=  0.00719938 RMS(Int)=  0.00036080
 Iteration  3 RMS(Cart)=  0.00001662 RMS(Int)=  0.00036066
 Iteration  4 RMS(Cart)=  0.00000000 RMS(Int)=  0.00036066
 Variable       Old X    -DE/DX   Delta X   Delta X   Delta X     New X
                                 (Linear)    (Quad)   (Total)
    R1        2.84339   0.01047   0.00000   0.02821   0.02821   2.87160
    R2        2.07532  -0.00138   0.00000  -0.00353  -0.00353   2.07179
    R3        2.06125   0.00111   0.00000   0.00279   0.00279   2.06404
    R4        2.06872   0.00146   0.00000   0.00370   0.00370   2.07242
    R5        2.84777   0.00208   0.00000   0.00563   0.00563   2.85340
    R6        2.88086  -0.01873   0.00000  -0.05785  -0.05753   2.82333
    R7        2.78959  -0.00530   0.00000  -0.01543  -0.01495   2.77465
    R8        2.73567   0.01085   0.00000   0.02477   0.02477   2.76044
    R9        2.06962   0.00157   0.00000   0.00399   0.00399   2.07361
   R10        2.07433   0.00799   0.00000   0.02039   0.02039   2.09472
   R11        2.79086  -0.00939   0.00000  -0.02339  -0.02339   2.76748
   R12        1.93311  -0.00593   0.00000  -0.01208  -0.01208   1.92103
   R13        2.87239  -0.02656   0.00000  -0.07461  -0.07461   2.79778
   R14        2.07090  -0.00120   0.00000  -0.00306  -0.00306   2.06784
   R15        2.07056   0.00454   0.00000   0.01152   0.01152   2.08208
   R16        2.38288  -0.18141   0.00000  -0.21458  -0.21458   2.16831
   R17        2.77102   0.00505   0.00000   0.01846   0.01766   2.78868
   R18        2.05156   0.00097   0.00000   0.00239   0.00239   2.05396
   R19        2.04060   0.00425   0.00000   0.01030   0.01030   2.05090
   R20        1.92110  -0.00054   0.00000  -0.00107  -0.00107   1.92003
    A1        1.90573   0.00505   0.00000   0.02669   0.02657   1.93229
    A2        1.97733  -0.00328   0.00000  -0.01764  -0.01755   1.95978
    A3        1.91488   0.00351   0.00000   0.01570   0.01553   1.93041
    A4        1.87527  -0.00077   0.00000  -0.00230  -0.00218   1.87309
    A5        1.87427  -0.00282   0.00000  -0.00876  -0.00914   1.86513
    A6        1.91322  -0.00177   0.00000  -0.01353  -0.01349   1.89973
    A7        1.92622   0.01119   0.00000   0.03769   0.03798   1.96421
    A8        2.06066  -0.00107   0.00000   0.00653   0.00669   2.06735
    A9        2.06327   0.00162   0.00000   0.00760   0.00762   2.07089
   A10        2.15572  -0.00979   0.00000  -0.03546  -0.03602   2.11970
   A11        2.08684  -0.01354   0.00000  -0.05588  -0.05617   2.03068
   A12        2.07321  -0.02577   0.00000  -0.09426  -0.09381   1.97940
   A13        1.86968   0.00781   0.00000   0.02186   0.02156   1.89124
   A14        1.86109   0.00457   0.00000   0.01348   0.01478   1.87587
   A15        1.87989   0.00665   0.00000   0.01866   0.01793   1.89782
   A16        1.88814   0.01283   0.00000   0.06216   0.06221   1.95034
   A17        1.88493  -0.00529   0.00000  -0.01909  -0.01994   1.86499
   A18        1.88785   0.01350   0.00000   0.04806   0.04806   1.93591
   A19        1.89894  -0.00234   0.00000  -0.00074  -0.00053   1.89841
   A20        1.92858  -0.00546   0.00000  -0.02167  -0.02190   1.90669
   A21        1.89395   0.00718   0.00000   0.02677   0.02643   1.92038
   A22        1.92560  -0.00454   0.00000  -0.02244  -0.02225   1.90336
   A23        1.94733   0.00760   0.00000   0.03822   0.03794   1.98527
   A24        1.88863  -0.00202   0.00000  -0.00886  -0.00871   1.87992
   A25        1.90125  -0.00551   0.00000  -0.01840  -0.01912   1.88213
   A26        1.90597  -0.00295   0.00000  -0.01641  -0.01620   1.88977
   A27        2.07017  -0.00480   0.00000  -0.02637  -0.02669   2.04348
   A28        2.11547   0.00164   0.00000  -0.00035  -0.00039   2.11508
   A29        2.02501   0.00563   0.00000   0.03569   0.03586   2.06087
   A30        2.01521  -0.00453   0.00000  -0.01350  -0.01356   2.00165
   A31        2.00029   0.00150   0.00000   0.00789   0.00734   2.00763
   A32        1.95412  -0.00371   0.00000  -0.02288  -0.02260   1.93152
   A33        1.92343   0.00281   0.00000   0.01507   0.01482   1.93825
   A34        3.14160   0.00021   0.00000   0.00237   0.00237   3.14397
   A35        3.14159  -0.00099   0.00000  -0.01129  -0.01129   3.13030
    D1       -0.67058  -0.00224   0.00000  -0.02701  -0.02733  -0.69791
    D2        1.94609  -0.00462   0.00000  -0.02321  -0.02327   1.92283
    D3        3.12033   0.00380   0.00000   0.00840   0.00837   3.12870
    D4       -2.75971  -0.00266   0.00000  -0.03122  -0.03139  -2.79109
    D5       -0.14303  -0.00503   0.00000  -0.02743  -0.02732  -0.17036
    D6        1.03120   0.00339   0.00000   0.00418   0.00432   1.03552
    D7        1.37916  -0.00067   0.00000  -0.01293  -0.01301   1.36615
    D8       -2.28735  -0.00304   0.00000  -0.00914  -0.00894  -2.29630
    D9       -1.11312   0.00538   0.00000   0.02248   0.02270  -1.09043
   D10       -3.09159  -0.00165   0.00000  -0.00709  -0.00713  -3.09872
   D11        1.05928   0.00112   0.00000   0.01631   0.01628   1.07556
   D12       -0.95544   0.00127   0.00000   0.02132   0.02145  -0.93399
   D13        0.60905  -0.00278   0.00000  -0.02805  -0.02766   0.58139
   D14       -1.52327  -0.00001   0.00000  -0.00466  -0.00424  -1.52751
   D15        2.74520   0.00014   0.00000   0.00035   0.00092   2.74612
   D16       -0.60929  -0.00119   0.00000  -0.01550  -0.01604  -0.62533
   D17       -2.74161   0.00158   0.00000   0.00790   0.00737  -2.73423
   D18        1.52686   0.00173   0.00000   0.01290   0.01254   1.53940
   D19        0.04736  -0.00455   0.00000  -0.04318  -0.04276   0.00460
   D20       -2.61002  -0.00103   0.00000  -0.00122  -0.00120  -2.61122
   D21        2.59034  -0.00009   0.00000  -0.01315  -0.01310   2.57724
   D22       -0.06704   0.00342   0.00000   0.02880   0.02846  -0.03858
   D23       -0.09089   0.00212   0.00000   0.00764   0.00786  -0.08303
   D24       -2.52264  -0.00121   0.00000   0.00845   0.00837  -2.51427
   D25        3.11204  -0.00046   0.00000  -0.00179  -0.00234   3.10970
   D26        1.01642  -0.00042   0.00000  -0.00333  -0.00413   1.01229
   D27       -1.04395  -0.00281   0.00000  -0.02420  -0.02435  -1.06830
   D28       -3.13957  -0.00277   0.00000  -0.02575  -0.02614   3.11748
   D29        0.98946   0.00115   0.00000  -0.00444  -0.00338   0.98608
   D30       -1.10616   0.00119   0.00000  -0.00598  -0.00516  -1.11132
   D31        3.14054  -0.00193   0.00000  -0.01192  -0.01214   3.12840
   D32        1.07417  -0.00115   0.00000  -0.00425  -0.00415   1.07002
   D33       -1.04780   0.00059   0.00000   0.00621   0.00670  -1.04111
   D34       -1.06570   0.00027   0.00000   0.00385   0.00340  -1.06231
   D35       -3.13207   0.00105   0.00000   0.01152   0.01138  -3.12069
   D36        1.02914   0.00279   0.00000   0.02199   0.02223   1.05137
   D37        0.07488  -0.00071   0.00000  -0.00844  -0.00866   0.06621
   D38        2.48733   0.00319   0.00000   0.03276   0.03317   2.52050
         Item               Value     Threshold  Converged?
 Maximum Force            0.181414     0.000450     NO 
 RMS     Force            0.019854     0.000300     NO 
 Maximum Displacement     0.493359     0.001800     NO 
 RMS     Displacement     0.126853     0.001200     NO 
 Predicted change in Energy=-2.881918D-02
 GradGradGradGradGradGradGradGradGradGradGradGradGradGradGradGradGradGrad

                          Input orientation:                          
 ---------------------------------------------------------------------
 Center     Atomic      Atomic             Coordinates (Angstroms)
 Number     Number       Type             X           Y           Z
 ---------------------------------------------------------------------
      1          6           0        0.883310    0.015946   -0.394818
      2          6           0        2.346418   -0.051314    0.010062
      3          6           0        2.533432   -0.041242    1.508357
      4          7           0        3.935472   -0.047885    1.918315
      5          6           0        4.054009    0.005983    3.377003
      6          6           0        5.480873   -0.020022    3.771120
      7          7           0        6.587107   -0.028768    4.075646
      8          6           0        3.301925   -0.764799   -0.889996
      9          7           0        3.329579    0.706118   -0.774499
     10          1           0        0.268744   -0.604917    0.267607
     11          1           0        0.719342   -0.336580   -1.415520
     12          1           0        0.506059    1.042157   -0.309546
     13          1           0        2.040390   -0.928976    1.924188
     14          1           0        1.993647    0.841800    1.905332
     15          1           0        4.398233    0.762117    1.514396
     16          1           0        3.573615   -0.878001    3.807340
     17          1           0        3.595939    0.901501    3.826624
     18          1           0        2.894784   -1.199000   -1.799431
     19          1           0        4.178643   -1.267120   -0.493902
     20          1           0        2.887109    1.143694   -1.577665
 ---------------------------------------------------------------------
                    Distance matrix (angstroms):
                    1          2          3          4          5
     1  C    0.000000
     2  C    1.519584   0.000000
     3  C    2.519573   1.509955   0.000000
     4  N    3.830189   2.483251   1.460762   0.000000
     5  C    4.927480   3.775638   2.409610   1.464487   0.000000
     6  C    6.204346   4.896054   3.715905   2.412867   1.480522
     7  N    7.247092   5.874770   4.798271   3.418422   2.627908
     8  C    2.589298   1.494041   2.620346   2.966810   4.400797
     9  N    2.569966   1.468279   2.530579   2.861272   4.271996
    10  H    1.096344   2.165534   2.643105   4.059559   4.936575
    11  H    1.092243   2.181981   3.453579   4.641260   5.848558
    12  H    1.096676   2.164428   2.930659   4.232307   5.220368
    13  H    2.758532   2.127869   1.097305   2.089902   2.653202
    14  H    2.684319   2.124653   1.108477   2.135976   2.666364
    15  H    4.068974   2.671073   2.030493   1.016563   2.039493
    16  H    5.069025   4.075383   2.658471   2.094862   1.094256
    17  H    5.095403   4.127385   2.718832   2.158300   1.101789
    18  H    2.737711   2.211821   3.523130   4.028615   5.439785
    19  H    3.537696   2.255928   2.866799   2.713754   4.076791
    20  H    2.585760   2.059434   3.324559   3.839376   5.215820
                    6          7          8          9         10
     6  C    0.000000
     7  N    1.147418   0.000000
     8  C    5.198895   5.999314   0.000000
     9  N    5.081141   5.888587   1.475704   0.000000
    10  H    6.307376   7.399651   3.250508   3.489056   0.000000
    11  H    7.047952   8.042284   2.670072   2.882961   1.762941
    12  H    6.521413   7.573370   3.379183   2.881209   1.761328
    13  H    4.009274   5.109969   3.088375   3.408585   2.447041
    14  H    4.047796   5.154419   3.479456   2.997435   2.783959
    15  H    2.622337   3.460733   3.051961   2.526697   4.525035
    16  H    2.091667   3.142343   4.706549   4.854095   4.850409
    17  H    2.098871   3.142371   5.010939   4.612965   5.099621
    18  H    6.253710   7.036990   1.086907   2.206583   3.394359
    19  H    4.630493   5.311778   1.085289   2.166406   4.038034
    20  H    6.057338   6.857447   2.070581   1.016035   3.649453
                   11         12         13         14         15
    11  H    0.000000
    12  H    1.780332   0.000000
    13  H    3.640021   3.350985   0.000000
    14  H    3.747064   2.675582   1.771493   0.000000
    15  H    4.829677   4.307458   2.930383   2.437461   0.000000
    16  H    5.976478   5.481392   2.428917   3.011919   2.937273
    17  H    6.106368   5.164789   3.064252   2.502453   2.451428
    18  H    2.371435   3.598409   3.829915   4.324602   4.133738
    19  H    3.698926   4.342190   3.245555   3.870152   2.863439
    20  H    2.629965   2.699599   4.156425   3.608418   3.462649
                   16         17         18         19         20
    16  H    0.000000
    17  H    1.779747   0.000000
    18  H    5.656831   6.046174   0.000000
    19  H    4.360981   4.869230   1.832305   0.000000
    20  H    5.792825   5.455954   2.353179   2.941875   0.000000
 Stoichiometry    C6H11N3
 Framework group  C1[X(C6H11N3)]
 Deg. of freedom    54
 Full point group                 C1      NOp   1
 Largest Abelian subgroup         C1      NOp   1
 Largest concise Abelian subgroup C1      NOp   1
                         Standard orientation:                         
 ---------------------------------------------------------------------
 Center     Atomic      Atomic             Coordinates (Angstroms)
 Number     Number       Type             X           Y           Z
 ---------------------------------------------------------------------
      1          6           0       -2.937592   -0.955592    0.000228
      2          6           0       -1.707040   -0.064614   -0.031956
      3          6           0       -0.420710   -0.854948   -0.058271
      4          7           0        0.775761   -0.017337   -0.031975
      5          6           0        1.988463   -0.838194   -0.015588
      6          6           0        3.188047    0.029491   -0.007402
      7          7           0        4.117296    0.702357    0.010379
      8          6           0       -1.813726    1.272926   -0.689043
      9          7           0       -1.703064    1.159941    0.778162
     10          1           0       -2.806158   -1.822220   -0.658293
     11          1           0       -3.837515   -0.431031   -0.328358
     12          1           0       -3.104633   -1.346589    1.011127
     13          1           0       -0.406350   -1.461474   -0.972599
     14          1           0       -0.446400   -1.561291    0.795626
     15          1           0        0.751595    0.561434    0.803394
     16          1           0        2.022062   -1.444075   -0.926179
     17          1           0        2.054978   -1.514221    0.851881
     18          1           0       -2.779012    1.541826   -1.110093
     19          1           0       -0.957583    1.730563   -1.174264
     20          1           0       -2.605580    1.297929    1.223978
 ---------------------------------------------------------------------
 Rotational constants (GHZ):           4.2517482           0.7059015           0.6419453
 Standard basis: 6-31G(2df,p) (6D, 7F)
 There are   334 symmetry adapted cartesian basis functions of A   symmetry.
 There are   307 symmetry adapted basis functions of A   symmetry.
   307 basis functions,   473 primitive gaussians,   334 cartesian basis functions
    34 alpha electrons       34 beta electrons
       nuclear repulsion energy       426.5997953245 Hartrees.
 NAtoms=   20 NActive=   20 NUniq=   20 SFac= 1.00D+00 NAtFMM=   60 NAOKFM=F Big=F
 Integral buffers will be    131072 words long.
 Raffenetti 2 integral format.
 Two-electron integral symmetry is turned on.
 One-electron integrals computed using PRISM.
 PrsmSu:  requested number of processors reduced to:  13 ShMem   1 Linda.
 NBasis=   307 RedAO= T EigKep=  1.51D-04  NBF=   307
 NBsUse=   307 1.00D-06 EigRej= -1.00D+00 NBFU=   307
 Initial guess from the checkpoint file:  "CC1pCNCCtNpCN1.chk"
 B after Tr=     0.000000    0.000000    0.000000
         Rot=    0.999940    0.000941    0.000221    0.010937 Ang=   1.26 deg.
 ExpMin= 1.61D-01 ExpMax= 4.17D+03 ExpMxC= 6.27D+02 IAcc=2 IRadAn=         4 AccDes= 0.00D+00
 Harris functional with IExCor=  402 and IRadAn=       4 diagonalized for initial guess.
 HarFok:  IExCor=  402 AccDes= 0.00D+00 IRadAn=         4 IDoV= 1 UseB2=F ITyADJ=14
 ICtDFT=  3500011 ScaDFX=  1.000000  1.000000  1.000000  1.000000
 FoFCou: FMM=F IPFlag=           0 FMFlag=      100000 FMFlg1=           0
         NFxFlg=           0 DoJE=T BraDBF=F KetDBF=T FulRan=T
         wScrn=  0.000000 ICntrl=       500 IOpCl=  0 I1Cent=   200000004 NGrid=           0
         NMat0=    1 NMatS0=      1 NMatT0=    0 NMatD0=    1 NMtDS0=    0 NMtDT0=    0
 Petite list used in FoFCou.
 Requested convergence on RMS density matrix=1.00D-08 within 128 cycles.
 Requested convergence on MAX density matrix=1.00D-06.
 Requested convergence on             energy=1.00D-06.
 No special actions if energy rises.
 Integral accuracy reduced to 1.0D-05 until final iterations.
 Initial convergence to 1.0D-05 achieved.  Increase integral accuracy.
 SCF Done:  E(RB3LYP) =  -399.474252252     A.U. after   12 cycles
            NFock= 12  Conv=0.95D-08     -V/T= 2.0079
 PrsmSu:  requested number of processors reduced to:  13 ShMem   1 Linda.
 Calling FoFJK, ICntrl=      2127 FMM=F ISym2X=0 I1Cent= 0 IOpClX= 0 NMat=1 NMatS=1 NMatT=0.
 ***** Axes restored to original set *****
 -------------------------------------------------------------------
 Center     Atomic                   Forces (Hartrees/Bohr)
 Number     Number              X              Y              Z
 -------------------------------------------------------------------
      1        6          -0.000307022    0.000772260    0.002964633
      2        6          -0.000634506   -0.007203473   -0.009442952
      3        6           0.003440875    0.005112383    0.002979015
      4        7          -0.003974225   -0.000245459    0.004169703
      5        6           0.013540884   -0.000080823   -0.005521674
      6        6          -0.024537313    0.000167322   -0.006014742
      7        7           0.017536354    0.000101267    0.005056332
      8        6          -0.001467039    0.000979812    0.001628620
      9        7           0.001712267    0.002354278    0.002924784
     10        1           0.000192182   -0.000511276   -0.000864077
     11        1           0.000899076    0.001545647   -0.001396012
     12        1          -0.000496694   -0.000034558   -0.000449285
     13        1           0.000527433   -0.000331510    0.000927748
     14        1          -0.001266447   -0.001009963    0.001484755
     15        1          -0.000214093   -0.001496496   -0.002525466
     16        1          -0.001905838    0.000228583    0.000960124
     17        1          -0.001964641   -0.000262460    0.002096895
     18        1           0.000041034   -0.000435368   -0.000003108
     19        1          -0.000725043    0.000554405    0.001524177
     20        1          -0.000397243   -0.000204571   -0.000499469
 -------------------------------------------------------------------
 Cartesian Forces:  Max     0.024537313 RMS     0.004961809

 GradGradGradGradGradGradGradGradGradGradGradGradGradGradGradGradGradGrad
 Berny optimization.
 Using GEDIIS/GDIIS optimizer.
 FormGI is forming the generalized inverse of G from B-inverse, IUseBI=4.
 Internal  Forces:  Max     0.018247919 RMS     0.002677714
 Search for a local minimum.
 Step number   2 out of a maximum of  103
 All quantities printed in internal units (Hartrees-Bohrs-Radians)
 Mixed Optimization -- RFO/linear search
 Update second derivatives using D2CorX and points    1    2
 DE= -2.88D-02 DEPred=-2.88D-02 R= 1.00D+00
 TightC=F SS=  1.41D+00  RLast= 3.18D-01 DXNew= 5.0454D-01 9.5498D-01
 Trust test= 1.00D+00 RLast= 3.18D-01 DXMaxT set to 5.05D-01
 ITU=  1  0
 Use linear search instead of GDIIS.
     Eigenvalues ---    0.00674   0.00675   0.00704   0.01061   0.02066
     Eigenvalues ---    0.02317   0.03038   0.03347   0.03500   0.03531
     Eigenvalues ---    0.03532   0.04311   0.05510   0.05586   0.05730
     Eigenvalues ---    0.05835   0.07099   0.07590   0.09593   0.10761
     Eigenvalues ---    0.12114   0.12809   0.12988   0.15946   0.16000
     Eigenvalues ---    0.16000   0.16000   0.16000   0.16060   0.17078
     Eigenvalues ---    0.18503   0.21387   0.22327   0.23369   0.24919
     Eigenvalues ---    0.29608   0.30052   0.31640   0.31937   0.33879
     Eigenvalues ---    0.33945   0.34143   0.34153   0.34218   0.34273
     Eigenvalues ---    0.34695   0.34722   0.34872   0.35321   0.36021
     Eigenvalues ---    0.38638   0.43870   0.44885   0.93485
 RFO step:  Lambda=-2.87001729D-03 EMin= 6.73654478D-03
 Quartic linear search produced a step of -0.00601.
 Iteration  1 RMS(Cart)=  0.06486967 RMS(Int)=  0.00181458
 Iteration  2 RMS(Cart)=  0.00237458 RMS(Int)=  0.00015081
 Iteration  3 RMS(Cart)=  0.00000243 RMS(Int)=  0.00015080
 Iteration  4 RMS(Cart)=  0.00000000 RMS(Int)=  0.00015080
 Variable       Old X    -DE/DX   Delta X   Delta X   Delta X     New X
                                 (Linear)    (Quad)   (Total)
    R1        2.87160  -0.00027  -0.00017   0.00022   0.00005   2.87165
    R2        2.07179  -0.00034   0.00002  -0.00112  -0.00110   2.07069
    R3        2.06404   0.00067  -0.00002   0.00200   0.00199   2.06603
    R4        2.07242   0.00010  -0.00002   0.00043   0.00041   2.07283
    R5        2.85340   0.00375  -0.00003   0.01185   0.01181   2.86522
    R6        2.82333  -0.00431   0.00035  -0.01725  -0.01693   2.80640
    R7        2.77465  -0.00019   0.00009   0.00009   0.00018   2.77482
    R8        2.76044  -0.00195  -0.00015  -0.00409  -0.00424   2.75620
    R9        2.07361   0.00038  -0.00002   0.00125   0.00122   2.07483
   R10        2.09472   0.00034  -0.00012   0.00174   0.00162   2.09634
   R11        2.76748  -0.00319   0.00014  -0.00983  -0.00969   2.75779
   R12        1.92103  -0.00029   0.00007  -0.00108  -0.00100   1.92002
   R13        2.79778  -0.00701   0.00045  -0.02546  -0.02501   2.77277
   R14        2.06784   0.00103   0.00002   0.00286   0.00287   2.07072
   R15        2.08208   0.00146  -0.00007   0.00463   0.00456   2.08664
   R16        2.16831   0.01825   0.00129   0.01537   0.01666   2.18497
   R17        2.78868   0.00139  -0.00011   0.00412   0.00405   2.79273
   R18        2.05396   0.00016  -0.00001   0.00054   0.00052   2.05448
   R19        2.05090  -0.00029  -0.00006  -0.00041  -0.00047   2.05043
   R20        1.92003   0.00048   0.00001   0.00102   0.00102   1.92105
    A1        1.93229   0.00061  -0.00016   0.00858   0.00840   1.94069
    A2        1.95978  -0.00148   0.00011  -0.01269  -0.01259   1.94719
    A3        1.93041   0.00091  -0.00009   0.00526   0.00510   1.93551
    A4        1.87309   0.00061   0.00001   0.00517   0.00522   1.87830
    A5        1.86513  -0.00008   0.00005   0.00495   0.00493   1.87006
    A6        1.89973  -0.00053   0.00008  -0.01071  -0.01067   1.88906
    A7        1.96421   0.00381  -0.00023   0.01887   0.01816   1.98237
    A8        2.06735   0.00025  -0.00004   0.01658   0.01641   2.08377
    A9        2.07089   0.00001  -0.00005  -0.00850  -0.00859   2.06230
   A10        2.11970  -0.00349   0.00022  -0.01214  -0.01239   2.10731
   A11        2.03068  -0.00408   0.00034  -0.03556  -0.03538   1.99530
   A12        1.97940  -0.00809   0.00056  -0.04051  -0.03989   1.93950
   A13        1.89124   0.00333  -0.00013   0.01531   0.01486   1.90610
   A14        1.87587   0.00272  -0.00009   0.01696   0.01696   1.89283
   A15        1.89782   0.00117  -0.00011  -0.00409  -0.00420   1.89362
   A16        1.95034   0.00293  -0.00037   0.01947   0.01930   1.96964
   A17        1.86499  -0.00170   0.00012  -0.00519  -0.00523   1.85976
   A18        1.93591   0.00437  -0.00029   0.02356   0.02311   1.95902
   A19        1.89841  -0.00221   0.00000  -0.00590  -0.00627   1.89214
   A20        1.90669   0.00029   0.00013   0.01500   0.01503   1.92172
   A21        1.92038   0.00247  -0.00016   0.01540   0.01514   1.93552
   A22        1.90336  -0.00036   0.00013  -0.00557  -0.00546   1.89790
   A23        1.98527   0.00127  -0.00023   0.00864   0.00832   1.99359
   A24        1.87992  -0.00019   0.00005   0.00425   0.00429   1.88421
   A25        1.88213  -0.00103   0.00012   0.00086   0.00082   1.88295
   A26        1.88977  -0.00231   0.00010  -0.02420  -0.02412   1.86565
   A27        2.04348   0.00017   0.00016   0.00175   0.00185   2.04532
   A28        2.11508  -0.00125   0.00000  -0.01729  -0.01736   2.09772
   A29        2.06087   0.00128  -0.00022   0.00923   0.00897   2.06984
   A30        2.00165  -0.00151   0.00008   0.00021   0.00031   2.00195
   A31        2.00763   0.00068  -0.00004   0.00453   0.00434   2.01198
   A32        1.93152   0.00046   0.00014  -0.00174  -0.00160   1.92993
   A33        1.93825   0.00098  -0.00009  -0.00235  -0.00243   1.93582
   A34        3.14397   0.00062  -0.00001   0.01631   0.01629   3.16026
   A35        3.13030  -0.00029   0.00007  -0.00844  -0.00837   3.12194
    D1       -0.69791  -0.00142   0.00016  -0.09166  -0.09184  -0.78975
    D2        1.92283  -0.00144   0.00014  -0.05361  -0.05320   1.86963
    D3        3.12870   0.00047  -0.00005  -0.04413  -0.04420   3.08450
    D4       -2.79109  -0.00162   0.00019  -0.09564  -0.09574  -2.88683
    D5       -0.17036  -0.00165   0.00016  -0.05758  -0.05710  -0.22746
    D6        1.03552   0.00027  -0.00003  -0.04811  -0.04811   0.98741
    D7        1.36615  -0.00055   0.00008  -0.07679  -0.07701   1.28914
    D8       -2.29630  -0.00058   0.00005  -0.03874  -0.03838  -2.33467
    D9       -1.09043   0.00134  -0.00014  -0.02926  -0.02938  -1.11981
   D10       -3.09872  -0.00006   0.00004   0.01727   0.01722  -3.08150
   D11        1.07556   0.00134  -0.00010   0.03781   0.03772   1.11328
   D12       -0.93399   0.00025  -0.00013   0.02744   0.02713  -0.90686
   D13        0.58139  -0.00139   0.00017  -0.03216  -0.03188   0.54951
   D14       -1.52751   0.00001   0.00003  -0.01161  -0.01138  -1.53889
   D15        2.74612  -0.00108  -0.00001  -0.02199  -0.02197   2.72415
   D16       -0.62533  -0.00029   0.00010  -0.01841  -0.01835  -0.64368
   D17       -2.73423   0.00111  -0.00004   0.00213   0.00215  -2.73208
   D18        1.53940   0.00003  -0.00008  -0.00825  -0.00844   1.53096
   D19        0.00460  -0.00118   0.00026  -0.02690  -0.02648  -0.02187
   D20       -2.61122  -0.00057   0.00001  -0.00563  -0.00552  -2.61674
   D21        2.57724   0.00117   0.00008   0.02527   0.02522   2.60246
   D22       -0.03858   0.00178  -0.00017   0.04654   0.04618   0.00760
   D23       -0.08303  -0.00049  -0.00005  -0.02996  -0.02968  -0.11271
   D24       -2.51427  -0.00160  -0.00005  -0.00180  -0.00219  -2.51646
   D25        3.10970   0.00016   0.00001  -0.03049  -0.03068   3.07902
   D26        1.01229  -0.00147   0.00002  -0.05973  -0.05983   0.95247
   D27       -1.06830  -0.00005   0.00015  -0.04029  -0.04005  -1.10835
   D28        3.11748  -0.00168   0.00016  -0.06952  -0.06919   3.04829
   D29        0.98608   0.00033   0.00002  -0.03769  -0.03768   0.94840
   D30       -1.11132  -0.00130   0.00003  -0.06693  -0.06683  -1.17815
   D31        3.12840  -0.00003   0.00007   0.00779   0.00769   3.13609
   D32        1.07002  -0.00103   0.00002  -0.00305  -0.00314   1.06688
   D33       -1.04111   0.00133  -0.00004   0.02618   0.02607  -1.01504
   D34       -1.06231   0.00014  -0.00002   0.02476   0.02480  -1.03751
   D35       -3.12069  -0.00086  -0.00007   0.01392   0.01397  -3.10672
   D36        1.05137   0.00150  -0.00013   0.04315   0.04319   1.09455
   D37        0.06621   0.00030   0.00005   0.00203   0.00204   0.06825
   D38        2.52050   0.00115  -0.00020   0.02307   0.02293   2.54343
         Item               Value     Threshold  Converged?
 Maximum Force            0.018248     0.000450     NO 
 RMS     Force            0.002678     0.000300     NO 
 Maximum Displacement     0.223127     0.001800     NO 
 RMS     Displacement     0.065259     0.001200     NO 
 Predicted change in Energy=-1.513160D-03
 GradGradGradGradGradGradGradGradGradGradGradGradGradGradGradGradGradGrad

                          Input orientation:                          
 ---------------------------------------------------------------------
 Center     Atomic      Atomic             Coordinates (Angstroms)
 Number     Number       Type             X           Y           Z
 ---------------------------------------------------------------------
      1          6           0        0.877108    0.026050   -0.429397
      2          6           0        2.322965   -0.074155    0.027410
      3          6           0        2.485109   -0.061008    1.534864
      4          7           0        3.893873   -0.077834    1.912197
      5          6           0        4.080146    0.018789    3.356389
      6          6           0        5.505599   -0.008282    3.703209
      7          7           0        6.625690   -0.003999    3.990017
      8          6           0        3.314139   -0.764371   -0.836678
      9          7           0        3.334133    0.706672   -0.696444
     10          1           0        0.231437   -0.643762    0.149533
     11          1           0        0.769529   -0.240574   -1.484210
     12          1           0        0.493011    1.044243   -0.291829
     13          1           0        2.000487   -0.950661    1.958135
     14          1           0        1.941369    0.817503    1.938831
     15          1           0        4.359864    0.696184    1.447363
     16          1           0        3.600347   -0.844074    3.831771
     17          1           0        3.637691    0.922667    3.810807
     18          1           0        2.949031   -1.193487   -1.766474
     19          1           0        4.163449   -1.273734   -0.393356
     20          1           0        2.923653    1.154522   -1.511529
 ---------------------------------------------------------------------
                    Distance matrix (angstroms):
                    1          2          3          4          5
     1  C    0.000000
     2  C    1.519610   0.000000
     3  C    2.539994   1.516207   0.000000
     4  N    3.820304   2.453607   1.458519   0.000000
     5  C    4.958999   3.765425   2.422491   1.459357   0.000000
     6  C    6.205042   4.862613   3.718583   2.410441   1.467288
     7  N    7.251090   5.849839   4.814087   3.433018   2.623318
     8  C    2.594179   1.485083   2.608873   2.892012   4.333810
     9  N    2.563500   1.468372   2.507770   2.780965   4.177938
    10  H    1.095764   2.171141   2.708834   4.103741   5.053262
    11  H    1.093294   2.173902   3.477106   4.617747   5.870166
    12  H    1.096892   2.168285   2.920076   4.205074   5.218102
    13  H    2.813584   2.144751   1.097952   2.085389   2.686992
    14  H    2.714323   2.143408   1.109335   2.148164   2.687337
    15  H    4.012592   2.599740   2.023784   1.016033   2.044868
    16  H    5.131344   4.086275   2.670717   2.087593   1.095777
    17  H    5.138489   4.127500   2.734224   2.161331   1.104201
    18  H    2.750984   2.205194   3.520876   3.958539   5.384492
    19  H    3.534230   2.236832   2.829410   2.611211   3.967132
    20  H    2.575424   2.058836   3.309131   3.765890   5.130691
                    6          7          8          9         10
     6  C    0.000000
     7  N    1.156235   0.000000
     8  C    5.097523   5.902670   0.000000
     9  N    4.958162   5.770816   1.477847   0.000000
    10  H    6.391341   7.486327   3.238859   3.487989   0.000000
    11  H    7.028061   8.019835   2.677443   2.845179   1.766697
    12  H    6.495705   7.552666   3.395101   2.889575   1.764251
    13  H    4.027303   5.139768   3.093762   3.401787   2.548483
    14  H    4.061858   5.179295   3.477107   2.982742   2.874152
    15  H    2.626371   3.476969   2.905788   2.376582   4.530312
    16  H    2.084481   3.143798   4.677893   4.793789   4.994853
    17  H    2.089815   3.133523   4.954785   4.522622   5.240343
    18  H    6.152901   6.933246   1.087183   2.214469   3.370252
    19  H    4.492725   5.185442   1.085041   2.168326   4.018994
    20  H    5.933975   6.731586   2.071244   1.016576   3.638815
                   11         12         13         14         15
    11  H    0.000000
    12  H    1.774539   0.000000
    13  H    3.724140   3.363698   0.000000
    14  H    3.769608   2.669269   1.769257   0.000000
    15  H    4.728862   4.254231   2.922267   2.470906   0.000000
    16  H    6.052883   5.497759   2.466054   3.016002   2.938479
    17  H    6.133245   5.170631   3.101965   2.528412   2.481672
    18  H    2.395400   3.635113   3.851158   4.334599   3.986234
    19  H    3.711614   4.342286   3.211276   3.840574   2.703221
    20  H    2.566571   2.721737   4.162043   3.603255   3.320816
                   16         17         18         19         20
    16  H    0.000000
    17  H    1.767260   0.000000
    18  H    5.646827   6.004867   0.000000
    19  H    4.284085   4.772378   1.834859   0.000000
    20  H    5.744837   5.375023   2.361945   2.946835   0.000000
 Stoichiometry    C6H11N3
 Framework group  C1[X(C6H11N3)]
 Deg. of freedom    54
 Full point group                 C1      NOp   1
 Largest Abelian subgroup         C1      NOp   1
 Largest concise Abelian subgroup C1      NOp   1
                         Standard orientation:                         
 ---------------------------------------------------------------------
 Center     Atomic      Atomic             Coordinates (Angstroms)
 Number     Number       Type             X           Y           Z
 ---------------------------------------------------------------------
      1          6           0       -2.982376   -0.885010    0.021984
      2          6           0       -1.706800   -0.062224   -0.049730
      3          6           0       -0.444379   -0.901517   -0.077336
      4          7           0        0.746761   -0.059914   -0.064429
      5          6           0        1.976372   -0.843731   -0.006021
      6          6           0        3.154691    0.030615   -0.001943
      7          7           0        4.091683    0.707465    0.026363
      8          6           0       -1.740004    1.280020   -0.684356
      9          7           0       -1.612772    1.144394    0.781744
     10          1           0       -2.953480   -1.722925   -0.683537
     11          1           0       -3.863137   -0.282475   -0.215725
     12          1           0       -3.117743   -1.310408    1.023925
     13          1           0       -0.433094   -1.507097   -0.993111
     14          1           0       -0.477748   -1.613935    0.772353
     15          1           0        0.691089    0.562740    0.736524
     16          1           0        2.030917   -1.480024   -0.896461
     17          1           0        2.046689   -1.511654    0.870446
     18          1           0       -2.690155    1.611648   -1.095699
     19          1           0       -0.858259    1.670308   -1.181866
     20          1           0       -2.499811    1.331285    1.241810
 ---------------------------------------------------------------------
 Rotational constants (GHZ):           4.2745228           0.7166088           0.6513395
 Standard basis: 6-31G(2df,p) (6D, 7F)
 There are   334 symmetry adapted cartesian basis functions of A   symmetry.
 There are   307 symmetry adapted basis functions of A   symmetry.
   307 basis functions,   473 primitive gaussians,   334 cartesian basis functions
    34 alpha electrons       34 beta electrons
       nuclear repulsion energy       428.0400355863 Hartrees.
 NAtoms=   20 NActive=   20 NUniq=   20 SFac= 1.00D+00 NAtFMM=   60 NAOKFM=F Big=F
 Integral buffers will be    131072 words long.
 Raffenetti 2 integral format.
 Two-electron integral symmetry is turned on.
 One-electron integrals computed using PRISM.
 PrsmSu:  requested number of processors reduced to:  13 ShMem   1 Linda.
 NBasis=   307 RedAO= T EigKep=  1.53D-04  NBF=   307
 NBsUse=   307 1.00D-06 EigRej= -1.00D+00 NBFU=   307
 Initial guess from the checkpoint file:  "CC1pCNCCtNpCN1.chk"
 B after Tr=     0.000000    0.000000   -0.000000
         Rot=    0.999984   -0.000955   -0.000391    0.005560 Ang=  -0.65 deg.
 ExpMin= 1.61D-01 ExpMax= 4.17D+03 ExpMxC= 6.27D+02 IAcc=2 IRadAn=         4 AccDes= 0.00D+00
 Harris functional with IExCor=  402 and IRadAn=       4 diagonalized for initial guess.
 HarFok:  IExCor=  402 AccDes= 0.00D+00 IRadAn=         4 IDoV= 1 UseB2=F ITyADJ=14
 ICtDFT=  3500011 ScaDFX=  1.000000  1.000000  1.000000  1.000000
 FoFCou: FMM=F IPFlag=           0 FMFlag=      100000 FMFlg1=           0
         NFxFlg=           0 DoJE=T BraDBF=F KetDBF=T FulRan=T
         wScrn=  0.000000 ICntrl=       500 IOpCl=  0 I1Cent=   200000004 NGrid=           0
         NMat0=    1 NMatS0=      1 NMatT0=    0 NMatD0=    1 NMtDS0=    0 NMtDT0=    0
 Petite list used in FoFCou.
 Requested convergence on RMS density matrix=1.00D-08 within 128 cycles.
 Requested convergence on MAX density matrix=1.00D-06.
 Requested convergence on             energy=1.00D-06.
 No special actions if energy rises.
 Integral accuracy reduced to 1.0D-05 until final iterations.
 Initial convergence to 1.0D-05 achieved.  Increase integral accuracy.
 SCF Done:  E(RB3LYP) =  -399.475962928     A.U. after   11 cycles
            NFock= 11  Conv=0.95D-08     -V/T= 2.0080
 PrsmSu:  requested number of processors reduced to:  13 ShMem   1 Linda.
 Calling FoFJK, ICntrl=      2127 FMM=F ISym2X=0 I1Cent= 0 IOpClX= 0 NMat=1 NMatS=1 NMatT=0.
 ***** Axes restored to original set *****
 -------------------------------------------------------------------
 Center     Atomic                   Forces (Hartrees/Bohr)
 Number     Number              X              Y              Z
 -------------------------------------------------------------------
      1        6           0.000863791   -0.000331283    0.001355674
      2        6          -0.005305678    0.000251000   -0.002342378
      3        6           0.003223284    0.000354759    0.001415661
      4        7          -0.002107986    0.001475803    0.004751371
      5        6           0.002516291   -0.001070700   -0.004014796
      6        6           0.002689705    0.000754232    0.001466179
      7        7          -0.003029660   -0.000262345   -0.001020867
      8        6          -0.000876416   -0.001621059    0.000110455
      9        7           0.002211050    0.001313962   -0.000679856
     10        1           0.000308932   -0.000646372   -0.000523644
     11        1           0.000378039    0.000747211   -0.000680360
     12        1           0.000183231   -0.000168010    0.000407674
     13        1          -0.000296274   -0.000391968    0.000046526
     14        1           0.000447513   -0.000565978    0.000098154
     15        1           0.000129161   -0.000507944   -0.001647034
     16        1          -0.000888817   -0.000237669    0.000933899
[...]
 289319,0.00161247,-0.00621599,0.00416819,-0.00048547,0.00067826,-0.000
 78375,-0.00035768,-0.00041708,-0.00046098,0.00007035,0.00002296,-0.000
 15230,-0.00013532,0.00002725,0.00006002,0.48374112,-0.00071478,-0.0053
 3211,0.00052371,0.09689511,-0.06088052,-0.08177145,-0.00083054,-0.0017
 3074,0.00002588,0.00104632,-0.00016077,-0.00181248,-0.00008104,-0.0005
 5784,0.00055641,-0.00000915,0.00004734,-0.00001061,-0.00001951,-0.0000
 5823,0.00000144,-0.16688059,0.46911719,-0.00024200,0.01106706,0.003277
 04,0.06640258,-0.05183775,-0.12480962,0.01492789,-0.02714835,-0.016018
 81,0.00033614,0.00025712,-0.00189008,0.00064990,-0.00037669,0.00041410
 ,-0.00005300,0.00009184,0.00008296,-0.00006701,0.00002643,0.00000745,0
 .13892974,0.10406043,0.56505990,-0.02341939,-0.03466338,0.01516616,-0.
 13097848,-0.02493148,0.01164418,-0.00210546,0.00170909,0.00810828,-0.0
 0023071,0.00009695,-0.00225038,0.00055219,0.00099539,-0.00048555,0.000
 11577,-0.00003137,0.00014562,0.00005767,0.00004224,-0.00008110,-0.0179
 4590,-0.00741043,-0.01823218,0.26107491,0.00143801,0.00024722,-0.00186
 606,-0.06981954,-0.07184774,0.06747822,-0.00454368,-0.00486852,0.00624
 421,-0.00134456,0.00135219,0.00168015,-0.00012892,-0.00033118,-0.00039
 303,0.00001047,-0.00004847,0.00005443,0.00019624,0.00011533,-0.0000115
 7,0.00302117,-0.20036853,-0.04141859,-0.01471306,0.40810018,0.00082089
 ,-0.00637431,0.00048346,0.05599525,0.04887652,-0.08488705,0.01716356,0
 .03067722,-0.01784194,0.00019350,0.00068463,-0.00378911,0.00151392,0.0
 0158551,0.00063994,0.00015066,-0.00008327,0.00025009,-0.00020831,-0.00
 000118,-0.00006935,-0.03062014,0.02496872,-0.06743326,0.09671909,-0.19
 346741,0.46089183,-0.12426170,-0.10738763,0.04978631,-0.01697930,-0.02
 447726,0.01385516,0.00032000,-0.00052686,0.00072260,0.00044537,0.00037
 406,-0.00011945,0.00011021,0.00004407,-0.00001108,-0.00001627,-0.00000
 227,0.00003468,0.00002169,0.00000737,-0.00001661,0.00163831,-0.0005736
 1,0.00050526,-0.00740347,0.00016506,-0.00262703,0.13757081,-0.10794730
 ,-0.19504949,0.07044107,0.00150534,0.00273147,-0.00184535,-0.00011867,
 -0.00014505,0.00029197,0.00005828,0.00015822,-0.00035613,-0.00002501,-
 0.00002373,0.00002275,-0.00000160,-0.00000066,-0.00001162,0.00000321,0
 .00000268,-0.00000395,-0.00122682,0.00064434,-0.00007976,0.00244893,0.
 00155053,-0.00029255,0.11902721,0.20992445,0.05020027,0.07046212,-0.08
 004790,-0.00454615,-0.00847524,0.00318306,0.00002761,-0.00030720,0.000
 20569,0.00031050,0.00005208,0.00020370,0.00001720,-0.00001146,-0.00006
 316,-0.00001612,0.00000452,0.00002210,0.00002906,-0.00000197,0.0000017
 4,0.00057825,0.00021099,0.00008237,-0.00209702,-0.00020451,0.00053165,
 -0.05508151,-0.07781240,0.08262826,-0.04687150,-0.00020672,-0.00973983
 ,-0.00395862,-0.00033007,-0.03314385,-0.00578837,0.00046220,0.00088985
 ,0.00006384,0.00016788,-0.00219170,-0.00059355,-0.00004161,0.00009309,
 0.00002457,-0.00003641,-0.00024849,-0.00009448,0.00000784,0.00003454,0
 .00153048,0.00004700,-0.00158702,0.00276579,0.00006544,-0.00050554,0.0
 0072332,0.00169167,0.01773429,0.05223438,0.00023614,-0.04553780,-0.006
 41174,-0.00006859,-0.00202910,0.00361433,0.00067927,-0.00028676,-0.000
 32878,-0.00006387,0.00047090,0.00023836,0.00008848,0.00007873,0.000029
 81,-0.00000434,0.00000941,0.00003172,0.00001160,-0.00000474,-0.0000038
 2,0.00016593,0.00047851,0.00105958,-0.00020960,-0.00001296,-0.00065060
 ,0.00185124,0.00084954,0.02482862,-0.00061778,0.04563687,-0.01310261,-
 0.00549495,-0.30889163,0.00103073,0.00018975,-0.01178413,-0.00231838,0
 .00010966,0.00123741,0.00008788,0.00010046,-0.00069363,-0.00024789,0.0
 0000531,0.00031959,-0.00000109,-0.00001498,-0.00012963,-0.00007400,0.0
 0000222,0.00000389,0.00110264,0.00012019,0.00042132,0.00075533,-0.0007
 2554,0.00138903,-0.00061310,-0.00090254,-0.01037540,0.01465257,0.00623
 369,0.33593350,-0.08614996,0.08642360,0.03245094,-0.01642708,0.0289171
 2,0.01218863,0.00020121,0.00049019,0.00171964,0.00041154,-0.00049697,-
 0.00011854,0.00002362,-0.00003912,-0.00004832,-0.00000450,0.00000214,0
 .00001663,0.00001416,-0.00000971,-0.00001010,-0.00450091,0.00206783,-0
 .00475333,0.00352008,-0.00113639,-0.00016907,0.00738948,-0.01534401,-0
 .00665828,-0.00004020,-0.00176064,-0.00036768,0.09667804,0.08713258,-0
 .23753240,-0.07180138,0.00174752,-0.00193623,-0.00080627,0.00014563,-0
 .00044043,-0.00043709,-0.00042621,0.00041665,0.00030034,0.00004814,-0.
 00003325,0.00000864,0.00000739,0.00000622,0.00001325,-0.00000606,0.000
 00389,0.00000582,-0.00118781,0.00067871,0.00138910,0.00125093,0.001648
 47,-0.00047377,0.00966909,-0.02088158,-0.00873342,-0.00092898,0.000251
 30,0.00051478,-0.09784332,0.25719917,0.03220554,-0.07203153,-0.0750568
 1,-0.00384752,0.00977902,0.00288124,-0.00029131,0.00107576,0.00087385,
 0.00015754,-0.00016248,0.00002122,0.00001330,0.00001620,-0.00006911,-0
 .00000793,-0.00000353,0.00001815,0.00002559,0.00000287,0.00000168,-0.0
 0105286,-0.00050692,-0.00067335,0.00095641,0.00008329,0.00011771,-0.00
 523427,0.01078410,0.00358631,0.01251393,-0.02813941,-0.00919743,-0.035
 09368,0.07956689,0.07691227,0.00011871,0.00031248,-0.00007735,0.000949
 84,0.00235623,0.00109255,-0.09061906,-0.08188209,0.03670728,-0.0270997
 7,-0.02708172,0.01420191,0.00056777,-0.00077152,0.00224855,0.00018555,
 0.00032470,0.00007410,0.00006946,-0.00001176,-0.00004831,0.00006884,-0
 .00014595,-0.00006400,0.00084825,0.00019036,-0.00098442,0.00013526,-0.
 00006971,-0.00022621,0.00003632,0.00007290,0.00013154,0.00007622,0.000
 02852,-0.00010482,0.11283061,-0.00024524,-0.00026649,0.00005337,0.0003
 9338,0.00003567,-0.00047868,-0.08730601,-0.21606849,0.07630871,-0.0022
 7865,0.00499466,-0.00156703,0.00011010,0.00033483,0.00065968,0.0001520
 9,0.00029387,-0.00037134,-0.00001075,-0.00004513,0.00005849,-0.0003674
 2,0.00079829,0.00115439,0.00097718,0.00132843,-0.00129658,0.00046866,0
 .00034294,0.00019498,0.00023413,0.00025133,0.00000307,-0.00013216,0.00
 001913,-0.00004849,0.09711358,0.23073989,0.00077856,0.00012536,0.00077
 670,0.01532911,0.02706855,-0.01185052,0.04022635,0.07512266,-0.0836963
 8,-0.00588223,-0.00758133,0.00406229,-0.00055936,-0.00124830,0.0014365
 7,0.00001660,-0.00004306,0.00024844,0.00008676,0.00000972,-0.00004190,
 0.00018297,-0.00018905,0.00219129,-0.00251201,0.00171142,-0.00574175,-
 0.00087063,-0.00024132,-0.00009543,0.00002233,-0.00039460,0.00022349,-
 0.00009889,-0.00006739,-0.00007336,-0.04285648,-0.08345307,0.08990155,
 0.00046652,-0.00047151,-0.00045945,0.00118384,-0.00127404,0.00094962,-
 0.08922627,0.07568052,0.03646914,-0.03517797,0.02817698,0.00457913,0.0
 0146488,0.00078539,0.00610670,0.00043974,-0.00038516,0.00022193,-0.000
 03321,0.00002588,-0.00005759,0.00022590,0.00027062,-0.00115902,0.00035
 230,-0.00014069,-0.00010922,0.00005918,-0.00009307,-0.00001773,0.00002
 538,-0.00023688,0.00006935,0.00037821,-0.00000141,-0.00005649,0.006962
 21,-0.00993551,-0.00442206,0.11118600,0.00014351,0.00003823,0.00021950
 ,0.00035283,-0.00116579,-0.00018444,0.07406788,-0.19705115,-0.06707318
 ,0.00718927,0.00480085,0.00132222,-0.00077975,0.00200881,-0.00011577,-
 0.00022910,0.00028444,0.00028592,0.00003152,-0.00003026,-0.00003521,-0
 .00100655,0.00088520,0.00132562,0.00072938,0.00148674,-0.00148736,0.00
 006657,-0.00013968,-0.00001040,-0.00024881,0.00032099,0.00007142,-0.00
 054873,0.00043361,-0.00034934,0.01073962,-0.02350881,-0.01073702,-0.09
 167460,0.21139692,0.00150763,-0.00063819,0.00085428,0.01499850,-0.0293
 3738,-0.01759279,0.03559920,-0.06520531,-0.08132526,-0.00666080,0.0062
 4356,0.00313357,-0.00123502,0.00322257,0.00332868,0.00012420,-0.000036
 64,0.00022503,0.00007282,0.00002027,-0.00003536,-0.00360144,-0.0009510
 7,-0.00476074,0.00006356,0.00207046,0.00282693,-0.00017061,0.00003456,
 -0.00003348,0.00005368,0.00039573,0.00034056,-0.00090783,0.00067360,-0
 .00009920,-0.00452808,0.00996907,0.00512988,-0.03867658,0.07447601,0.0
 8802135,-0.00013276,-0.00002003,0.00034497,-0.00087067,-0.00204664,0.0
 0048417,-0.02593428,-0.02979578,0.01635305,-0.12715709,-0.12391219,0.0
 7444167,0.00352112,0.00679520,-0.00269316,0.00235973,0.00081224,-0.000
 62914,-0.00076834,-0.00023104,0.00047818,0.00035936,-0.00064423,0.0004
 3817,0.00015920,0.00044025,0.00083953,0.00016055,0.00012777,-0.0000310
 2,0.00011916,0.00010101,-0.00002976,-0.00005957,0.00002080,-0.00000093
 ,-0.00549454,0.00118430,-0.00200830,0.00072655,0.00007716,0.00048109,0
 .15194096,-0.00016385,-0.00024287,-0.00008890,-0.00083079,0.00052476,0
 .00147069,0.00507439,-0.00286708,-0.00238334,-0.15701861,-0.22634158,0
 .15909558,0.00644835,0.00155850,-0.01165778,-0.00025858,0.00031534,0.0
 0087569,0.00007154,-0.00019458,-0.00029031,-0.00121711,-0.00008007,-0.
 00138274,0.00095483,-0.00131802,0.00090648,0.00004540,0.00004859,-0.00
 007178,0.00001374,0.00001931,-0.00006474,0.00015614,-0.00003583,-0.000
 02025,-0.00146372,0.00093454,0.00005844,0.00114050,0.00089501,-0.00024
 074,0.14628698,0.22605739,0.00018413,0.00069985,-0.00063243,-0.0014902
 4,-0.00183892,0.00134098,-0.00118042,-0.00752934,0.00815480,0.07623344
 ,0.12840330,-0.14010741,0.01588391,0.02632873,-0.02550638,0.00092925,0
 .00089306,0.00071874,-0.00041343,-0.00033843,0.00009226,-0.00092251,-0
 .00155078,0.00023335,-0.00034483,-0.00051249,-0.00121820,0.00056467,0.
 00006552,0.00009148,-0.00017440,-0.00002708,-0.00020364,0.00015286,-0.
 00015516,0.00004405,-0.00401847,-0.00084412,-0.00070638,-0.00074692,0.
 00071881,-0.00016262,-0.08514072,-0.14464203,0.16049877,-0.00000694,-0
 .00000232,0.00002253,0.00008979,0.00013482,0.00003221,0.00143031,0.001
 64037,-0.00069136,0.00308950,0.00354884,-0.00129019,-0.09725579,-0.086
 13315,0.05329621,-0.02317606,-0.02718338,0.01426546,0.00055618,0.00347
 779,-0.00235552,0.00000909,0.00003643,0.00000806,-0.00004565,0.0000934
 0,-0.00020124,-0.00002467,-0.00001038,-0.00001162,0.00000706,-0.000010
 60,0.00001778,0.00000075,0.00000264,-0.00000070,0.00037480,-0.00053116
 ,0.00056564,-0.00006125,-0.00008451,-0.00004632,0.00060177,-0.00004887
 ,-0.00156887,0.10752064,-0.00001660,-0.00002650,0.00004669,0.00031506,
 0.00014260,0.00011465,-0.00015948,0.00081916,-0.00039934,0.00293873,0.
 00700784,-0.00058356,-0.08628478,-0.19603557,0.09124233,-0.00210597,0.
 00214800,-0.00366727,0.00190741,-0.00014087,0.00122217,-0.00003540,0.0
 0003429,-0.00004496,0.00000326,0.00013716,-0.00020560,-0.00000014,0.00
 001469,0.00000370,0.00001852,-0.00000114,-0.00000159,-0.00000022,-0.00
 000767,0.00000547,0.00038208,-0.00006752,0.00058440,-0.00006046,-0.000
 59807,-0.00005344,0.00042066,0.00078306,-0.00161947,0.09481354,0.20882
 280,-0.00001571,-0.00003447,0.00003969,0.00030186,-0.00000014,-0.00008
 464,0.00236039,0.00126971,0.00135008,0.01812649,0.02530983,-0.02862494
 ,0.04776978,0.08514242,-0.09669160,-0.00080981,-0.00736480,0.00466429,
 -0.00185846,0.00134187,-0.00074302,0.00008733,0.00016743,-0.00008395,-
 0.00033908,-0.00000905,-0.00056330,-0.00005763,-0.00001442,-0.00000056
 ,0.00001612,-0.00001288,0.00001379,-0.00000301,0.00000095,0.00000003,-
 0.00093472,-0.00063401,0.00017222,-0.00047022,-0.00005076,-0.00007974,
 -0.00331795,-0.00046056,-0.00489154,-0.05664328,-0.09787361,0.12007631
 ,-0.00002992,-0.00000427,0.00002904,0.00004888,0.00010885,-0.00019117,
 0.00376040,-0.00342381,-0.00092315,0.00380382,-0.00332547,-0.00036229,
 -0.08502104,0.07618622,0.02890625,-0.02264311,0.03108735,0.00823154,-0
 .00021278,-0.00392108,-0.00162547,-0.00008255,0.00001840,-0.00008514,-
 0.00007884,-0.00012372,0.00005428,-0.00000404,-0.00000444,-0.00000564,
 0.00000558,0.00001293,0.00002325,-0.00001970,0.00001685,-0.00001601,-0
 .00010172,0.00017189,0.00005561,0.00074595,0.00116084,0.00166854,-0.00
 006878,0.00015943,0.00043843,0.00691718,-0.01219742,-0.00394856,0.0930
 1457,0.00004499,-0.00001101,-0.00010705,-0.00018449,0.00035322,0.00016
 687,0.00041329,0.00151904,0.00106864,0.00022856,0.00163531,-0.01116092
 ,0.07637262,-0.21433294,-0.05936115,0.00331259,0.00060335,0.00248045,-
 0.00192463,-0.00006055,-0.00099799,0.00018173,-0.00007948,0.00014099,-
 0.00003655,0.00000727,-0.00016408,-0.00000920,-0.00001172,0.00000688,-
 0.00003161,0.00000470,-0.00001630,-0.00001912,0.00002309,-0.00000387,0
 .00001178,-0.00047088,0.00013711,-0.00158127,-0.00038817,-0.00099604,-
 0.00092268,0.00135573,0.00032606,0.01032899,-0.02296151,-0.00660893,-0
 .08595744,0.23274038,0.00003817,0.00008045,-0.00013020,0.00000763,0.00
 022670,0.00023545,0.00682679,-0.00100377,0.00218323,0.00795153,-0.0319
 1378,-0.03057197,0.02770475,-0.06027068,-0.06979593,0.00037780,0.00629
 252,0.00367858,-0.00180899,-0.00115820,-0.00042953,0.00020554,-0.00023
 886,0.00003621,0.00001802,0.00018857,-0.00015361,-0.00000593,-0.000006
 76,0.00001702,-0.00003555,0.00001704,-0.00002918,-0.00005696,0.0000236
 9,-0.00000468,-0.00055362,0.00012784,-0.00003187,-0.00198311,0.0016498
 6,0.00082099,-0.00050467,-0.00074658,0.00159492,-0.00536757,0.01133369
 ,0.00551870,-0.03225254,0.07503710,0.08693984,0.00116700,-0.00151557,0
 .00067956,0.00925601,0.00902656,0.02144604,-0.00224859,0.00385803,0.00
 026555,0.00018666,-0.00023499,-0.00114561,0.00021494,-0.00008812,0.000
 28336,0.00001678,-0.00000714,0.00005673,0.00001602,-0.00000418,-0.0000
 2267,-0.07832953,-0.02700924,-0.08958209,-0.00541555,-0.00481159,-0.00
 755595,-0.00026462,-0.00006582,0.00006687,-0.00016537,0.00028363,-0.00
 041826,0.00036472,-0.00017427,-0.00018455,0.00001749,-0.00016801,-0.00
 010540,0.00023466,-0.00017985,0.00150150,-0.00003246,0.00017313,0.0004
 3163,-0.00000214,0.00001840,-0.00004864,0.00001292,-0.00010775,-0.0001
 7445,0.07762013,-0.00018076,0.00050594,-0.00135368,0.00015911,-0.00680
 242,0.00141159,-0.00039654,0.00067913,0.00091331,-0.00033982,0.0005076
 2,0.00034633,-0.00009960,0.00030100,-0.00006874,0.00002457,-0.00001953
 ,-0.00002341,-0.00000802,0.00002131,0.00000837,-0.02576654,-0.07739771
 ,-0.08114801,-0.00484977,-0.01766523,-0.03069489,0.00035996,0.00001833
 ,0.00018477,0.00039325,-0.00030960,0.00018350,0.00000371,-0.00006226,0
 .00021085,-0.00005456,0.00013105,-0.00022007,-0.00007187,0.00016615,0.
 00044496,0.00046731,-0.00047228,0.00047988,-0.00001886,-0.00000713,-0.
 00005971,0.00001664,-0.00000084,0.00014200,0.02823349,0.08949588,-0.00
 151125,0.00174694,0.00067166,-0.00914461,-0.00529962,-0.01512237,0.000
 67618,-0.00262153,0.00037772,0.00034264,-0.00010289,-0.00038834,0.0001
 1811,-0.00020375,0.00025750,0.00002501,0.00002308,-0.00001336,-0.00006
 626,-0.00000417,-0.00002004,-0.08775840,-0.08727145,-0.26322541,0.0051
 0782,0.00269128,0.00865450,0.00023903,-0.00006070,-0.00000087,0.000621
 86,-0.00013234,0.00076875,-0.00028044,0.00014951,0.00041326,0.00002498
 ,0.00009540,0.00000631,-0.00009725,0.00005149,-0.00093475,-0.00004740,
 0.00022396,-0.00010895,0.00001496,0.00001039,-0.00000933,-0.00004649,-
 0.00000346,-0.00014671,0.09160160,0.09682855,0.27521055,0.00005159,0.0
 0371303,0.00155203,-0.01432856,0.00739815,-0.01240534,-0.00010419,-0.0
 0078320,-0.00144065,0.00049357,-0.00078710,-0.00093054,0.00029305,-0.0
 0034862,0.00020001,0.00005591,0.00000679,0.00004947,-0.00004126,-0.000
 00965,0.00000989,-0.21882082,0.10972963,-0.09945909,0.01157737,-0.0024
 3984,0.00972487,0.00000479,-0.00012790,0.00000657,0.00018165,-0.000026
 94,0.00013122,-0.00144281,0.00007409,-0.00009886,-0.00013673,0.0000274
 1,0.00035807,-0.00007264,-0.00003113,-0.00012817,0.00003248,-0.0000522
 1,-0.00013742,-0.00000030,0.00002989,0.00002474,-0.00006034,-0.0000464
 5,-0.00026112,-0.00428509,0.00337202,-0.00072198,0.22564420,-0.0007405
 8,0.00082767,0.00023595,-0.00129898,-0.00526831,-0.00167727,0.00159074
 ,0.00037703,0.00010424,-0.00022642,0.00001625,0.00094033,-0.00035184,0
 .00028765,-0.00039617,-0.00003992,0.00001049,-0.00004194,0.00002051,-0
 .00000552,0.00003809,0.10283090,-0.10337417,0.05371832,0.01996697,-0.0
 2074407,0.01217472,0.00016079,0.00012574,0.00000084,0.00013612,-0.0000
 7785,0.00020769,-0.00039161,0.00027098,0.00026179,-0.00012618,-0.00002
 239,-0.00032180,-0.00028608,0.00009207,0.00001200,0.00031209,-0.000929
 83,-0.00014719,-0.00002099,-0.00002085,0.00006691,-0.00001103,0.000121
 59,0.00029288,-0.00931679,0.00749194,-0.00475323,-0.11614522,0.1247858
 2,-0.00025150,-0.00297294,-0.00173871,0.01534599,-0.00821725,0.0110568
 4,0.00060698,0.00121016,0.00107160,0.00004427,-0.00042913,-0.00093396,
 -0.00044602,0.00034299,-0.00043272,-0.00010266,-0.00002313,-0.00006117
 ,0.00007557,0.00001591,0.00002913,-0.10016745,0.05633344,-0.10275307,-
 0.00234027,-0.00111715,-0.00176379,0.00003911,0.00020203,-0.00005833,0
 .00015237,-0.00018362,0.00019338,0.00142989,-0.00022845,0.00036617,-0.
 00001320,0.00016383,-0.00042557,-0.00027392,0.00005490,0.00028355,-0.0
 0001821,-0.00067317,-0.00000489,0.00002793,-0.00002852,0.00006084,0.00
 002815,0.00010996,0.00033603,-0.01803064,0.01222896,-0.00769067,0.1039
 4405,-0.05794704,0.10165064,0.00195437,0.00181222,0.00171133,0.0060067
 5,-0.02060354,0.02795116,-0.00295763,-0.00448281,0.00028860,-0.0002528
 3,-0.00013238,-0.00131078,0.00039619,0.00028668,0.00029176,0.00005264,
 0.00001818,0.00005136,-0.00004323,-0.00001988,-0.00001448,-0.01096151,
 -0.00579226,-0.00691386,-0.09340010,0.09358161,-0.14019463,0.00037510,
 0.00017232,-0.00027934,-0.00020541,-0.00050389,-0.00082952,-0.00041332
 ,0.00042389,0.00011762,0.00021048,0.00014219,0.00169337,0.00012003,0.0
 0022444,-0.00011589,0.00053761,0.00052932,0.00131994,-0.00002428,0.000
 01294,-0.00023965,0.00001351,-0.00007335,-0.00012571,0.00163604,-0.001
 24373,0.00090188,0.00095814,0.00393752,-0.00005045,0.09599748,0.000475
 96,0.00239682,0.00114375,-0.00139138,-0.01147729,0.00597308,0.00042328
 ,-0.00000840,-0.00180400,0.00011145,0.00051733,-0.00108304,0.00025214,
 0.00031685,0.00023061,0.00002558,-0.00001016,0.00000881,-0.00007270,-0
 .00000621,-0.00001629,0.01192324,-0.02266369,0.02914598,0.05767049,-0.
 09876881,0.11531780,0.00073746,-0.00015961,-0.00032112,-0.00079579,-0.
 00011164,-0.00052110,-0.00033873,-0.00002157,-0.00052042,0.00007497,0.
 00024509,-0.00032063,0.00013268,0.00007290,-0.00010401,0.00052684,-0.0
 0001008,0.00128979,-0.00003261,-0.00004278,-0.00017579,0.00002926,-0.0
 0004657,-0.00007371,0.00209008,0.00341864,-0.00136747,-0.00355274,-0.0
 0396427,0.00115822,-0.06828946,0.13032345,-0.00150941,-0.00261764,0.00
 250081,-0.01303562,0.00386296,-0.01925695,0.00185115,0.00458979,-0.000
 89910,0.00060604,0.00014894,-0.00009668,0.00020029,0.00033424,0.000206
 41,0.00002532,-0.00003543,0.00000011,-0.00007310,0.00000213,-0.0000149
 0,0.00459193,-0.01266596,0.00984232,-0.11000203,0.15752336,-0.29232377
 ,-0.00093897,-0.00021450,0.00012175,0.00084176,-0.00016400,0.00045996,
 0.00060753,0.00005638,-0.00006199,-0.00007124,-0.00009549,-0.00148557,
 0.00013370,-0.00013225,0.00005912,0.00056043,0.00009207,0.00077310,-0.
 00007411,-0.00008613,-0.00012331,0.00002135,-0.00005429,-0.00006729,0.
 00093543,0.00018545,0.00130054,-0.00041773,-0.00276912,0.00081471,0.11
 574727,-0.14796047,0.29825075\\-0.00001500,0.00000512,-0.00000905,0.00
 006993,0.00000796,-0.00000475,-0.00003152,0.00001368,-0.00001212,0.000
 01334,-0.00000981,-0.00001500,0.00001895,0.00001638,0.00004528,-0.0000
 4496,0.00000157,-0.00002052,0.00003146,-0.00000131,0.00001030,-0.00000
 169,-0.00000506,-0.00000155,-0.00003161,-0.00001163,0.00000868,0.00000
 009,-0.00000252,0.00000211,0.00000212,0.00000141,-0.00000030,0.0000017
 2,-0.00000132,-0.00000078,0.00000084,-0.00000200,0.00000301,-0.0000019
 8,-0.00000620,0.00000594,-0.00000211,-0.00000141,-0.00000193,-0.000003
 22,-0.00000051,-0.00000822,0.00000216,-0.00000970,-0.00000882,-0.00000
 355,0.00000085,0.00000181,-0.00000494,-0.00000120,0.00000163,-0.000000
 03,0.00000570,0.00000428\\\@


 We're simply so accustomed to the marvels of everyday thought
 that we never wonder about it.
 -- Marvin Minsky in "Why people think computers are smart"
 Job cpu time:       0 days  1 hours 34 minutes 58.9 seconds.
 Elapsed time:       0 days  0 hours 23 minutes 45.9 seconds.
 File lengths (MBytes):  RWF=    145 Int=      0 D2E=      0 Chk=      9 Scr=      1
 Normal termination of Gaussian 16 at Tue Jun  1 14:30:25 2021.
### All Done ###
