### Starting Gaussian ###
 Entering Gaussian System, Link 0=g16
 Initial command:
 /cluster/software/gaussian/gaussian-16-A.03/avx2/g16/l1.exe "/local/scratch/cz9n3/Gau-725.inp" -scrdir="/local/scratch/cz9n3/"
 Entering Link 1 = /cluster/software/gaussian/gaussian-16-A.03/avx2/g16/l1.exe PID=       726.
  
 Copyright (c) 1988,1990,1992,1993,1995,1998,2003,2009,2016,
            Gaussian, Inc.  All Rights Reserved.
  
 This is part of the Gaussian(R) 16 program.  It is based on
 the Gaussian(R) 09 system (copyright 2009, Gaussian, Inc.),
 the Gaussian(R) 03 system (copyright 2003, Gaussian, Inc.),
 the Gaussian(R) 98 system (copyright 1998, Gaussian, Inc.),
 the Gaussian(R) 94 system (copyright 1995, Gaussian, Inc.),
 the Gaussian 92(TM) system (copyright 1992, Gaussian, Inc.),
 the Gaussian 90(TM) system (copyright 1990, Gaussian, Inc.),
 the Gaussian 88(TM) system (copyright 1988, Gaussian, Inc.),
 the Gaussian 86(TM) system (copyright 1986, Carnegie Mellon
 University), and the Gaussian 82(TM) system (copyright 1983,
 Carnegie Mellon University). Gaussian is a federally registered
 trademark of Gaussian, Inc.
  
 This software contains proprietary and confidential information,
 including trade secrets, belonging to Gaussian, Inc.
  
 This software is provided under written license and may be
 used, copied, transmitted, or stored only in accord with that
 written license.
  
 The following legend is applicable only to US Government
 contracts under FAR:
  
                    RESTRICTED RIGHTS LEGEND
  
 Use, reproduction and disclosure by the US Government is
 subject to restrictions as set forth in subparagraphs (a)
 and (c) of the Commercial Computer Software - Restricted
 Rights clause in FAR 52.227-19.
  
 Gaussian, Inc.
 340 Quinnipiac St., Bldg. 40, Wallingford CT 06492
  
  
 ---------------------------------------------------------------
 Warning -- This program may not be used in any manner that
 competes with the business of Gaussian, Inc. or will provide
 assistance to any competitor of Gaussian, Inc.  The licensee
 of this program is prohibited from giving any competitor of
 Gaussian, Inc. access to this program.  By using this program,
 the user acknowledges that Gaussian, Inc. is engaged in the
 business of creating and licensing software in the field of
 computational chemistry and represents and warrants to the
 licensee that it is not a competitor of Gaussian, Inc. and that
 it will not use this program in any manner prohibited above.
 ---------------------------------------------------------------
  

 Cite this work as:
 Gaussian 16, Revision A.03,
 M. J. Frisch, G. W. Trucks, H. B. Schlegel, G. E. Scuseria, 
 M. A. Robb, J. R. Cheeseman, G. Scalmani, V. Barone, 
 G. A. Petersson, H. Nakatsuji, X. Li, M. Caricato, A. V. Marenich, 
 J. Bloino, B. G. Janesko, R. Gomperts, B. Mennucci, H. P. Hratchian, 
 J. V. Ortiz, A. F. Izmaylov, J. L. Sonnenberg, D. Williams-Young, 
 F. Ding, F. Lipparini, F. Egidi, J. Goings, B. Peng, A. Petrone, 
 T. Henderson, D. Ranasinghe, V. G. Zakrzewski, J. Gao, N. Rega, 
 G. Zheng, W. Liang, M. Hada, M. Ehara, K. Toyota, R. Fukuda, 
 J. Hasegawa, M. Ishida, T. Nakajima, Y. Honda, O. Kitao, H. Nakai, 
 T. Vreven, K. Throssell, J. A. Montgomery, Jr., J. E. Peralta, 
 F. Ogliaro, M. J. Bearpark, J. J. Heyd, E. N. Brothers, K. N. Kudin, 
 V. N. Staroverov, T. A. Keith, R. Kobayashi, J. Normand, 
 K. Raghavachari, A. P. Rendell, J. C. Burant, S. S. Iyengar, 
 J. Tomasi, M. Cossi, J. M. Millam, M. Klene, C. Adamo, R. Cammi, 
 J. W. Ochterski, R. L. Martin, K. Morokuma, O. Farkas, 
 J. B. Foresman, and D. J. Fox, Gaussian, Inc., Wallingford CT, 2016.
 
 ******************************************
 Gaussian 16:  ES64L-G16RevA.03 25-Dec-2016
                 1-Jun-2021 
 ******************************************
 %chk=CCC1pNCpNC1CCCO.chk
 %NProcShared=20
 Will use up to   20 processors via shared memory.
 -----------------------------
 # opt freq b3lyp/6-31g(2df,p)
 -----------------------------
 1/18=20,19=15,26=3,38=1/1,3;
 2/9=110,12=2,17=6,18=5,40=1/2;
 3/5=1,6=6,7=104,11=2,25=1,30=1,71=1,74=-5/1,2,3;
 4//1;
 5/5=2,38=5/2;
 6/7=2,8=2,9=2,10=2,28=1/1;
 7//1,2,3,16;
 1/18=20,19=15,26=3/3(2);
 2/9=110/2;
 99//99;
 2/9=110/2;
 3/5=1,6=6,7=104,11=2,25=1,30=1,71=1,74=-5/1,2,3;
 4/5=5,16=3,69=1/1;
 5/5=2,38=5/2;
 7//1,2,3,16;
 1/18=20,19=15,26=3/3(-5);
 2/9=110/2;
 6/7=2,8=2,9=2,10=2,19=2,28=1/1;
 99/9=1/99;
 -------------------
 Title Card Required
 -------------------
 Symbolic Z-matrix:
 Charge =  0 Multiplicity = 1
 C                     0.8155   -0.09302   0.11731 
 C                     2.32852  -0.12229   0.10117 
 C                     2.96135  -0.61087  -1.20522 
 N                     4.22716   0.10166  -1.43648 
 C                     5.07367  -0.16548  -2.5742 
 N                     3.05871  -2.05484  -1.41349 
 C                     2.09154  -1.34797  -2.23308 
 C                     2.2348   -1.34693  -3.71849 
 C                     1.26453  -0.35128  -4.35071 
 C                     1.4934   -0.23203  -5.84882 
 O                     0.55217   0.67354  -6.41092 
 H                     0.46108   0.41387   1.0193 
 H                     0.40094  -1.10477   0.11249 
 H                     0.43258   0.45065  -0.7522 
 H                     2.71277  -0.70741   0.9468 
 H                     2.66273   0.90966   0.27273 
 H                     4.79781   0.03097  -0.59662 
 H                     4.59685   0.10927  -3.51314 
 H                     5.43668  -1.19643  -2.59725 
 H                     5.94833   0.4907   -2.50448 
 H                     2.56625  -2.57576  -0.68225 
 H                     1.05252  -1.55334  -1.98799 
 H                     2.00608  -2.35164  -4.09518 
 H                     3.24808  -1.14867  -4.05582 
 H                     1.36096   0.63688  -3.88335 
 H                     0.22961  -0.66485  -4.1589 
 H                     1.38329  -1.20073  -6.34659 
 H                     2.49718   0.14981  -6.05641 
 H                    -0.33407   0.32141  -6.23789 
 

 GradGradGradGradGradGradGradGradGradGradGradGradGradGradGradGradGradGrad
 Berny optimization.
 Initialization pass.
                           ----------------------------
                           !    Initial Parameters    !
                           ! (Angstroms and Degrees)  !
 --------------------------                            --------------------------
 ! Name  Definition              Value          Derivative Info.                !
 --------------------------------------------------------------------------------
 ! R1    R(1,2)                  1.5134         estimate D2E/DX2                !
 ! R2    R(1,12)                 1.0937         estimate D2E/DX2                !
 ! R3    R(1,13)                 1.0934         estimate D2E/DX2                !
 ! R4    R(1,14)                 1.0946         estimate D2E/DX2                !
 ! R5    R(2,3)                  1.5316         estimate D2E/DX2                !
 ! R6    R(2,15)                 1.0978         estimate D2E/DX2                !
 ! R7    R(2,16)                 1.0982         estimate D2E/DX2                !
 ! R8    R(3,4)                  1.4709         estimate D2E/DX2                !
 ! R9    R(3,6)                  1.4622         estimate D2E/DX2                !
 ! R10   R(3,7)                  1.5351         estimate D2E/DX2                !
 ! R11   R(4,5)                  1.443          estimate D2E/DX2                !
 ! R12   R(4,17)                 1.0178         estimate D2E/DX2                !
 ! R13   R(5,18)                 1.0883         estimate D2E/DX2                !
 ! R14   R(5,19)                 1.0932         estimate D2E/DX2                !
 ! R15   R(5,20)                 1.0957         estimate D2E/DX2                !
 ! R16   R(6,7)                  1.4515         estimate D2E/DX2                !
 ! R17   R(6,21)                 1.024          estimate D2E/DX2                !
 ! R18   R(7,8)                  1.4923         estimate D2E/DX2                !
 ! R19   R(7,22)                 1.0871         estimate D2E/DX2                !
 ! R20   R(8,9)                  1.5272         estimate D2E/DX2                !
 ! R21   R(8,23)                 1.0971         estimate D2E/DX2                !
 ! R22   R(8,24)                 1.0862         estimate D2E/DX2                !
 ! R23   R(9,10)                 1.5202         estimate D2E/DX2                !
 ! R24   R(9,25)                 1.0974         estimate D2E/DX2                !
 ! R25   R(9,26)                 1.0983         estimate D2E/DX2                !
 ! R26   R(10,11)                1.4219         estimate D2E/DX2                !
 ! R27   R(10,27)                1.0947         estimate D2E/DX2                !
 ! R28   R(10,28)                1.0938         estimate D2E/DX2                !
 ! R29   R(11,29)                0.9692         estimate D2E/DX2                !
 ! A1    A(2,1,12)             109.983          estimate D2E/DX2                !
 ! A2    A(2,1,13)             111.1685         estimate D2E/DX2                !
 ! A3    A(2,1,14)             110.54           estimate D2E/DX2                !
 ! A4    A(12,1,13)            108.037          estimate D2E/DX2                !
 ! A5    A(12,1,14)            108.1531         estimate D2E/DX2                !
 ! A6    A(13,1,14)            108.8712         estimate D2E/DX2                !
 ! A7    A(1,2,3)              115.3625         estimate D2E/DX2                !
 ! A8    A(1,2,15)             110.6118         estimate D2E/DX2                !
 ! A9    A(1,2,16)             106.5236         estimate D2E/DX2                !
 ! A10   A(3,2,15)             110.0225         estimate D2E/DX2                !
 ! A11   A(3,2,16)             107.8941         estimate D2E/DX2                !
 ! A12   A(15,2,16)            105.9019         estimate D2E/DX2                !
 ! A13   A(2,3,4)              109.5818         estimate D2E/DX2                !
 ! A14   A(2,3,6)              117.6478         estimate D2E/DX2                !
 ! A15   A(2,3,7)              119.3527         estimate D2E/DX2                !
 ! A16   A(4,3,6)              113.4971         estimate D2E/DX2                !
 ! A17   A(4,3,7)              127.9498         estimate D2E/DX2                !
 ! A18   A(3,4,5)              122.6236         estimate D2E/DX2                !
 ! A19   A(3,4,17)             108.609          estimate D2E/DX2                !
 ! A20   A(5,4,17)             107.9878         estimate D2E/DX2                !
 ! A21   A(4,5,18)             112.1143         estimate D2E/DX2                !
 ! A22   A(4,5,19)             112.705          estimate D2E/DX2                !
 ! A23   A(4,5,20)             107.894          estimate D2E/DX2                !
 ! A24   A(18,5,19)            111.4296         estimate D2E/DX2                !
 ! A25   A(18,5,20)            104.6823         estimate D2E/DX2                !
 ! A26   A(19,5,20)            107.5199         estimate D2E/DX2                !
 ! A27   A(3,6,21)             111.6319         estimate D2E/DX2                !
 ! A28   A(7,6,21)             109.2998         estimate D2E/DX2                !
 ! A29   A(3,7,8)              127.7176         estimate D2E/DX2                !
 ! A30   A(3,7,22)             118.7716         estimate D2E/DX2                !
 ! A31   A(6,7,8)              119.8955         estimate D2E/DX2                !
 ! A32   A(6,7,22)             114.6801         estimate D2E/DX2                !
 ! A33   A(8,7,22)             108.4389         estimate D2E/DX2                !
 ! A34   A(7,8,9)              110.5801         estimate D2E/DX2                !
 ! A35   A(7,8,23)             108.7301         estimate D2E/DX2                !
 ! A36   A(7,8,24)             113.5036         estimate D2E/DX2                !
 ! A37   A(9,8,23)             108.8108         estimate D2E/DX2                !
 ! A38   A(9,8,24)             110.1883         estimate D2E/DX2                !
 ! A39   A(23,8,24)            104.7737         estimate D2E/DX2                !
 ! A40   A(8,9,10)             111.312          estimate D2E/DX2                !
 ! A41   A(8,9,25)             110.7888         estimate D2E/DX2                !
 ! A42   A(8,9,26)             109.8913         estimate D2E/DX2                !
 ! A43   A(10,9,25)            109.624          estimate D2E/DX2                !
 ! A44   A(10,9,26)            109.6566         estimate D2E/DX2                !
 ! A45   A(25,9,26)            105.3984         estimate D2E/DX2                !
 ! A46   A(9,10,11)            109.8687         estimate D2E/DX2                !
 ! A47   A(9,10,27)            111.3192         estimate D2E/DX2                !
 ! A48   A(9,10,28)            110.6447         estimate D2E/DX2                !
 ! A49   A(11,10,27)           108.4958         estimate D2E/DX2                !
 ! A50   A(11,10,28)           108.0652         estimate D2E/DX2                !
 ! A51   A(27,10,28)           108.3563         estimate D2E/DX2                !
 ! A52   A(10,11,29)           107.6569         estimate D2E/DX2                !
 ! D1    D(12,1,2,3)          -171.0233         estimate D2E/DX2                !
 ! D2    D(12,1,2,15)           63.3069         estimate D2E/DX2                !
 ! D3    D(12,1,2,16)          -51.3333         estimate D2E/DX2                !
 ! D4    D(13,1,2,3)            69.3648         estimate D2E/DX2                !
 ! D5    D(13,1,2,15)          -56.305          estimate D2E/DX2                !
 ! D6    D(13,1,2,16)         -170.9451         estimate D2E/DX2                !
 ! D7    D(14,1,2,3)           -51.6651         estimate D2E/DX2                !
 ! D8    D(14,1,2,15)         -177.3349         estimate D2E/DX2                !
 ! D9    D(14,1,2,16)           68.025          estimate D2E/DX2                !
 ! D10   D(1,2,3,4)            146.4016         estimate D2E/DX2                !
 ! D11   D(1,2,3,6)            -81.9871         estimate D2E/DX2                !
 ! D12   D(1,2,3,7)            -15.2057         estimate D2E/DX2                !
 ! D13   D(15,2,3,4)           -87.6263         estimate D2E/DX2                !
 ! D14   D(15,2,3,6)            43.985          estimate D2E/DX2                !
 ! D15   D(15,2,3,7)           110.7664         estimate D2E/DX2                !
 ! D16   D(16,2,3,4)            27.4676         estimate D2E/DX2                !
 ! D17   D(16,2,3,6)           159.0789         estimate D2E/DX2                !
 ! D18   D(16,2,3,7)          -134.1397         estimate D2E/DX2                !
 ! D19   D(2,3,4,5)            178.4531         estimate D2E/DX2                !
 ! D20   D(2,3,4,17)            51.4096         estimate D2E/DX2                !
 ! D21   D(6,3,4,5)             44.6877         estimate D2E/DX2                !
 ! D22   D(6,3,4,17)           -82.3557         estimate D2E/DX2                !
 ! D23   D(7,3,4,5)            -21.9589         estimate D2E/DX2                !
 ! D24   D(7,3,4,17)          -149.0023         estimate D2E/DX2                !
 ! D25   D(2,3,6,21)             7.3951         estimate D2E/DX2                !
 ! D26   D(4,3,6,21)           137.2099         estimate D2E/DX2                !
 ! D27   D(2,3,7,8)            148.6104         estimate D2E/DX2                !
 ! D28   D(2,3,7,22)            -3.1324         estimate D2E/DX2                !
 ! D29   D(4,3,7,8)             -9.2419         estimate D2E/DX2                !
 ! D30   D(4,3,7,22)          -160.9847         estimate D2E/DX2                !
 ! D31   D(3,4,5,18)            65.6224         estimate D2E/DX2                !
 ! D32   D(3,4,5,19)           -61.0701         estimate D2E/DX2                !
 ! D33   D(3,4,5,20)          -179.6255         estimate D2E/DX2                !
 ! D34   D(17,4,5,18)         -167.0634         estimate D2E/DX2                !
 ! D35   D(17,4,5,19)           66.2442         estimate D2E/DX2                !
 ! D36   D(17,4,5,20)          -52.3113         estimate D2E/DX2                !
 ! D37   D(21,6,7,8)          -136.4061         estimate D2E/DX2                !
 ! D38   D(21,6,7,22)           -4.6691         estimate D2E/DX2                !
 ! D39   D(3,7,8,9)            -98.4706         estimate D2E/DX2                !
 ! D40   D(3,7,8,23)           142.1233         estimate D2E/DX2                !
 ! D41   D(3,7,8,24)            25.9506         estimate D2E/DX2                !
 ! D42   D(6,7,8,9)           -170.0332         estimate D2E/DX2                !
 ! D43   D(6,7,8,23)            70.5607         estimate D2E/DX2                !
 ! D44   D(6,7,8,24)           -45.6119         estimate D2E/DX2                !
 ! D45   D(22,7,8,9)            55.5886         estimate D2E/DX2                !
 ! D46   D(22,7,8,23)          -63.8175         estimate D2E/DX2                !
 ! D47   D(22,7,8,24)         -179.9901         estimate D2E/DX2                !
 ! D48   D(7,8,9,10)           174.1915         estimate D2E/DX2                !
 ! D49   D(7,8,9,25)            51.935          estimate D2E/DX2                !
 ! D50   D(7,8,9,26)           -64.1308         estimate D2E/DX2                !
 ! D51   D(23,8,9,10)          -66.4511         estimate D2E/DX2                !
 ! D52   D(23,8,9,25)          171.2923         estimate D2E/DX2                !
 ! D53   D(23,8,9,26)           55.2265         estimate D2E/DX2                !
 ! D54   D(24,8,9,10)           47.8968         estimate D2E/DX2                !
 ! D55   D(24,8,9,25)          -74.3598         estimate D2E/DX2                !
 ! D56   D(24,8,9,26)          169.5744         estimate D2E/DX2                !
 ! D57   D(8,9,10,11)          178.4398         estimate D2E/DX2                !
 ! D58   D(8,9,10,27)           58.2327         estimate D2E/DX2                !
 ! D59   D(8,9,10,28)          -62.3177         estimate D2E/DX2                !
 ! D60   D(25,9,10,11)         -58.6331         estimate D2E/DX2                !
 ! D61   D(25,9,10,27)        -178.8401         estimate D2E/DX2                !
 ! D62   D(25,9,10,28)          60.6095         estimate D2E/DX2                !
 ! D63   D(26,9,10,11)          56.6258         estimate D2E/DX2                !
 ! D64   D(26,9,10,27)         -63.5813         estimate D2E/DX2                !
 ! D65   D(26,9,10,28)         175.8683         estimate D2E/DX2                !
 ! D66   D(9,10,11,29)         -60.2133         estimate D2E/DX2                !
 ! D67   D(27,10,11,29)         61.6919         estimate D2E/DX2                !
 ! D68   D(28,10,11,29)        178.9763         estimate D2E/DX2                !
 --------------------------------------------------------------------------------
 Trust Radius=3.00D-01 FncErr=1.00D-07 GrdErr=1.00D-06 EigMax=2.50D+02 EigMin=1.00D-04
 Number of steps in this run=    159 maximum allowed number of steps=    174.
 GradGradGradGradGradGradGradGradGradGradGradGradGradGradGradGradGradGrad

                          Input orientation:                          
 ---------------------------------------------------------------------
 Center     Atomic      Atomic             Coordinates (Angstroms)
 Number     Number       Type             X           Y           Z
 ---------------------------------------------------------------------
      1          6           0        0.815500   -0.093020    0.117310
      2          6           0        2.328520   -0.122290    0.101170
      3          6           0        2.961350   -0.610870   -1.205220
      4          7           0        4.227160    0.101660   -1.436480
      5          6           0        5.073670   -0.165480   -2.574200
      6          7           0        3.058710   -2.054840   -1.413490
      7          6           0        2.091540   -1.347970   -2.233080
      8          6           0        2.234800   -1.346930   -3.718490
      9          6           0        1.264530   -0.351280   -4.350710
     10          6           0        1.493400   -0.232030   -5.848820
     11          8           0        0.552170    0.673540   -6.410920
     12          1           0        0.461080    0.413870    1.019300
     13          1           0        0.400940   -1.104770    0.112490
     14          1           0        0.432580    0.450650   -0.752200
     15          1           0        2.712770   -0.707410    0.946800
     16          1           0        2.662730    0.909660    0.272730
     17          1           0        4.797810    0.030970   -0.596620
     18          1           0        4.596850    0.109270   -3.513140
     19          1           0        5.436680   -1.196430   -2.597250
     20          1           0        5.948330    0.490700   -2.504480
     21          1           0        2.566250   -2.575760   -0.682250
     22          1           0        1.052520   -1.553340   -1.987990
     23          1           0        2.006080   -2.351640   -4.095180
     24          1           0        3.248080   -1.148670   -4.055820
     25          1           0        1.360960    0.636880   -3.883350
     26          1           0        0.229610   -0.664850   -4.158900
     27          1           0        1.383290   -1.200730   -6.346590
     28          1           0        2.497180    0.149810   -6.056410
     29          1           0       -0.334070    0.321410   -6.237890
 ---------------------------------------------------------------------
                    Distance matrix (angstroms):
                    1          2          3          4          5
     1  C    0.000000
     2  C    1.513389   0.000000
     3  C    2.573310   1.531613   0.000000
     4  N    3.753876   2.453437   1.470869   0.000000
     5  C    5.038004   3.833447   2.556242   1.443035   0.000000
     6  N    3.350235   2.561664   1.462158   2.452814   2.996163
     7  C    2.954236   2.647107   1.535051   2.701272   3.226104
     8  C    4.277857   4.012272   2.717754   3.357898   3.280916
     9  C    4.497947   4.582984   3.583391   4.180319   4.207144
    10  C    6.006128   6.009314   4.884815   5.201301   4.852412
    11  O    6.578354   6.796770   5.878194   6.211091   5.989018
    12  H    1.093680   2.148898   3.499990   4.506849   5.875787
    13  H    1.093399   2.163553   2.921643   4.300551   5.471286
    14  H    1.094647   2.156638   2.779700   3.871546   5.023845
    15  H    2.159899   1.097772   2.168479   2.937345   4.273755
    16  H    2.107553   1.098203   2.141383   2.453916   3.882469
    17  H    4.047698   2.570563   2.038366   1.017842   2.006368
    18  H    5.245922   4.273427   2.918896   2.109323   1.088326
    19  H    5.471897   4.253928   2.899636   2.120227   1.093236
    20  H    5.793139   4.502021   3.438544   2.062620   1.095657
    21  H    3.141404   2.586460   2.071327   3.239763   3.959303
    22  H    2.573131   2.835607   2.268173   3.622365   4.294117
    23  H    4.925842   4.762701   3.506378   4.245063   4.062362
    24  H    4.944376   4.379453   2.915024   3.063146   2.548458
    25  H    4.103116   4.170001   3.360135   3.806407   4.017695
    26  H    4.353875   4.779957   4.023623   4.896888   5.121090
    27  H    6.582660   6.605309   5.410351   5.821769   5.377878
    28  H    6.403267   6.165896   4.932356   4.933447   4.343213
    29  H    6.471617   6.889843   6.087422   6.626209   6.550064
                    6          7          8          9         10
     6  N    0.000000
     7  C    1.451486   0.000000
     8  C    2.548134   1.492303   0.000000
     9  C    3.840372   2.482276   1.527234   0.000000
    10  C    5.044302   3.831014   2.516144   1.520176   0.000000
    11  O    6.221021   4.889837   3.763339   2.408771   1.421945
    12  H    4.331360   4.042333   5.356599   5.483429   6.975238
    13  H    3.208581   2.901547   4.254185   4.608003   6.123101
    14  H    3.689355   2.860103   3.908730   3.779485   5.250422
    15  H    2.739747   3.302708   4.733114   5.503439   6.920499
    16  H    3.433424   3.420853   4.604906   4.992107   6.335942
    17  H    2.835904   3.450127   4.267751   5.169466   6.210789
    18  H    3.384934   3.168388   2.782439   3.466697   3.899139
    19  H    2.791576   3.368315   3.395860   4.603883   5.201176
    20  H    4.002491   4.281261   4.317524   5.104457   5.617237
    21  H    1.024005   2.034181   3.292208   4.483345   5.773866
    22  H    2.146241   1.087110   2.105949   2.659388   4.104418
    23  H    2.896132   2.117091   1.097110   2.148635   2.798364
    24  H    2.799806   2.167876   1.086202   2.158069   2.670951
    25  H    4.028389   2.682679   2.174000   1.097353   2.153048
    26  H    4.180090   2.764456   2.163326   1.098261   2.154142
    27  H    5.279395   4.176633   2.766469   2.172373   1.094659
    28  H    5.170349   4.126226   2.788359   2.163315   1.093833
    29  H    6.358644   4.970806   3.966085   2.563100   1.948671
                   11         12         13         14         15
    11  O    0.000000
    12  H    7.435314   0.000000
    13  H    6.763145   1.769799   0.000000
    14  H    5.664371   1.772111   1.779894   0.000000
    15  H    7.791743   2.516472   2.489684   3.070337   0.000000
    16  H    7.012945   2.377065   3.033035   2.496946   1.752652
    17  H    7.228032   4.643817   4.596217   4.388117   2.697173
    18  H    5.007491   6.143321   5.676684   5.008041   4.909968
    19  H    6.472967   6.358388   5.719246   5.581944   4.496567
    20  H    6.664251   6.521721   6.337791   5.787537   4.880128
    21  H    6.887099   4.032977   2.735688   3.703593   2.483144
    22  H    4.977113   3.641910   2.244502   2.434641   3.476352
    23  H    4.077771   6.016060   4.672863   4.637267   5.350184
    24  H    4.016824   5.997145   5.048063   4.625880   5.050492
    25  H    2.654071   4.989539   4.463375   3.271188   5.192769
    26  H    2.639494   5.294428   4.297401   3.590424   5.677682
    27  H    2.051289   7.596956   6.534060   5.910000   7.429968
    28  H    2.045247   7.367571   6.635022   5.699800   7.058772
    29  H    0.969204   7.301207   6.549928   5.540510   7.871561
                   16         17         18         19         20
    16  H    0.000000
    17  H    2.467070   0.000000
    18  H    4.325998   2.924484   0.000000
    19  H    4.513003   2.432527   1.802504   0.000000
    20  H    4.322452   2.274858   1.728983   1.765446   0.000000
    21  H    3.615169   3.432526   4.398484   3.716066   4.915502
    22  H    3.710795   4.298040   4.201503   4.440658   5.330461
    23  H    5.490529   5.070553   3.620351   3.917566   5.113762
    24  H    4.828634   3.969796   1.922523   2.630528   3.519310
    25  H    4.363716   4.793919   3.299456   4.650438   4.792350
    26  H    5.295139   5.834591   4.482081   5.462134   6.064335
    27  H    7.064426   6.799867   4.480124   5.521552   6.201801
    28  H    6.376738   5.925903   3.298254   4.734851   4.964156
    29  H    7.191316   7.631807   5.637662   6.989968   7.309963
                   21         22         23         24         25
    21  H    0.000000
    22  H    2.245368   0.000000
    23  H    3.465849   2.446796   0.000000
    24  H    3.725916   3.043051   1.729523   0.000000
    25  H    4.692635   2.912832   3.064687   2.603681   0.000000
    26  H    4.604189   2.485849   2.450544   3.058736   1.746534
    27  H    5.947676   4.385332   2.604095   2.954281   3.073249
    28  H    6.026201   4.641099   3.216342   2.500452   2.500085
    29  H    6.904389   4.847574   4.148820   4.444588   2.918305
                   26         27         28         29
    26  H    0.000000
    27  H    2.530639   0.000000
    28  H    3.066935   1.774518   0.000000
    29  H    2.369102   2.297401   2.842245   0.000000
 Stoichiometry    C8H18N2O
 Framework group  C1[X(C8H18N2O)]
 Deg. of freedom    81
 Full point group                 C1      NOp   1
 Largest Abelian subgroup         C1      NOp   1
 Largest concise Abelian subgroup C1      NOp   1
                         Standard orientation:                         
 ---------------------------------------------------------------------
 Center     Atomic      Atomic             Coordinates (Angstroms)
 Number     Number       Type             X           Y           Z
 ---------------------------------------------------------------------
      1          6           0       -2.103926   -2.362216   -0.489620
      2          6           0       -2.573753   -0.925244   -0.558325
      3          6           0       -1.585783    0.114422   -0.020877
      4          7           0       -1.708402    1.358129   -0.796514
      5          6           0       -0.928229    2.536659   -0.505402
      6          7           0       -1.547534    0.330311    1.424749
      7          6           0       -0.403390   -0.346991    0.842505
      8          6           0        0.952782    0.268456    0.937324
      9          6           0        1.946544   -0.483633    0.054575
     10          6           0        3.297818    0.212238    0.027034
     11          8           0        4.208210   -0.531527   -0.772921
     12          1           0       -2.797436   -3.008665   -1.034858
     13          1           0       -2.056339   -2.713032    0.544878
     14          1           0       -1.113363   -2.464569   -0.944109
     15          1           0       -3.545857   -0.812294   -0.060974
     16          1           0       -2.751288   -0.705076   -1.619483
     17          1           0       -2.689169    1.629053   -0.822981
     18          1           0        0.134099    2.378485   -0.681163
     19          1           0       -1.113086    2.927704    0.498629
     20          1           0       -1.215114    3.315461   -1.220683
     21          1           0       -2.126464   -0.351244    1.923657
     22          1           0       -0.321449   -1.400583    1.097529
     23          1           0        1.292657    0.213257    1.979000
     24          1           0        0.965468    1.327797    0.697595
     25          1           0        1.561831   -0.582172   -0.968396
     26          1           0        2.067922   -1.511895    0.420801
     27          1           0        3.717305    0.306907    1.033686
     28          1           0        3.207277    1.213483   -0.403988
     29          1           0        4.296501   -1.411628   -0.376711
 ---------------------------------------------------------------------
 Rotational constants (GHZ):           1.4466759           0.5518817           0.4702992
 Standard basis: 6-31G(2df,p) (6D, 7F)
 There are   431 symmetry adapted cartesian basis functions of A   symmetry.
 There are   398 symmetry adapted basis functions of A   symmetry.
   398 basis functions,   610 primitive gaussians,   431 cartesian basis functions
    44 alpha electrons       44 beta electrons
       nuclear repulsion energy       661.2462704085 Hartrees.
 NAtoms=   29 NActive=   29 NUniq=   29 SFac= 1.00D+00 NAtFMM=   60 NAOKFM=F Big=F
 Integral buffers will be    131072 words long.
 Raffenetti 2 integral format.
 Two-electron integral symmetry is turned on.
 One-electron integrals computed using PRISM.
 PrsmSu:  requested number of processors reduced to:  13 ShMem   1 Linda.
 NBasis=   398 RedAO= T EigKep=  3.01D-04  NBF=   398
 NBsUse=   398 1.00D-06 EigRej= -1.00D+00 NBFU=   398
 ExpMin= 1.61D-01 ExpMax= 5.48D+03 ExpMxC= 8.25D+02 IAcc=3 IRadAn=         5 AccDes= 0.00D+00
 Harris functional with IExCor=  402 and IRadAn=       5 diagonalized for initial guess.
 HarFok:  IExCor=  402 AccDes= 0.00D+00 IRadAn=         5 IDoV= 1 UseB2=F ITyADJ=14
 ICtDFT=  3500011 ScaDFX=  1.000000  1.000000  1.000000  1.000000
 FoFCou: FMM=F IPFlag=           0 FMFlag=      100000 FMFlg1=           0
         NFxFlg=           0 DoJE=T BraDBF=F KetDBF=T FulRan=T
         wScrn=  0.000000 ICntrl=       500 IOpCl=  0 I1Cent=   200000004 NGrid=           0
         NMat0=    1 NMatS0=      1 NMatT0=    0 NMatD0=    1 NMtDS0=    0 NMtDT0=    0
 Petite list used in FoFCou.
 Requested convergence on RMS density matrix=1.00D-08 within 128 cycles.
 Requested convergence on MAX density matrix=1.00D-06.
 Requested convergence on             energy=1.00D-06.
 No special actions if energy rises.
 Integral accuracy reduced to 1.0D-05 until final iterations.
 Initial convergence to 1.0D-05 achieved.  Increase integral accuracy.
 SCF Done:  E(RB3LYP) =  -500.382539563     A.U. after   12 cycles
            NFock= 12  Conv=0.48D-08     -V/T= 2.0077

 **********************************************************************

            Population analysis using the SCF density.

 **********************************************************************

 Orbital symmetries:
       Occupied  (A) (A) (A) (A) (A) (A) (A) (A) (A) (A) (A) (A)
                 (A) (A) (A) (A) (A) (A) (A) (A) (A) (A) (A) (A)
                 (A) (A) (A) (A) (A) (A) (A) (A) (A) (A) (A) (A)
                 (A) (A) (A) (A) (A) (A) (A) (A)
       Virtual   (A) (A) (A) (A) (A) (A) (A) (A) (A) (A) (A) (A)
                 (A) (A) (A) (A) (A) (A) (A) (A) (A) (A) (A) (A)
                 (A) (A) (A) (A) (A) (A) (A) (A) (A) (A) (A) (A)
                 (A) (A) (A) (A) (A) (A) (A) (A) (A) (A) (A) (A)
                 (A) (A) (A) (A) (A) (A) (A) (A) (A) (A) (A) (A)
                 (A) (A) (A) (A) (A) (A) (A) (A) (A) (A) (A) (A)
                 (A) (A) (A) (A) (A) (A) (A) (A) (A) (A) (A) (A)
                 (A) (A) (A) (A) (A) (A) (A) (A) (A) (A) (A) (A)
                 (A) (A) (A) (A) (A) (A) (A) (A) (A) (A) (A) (A)
                 (A) (A) (A) (A) (A) (A) (A) (A) (A) (A) (A) (A)
                 (A) (A) (A) (A) (A) (A) (A) (A) (A) (A) (A) (A)
                 (A) (A) (A) (A) (A) (A) (A) (A) (A) (A) (A) (A)
                 (A) (A) (A) (A) (A) (A) (A) (A) (A) (A) (A) (A)
                 (A) (A) (A) (A) (A) (A) (A) (A) (A) (A) (A) (A)
                 (A) (A) (A) (A) (A) (A) (A) (A) (A) (A) (A) (A)
                 (A) (A) (A) (A) (A) (A) (A) (A) (A) (A) (A) (A)
                 (A) (A) (A) (A) (A) (A) (A) (A) (A) (A) (A) (A)
                 (A) (A) (A) (A) (A) (A) (A) (A) (A) (A) (A) (A)
                 (A) (A) (A) (A) (A) (A) (A) (A) (A) (A) (A) (A)
                 (A) (A) (A) (A) (A) (A) (A) (A) (A) (A) (A) (A)
                 (A) (A) (A) (A) (A) (A) (A) (A) (A) (A) (A) (A)
                 (A) (A) (A) (A) (A) (A) (A) (A) (A) (A) (A) (A)
                 (A) (A) (A) (A) (A) (A) (A) (A) (A) (A) (A) (A)
                 (A) (A) (A) (A) (A) (A) (A) (A) (A) (A) (A) (A)
                 (A) (A) (A) (A) (A) (A) (A) (A) (A) (A) (A) (A)
                 (A) (A) (A) (A) (A) (A) (A) (A) (A) (A) (A) (A)
                 (A) (A) (A) (A) (A) (A) (A) (A) (A) (A) (A) (A)
                 (A) (A) (A) (A) (A) (A) (A) (A) (A) (A) (A) (A)
                 (A) (A) (A) (A) (A) (A) (A) (A) (A) (A) (A) (A)
                 (A) (A) (A) (A) (A) (A)
 The electronic state is 1-A.
 Alpha  occ. eigenvalues --  -19.12557 -14.30839 -14.30679 -10.24151 -10.22095
 Alpha  occ. eigenvalues --  -10.21206 -10.18973 -10.18372 -10.17791 -10.17734
 Alpha  occ. eigenvalues --  -10.17500  -1.00658  -0.96306  -0.87054  -0.78921
 Alpha  occ. eigenvalues --   -0.77065  -0.69547  -0.67922  -0.62035  -0.61343
 Alpha  occ. eigenvalues --   -0.59157  -0.56023  -0.49944  -0.49565  -0.47517
 Alpha  occ. eigenvalues --   -0.46073  -0.45090  -0.44170  -0.42389  -0.41501
 Alpha  occ. eigenvalues --   -0.41077  -0.38919  -0.37893  -0.37262  -0.35986
 Alpha  occ. eigenvalues --   -0.35823  -0.34412  -0.33143  -0.32674  -0.31165
 Alpha  occ. eigenvalues --   -0.29611  -0.25711  -0.24010  -0.20638
 Alpha virt. eigenvalues --    0.06440   0.07542   0.08997   0.09719   0.11169
 Alpha virt. eigenvalues --    0.11811   0.12119   0.14049   0.14208   0.15956
 Alpha virt. eigenvalues --    0.16093   0.17145   0.17600   0.17721   0.18501
 Alpha virt. eigenvalues --    0.19061   0.20129   0.20884   0.21368   0.21784
 Alpha virt. eigenvalues --    0.23364   0.23912   0.24164   0.25991   0.27856
 Alpha virt. eigenvalues --    0.28148   0.30916   0.32035   0.36841   0.43234
 Alpha virt. eigenvalues --    0.44236   0.46092   0.46911   0.48772   0.49684
 Alpha virt. eigenvalues --    0.50776   0.51383   0.51912   0.52834   0.54833
 Alpha virt. eigenvalues --    0.55098   0.55958   0.56369   0.58636   0.59493
 Alpha virt. eigenvalues --    0.60491   0.61522   0.62920   0.64690   0.64914
 Alpha virt. eigenvalues --    0.67136   0.68315   0.69722   0.70729   0.70979
 Alpha virt. eigenvalues --    0.71881   0.72885   0.73391   0.74182   0.75280
 Alpha virt. eigenvalues --    0.75704   0.75782   0.76446   0.76836   0.78130
 Alpha virt. eigenvalues --    0.78883   0.79618   0.80875   0.81217   0.81722
 Alpha virt. eigenvalues --    0.83484   0.85067   0.85656   0.86271   0.88284
 Alpha virt. eigenvalues --    0.88933   0.90000   0.91588   0.92241   0.92791
 Alpha virt. eigenvalues --    0.94159   0.96711   0.98147   0.99675   1.00397
 Alpha virt. eigenvalues --    1.03155   1.04781   1.07169   1.11004   1.13335
 Alpha virt. eigenvalues --    1.14885   1.15512   1.17634   1.19957   1.21453
 Alpha virt. eigenvalues --    1.22753   1.25204   1.26585   1.28022   1.30041
 Alpha virt. eigenvalues --    1.32043   1.32588   1.34661   1.37301   1.38946
 Alpha virt. eigenvalues --    1.41075   1.42247   1.43054   1.45526   1.47830
 Alpha virt. eigenvalues --    1.48811   1.50190   1.53782   1.53932   1.56333
 Alpha virt. eigenvalues --    1.56658   1.57681   1.59894   1.61731   1.62250
 Alpha virt. eigenvalues --    1.63834   1.64746   1.66756   1.68079   1.69043
 Alpha virt. eigenvalues --    1.70391   1.72634   1.73823   1.74080   1.77988
 Alpha virt. eigenvalues --    1.82806   1.83702   1.86930   1.88564   1.89044
 Alpha virt. eigenvalues --    1.91999   1.93345   1.94891   1.95028   1.97624
 Alpha virt. eigenvalues --    1.98837   2.00169   2.01592   2.05470   2.08602
 Alpha virt. eigenvalues --    2.12341   2.14082   2.17308   2.17639   2.18418
 Alpha virt. eigenvalues --    2.20609   2.27513   2.28819   2.29933   2.33533
 Alpha virt. eigenvalues --    2.34390   2.34691   2.36715   2.36905   2.38597
 Alpha virt. eigenvalues --    2.43197   2.45684   2.46335   2.49686   2.53559
 Alpha virt. eigenvalues --    2.54521   2.55326   2.57507   2.58985   2.64148
 Alpha virt. eigenvalues --    2.67423   2.69592   2.70376   2.71896   2.73543
 Alpha virt. eigenvalues --    2.75458   2.77032   2.77971   2.78784   2.79546
 Alpha virt. eigenvalues --    2.80289   2.82625   2.83675   2.83855   2.85134
 Alpha virt. eigenvalues --    2.86690   2.87393   2.89711   2.90084   2.92268
 Alpha virt. eigenvalues --    2.92941   2.93436   2.94237   2.95206   2.96935
 Alpha virt. eigenvalues --    2.97224   2.98258   3.01174   3.02625   3.03986
 Alpha virt. eigenvalues --    3.06842   3.08366   3.10308   3.11251   3.14313
 Alpha virt. eigenvalues --    3.17835   3.18937   3.22111   3.23550   3.25106
 Alpha virt. eigenvalues --    3.26574   3.27359   3.31826   3.36204   3.36775
 Alpha virt. eigenvalues --    3.36963   3.39485   3.40686   3.43396   3.44141
 Alpha virt. eigenvalues --    3.45935   3.48101   3.49544   3.51628   3.53457
 Alpha virt. eigenvalues --    3.54494   3.55571   3.57090   3.58381   3.59295
 Alpha virt. eigenvalues --    3.63426   3.65374   3.66936   3.68099   3.68851
 Alpha virt. eigenvalues --    3.70104   3.72212   3.76701   3.78509   3.79473
 Alpha virt. eigenvalues --    3.79698   3.80881   3.82593   3.85698   3.87319
 Alpha virt. eigenvalues --    3.89180   3.95301   3.96492   3.98626   4.03462
 Alpha virt. eigenvalues --    4.06013   4.13086   4.15012   4.16373   4.18392
 Alpha virt. eigenvalues --    4.22618   4.24033   4.25575   4.29379   4.30670
 Alpha virt. eigenvalues --    4.34571   4.35833   4.37995   4.39423   4.41534
 Alpha virt. eigenvalues --    4.42781   4.43805   4.45152   4.46516   4.47690
 Alpha virt. eigenvalues --    4.48724   4.50076   4.50525   4.50942   4.52528
 Alpha virt. eigenvalues --    4.54485   4.55696   4.56171   4.57431   4.59275
 Alpha virt. eigenvalues --    4.62141   4.62843   4.63304   4.63810   4.65032
 Alpha virt. eigenvalues --    4.67260   4.68659   4.69264   4.69504   4.70791
 Alpha virt. eigenvalues --    4.72820   4.73399   4.74977   4.76244   4.77082
 Alpha virt. eigenvalues --    4.79011   4.79845   4.81080   4.82643   4.83795
 Alpha virt. eigenvalues --    4.84003   4.86534   4.88554   4.89997   4.90611
 Alpha virt. eigenvalues --    4.91263   4.91753   4.95336   4.96506   4.98246
 Alpha virt. eigenvalues --    5.02189   5.06240   5.07494   5.11265   5.15128
 Alpha virt. eigenvalues --    5.17729   5.22731   5.26645   5.30008   5.31561
 Alpha virt. eigenvalues --    5.34009   5.35820   5.37314   5.41286   5.46802
 Alpha virt. eigenvalues --    5.47000   5.49894   5.52262   5.54211   5.57712
 Alpha virt. eigenvalues --    5.65586   5.67249   5.70259   5.74069   5.82568
 Alpha virt. eigenvalues --    5.96475   6.04123   6.08661   6.11834   6.67199
 Alpha virt. eigenvalues --    7.02866  10.53325  11.09583  11.25299  11.38658
 Alpha virt. eigenvalues --   11.49127  11.63530  11.92575  12.13271  12.38855
 Alpha virt. eigenvalues --   12.53275  13.16861  15.59841  16.77844
          Condensed to atoms (all electrons):
               1          2          3          4          5          6
     1  C    4.948771   0.398819  -0.030868   0.001727  -0.000182   0.000005
     2  C    0.398819   4.964894   0.402410  -0.052618   0.004992  -0.014680
     3  C   -0.030868   0.402410   4.593023   0.403858  -0.049241   0.269113
     4  N    0.001727  -0.052618   0.403858   6.421094   0.385898  -0.078416
     5  C   -0.000182   0.004992  -0.049241   0.385898   4.922236  -0.004211
     6  N    0.000005  -0.014680   0.269113  -0.078416  -0.004211   6.660348
     7  C   -0.005340  -0.058647   0.343241  -0.001819  -0.005501   0.249612
     8  C    0.000341   0.004392  -0.023283  -0.002620  -0.004929  -0.012239
     9  C   -0.000041   0.000206   0.001458  -0.000291   0.000028   0.001346
    10  C    0.000002  -0.000001   0.000045  -0.000005  -0.000031  -0.000042
    11  O   -0.000000  -0.000000  -0.000000   0.000000   0.000000   0.000000
    12  H    0.372289  -0.022321   0.003417  -0.000066   0.000002  -0.000223
    13  H    0.374977  -0.027880  -0.005695   0.000059   0.000002   0.001980
    14  H    0.381117  -0.028973  -0.004322   0.000222  -0.000010  -0.000349
    15  H   -0.037956   0.349728  -0.019486   0.000508  -0.000168  -0.008807
    16  H   -0.030328   0.348576  -0.027343   0.005116  -0.000023   0.005568
    17  H   -0.000046  -0.003952  -0.048443   0.345312  -0.050600  -0.002316
    18  H    0.000008  -0.000031  -0.005017  -0.025400   0.378968  -0.000695
    19  H    0.000000   0.000224   0.005105  -0.045186   0.366615   0.013472
    20  H    0.000002  -0.000216   0.001968  -0.025167   0.371132   0.000038
    21  H    0.000570  -0.011819  -0.044143   0.006079  -0.000136   0.324865
    22  H    0.005228  -0.013111  -0.023766   0.000998  -0.000066  -0.038800
    23  H    0.000004  -0.000176   0.003033   0.000161   0.000170  -0.001107
    24  H    0.000001  -0.000053  -0.010829  -0.000355   0.001000  -0.000959
    25  H   -0.000073  -0.000228   0.002295   0.000102   0.000099  -0.000046
    26  H   -0.000046   0.000009  -0.000135  -0.000001  -0.000004  -0.000016
    27  H   -0.000000  -0.000000  -0.000007   0.000000   0.000004   0.000003
    28  H   -0.000000   0.000000   0.000010  -0.000001  -0.000067   0.000003
    29  H   -0.000000   0.000000   0.000000  -0.000000  -0.000000   0.000000
               7          8          9         10         11         12
     1  C   -0.005340   0.000341  -0.000041   0.000002  -0.000000   0.372289
     2  C   -0.058647   0.004392   0.000206  -0.000001  -0.000000  -0.022321
     3  C    0.343241  -0.023283   0.001458   0.000045  -0.000000   0.003417
     4  N   -0.001819  -0.002620  -0.000291  -0.000005   0.000000  -0.000066
     5  C   -0.005501  -0.004929   0.000028  -0.000031   0.000000   0.000002
     6  N    0.249612  -0.012239   0.001346  -0.000042   0.000000  -0.000223
     7  C    4.819032   0.354512  -0.021104   0.000819  -0.000073   0.000231
     8  C    0.354512   5.070725   0.304926  -0.029811   0.003412  -0.000026
     9  C   -0.021104   0.304926   4.959770   0.414620  -0.050178   0.000002
    10  C    0.000819  -0.029811   0.414620   4.729690   0.361295  -0.000000
    11  O   -0.000073   0.003412  -0.050178   0.361295   7.845059   0.000000
    12  H    0.000231  -0.000026   0.000002  -0.000000   0.000000   0.605250
    13  H   -0.001249   0.000315  -0.000040  -0.000000  -0.000000  -0.032872
    14  H    0.002559  -0.000629   0.000321  -0.000001   0.000000  -0.029627
    15  H    0.002823  -0.000160   0.000001   0.000000  -0.000000  -0.000001
    16  H    0.000533   0.000093  -0.000031  -0.000000  -0.000000  -0.006718
    17  H    0.005614  -0.000356   0.000001   0.000000  -0.000000   0.000010
    18  H    0.002479  -0.005955   0.000606   0.000033  -0.000001   0.000000
    19  H   -0.002831  -0.000066   0.000068   0.000004  -0.000000   0.000000
    20  H    0.000297   0.000197  -0.000006  -0.000001   0.000000  -0.000000
    21  H   -0.036313   0.003965  -0.000266   0.000001  -0.000000  -0.000094
    22  H    0.392604  -0.073911  -0.000055   0.000121  -0.000001  -0.000060
    23  H   -0.013973   0.333056  -0.029399  -0.002905   0.000003   0.000000
    24  H   -0.014831   0.361505  -0.037969  -0.003982   0.000072   0.000000
    25  H    0.001241  -0.034603   0.363582  -0.027440   0.003486   0.000002
    26  H   -0.002618  -0.027910   0.357724  -0.036494  -0.000639   0.000001
    27  H    0.000091   0.004509  -0.049320   0.362831  -0.030081   0.000000
    28  H   -0.000054  -0.004318  -0.025602   0.359253  -0.014056   0.000000
    29  H   -0.000003  -0.000289  -0.002296  -0.067287   0.309653  -0.000000
              13         14         15         16         17         18
     1  C    0.374977   0.381117  -0.037956  -0.030328  -0.000046   0.000008
     2  C   -0.027880  -0.028973   0.349728   0.348576  -0.003952  -0.000031
     3  C   -0.005695  -0.004322  -0.019486  -0.027343  -0.048443  -0.005017
     4  N    0.000059   0.000222   0.000508   0.005116   0.345312  -0.025400
     5  C    0.000002  -0.000010  -0.000168  -0.000023  -0.050600   0.378968
     6  N    0.001980  -0.000349  -0.008807   0.005568  -0.002316  -0.000695
     7  C   -0.001249   0.002559   0.002823   0.000533   0.005614   0.002479
     8  C    0.000315  -0.000629  -0.000160   0.000093  -0.000356  -0.005955
     9  C   -0.000040   0.000321   0.000001  -0.000031   0.000001   0.000606
    10  C   -0.000000  -0.000001   0.000000  -0.000000   0.000000   0.000033
    11  O   -0.000000   0.000000  -0.000000  -0.000000  -0.000000  -0.000001
    12  H   -0.032872  -0.029627  -0.000001  -0.006718   0.000010   0.000000
    13  H    0.612085  -0.035377  -0.006454   0.006012   0.000000  -0.000000
    14  H   -0.035377   0.583861   0.005816  -0.003403   0.000034  -0.000001
    15  H   -0.006454   0.005816   0.648453  -0.038845   0.003090  -0.000000
    16  H    0.006012  -0.003403  -0.038845   0.626843  -0.000566  -0.000055
    17  H    0.000000   0.000034   0.003090  -0.000566   0.537637   0.006209
    18  H   -0.000000  -0.000001  -0.000000  -0.000055   0.006209   0.589015
    19  H   -0.000001   0.000001   0.000027   0.000064  -0.003185  -0.046060
    20  H   -0.000000   0.000000   0.000007  -0.000067  -0.004557  -0.026180
    21  H    0.002186   0.000070   0.004916  -0.000003   0.000360   0.000022
    22  H    0.001786   0.001581   0.000140   0.000204  -0.000060  -0.000011
    23  H   -0.000002   0.000021   0.000007  -0.000000   0.000016   0.000240
    24  H   -0.000001  -0.000004  -0.000006   0.000004  -0.000031   0.004649
    25  H   -0.000009   0.000768   0.000005   0.000003   0.000009   0.000167
    26  H   -0.000012   0.000148   0.000000   0.000000  -0.000000  -0.000013
    27  H    0.000000   0.000000  -0.000000   0.000000   0.000000  -0.000013
    28  H   -0.000000   0.000000   0.000000  -0.000000   0.000000   0.000623
    29  H    0.000000   0.000000   0.000000   0.000000  -0.000000   0.000000
              19         20         21         22         23         24
     1  C    0.000000   0.000002   0.000570   0.005228   0.000004   0.000001
     2  C    0.000224  -0.000216  -0.011819  -0.013111  -0.000176  -0.000053
     3  C    0.005105   0.001968  -0.044143  -0.023766   0.003033  -0.010829
     4  N   -0.045186  -0.025167   0.006079   0.000998   0.000161  -0.000355
     5  C    0.366615   0.371132  -0.000136  -0.000066   0.000170   0.001000
     6  N    0.013472   0.000038   0.324865  -0.038800  -0.001107  -0.000959
     7  C   -0.002831   0.000297  -0.036313   0.392604  -0.013973  -0.014831
     8  C   -0.000066   0.000197   0.003965  -0.073911   0.333056   0.361505
     9  C    0.000068  -0.000006  -0.000266  -0.000055  -0.029399  -0.037969
    10  C    0.000004  -0.000001   0.000001   0.000121  -0.002905  -0.003982
    11  O   -0.000000   0.000000  -0.000000  -0.000001   0.000003   0.000072
    12  H    0.000000  -0.000000  -0.000094  -0.000060   0.000000   0.000000
    13  H   -0.000001  -0.000000   0.002186   0.001786  -0.000002  -0.000001
    14  H    0.000001   0.000000   0.000070   0.001581   0.000021  -0.000004
    15  H    0.000027   0.000007   0.004916   0.000140   0.000007  -0.000006
    16  H    0.000064  -0.000067  -0.000003   0.000204  -0.000000   0.000004
    17  H   -0.003185  -0.004557   0.000360  -0.000060   0.000016  -0.000031
    18  H   -0.046060  -0.026180   0.000022  -0.000011   0.000240   0.004649
    19  H    0.641384  -0.042223  -0.000550   0.000043  -0.000045   0.003085
    20  H   -0.042223   0.616066   0.000008   0.000005  -0.000005  -0.000220
    21  H   -0.000550   0.000008   0.552451  -0.015261   0.000626  -0.000327
    22  H    0.000043   0.000005  -0.015261   0.677002  -0.003011   0.006771
    23  H   -0.000045  -0.000005   0.000626  -0.003011   0.657609  -0.040646
    24  H    0.003085  -0.000220  -0.000327   0.006771  -0.040646   0.619742
    25  H    0.000012  -0.000005   0.000005  -0.000325   0.006453  -0.003661
    26  H    0.000000   0.000000  -0.000002   0.005574  -0.007799   0.006107
    27  H   -0.000000  -0.000000  -0.000000   0.000005   0.004662  -0.000426
    28  H   -0.000009   0.000001   0.000000   0.000008  -0.000437   0.004347
    29  H    0.000000   0.000000   0.000000  -0.000003   0.000011   0.000025
              25         26         27         28         29
     1  C   -0.000073  -0.000046  -0.000000  -0.000000  -0.000000
     2  C   -0.000228   0.000009  -0.000000   0.000000   0.000000
     3  C    0.002295  -0.000135  -0.000007   0.000010   0.000000
     4  N    0.000102  -0.000001   0.000000  -0.000001  -0.000000
     5  C    0.000099  -0.000004   0.000004  -0.000067  -0.000000
     6  N   -0.000046  -0.000016   0.000003   0.000003   0.000000
     7  C    0.001241  -0.002618   0.000091  -0.000054  -0.000003
     8  C   -0.034603  -0.027910   0.004509  -0.004318  -0.000289
     9  C    0.363582   0.357724  -0.049320  -0.025602  -0.002296
    10  C   -0.027440  -0.036494   0.362831   0.359253  -0.067287
    11  O    0.003486  -0.000639  -0.030081  -0.014056   0.309653
    12  H    0.000002   0.000001   0.000000   0.000000  -0.000000
    13  H   -0.000009  -0.000012   0.000000  -0.000000   0.000000
    14  H    0.000768   0.000148   0.000000   0.000000   0.000000
    15  H    0.000005   0.000000  -0.000000   0.000000   0.000000
    16  H    0.000003   0.000000   0.000000  -0.000000   0.000000
    17  H    0.000009  -0.000000   0.000000   0.000000  -0.000000
    18  H    0.000167  -0.000013  -0.000013   0.000623   0.000000
    19  H    0.000012   0.000000  -0.000000  -0.000009   0.000000
    20  H   -0.000005   0.000000  -0.000000   0.000001   0.000000
    21  H    0.000005  -0.000002  -0.000000   0.000000   0.000000
    22  H   -0.000325   0.005574   0.000005   0.000008  -0.000003
    23  H    0.006453  -0.007799   0.004662  -0.000437   0.000011
    24  H   -0.003661   0.006107  -0.000426   0.004347   0.000025
    25  H    0.619589  -0.045197   0.006570  -0.006411  -0.000297
    26  H   -0.045197   0.665262  -0.006706   0.006020   0.006802
    27  H    0.006570  -0.006706   0.675260  -0.048140  -0.005385
    28  H   -0.006411   0.006020  -0.048140   0.607286   0.006947
    29  H   -0.000297   0.006802  -0.005385   0.006947   0.472962
 Mulliken charges:
               1
     1  C   -0.378981
     2  C   -0.239545
     3  C    0.263600
     4  N   -0.339188
     5  C   -0.315978
     6  N   -0.363446
     7  C   -0.011332
     8  C   -0.220842
     9  C   -0.188058
    10  C   -0.060715
    11  O   -0.427951
    12  H    0.110802
    13  H    0.110190
    14  H    0.126176
    15  H    0.096359
    16  H    0.114365
    17  H    0.215818
    18  H    0.126414
    19  H    0.110050
    20  H    0.108927
    21  H    0.212790
    22  H    0.076373
    23  H    0.093430
    24  H    0.106992
    25  H    0.113907
    26  H    0.079946
    27  H    0.086142
    28  H    0.114597
    29  H    0.279159
 Sum of Mulliken charges =  -0.00000
 Mulliken charges with hydrogens summed into heavy atoms:
               1
     1  C   -0.031814
     2  C   -0.028821
     3  C    0.263600
     4  N   -0.123370
     5  C    0.029413
     6  N   -0.150656
     7  C    0.065041
     8  C   -0.020419
     9  C    0.005795
    10  C    0.140023
    11  O   -0.148792
 Electronic spatial extent (au):  <R**2>=           2565.3418
 Charge=             -0.0000 electrons
 Dipole moment (field-independent basis, Debye):
    X=             -1.4220    Y=             -1.5520    Z=              1.2126  Tot=              2.4292
 Quadrupole moment (field-independent basis, Debye-Ang):
   XX=            -70.8607   YY=            -65.0754   ZZ=            -73.3254
   XY=             -1.6968   XZ=              5.9581   YZ=             -3.2788
 Traceless Quadrupole moment (field-independent basis, Debye-Ang):
   XX=             -1.1068   YY=              4.6784   ZZ=             -3.5716
   XY=             -1.6968   XZ=              5.9581   YZ=             -3.2788
 Octapole moment (field-independent basis, Debye-Ang**2):
  XXX=            -41.9724  YYY=              2.8444  ZZZ=              1.1198  XYY=             12.5304
  XXY=            -13.5895  XXZ=             22.5019  XZZ=             -0.2465  YZZ=             -6.7697
  YYZ=             -5.0192  XYZ=              1.8589
 Hexadecapole moment (field-independent basis, Debye-Ang**3):
 XXXX=          -2275.9218 YYYY=           -815.1284 ZZZZ=           -338.9028 XXXY=            -95.8419
 XXXZ=             96.7233 YYYX=            -49.8010 YYYZ=            -10.0676 ZZZX=            -10.8696
 ZZZY=             -8.0159 XXYY=           -428.1030 XXZZ=           -433.3200 YYZZ=           -192.3630
 XXYZ=            -18.4053 YYXZ=             -0.2772 ZZXY=              9.3922
 N-N= 6.612462704085D+02 E-N=-2.486102154398D+03  KE= 4.965744245556D+02
 PrsmSu:  requested number of processors reduced to:  13 ShMem   1 Linda.
 Calling FoFJK, ICntrl=      2127 FMM=F ISym2X=0 I1Cent= 0 IOpClX= 0 NMat=1 NMatS=1 NMatT=0.
 ***** Axes restored to original set *****
 -------------------------------------------------------------------
 Center     Atomic                   Forces (Hartrees/Bohr)
 Number     Number              X              Y              Z
 -------------------------------------------------------------------
      1        6          -0.006240007   -0.001962154    0.002747942
      2        6           0.005153804    0.011900000   -0.003037814
      3        6           0.014364688   -0.008720711    0.001508242
      4        7          -0.021598410    0.015146529    0.001744938
      5        6           0.007276118    0.000985564    0.001549179
      6        7          -0.002859577   -0.022295101    0.010054382
      7        6           0.014578578    0.008111103    0.003402111
      8        6          -0.002015737   -0.001384329   -0.008967127
      9        6           0.005915960   -0.001733413   -0.000102959
     10        6          -0.017502823    0.004792921    0.001257514
     11        8          -0.002348583    0.005066626   -0.005633494
     12        1          -0.001620452   -0.001274634    0.000634691
     13        1          -0.004001051   -0.000064309   -0.000263544
     14        1          -0.001153684   -0.000778978    0.001353952
     15        1           0.000769693   -0.001588281   -0.000584613
     16        1           0.003349053   -0.002499904   -0.002322010
     17        1          -0.006819075   -0.001189920    0.000054089
     18        1          -0.002169781   -0.002078918   -0.000982508
     19        1          -0.000343753   -0.005100015   -0.007232591
     20        1           0.000959220   -0.000284228    0.002255390
     21        1           0.004866180    0.000874274   -0.002337520
     22        1          -0.001964428    0.009074466    0.006972149
     23        1          -0.001228289   -0.002333778    0.000799416
     24        1           0.002281437    0.000888520    0.001958887
     25        1           0.002056473    0.000141960   -0.001877595
     26        1          -0.000919408   -0.001451309   -0.001029971
     27        1           0.004868682   -0.006211591    0.001030564
     28        1          -0.001054951    0.002205184   -0.001945710
     29        1           0.007400126    0.001764428   -0.001005988
 -------------------------------------------------------------------
 Cartesian Forces:  Max     0.022295101 RMS     0.006066052

 GradGradGradGradGradGradGradGradGradGradGradGradGradGradGradGradGradGrad
 Berny optimization.
 FormGI is forming the generalized inverse of G from B-inverse, IUseBI=4.
 Internal  Forces:  Max     0.015495886 RMS     0.004474328
 Search for a local minimum.
 Step number   1 out of a maximum of  159
 All quantities printed in internal units (Hartrees-Bohrs-Radians)
 Mixed Optimization -- RFO/linear search
 Second derivative matrix not updated -- first step.
 ITU=  0
     Eigenvalues ---    0.00348   0.00406   0.00499   0.00589   0.00754
     Eigenvalues ---    0.00868   0.01123   0.01401   0.02002   0.02107
     Eigenvalues ---    0.02173   0.02715   0.03317   0.03668   0.03679
     Eigenvalues ---    0.03802   0.04878   0.04886   0.05068   0.05173
     Eigenvalues ---    0.05677   0.05744   0.05788   0.05824   0.06989
     Eigenvalues ---    0.07858   0.08214   0.08215   0.08850   0.11189
     Eigenvalues ---    0.11513   0.12103   0.12103   0.12588   0.12659
     Eigenvalues ---    0.13788   0.14300   0.15191   0.16000   0.16000
     Eigenvalues ---    0.16000   0.16000   0.16000   0.16000   0.16000
     Eigenvalues ---    0.18107   0.19682   0.21788   0.21828   0.21948
     Eigenvalues ---    0.22012   0.23244   0.25796   0.28088   0.29275
     Eigenvalues ---    0.29680   0.30350   0.31012   0.33198   0.33875
     Eigenvalues ---    0.33882   0.33930   0.33977   0.34004   0.34167
     Eigenvalues ---    0.34280   0.34281   0.34373   0.34391   0.34423
     Eigenvalues ---    0.34441   0.35007   0.35149   0.35255   0.35636
     Eigenvalues ---    0.35744   0.39172   0.42169   0.43705   0.44684
     Eigenvalues ---    0.53540
 RFO step:  Lambda=-1.84705234D-02 EMin= 3.47765224D-03
 Linear search not attempted -- first point.
 Iteration  1 RMS(Cart)=  0.12229335 RMS(Int)=  0.00439411
 Iteration  2 RMS(Cart)=  0.00722825 RMS(Int)=  0.00070888
 Iteration  3 RMS(Cart)=  0.00003237 RMS(Int)=  0.00070873
 Iteration  4 RMS(Cart)=  0.00000004 RMS(Int)=  0.00070873
 Variable       Old X    -DE/DX   Delta X   Delta X   Delta X     New X
                                 (Linear)    (Quad)   (Total)
    R1        2.85989   0.01298   0.00000   0.03950   0.03950   2.89939
    R2        2.06676   0.00046   0.00000   0.00126   0.00126   2.06802
    R3        2.06622   0.00158   0.00000   0.00435   0.00435   2.07057
    R4        2.06858  -0.00106   0.00000  -0.00293  -0.00293   2.06565
    R5        2.89433   0.00148   0.00000   0.00476   0.00476   2.89909
    R6        2.07449   0.00067   0.00000   0.00186   0.00186   2.07635
    R7        2.07530  -0.00169   0.00000  -0.00474  -0.00474   2.07057
    R8        2.77954  -0.01550   0.00000  -0.04134  -0.04134   2.73820
    R9        2.76308   0.01250   0.00000   0.03827   0.03811   2.80119
   R10        2.90083  -0.01192   0.00000  -0.06245  -0.06386   2.83697
   R11        2.72694   0.00803   0.00000   0.01959   0.01959   2.74653
   R12        1.92344  -0.00370   0.00000  -0.00794  -0.00794   1.91550
   R13        2.05664   0.00127   0.00000   0.00346   0.00346   2.06009
   R14        2.06592   0.00485   0.00000   0.01336   0.01336   2.07927
   R15        2.07049   0.00074   0.00000   0.00205   0.00205   2.07254
   R16        2.74291   0.00835   0.00000   0.03465   0.03625   2.77916
   R17        1.93509  -0.00445   0.00000  -0.00978  -0.00978   1.92531
   R18        2.82004   0.01520   0.00000   0.04337   0.04337   2.86341
   R19        2.05434   0.00173   0.00000   0.00469   0.00469   2.05903
   R20        2.88605   0.00784   0.00000   0.02487   0.02487   2.91093
   R21        2.07324   0.00212   0.00000   0.00591   0.00591   2.07915
   R22        2.05262   0.00168   0.00000   0.00453   0.00453   2.05716
   R23        2.87272   0.00550   0.00000   0.01709   0.01709   2.88980
   R24        2.07370  -0.00049   0.00000  -0.00137  -0.00137   2.07233
   R25        2.07541   0.00110   0.00000   0.00308   0.00308   2.07849
   R26        2.68709   0.00363   0.00000   0.00825   0.00825   2.69534
   R27        2.06861   0.00454   0.00000   0.01256   0.01256   2.08117
   R28        2.06704   0.00017   0.00000   0.00047   0.00047   2.06751
   R29        1.83153  -0.00759   0.00000  -0.01370  -0.01370   1.81783
    A1        1.91957   0.00101   0.00000   0.00512   0.00508   1.92464
    A2        1.94026   0.00452   0.00000   0.02540   0.02530   1.96555
    A3        1.92929   0.00123   0.00000   0.00743   0.00735   1.93664
    A4        1.88560  -0.00301   0.00000  -0.01783  -0.01789   1.86771
    A5        1.88763  -0.00116   0.00000  -0.00659  -0.00661   1.88102
    A6        1.90016  -0.00288   0.00000  -0.01511  -0.01524   1.88492
    A7        2.01346   0.00861   0.00000   0.03759   0.03742   2.05087
    A8        1.93054  -0.00337   0.00000  -0.02017  -0.01964   1.91090
    A9        1.85919   0.00164   0.00000   0.03461   0.03456   1.89375
   A10        1.92025  -0.00392   0.00000  -0.03228  -0.03225   1.88800
   A11        1.88311  -0.00481   0.00000  -0.02064  -0.02192   1.86119
   A12        1.84834   0.00148   0.00000   0.00047   0.00016   1.84849
   A13        1.91256  -0.00313   0.00000  -0.02280  -0.02538   1.88718
   A14        2.05334  -0.00109   0.00000  -0.00539  -0.00677   2.04657
   A15        2.08310   0.00328   0.00000   0.01624   0.01506   2.09816
   A16        1.98090   0.00323   0.00000   0.07362   0.07662   2.05752
   A17        2.23315  -0.00193   0.00000  -0.02897  -0.03099   2.20215
   A18        2.14019  -0.00091   0.00000  -0.00916  -0.00941   2.13078
   A19        1.89558  -0.00577   0.00000  -0.05134  -0.05136   1.84422
   A20        1.88474   0.00493   0.00000   0.02182   0.02104   1.90578
   A21        1.95676  -0.00310   0.00000  -0.02254  -0.02243   1.93433
   A22        1.96707   0.00720   0.00000   0.03905   0.03900   2.00607
   A23        1.88311  -0.00181   0.00000  -0.00390  -0.00411   1.87900
   A24        1.94481  -0.00490   0.00000  -0.03752  -0.03733   1.90748
   A25        1.82705   0.00265   0.00000   0.01696   0.01692   1.84397
   A26        1.87658  -0.00019   0.00000   0.00886   0.00853   1.88511
   A27        1.94834  -0.00179   0.00000  -0.01084  -0.01003   1.93832
   A28        1.90764   0.00613   0.00000   0.04088   0.03969   1.94733
   A29        2.22909   0.00405   0.00000   0.03530   0.03616   2.26526
   A30        2.07295  -0.01076   0.00000  -0.08589  -0.08664   1.98631
   A31        2.09257  -0.00103   0.00000  -0.00365  -0.00448   2.08809
   A32        2.00155  -0.00488   0.00000   0.01902   0.02033   2.02188
   A33        1.89262   0.00529   0.00000   0.02253   0.02129   1.91390
   A34        1.92999   0.00741   0.00000   0.03153   0.03161   1.96160
   A35        1.89770  -0.00321   0.00000  -0.01758  -0.01784   1.87986
   A36        1.98101  -0.00348   0.00000  -0.02190  -0.02198   1.95903
   A37        1.89911  -0.00100   0.00000   0.00433   0.00447   1.90357
   A38        1.92315  -0.00207   0.00000  -0.00558  -0.00538   1.91777
   A39        1.82865   0.00199   0.00000   0.00826   0.00802   1.83667
   A40        1.94276   0.00872   0.00000   0.03633   0.03644   1.97920
   A41        1.93363  -0.00248   0.00000  -0.00854  -0.00841   1.92522
   A42        1.91797  -0.00236   0.00000  -0.00732  -0.00719   1.91077
   A43        1.91330  -0.00343   0.00000  -0.01739  -0.01742   1.89588
   A44        1.91387  -0.00338   0.00000  -0.01698  -0.01703   1.89684
   A45        1.83955   0.00248   0.00000   0.01199   0.01181   1.85136
   A46        1.91757   0.01341   0.00000   0.06261   0.06209   1.97966
   A47        1.94289  -0.00587   0.00000  -0.02077  -0.02260   1.92029
   A48        1.93111  -0.00123   0.00000  -0.01436  -0.01404   1.91707
   A49        1.89361   0.00112   0.00000   0.04196   0.04127   1.93488
   A50        1.88609  -0.00826   0.00000  -0.05302  -0.05233   1.83376
   A51        1.89117   0.00059   0.00000  -0.01749  -0.01768   1.87349
   A52        1.87897  -0.00207   0.00000  -0.01159  -0.01159   1.86738
    D1       -2.98492  -0.00100   0.00000  -0.03402  -0.03438  -3.01930
    D2        1.10491   0.00032   0.00000  -0.00287  -0.00293   1.10198
    D3       -0.89593  -0.00065   0.00000  -0.01239  -0.01193  -0.90786
    D4        1.21064  -0.00080   0.00000  -0.03133  -0.03168   1.17896
    D5       -0.98271   0.00052   0.00000  -0.00018  -0.00024  -0.98294
    D6       -2.98356  -0.00044   0.00000  -0.00969  -0.00923  -2.99279
    D7       -0.90173  -0.00102   0.00000  -0.03428  -0.03468  -0.93640
    D8       -3.09508   0.00030   0.00000  -0.00313  -0.00323  -3.09831
    D9        1.18726  -0.00067   0.00000  -0.01264  -0.01223   1.17503
   D10        2.55519   0.00019   0.00000  -0.01351  -0.01411   2.54108
   D11       -1.43095   0.00073   0.00000   0.06643   0.06680  -1.36414
   D12       -0.26539   0.00573   0.00000   0.09390   0.09388  -0.17151
   D13       -1.52937  -0.00090   0.00000  -0.03856  -0.03934  -1.56871
   D14        0.76768  -0.00035   0.00000   0.04138   0.04157   0.80926
   D15        1.93324   0.00465   0.00000   0.06885   0.06865   2.00189
   D16        0.47940  -0.00387   0.00000  -0.06645  -0.06661   0.41279
   D17        2.77645  -0.00332   0.00000   0.01349   0.01430   2.79075
   D18       -2.34118   0.00168   0.00000   0.04096   0.04138  -2.29980
   D19        3.11459   0.00112   0.00000   0.02461   0.02391   3.13850
   D20        0.89727   0.00068   0.00000   0.05454   0.05317   0.95043
   D21        0.77995   0.00268   0.00000  -0.01316  -0.01391   0.76604
   D22       -1.43738   0.00224   0.00000   0.01677   0.01535  -1.42203
   D23       -0.38325  -0.00385   0.00000  -0.08380  -0.08134  -0.46460
   D24       -2.60058  -0.00429   0.00000  -0.05387  -0.05208  -2.65266
   D25        0.12907   0.00091   0.00000  -0.00941  -0.01008   0.11899
   D26        2.39476  -0.00153   0.00000   0.02764   0.02742   2.42219
   D27        2.59374   0.00068   0.00000   0.01178   0.01234   2.60608
   D28       -0.05467   0.00343   0.00000   0.08301   0.08152   0.02685
   D29       -0.16130   0.00731   0.00000   0.13737   0.13757  -0.02373
   D30       -2.80971   0.01006   0.00000   0.20859   0.20675  -2.60296
   D31        1.14533   0.00232   0.00000   0.06546   0.06559   1.21092
   D32       -1.06587   0.00563   0.00000   0.10305   0.10347  -0.96240
   D33       -3.13506   0.00275   0.00000   0.07139   0.07149  -3.06357
   D34       -2.91581  -0.00190   0.00000   0.00385   0.00354  -2.91226
   D35        1.15618   0.00142   0.00000   0.04144   0.04142   1.19760
   D36       -0.91300  -0.00146   0.00000   0.00977   0.00944  -0.90356
   D37       -2.38074   0.00047   0.00000   0.01236   0.01207  -2.36866
   D38       -0.08149   0.00209   0.00000   0.06705   0.06701  -0.01448
   D39       -1.71864   0.00583   0.00000   0.06812   0.06817  -1.65047
   D40        2.48052   0.00460   0.00000   0.05480   0.05500   2.53552
   D41        0.45292   0.00628   0.00000   0.06896   0.06888   0.52180
   D42       -2.96764  -0.00301   0.00000   0.02818   0.02879  -2.93885
   D43        1.23152  -0.00424   0.00000   0.01487   0.01562   1.24714
   D44       -0.79608  -0.00256   0.00000   0.02902   0.02950  -0.76658
   D45        0.97020  -0.00039   0.00000  -0.02294  -0.02361   0.94660
   D46       -1.11382  -0.00162   0.00000  -0.03625  -0.03678  -1.15060
   D47       -3.14142   0.00006   0.00000  -0.02209  -0.02290   3.11887
   D48        3.04022   0.00020   0.00000   0.01281   0.01276   3.05298
   D49        0.90644   0.00027   0.00000   0.01578   0.01573   0.92216
   D50       -1.11929   0.00012   0.00000   0.01056   0.01054  -1.10876
   D51       -1.15979   0.00010   0.00000   0.01293   0.01300  -1.14679
   D52        2.98962   0.00017   0.00000   0.01590   0.01597   3.00558
   D53        0.96389   0.00002   0.00000   0.01068   0.01078   0.97466
   D54        0.83596   0.00081   0.00000   0.02220   0.02215   0.85811
   D55       -1.29782   0.00088   0.00000   0.02517   0.02512  -1.27270
   D56        2.95963   0.00073   0.00000   0.01995   0.01993   2.97956
   D57        3.11436   0.00309   0.00000   0.04121   0.04125  -3.12757
   D58        1.01635  -0.00341   0.00000  -0.03940  -0.03922   0.97714
   D59       -1.08765   0.00060   0.00000   0.00629   0.00606  -1.08158
   D60       -1.02334   0.00345   0.00000   0.04288   0.04283  -0.98051
   D61       -3.12135  -0.00304   0.00000  -0.03773  -0.03764   3.12420
   D62        1.05783   0.00097   0.00000   0.00796   0.00764   1.06548
   D63        0.98831   0.00259   0.00000   0.03794   0.03807   1.02638
   D64       -1.10970  -0.00390   0.00000  -0.04267  -0.04239  -1.15210
   D65        3.06948   0.00011   0.00000   0.00302   0.00289   3.07237
   D66       -1.05092  -0.00025   0.00000  -0.02137  -0.02296  -1.07388
   D67        1.07673   0.00154   0.00000   0.01844   0.01998   1.09670
   D68        3.12373  -0.00166   0.00000  -0.00852  -0.00847   3.11526
         Item               Value     Threshold  Converged?
 Maximum Force            0.015496     0.000450     NO 
 RMS     Force            0.004474     0.000300     NO 
 Maximum Displacement     0.364799     0.001800     NO 
 RMS     Displacement     0.125596     0.001200     NO 
 Predicted change in Energy=-1.122858D-02
 GradGradGradGradGradGradGradGradGradGradGradGradGradGradGradGradGradGrad

                          Input orientation:                          
 ---------------------------------------------------------------------
 Center     Atomic      Atomic             Coordinates (Angstroms)
 Number     Number       Type             X           Y           Z
 ---------------------------------------------------------------------
      1          6           0        0.815474   -0.164158    0.255256
      2          6           0        2.344141   -0.134406    0.127420
      3          6           0        2.955558   -0.644685   -1.183819
      4          7           0        4.136850    0.144941   -1.467753
      5          6           0        4.956090   -0.087505   -2.645540
      6          7           0        3.042939   -2.113178   -1.365957
      7          6           0        2.097104   -1.349604   -2.193733
      8          6           0        2.215780   -1.396173   -3.703615
      9          6           0        1.343696   -0.330439   -4.393903
     10          6           0        1.538812   -0.274704   -5.909599
     11          8           0        0.745042    0.724192   -6.547169
     12          1           0        0.502183    0.336413    1.176602
     13          1           0        0.415473   -1.183562    0.292328
     14          1           0        0.342793    0.353848   -0.583256
     15          1           0        2.792367   -0.698552    0.956936
     16          1           0        2.683273    0.900256    0.249964
     17          1           0        4.717158    0.076902   -0.639455
     18          1           0        4.423803    0.203013   -3.551470
     19          1           0        5.327419   -1.117294   -2.756537
     20          1           0        5.823427    0.580979   -2.584718
     21          1           0        2.567611   -2.604663   -0.610629
     22          1           0        1.048643   -1.421617   -1.906064
     23          1           0        1.892232   -2.394480   -4.034103
     24          1           0        3.247368   -1.304271   -4.038925
     25          1           0        1.554003    0.661797   -3.976974
     26          1           0        0.283158   -0.531134   -4.182375
     27          1           0        1.350360   -1.266027   -6.350785
     28          1           0        2.573829   -0.006100   -6.141124
     29          1           0       -0.175569    0.500321   -6.380682
 ---------------------------------------------------------------------
                    Distance matrix (angstroms):
                    1          2          3          4          5
     1  C    0.000000
     2  C    1.534292   0.000000
     3  C    2.623319   1.534132   0.000000
     4  N    3.754443   2.415867   1.448992   0.000000
     5  C    5.056204   3.809696   2.539529   1.453399   0.000000
     6  N    3.374702   2.575662   1.482324   2.511196   3.066077
     7  C    3.007559   2.631632   1.501260   2.630832   3.157661
     8  C    4.376229   4.035512   2.731552   3.326352   3.215809
     9  C    4.682024   4.634833   3.605758   4.073089   4.020594
    10  C    6.208129   6.092112   4.947428   5.162935   4.729367
    11  O    6.860547   6.916968   5.960346   6.135174   5.797800
    12  H    1.094349   2.171465   3.543048   4.498897   5.884366
    13  H    1.095701   2.201746   2.986876   4.325673   5.518116
    14  H    1.093096   2.179184   2.860818   3.901390   5.072506
    15  H    2.164727   1.098757   2.147642   2.897970   4.246518
    16  H    2.149809   1.095697   2.125256   2.373591   3.811209
    17  H    4.010207   2.502790   1.979964   1.013639   2.026943
    18  H    5.257949   4.239467   2.912062   2.104184   1.090155
    19  H    5.507905   4.264179   2.884879   2.161401   1.100305
    20  H    5.805194   4.469105   3.418983   2.069368   1.096743
    21  H    3.126628   2.587822   2.078597   3.279862   4.022658
    22  H    2.511349   2.733182   2.182106   3.490450   4.194618
    23  H    4.953014   4.757145   3.509496   4.251250   4.078905
    24  H    5.064974   4.420728   2.944798   3.082583   2.518287
    25  H    4.374860   4.254915   3.387176   3.637915   3.729392
    26  H    4.484484   4.793681   4.018202   4.762057   4.939125
    27  H    6.718630   6.650962   5.446123   5.796495   5.302739
    28  H    6.635546   6.274063   5.012822   4.930136   4.230945
    29  H    6.742357   7.007654   6.174332   6.546764   6.374225
                    6          7          8          9         10
     6  N    0.000000
     7  C    1.470668   0.000000
     8  C    2.581265   1.515254   0.000000
     9  C    3.903082   2.539108   1.540396   0.000000
    10  C    5.127091   3.908293   2.565608   1.529218   0.000000
    11  O    6.338451   5.008104   3.839899   2.471272   1.426310
    12  H    4.349775   4.092137   5.454794   5.673038   7.187649
    13  H    3.243096   3.005986   4.387922   4.852852   6.368030
    14  H    3.740271   2.927967   4.038229   3.998886   5.495040
    15  H    2.731261   3.291501   4.747616   5.555685   6.992879
    16  H    3.438218   3.372998   4.595967   4.987442   6.374208
    17  H    2.850836   3.363835   4.220890   5.063798   6.164408
    18  H    3.471022   3.109277   2.730551   3.237487   3.756615
    19  H    2.853830   3.287195   3.264510   4.378374   5.000530
    20  H    4.058938   4.214915   4.263353   4.916485   5.490442
    21  H    1.018830   2.074312   3.339280   4.580745   5.879304
    22  H    2.178805   1.089592   2.143373   2.732594   4.193324
    23  H    2.919291   2.126194   1.100238   2.165782   2.852339
    24  H    2.800157   2.174832   1.088601   2.167562   2.734701
    25  H    4.090822   2.742379   2.178971   1.096627   2.147627
    26  H    4.248702   2.813359   2.170837   1.099892   2.150749
    27  H    5.332073   4.224416   2.788082   2.169044   1.101308
    28  H    5.240426   4.196924   2.828773   2.161297   1.094081
    29  H    6.506662   5.110558   4.059795   2.635454   1.939507
                   11         12         13         14         15
    11  O    0.000000
    12  H    7.737311   0.000000
    13  H    7.108224   1.760620   0.000000
    14  H    5.988924   1.767147   1.770751   0.000000
    15  H    7.907423   2.522766   2.515266   3.078985   0.000000
    16  H    7.070272   2.435925   3.080098   2.543749   1.751542
    17  H    7.148271   4.596893   4.578371   4.383483   2.618132
    18  H    4.772748   6.144230   5.723992   5.048534   4.878538
    19  H    6.225604   6.392632   5.781624   5.633285   4.515718
    20  H    6.442944   6.520964   6.374713   5.839074   4.834029
    21  H    7.045959   4.013740   2.732499   3.701803   2.478111
    22  H    5.122160   3.590559   2.300108   2.323858   3.429310
    23  H    4.166252   6.044953   4.729180   4.675726   5.347606
    24  H    4.082595   6.117974   5.176287   4.809112   5.052974
    25  H    2.695221   5.269871   4.788375   3.616515   5.265697
    26  H    2.716878   5.433161   4.523951   3.706805   5.721598
    27  H    2.089485   7.742659   6.709080   6.074831   7.470221
    28  H    2.010637   7.613025   6.887251   5.999748   7.135104
    29  H    0.961956   7.589384   6.907522   5.822397   8.005410
                   16         17         18         19         20
    16  H    0.000000
    17  H    2.367629   0.000000
    18  H    4.238690   2.929470   0.000000
    19  H    4.483420   2.506104   1.786519   0.000000
    20  H    4.242396   2.293899   1.742531   1.777549   0.000000
    21  H    3.610879   3.436885   4.469568   3.799174   4.964442
    22  H    3.565328   4.160272   4.091270   4.373081   5.222023
    23  H    5.462074   5.060788   3.659065   3.881222   5.138907
    24  H    4.855173   3.952761   1.973199   2.450733   3.507843
    25  H    4.381679   4.635373   2.937225   4.346642   4.491424
    26  H    5.239757   5.708095   4.252288   5.274577   5.872298
    27  H    7.073847   6.764472   4.409115   5.362624   6.132130
    28  H    6.455963   5.905007   3.189426   4.502493   4.853099
    29  H    7.231762   7.555114   5.408055   6.784835   7.099563
                   21         22         23         24         25
    21  H    0.000000
    22  H    2.320563   0.000000
    23  H    3.495782   2.487299   0.000000
    24  H    3.729116   3.065495   1.739245   0.000000
    25  H    4.798900   2.980717   3.075466   2.595524   0.000000
    26  H    4.719705   2.561351   2.466407   3.066734   1.755084
    27  H    6.018558   4.457666   2.633258   2.990786   3.064792
    28  H    6.110561   4.718646   3.257065   2.560887   2.483883
    29  H    7.103484   5.021429   4.261702   4.522928   2.965688
                   26         27         28         29
    26  H    0.000000
    27  H    2.526062   0.000000
    28  H    3.059335   1.768686   0.000000
    29  H    2.471211   2.334382   2.805894   0.000000
 Stoichiometry    C8H18N2O
 Framework group  C1[X(C8H18N2O)]
 Deg. of freedom    81
 Full point group                 C1      NOp   1
[...]
 0,-0.00000586,0.00003382,-0.00002079,0.00000177,0.00002094,-0.00003265
 ,0.00002701,-0.00003230,-0.00003734,0.00001323,-0.00000870,-0.00012119
 ,0.00001220,-0.00014437,-0.00002544,-0.00000357,0.00001992,0.00006653,
 -0.00009971,-0.00004883,0.00029686,0.00025300,-0.00054589,0.08249189,-
 0.00001416,-0.00003327,-0.00001604,0.00012848,0.00007746,0.00009479,0.
 00113571,0.00077076,0.00180603,-0.00006383,0.00008444,-0.00028326,0.00
 012504,-0.00001309,0.00006212,-0.00086917,0.00139189,-0.00145083,0.000
 42347,0.00032732,0.00010163,-0.07677272,-0.23166190,-0.07732208,-0.008
 99893,-0.02445862,-0.00784705,-0.00077001,-0.00035558,-0.00201875,0.00
 021619,0.00093628,0.00052877,0.00000815,-0.00000098,-0.00001567,-0.000
 01100,0.00001376,-0.00000248,-0.00001355,-0.00001607,0.00002007,0.0000
 1483,0.00003473,0.00003525,0.00002086,0.00002973,0.00000931,0.00005043
 ,0.00005134,0.00009912,-0.00001351,0.00001596,-0.00002152,-0.00003409,
 0.00000293,-0.00004177,-0.00001595,-0.00000808,0.00000161,-0.00022685,
 0.00001793,-0.00013807,0.00022342,0.00009170,-0.00052344,0.08217514,0.
 25630347,-0.00020788,-0.00013076,0.00004964,-0.00197661,0.00087901,-0.
 00062947,0.00479649,-0.00137266,-0.00416632,0.00039075,0.00027586,0.00
 076626,0.00008077,-0.00016714,0.00006545,0.00024088,0.00229841,0.00337
 399,-0.01554507,-0.03036227,-0.01855499,-0.03092951,-0.07713796,-0.077
 79973,0.00539476,0.01177208,0.00454805,0.00060411,0.00121026,0.0010842
 9,-0.00002590,-0.00041576,-0.00022557,0.00007199,0.00002181,-0.0000401
 1,0.00001420,0.00004956,-0.00001833,0.00007047,0.00001272,0.00006016,0
 .00015183,-0.00037243,-0.00079393,0.00003024,-0.00002256,0.00006302,-0
 .00004993,0.00000388,-0.00009841,0.00001558,0.00002584,-0.00002735,0.0
 0000418,0.00002325,-0.00001249,-0.00010802,0.00000211,-0.00001066,0.00
 009933,-0.00008486,0.00010460,0.00047467,0.00051947,0.00103084,0.03591
 386,0.08424934,0.08916506,-0.00002320,0.00007557,0.00006394,0.00003724
 ,-0.00028073,0.00016617,-0.00104975,-0.00047025,-0.00001381,-0.0010134
 8,-0.00071355,-0.00299132,0.00009501,0.00001456,0.00001135,0.00084865,
 0.00025314,-0.00046930,-0.00386299,0.00041327,0.00321471,-0.29386930,-
 0.01867444,0.06406859,-0.01565875,0.00024442,0.00258070,-0.00032164,-0
 .00040270,0.00095419,0.00065641,-0.00003016,-0.00025934,-0.00001859,-0
 .00001935,0.00005594,0.00001881,-0.00001678,-0.00000720,0.00005620,0.0
 0000775,-0.00000448,0.00001536,0.00003691,0.00004258,-0.00002536,-0.00
 003581,-0.00002725,-0.00000461,-0.00004989,0.00006768,0.00000770,0.000
 02137,-0.00001086,-0.00002472,0.00001544,-0.00003035,-0.00001086,-0.00
 002533,0.00001732,0.00007099,-0.00010826,-0.00012345,0.00077056,-0.000
 31231,-0.00000489,-0.00946268,-0.00081186,0.00217103,0.32141801,0.0000
 2915,0.00005660,0.00010451,-0.00012364,-0.00030598,0.00010547,0.000791
 31,0.00105952,-0.00040246,0.00002432,-0.00082760,-0.00000046,-0.000557
 15,0.00037173,0.00015532,-0.00055066,-0.00015417,-0.00026696,-0.000024
 10,-0.00038812,0.00092740,-0.02070294,-0.04933262,0.00500215,0.0267660
 3,0.00099029,-0.00606542,0.00030806,0.00055379,-0.00113111,-0.00037833
 ,-0.00001205,0.00010896,-0.00005600,-0.00000725,0.00004016,-0.00002177
 ,-0.00001402,0.00000057,-0.00002175,-0.00000854,0.00001324,0.00000151,
 0.00002087,0.00001623,0.00002145,-0.00003974,-0.00004596,-0.00002780,-
 0.00021297,-0.00033606,0.00010175,-0.00005829,0.00007849,0.00026920,-0
 .00006423,0.00019855,0.00004706,0.00000340,-0.00001652,-0.00001026,-0.
 00006756,-0.00016814,0.00033521,0.00048540,0.00000435,-0.02702551,-0.0
 0229400,0.00726602,0.01840937,0.05265836,0.00021065,-0.00012326,0.0000
 8013,-0.00011990,-0.00017779,0.00011125,0.00268040,-0.00002172,0.00034
 633,-0.00074916,0.00036410,0.00028063,-0.00094889,0.00010940,-0.000063
 88,-0.00024081,-0.00034411,0.00189093,0.03443846,0.00251363,-0.0121782
 9,0.05922494,0.00515132,-0.06137823,-0.01376122,-0.00099904,0.00254216
 ,-0.00130343,-0.00030390,0.00094046,0.00033021,-0.00005760,-0.00001412
 ,-0.00017514,-0.00001639,-0.00004534,0.00001471,-0.00001654,0.00004666
 ,-0.00025002,0.00010578,-0.00003590,-0.00004476,0.00000192,-0.00006971
 ,-0.00000352,-0.00004983,-0.00002492,0.00003943,-0.00003736,0.00020601
 ,0.00005883,-0.00006641,-0.00004204,0.00031055,-0.00003186,0.00028688,
 0.00000575,0.00001895,-0.00002714,-0.00029679,0.00019246,0.00055237,-0
 .00000571,0.00006485,-0.00626559,-0.01155549,-0.00059939,0.00266552,-0
 .06763882,-0.00765950,0.07088535,0.00000877,0.00002385,0.00004847,-0.0
 0008000,-0.00008529,-0.00000677,0.00049600,0.00007866,-0.00035826,0.00
 011107,-0.00025514,0.00034253,-0.00022560,0.00008752,0.00009129,-0.000
 15029,-0.00018056,0.00022076,0.00029928,-0.00041489,0.00050397,0.00624
 080,0.01594450,0.00592760,-0.08449576,-0.08301349,-0.03095870,0.000720
 83,0.00222757,0.00094341,-0.00024766,0.00038658,0.00017814,-0.00001138
 ,-0.00000165,0.00001069,-0.00000735,0.00001463,-0.00001562,-0.00002487
 ,-0.00002921,0.00000473,-0.00000533,0.00001820,-0.00002896,0.00003020,
 0.00003608,0.00002447,-0.00004073,-0.00002431,-0.00034873,0.00001359,-
 0.00001281,0.00001396,0.00009433,-0.00002346,0.00007781,-0.00001214,0.
 00000636,-0.00001049,0.00001700,-0.00002240,0.00005627,-0.00002190,-0.
 00008673,-0.00009654,-0.00087390,0.00345333,-0.00151187,0.00086900,-0.
 00042120,0.00067171,0.08778333,-0.00001520,0.00000116,0.00000412,0.000
 17331,-0.00005641,0.00009849,-0.00013383,-0.00016227,0.00117884,-0.000
 15538,0.00025056,-0.00032463,0.00029520,0.00000298,-0.00007432,0.00028
 628,0.00061046,-0.00007628,-0.00066838,0.00044266,-0.00159243,-0.00888
 145,-0.02324350,-0.00779154,-0.08210501,-0.23659642,-0.07554427,0.0000
 0020,-0.00245406,0.00031687,-0.00039304,0.00219450,-0.00000897,0.00001
 498,0.00000958,-0.00000967,0.00000173,0.00003319,-0.00003111,-0.000002
 88,-0.00002864,0.00001030,-0.00001581,0.00005392,0.00003608,0.00000892
 ,0.00012127,0.00007767,0.00026427,0.00027907,0.00048508,-0.00006948,0.
 00004157,-0.00004386,-0.00009760,0.00002200,-0.00008017,0.00000532,-0.
 00001461,0.00000835,-0.00007434,0.00009970,-0.00000243,0.00000578,-0.0
 0010505,0.00014941,0.00310753,-0.00288072,0.00235610,-0.00008213,0.001
 01343,-0.00044126,0.08822383,0.26081254,0.00001508,-0.00000579,-0.0000
 1113,0.00001735,0.00001761,-0.00006926,-0.00035541,-0.00004066,-0.0001
 5436,0.00001344,-0.00003239,-0.00014433,-0.00006692,0.00003125,0.00004
 293,-0.00000580,-0.00050331,0.00003980,0.00087289,0.00045962,0.0011882
 1,0.00545576,0.01276519,0.00416219,-0.03087467,-0.07366213,-0.07558774
 ,-0.01319127,-0.03243806,-0.01536886,0.00119797,0.00135549,0.00406575,
 -0.00000378,-0.00000130,0.00000503,-0.00000017,-0.00000805,0.00000678,
 0.00000379,0.00000856,-0.00000630,0.00000373,0.00000338,0.00002259,-0.
 00001240,-0.00001993,-0.00002681,-0.00012164,0.00000608,-0.00003040,-0
 .00000072,-0.00000560,0.00000997,0.00002026,-0.00000873,0.00000868,0.0
 0001953,0.00000138,-0.00000067,0.00005864,-0.00000383,0.00006268,0.000
 02659,0.00005808,0.00001205,-0.00168828,0.00239636,-0.00087833,0.00011
 569,-0.00076164,0.00036161,0.03480176,0.08203666,0.08497835,-0.0000995
 7,-0.00001635,-0.00009796,-0.00003876,0.00006093,-0.00001754,-0.000227
 49,-0.00013250,0.00020417,0.00005713,-0.00010260,-0.00045578,0.0002030
 5,0.00000796,0.00007045,0.00051268,0.00021052,-0.00029823,0.00001609,-
 0.00055637,0.00173788,-0.01798358,-0.00057743,0.00383471,-0.27019298,-
 0.01562053,0.06273335,-0.00458179,0.00102788,-0.00031597,0.00295649,-0
 .00138848,-0.00006616,0.00003915,-0.00000313,-0.00000477,0.00001741,-0
 .00001056,0.00002368,0.00005898,0.00000967,-0.00001588,0.00002873,-0.0
 0001804,-0.00002135,-0.00001867,-0.00002231,-0.00000966,0.00003456,0.0
 0007638,0.00016064,-0.00001356,0.00001492,0.00001157,-0.00005867,-0.00
 000311,-0.00008352,0.00001069,0.00000221,0.00000922,-0.00004930,-0.000
 00295,-0.00017768,0.00042654,0.00020771,-0.00115035,0.00093730,0.00029
 242,0.00009361,-0.00005939,0.00349289,-0.00137598,-0.01228801,-0.00078
 906,0.00338774,0.29822897,-0.00001203,-0.00000050,-0.00000558,0.000022
 45,-0.00000551,0.00003042,-0.00006417,-0.00005755,0.00011846,-0.000056
 64,0.00023133,0.00007405,-0.00001673,0.00001988,-0.00002946,-0.0001862
 0,-0.00005887,-0.00010855,0.00007601,0.00068669,-0.00122747,0.02666276
 ,0.00046422,-0.00637003,-0.01629961,-0.04942196,0.00223031,0.00126583,
 -0.00073094,0.00014061,-0.00060610,0.00008525,-0.00028716,0.00000087,0
 .00000092,-0.00000260,0.00001158,-0.00000548,0.00000579,0.00000823,0.0
 0001994,-0.00000539,0.00000229,0.00000219,0.00000741,-0.00001284,-0.00
 000464,0.00000280,0.00008659,0.00006002,0.00022004,-0.00001773,0.00000
 902,-0.00002945,-0.00000281,0.00000501,0.00000668,0.00000526,-0.000009
 29,-0.00000288,-0.00006018,0.00005676,0.00007793,-0.00036188,0.0000764
 8,0.00042063,-0.00049582,0.00109382,-0.00067490,0.00240754,-0.00366567
 ,0.00227292,-0.02680675,-0.00151286,0.00777807,0.01330973,0.05136952,-
 0.00002936,0.00000147,-0.00002914,0.00000489,0.00001434,-0.00001327,-0
 .00026505,-0.00003072,0.00000621,0.00003442,-0.00003189,-0.00014891,0.
 00010053,0.00001750,0.00000066,0.00026662,-0.00010627,-0.00005953,-0.0
 0128025,-0.00040853,0.00120881,-0.01394317,-0.00100412,0.00313104,0.06
 281343,0.00311690,-0.06512185,0.03603643,0.00255482,-0.01281767,-0.000
 55191,-0.00166780,0.00343539,0.00001541,0.00000103,0.00000600,0.000009
 04,-0.00000190,0.00000273,0.00002089,0.00000017,-0.00001258,0.00000883
 ,-0.00000207,0.00000356,-0.00000976,0.00000001,0.00000242,0.00004507,0
 .00004268,0.00007928,-0.00001694,0.00000468,0.00000233,-0.00002950,-0.
 00000047,-0.00002903,0.00000290,-0.00000285,0.00000261,0.00006673,0.00
 000112,-0.00003548,0.00038303,0.00014049,-0.00007170,0.00068584,-0.000
 27120,0.00035188,-0.00124696,0.00256858,-0.00089896,-0.01076940,-0.000
 49907,0.00267075,-0.07038288,-0.00546008,0.07379986,0.00000488,-0.0000
 0426,-0.00000318,0.00002966,0.00000118,0.00000638,-0.00010176,-0.00001
 726,0.00007131,0.00000736,0.00003647,-0.00009494,0.00003100,-0.0000098
 3,0.00001779,-0.00001831,0.00001250,-0.00005633,0.00003262,0.00019445,
 0.00003929,-0.00001402,-0.00043023,0.00008646,0.00194320,0.00106587,0.
 00285717,-0.09144179,-0.07944977,-0.03278373,0.00730948,0.02358486,0.0
 0308657,0.00000110,-0.00000032,-0.00000369,-0.00000015,0.00000349,-0.0
 0000148,-0.00000211,-0.00000074,0.00000145,-0.00000287,0.00000478,0.00
 000830,-0.00000038,0.00000778,0.00000461,0.00000125,0.00001493,0.00006
 694,-0.00000550,0.00000565,-0.00000525,-0.00000894,0.00000237,-0.00001
 522,0.00001015,-0.00000176,0.00000346,0.00000577,-0.00000849,-0.000007
 54,-0.00001304,-0.00000370,0.00001903,0.00010888,0.00033791,-0.0002830
 5,0.00001494,-0.00011774,0.00000448,0.00133422,0.00070728,0.00023411,0
 .00083378,0.00066664,-0.00068823,0.08869327,0.00000606,0.00000106,0.00
 000464,0.00003718,-0.00002960,0.00000898,-0.00005663,-0.00004122,0.000
 18081,-0.00002923,0.00000395,-0.00003111,0.00002628,-0.00000233,0.0000
 0552,0.00000861,0.00008630,-0.00016900,0.00004546,0.00051309,0.0000609
 4,0.00000189,0.00034035,-0.00034244,-0.00226437,-0.00065259,-0.0010870
 6,-0.07613136,-0.21024918,-0.07639737,0.00320672,-0.03672369,0.0007249
 4,-0.00000044,-0.00000161,-0.00000096,-0.00000490,0.00000838,-0.000004
 14,-0.00000580,-0.00000955,0.00000211,-0.00000540,0.00001344,0.0000110
 8,0.00000207,0.00002121,0.00000519,0.00000953,0.00001196,0.00004475,-0
 .00000440,0.00000734,-0.00000766,-0.00000716,0.00000217,-0.00000568,0.
 00000530,-0.00000521,-0.00000011,-0.00002963,-0.00001026,-0.00005151,-
 0.00000587,-0.00003094,-0.00000299,-0.00020781,0.00061480,-0.00022793,
 0.00002319,0.00002225,0.00000736,0.00053845,0.00083561,0.00037129,0.00
 034407,0.00025001,0.00003633,0.07870248,0.24605620,0.00000056,-0.00000
 335,0.00000347,0.00003208,-0.00003531,0.00004921,0.00006897,0.00000768
 ,0.00036100,-0.00008227,0.00002928,-0.00010201,0.00010366,-0.00000816,
 0.00000659,-0.00001638,0.00026565,-0.00015381,0.00013123,0.00027430,0.
 00005797,0.00037305,-0.00198705,0.00125045,-0.01452723,-0.02874129,-0.
 01489932,-0.03399264,-0.07633070,-0.08505538,0.00303626,0.01919685,0.0
 0680811,0.00000274,-0.00000119,-0.00001206,-0.00000321,0.00001264,-0.0
 0000512,-0.00001172,-0.00000944,0.00000955,-0.00000915,0.00001845,-0.0
 0000632,0.00001092,0.00003178,0.00002230,0.00008832,0.00005208,0.00011
 513,-0.00000973,0.00001549,-0.00001360,-0.00002978,0.00000429,-0.00002
 841,-0.00001177,-0.00000980,0.00000159,-0.00003557,0.00001406,-0.00003
 075,-0.00001559,-0.00006035,0.00001433,-0.00004887,0.00128305,-0.00005
 618,-0.00005200,0.00012617,-0.00004640,0.00060248,0.00016055,-0.006861
 93,0.00061769,0.00028348,0.00176510,0.03849296,0.07877436,0.09225689,-
 0.00000650,-0.00000331,-0.00001388,0.00002059,0.00001217,-0.00000841,-
 0.00011753,-0.00004118,0.00000456,0.00005336,0.00001848,-0.00008078,-0
 .00000976,0.00000762,0.00001240,0.00001276,-0.00006544,0.00011693,0.00
 053458,-0.00009473,-0.00002869,0.00028396,-0.00002123,-0.00000756,-0.0
 0168090,-0.00099821,0.00107275,-0.27716727,-0.02654385,0.07159082,-0.0
 2162685,0.00718930,0.00066231,0.00000230,0.00000161,-0.00000026,0.0000
 0300,-0.00000134,0.00000115,0.00000617,0.00000244,-0.00000094,0.000003
 83,-0.00000127,0.00001071,-0.00000595,-0.00000257,-0.00000200,-0.00001
 485,0.00000497,0.00003127,-0.00000494,-0.00000353,0.00000608,0.0000022
 2,-0.00000335,-0.00000964,0.00001640,0.00000705,0.00000281,0.00002464,
 0.00000207,0.00002796,-0.00006218,0.00005666,-0.00018525,-0.00001864,0
 .00003666,0.00002290,0.00041688,-0.00037084,0.00031934,0.00064800,0.00
 035112,0.00018063,0.00140754,0.00035570,-0.00010332,-0.01080593,-0.003
 17169,0.00433437,0.30764188,-0.00000009,-0.00000088,-0.00000214,-0.000
 00340,0.00000101,-0.00000504,0.00001648,0.00003145,-0.00002943,0.00001
 519,-0.00003940,0.00002792,-0.00001815,0.00000803,0.00000305,-0.000011
 19,-0.00004827,0.00002208,0.00006508,-0.00004749,0.00000490,-0.0005707
 1,0.00026164,-0.00007543,0.00066927,0.00092148,-0.00134442,-0.03672067
 ,-0.05371416,0.00795202,0.03530475,-0.00272902,-0.00483683,-0.00000041
 ,0.00000059,0.00000133,-0.00000121,-0.00000158,0.00000051,-0.00000009,
 -0.00000034,-0.00000063,0.00000125,-0.00000142,0.00000211,0.00000097,-
 0.00000495,-0.00000372,-0.00000601,-0.00000752,-0.00005205,0.00000267,
 -0.00000731,0.00001064,0.00000782,-0.00000431,0.00000269,-0.00000022,0
 .00000737,0.00000076,0.00000692,-0.00000245,0.00000146,0.00005179,-0.0
 0002177,-0.00003190,-0.00010501,0.00003130,0.00000758,0.00025088,0.000
 14689,0.00021445,0.00077377,0.00036683,0.00031748,0.00081438,0.0008680
 3,0.00019615,-0.02570066,-0.00181113,0.00766650,0.02043718,0.06009823,
 0.00002400,0.00000268,0.00002907,-0.00002582,-0.00002289,0.00001792,0.
 00019695,0.00010705,-0.00003465,-0.00007206,-0.00004350,0.00019077,-0.
 00003692,-0.00000584,-0.00002366,-0.00017739,0.00003341,-0.00003244,-0
 .00015739,-0.00017399,-0.00007468,0.00123496,-0.00095151,0.00146173,0.
 03243818,0.00462084,-0.01220042,0.07635343,0.00578727,-0.07225771,-0.0
 1776335,0.00224036,0.00452809,-0.00001112,-0.00000187,-0.00000311,-0.0
 0000672,0.00000141,-0.00000216,-0.00002044,-0.00000178,0.00000967,-0.0
 0000847,0.00000288,-0.00001359,0.00001062,0.00000154,0.00000095,0.0000
 1343,-0.00002451,-0.00009633,0.00001163,-0.00000230,-0.00000338,0.0000
 0959,0.00000148,0.00002453,-0.00002523,-0.00000650,-0.00000704,-0.0000
 0073,-0.00000983,0.00000674,-0.00019411,-0.00003214,0.00025517,-0.0001
 2458,0.00009221,-0.00007777,-0.00093432,0.00045283,-0.00013833,-0.0003
 6952,-0.00032207,0.00173134,0.00031598,0.00001533,-0.00670168,-0.01188
 744,-0.00247493,0.00447786,-0.07641131,-0.01192010,0.07948576,0.000002
 47,0.00000984,0.00000944,0.00004449,-0.00000826,-0.00002374,-0.0001385
 1,-0.00004682,-0.00008729,0.00009555,0.00002354,0.00008052,-0.00008005
 ,0.00002629,-0.00002494,0.00004752,-0.00016146,0.00022069,0.00031540,-
 0.00013152,-0.00026566,0.00012019,0.00033795,0.00069726,0.00223184,-0.
 00199825,-0.00022408,-0.02422898,-0.00347783,0.00772226,-0.47367965,-0
 .01555142,0.11117673,-0.00000293,0.00000774,0.00001834,0.00000281,-0.0
 0000092,-0.00000948,0.00001137,-0.00000206,-0.00001114,0.00000189,0.00
 000317,0.00003500,-0.00001013,0.00000575,0.00000221,-0.00001528,-0.000
 00807,-0.00002856,-0.00000857,-0.00000814,0.00000357,0.00002514,-0.000
 00203,0.00003037,0.00001918,0.00000897,-0.00000222,0.00003583,0.000019
 89,0.00006275,-0.00001795,0.00001176,0.00001436,-0.00002242,-0.0000264
 2,-0.00000381,0.00010957,-0.00018762,0.00016019,-0.00018149,0.00003785
 ,-0.00010391,-0.00015730,0.00011805,-0.00117734,0.00205323,-0.00103260
 ,0.00095061,0.00044316,0.00471942,-0.00238182,0.49298362,-0.00000219,-
 0.00001054,-0.00001184,-0.00003280,0.00003179,0.00000687,0.00007047,0.
 00003980,0.00002961,-0.00004977,-0.00001484,-0.00004799,0.00002642,-0.
 00001454,0.00001467,-0.00001498,0.00002052,-0.00009908,-0.00016044,0.0
 0000458,0.00012299,-0.00012373,-0.00013236,-0.00015485,0.00010698,0.00
 098982,-0.00025896,0.04095676,-0.00427636,-0.00662491,-0.06016929,-0.0
 3500381,0.03335874,0.00000055,-0.00000236,-0.00001455,0.00000334,-0.00
 001095,0.00001205,-0.00000243,0.00001591,0.00000666,0.00000160,-0.0000
 1001,-0.00002038,-0.00000065,-0.00002306,-0.00000621,-0.00000503,0.000
 00473,0.00000738,0.00000788,-0.00000077,0.00000092,-0.00001142,0.00000
 100,-0.00001754,-0.00001056,-0.00000177,0.00000194,-0.00001107,0.00000
 012,-0.00001520,0.00000413,0.00001065,0.00002624,0.00007095,-0.0001673
 2,-0.00000405,-0.00013984,0.00007030,-0.00007117,-0.00043546,-0.000136
 49,-0.00011508,-0.00062829,0.00017418,0.00079073,0.00039611,0.00077917
 ,-0.00103004,0.00283952,-0.00430084,0.00263447,0.01731322,0.04196345,-
 0.00002215,0.00001556,-0.00001068,0.00003464,0.00000624,-0.00002953,-0
 .00016867,-0.00004085,-0.00011401,0.00014066,0.00001418,0.00009187,-0.
 00011315,0.00003838,-0.00003413,0.00011084,-0.00018853,0.00016222,0.00
 009926,0.00001617,-0.00022473,0.00031592,0.00072483,-0.00055689,-0.003
 39223,-0.00052083,0.00201478,-0.02029744,0.00172108,0.00191555,0.13923
 599,0.02436387,-0.04870007,0.00000173,0.00000850,0.00002205,0.00000899
 ,-0.00001138,-0.00000501,0.00002702,0.00000266,-0.00001264,0.00001427,
 -0.00000280,0.00003797,-0.00001791,-0.00000918,-0.00000548,-0.00002962
 ,-0.00001434,-0.00003989,-0.00000933,-0.00001313,0.00000662,0.00003200
 ,-0.00000370,0.00003857,0.00002478,0.00001361,-0.00000408,0.00001085,0
 .00003219,0.00004760,0.00003686,0.00003493,-0.00004151,-0.00000010,-0.
 00022812,0.00006087,0.00028447,-0.00031477,0.00003258,-0.00004518,-0.0
 0007645,-0.00022860,0.00127301,0.00051862,-0.00052882,0.00082975,0.000
 56459,0.00007171,-0.00154495,0.00187009,-0.00055267,-0.11684030,-0.028
 52142,0.04658635\\0.00000112,0.00000176,-0.00000189,0.00001050,-0.0000
 0091,-0.00000559,-0.00003718,0.00001535,0.00001378,-0.00000166,0.00000
 023,-0.00001657,0.00001875,-0.00001036,-0.00000997,0.00001148,-0.00001
 995,-0.00000585,0.00002089,0.00000598,0.00001481,0.00000224,-0.0000163
 5,-0.00000670,-0.00000999,0.00000768,0.00000058,-0.00000105,0.00002547
 ,-0.00001210,0.00000373,-0.00002128,0.00000657,0.00000103,0.00000049,0
 .00000101,-0.00000013,-0.00000182,-0.00000136,-0.00000037,0.00000022,0
 .00000104,-0.00000196,-0.00000182,-0.00000040,0.00000145,-0.00000235,-
 0.00000046,-0.00000394,0.00000280,0.00000367,-0.00000097,-0.00000259,0
 .00000339,0.00000139,0.00000170,0.00000474,-0.00000500,0.00000316,0.00
 000763,-0.00000513,0.00000269,0.00000387,-0.00000318,0.00000159,-0.000
 00595,-0.00000117,0.00000679,0.00000471,-0.00000355,0.00000392,-0.0000
 0159,0.00000150,-0.00000114,-0.00000185,0.00000065,-0.00000195,0.00000
 030,-0.00000143,-0.00000068,-0.00000148,0.00000337,-0.00000543,0.00000
 235,-0.00000139,0.00000680,0.00000331\\\@


 WHEN IT COMES TO CASH FLOW, IT SEEMS LIKE THE TIDE IS ALWAYS GOING OUT.
 Job cpu time:       0 days  6 hours  7 minutes 56.4 seconds.
 Elapsed time:       0 days  1 hours 33 minutes 41.9 seconds.
 File lengths (MBytes):  RWF=    334 Int=      0 D2E=      0 Chk=     14 Scr=      1
 Normal termination of Gaussian 16 at Wed Jun  2 05:16:55 2021.
### All Done ###
