### Starting Gaussian ###
 Entering Gaussian System, Link 0=g16
 Initial command:
 /cluster/software/gaussian/gaussian-16-A.03/avx2/g16/l1.exe "/local/scratch/linjian/Gau-20712.inp" -scrdir="/local/scratch/linjian/"
 Entering Link 1 = /cluster/software/gaussian/gaussian-16-A.03/avx2/g16/l1.exe PID=     20714.
  
 Copyright (c) 1988,1990,1992,1993,1995,1998,2003,2009,2016,
            Gaussian, Inc.  All Rights Reserved.
  
 This is part of the Gaussian(R) 16 program.  It is based on
 the Gaussian(R) 09 system (copyright 2009, Gaussian, Inc.),
 the Gaussian(R) 03 system (copyright 2003, Gaussian, Inc.),
 the Gaussian(R) 98 system (copyright 1998, Gaussian, Inc.),
 the Gaussian(R) 94 system (copyright 1995, Gaussian, Inc.),
 the Gaussian 92(TM) system (copyright 1992, Gaussian, Inc.),
 the Gaussian 90(TM) system (copyright 1990, Gaussian, Inc.),
 the Gaussian 88(TM) system (copyright 1988, Gaussian, Inc.),
 the Gaussian 86(TM) system (copyright 1986, Carnegie Mellon
 University), and the Gaussian 82(TM) system (copyright 1983,
 Carnegie Mellon University). Gaussian is a federally registered
 trademark of Gaussian, Inc.
  
 This software contains proprietary and confidential information,
 including trade secrets, belonging to Gaussian, Inc.
  
 This software is provided under written license and may be
 used, copied, transmitted, or stored only in accord with that
 written license.
  
 The following legend is applicable only to US Government
 contracts under FAR:
  
                    RESTRICTED RIGHTS LEGEND
  
 Use, reproduction and disclosure by the US Government is
 subject to restrictions as set forth in subparagraphs (a)
 and (c) of the Commercial Computer Software - Restricted
 Rights clause in FAR 52.227-19.
  
 Gaussian, Inc.
 340 Quinnipiac St., Bldg. 40, Wallingford CT 06492
  
  
 ---------------------------------------------------------------
 Warning -- This program may not be used in any manner that
 competes with the business of Gaussian, Inc. or will provide
 assistance to any competitor of Gaussian, Inc.  The licensee
 of this program is prohibited from giving any competitor of
 Gaussian, Inc. access to this program.  By using this program,
 the user acknowledges that Gaussian, Inc. is engaged in the
 business of creating and licensing software in the field of
 computational chemistry and represents and warrants to the
 licensee that it is not a competitor of Gaussian, Inc. and that
 it will not use this program in any manner prohibited above.
 ---------------------------------------------------------------
  

 Cite this work as:
 Gaussian 16, Revision A.03,
 M. J. Frisch, G. W. Trucks, H. B. Schlegel, G. E. Scuseria, 
 M. A. Robb, J. R. Cheeseman, G. Scalmani, V. Barone, 
 G. A. Petersson, H. Nakatsuji, X. Li, M. Caricato, A. V. Marenich, 
 J. Bloino, B. G. Janesko, R. Gomperts, B. Mennucci, H. P. Hratchian, 
 J. V. Ortiz, A. F. Izmaylov, J. L. Sonnenberg, D. Williams-Young, 
 F. Ding, F. Lipparini, F. Egidi, J. Goings, B. Peng, A. Petrone, 
 T. Henderson, D. Ranasinghe, V. G. Zakrzewski, J. Gao, N. Rega, 
 G. Zheng, W. Liang, M. Hada, M. Ehara, K. Toyota, R. Fukuda, 
 J. Hasegawa, M. Ishida, T. Nakajima, Y. Honda, O. Kitao, H. Nakai, 
 T. Vreven, K. Throssell, J. A. Montgomery, Jr., J. E. Peralta, 
 F. Ogliaro, M. J. Bearpark, J. J. Heyd, E. N. Brothers, K. N. Kudin, 
 V. N. Staroverov, T. A. Keith, R. Kobayashi, J. Normand, 
 K. Raghavachari, A. P. Rendell, J. C. Burant, S. S. Iyengar, 
 J. Tomasi, M. Cossi, J. M. Millam, M. Klene, C. Adamo, R. Cammi, 
 J. W. Ochterski, R. L. Martin, K. Morokuma, O. Farkas, 
 J. B. Foresman, and D. J. Fox, Gaussian, Inc., Wallingford CT, 2016.
 
 ******************************************
 Gaussian 16:  ES64L-G16RevA.03 25-Dec-2016
                31-May-2021 
 ******************************************
 %chk=CCC1CtCCdN1.chk
 %NProcShared=20
 Will use up to   20 processors via shared memory.
 -----------------------------
 # opt freq b3lyp/6-31g(2df,p)
 -----------------------------
 1/18=20,19=15,26=3,38=1/1,3;
 2/9=110,12=2,17=6,18=5,40=1/2;
 3/5=1,6=6,7=104,11=2,25=1,30=1,71=1,74=-5/1,2,3;
 4//1;
 5/5=2,38=5/2;
 6/7=2,8=2,9=2,10=2,28=1/1;
 7//1,2,3,16;
 1/18=20,19=15,26=3/3(2);
 2/9=110/2;
 99//99;
 2/9=110/2;
 3/5=1,6=6,7=104,11=2,25=1,30=1,71=1,74=-5/1,2,3;
 4/5=5,16=3,69=1/1;
 5/5=2,38=5/2;
 7//1,2,3,16;
 1/18=20,19=15,26=3/3(-5);
 2/9=110/2;
 6/7=2,8=2,9=2,10=2,19=2,28=1/1;
 99/9=1/99;
 -------------------
 Title Card Required
 -------------------
 Symbolic Z-matrix:
 Charge =  0 Multiplicity = 1
 C                     1.02692  -0.11189   0.04431 
 C                     2.54858  -0.13867   0.07411 
 C                     3.02178   0.50362   1.33971 
 C                     4.54178   0.50362   1.33971 
 C                     5.84564   0.50362   1.33971 
 C                     5.42872  -0.33563   2.4627 
 N                     4.10074  -0.39352   2.48646 
 H                     0.64843  -0.52805  -0.89418 
 H                     0.64579   0.9131    0.13021 
 H                     0.61666  -0.696     0.87288 
 H                     2.91213   0.44026  -0.78826 
 H                     2.90727  -1.16531  -0.04658 
 H                     2.7757    1.51814   1.66423 
 H                     6.64551  -0.24262   2.37431 
 

 GradGradGradGradGradGradGradGradGradGradGradGradGradGradGradGradGradGrad
 Berny optimization.
 Initialization pass.
                           ----------------------------
                           !    Initial Parameters    !
                           ! (Angstroms and Degrees)  !
 --------------------------                            --------------------------
 ! Name  Definition              Value          Derivative Info.                !
 --------------------------------------------------------------------------------
 ! R1    R(1,2)                  1.5222         estimate D2E/DX2                !
 ! R2    R(1,8)                  1.0942         estimate D2E/DX2                !
 ! R3    R(1,9)                  1.0969         estimate D2E/DX2                !
 ! R4    R(1,10)                 1.0936         estimate D2E/DX2                !
 ! R5    R(2,3)                  1.4961         estimate D2E/DX2                !
 ! R6    R(2,11)                 1.1005         estimate D2E/DX2                !
 ! R7    R(2,12)                 1.0942         estimate D2E/DX2                !
 ! R8    R(3,4)                  1.52           estimate D2E/DX2                !
 ! R9    R(3,13)                 1.0932         estimate D2E/DX2                !
 ! R10   R(4,5)                  1.3039         estimate D2E/DX2                !
 ! R11   R(4,6)                  1.6589         estimate D2E/DX2                !
 ! R12   R(4,7)                  1.5213         estimate D2E/DX2                !
 ! R13   R(5,6)                  1.4626         estimate D2E/DX2                !
 ! R14   R(6,7)                  1.3295         estimate D2E/DX2                !
 ! R15   R(6,14)                 1.2235         estimate D2E/DX2                !
 ! A1    A(2,1,8)              110.8483         estimate D2E/DX2                !
 ! A2    A(2,1,9)              111.2378         estimate D2E/DX2                !
 ! A3    A(2,1,10)             110.5349         estimate D2E/DX2                !
 ! A4    A(8,1,9)              107.6006         estimate D2E/DX2                !
 ! A5    A(8,1,10)             108.4773         estimate D2E/DX2                !
 ! A6    A(9,1,10)             108.0233         estimate D2E/DX2                !
 ! A7    A(1,2,3)              108.9774         estimate D2E/DX2                !
 ! A8    A(1,2,11)             107.7973         estimate D2E/DX2                !
 ! A9    A(1,2,12)             110.002          estimate D2E/DX2                !
 ! A10   A(3,2,11)             109.4254         estimate D2E/DX2                !
 ! A11   A(3,2,12)             113.1068         estimate D2E/DX2                !
 ! A12   A(11,2,12)            107.39           estimate D2E/DX2                !
 ! A13   A(2,3,4)              108.4391         estimate D2E/DX2                !
 ! A14   A(2,3,13)             125.3338         estimate D2E/DX2                !
 ! A15   A(4,3,13)             103.0086         estimate D2E/DX2                !
 ! A16   A(3,4,6)              122.3195         estimate D2E/DX2                !
 ! A17   A(3,4,7)               73.1477         estimate D2E/DX2                !
 ! A18   A(5,4,7)              106.8523         estimate D2E/DX2                !
 ! A19   A(4,6,14)             116.3807         estimate D2E/DX2                !
 ! A20   A(5,6,7)              108.8711         estimate D2E/DX2                !
 ! A21   A(5,6,14)              67.5075         estimate D2E/DX2                !
 ! A22   L(3,4,5,7,-1)         180.0            estimate D2E/DX2                !
 ! A23   L(7,6,14,5,-1)        176.3786         estimate D2E/DX2                !
 ! A24   L(3,4,5,7,-2)         180.0            estimate D2E/DX2                !
 ! A25   L(7,6,14,5,-2)        180.37           estimate D2E/DX2                !
 ! D1    D(8,1,2,3)            177.0462         estimate D2E/DX2                !
 ! D2    D(8,1,2,11)            58.3762         estimate D2E/DX2                !
 ! D3    D(8,1,2,12)           -58.425          estimate D2E/DX2                !
 ! D4    D(9,1,2,3)             57.3669         estimate D2E/DX2                !
 ! D5    D(9,1,2,11)           -61.303          estimate D2E/DX2                !
 ! D6    D(9,1,2,12)          -178.1043         estimate D2E/DX2                !
 ! D7    D(10,1,2,3)           -62.6361         estimate D2E/DX2                !
 ! D8    D(10,1,2,11)          178.6939         estimate D2E/DX2                !
 ! D9    D(10,1,2,12)           61.8927         estimate D2E/DX2                !
 ! D10   D(1,2,3,4)           -178.5125         estimate D2E/DX2                !
 ! D11   D(1,2,3,13)           -56.6945         estimate D2E/DX2                !
 ! D12   D(11,2,3,4)           -60.8669         estimate D2E/DX2                !
 ! D13   D(11,2,3,13)           60.9511         estimate D2E/DX2                !
 ! D14   D(12,2,3,4)            58.8045         estimate D2E/DX2                !
 ! D15   D(12,2,3,13)         -179.3775         estimate D2E/DX2                !
 ! D16   D(2,3,4,6)           -116.3202         estimate D2E/DX2                !
 ! D17   D(2,3,4,7)           -115.055          estimate D2E/DX2                !
 ! D18   D(13,3,4,6)           109.0339         estimate D2E/DX2                !
 ! D19   D(13,3,4,7)           110.299          estimate D2E/DX2                !
 ! D20   D(3,4,6,14)          -178.8714         estimate D2E/DX2                !
 --------------------------------------------------------------------------------
 Trust Radius=3.00D-01 FncErr=1.00D-07 GrdErr=1.00D-06 EigMax=2.50D+02 EigMin=1.00D-04
 Number of steps in this run=     70 maximum allowed number of steps=    100.
 GradGradGradGradGradGradGradGradGradGradGradGradGradGradGradGradGradGrad

                          Input orientation:                          
 ---------------------------------------------------------------------
 Center     Atomic      Atomic             Coordinates (Angstroms)
 Number     Number       Type             X           Y           Z
 ---------------------------------------------------------------------
      1          6           0        1.026920   -0.111890    0.044310
      2          6           0        2.548580   -0.138670    0.074110
      3          6           0        3.021780    0.503620    1.339710
      4          6           0        4.541780    0.503620    1.339710
      5          6           0        5.845640    0.503620    1.339710
      6          6           0        5.428720   -0.335630    2.462700
      7          7           0        4.100740   -0.393520    2.486460
      8          1           0        0.648430   -0.528050   -0.894180
      9          1           0        0.645790    0.913100    0.130210
     10          1           0        0.616660   -0.696000    0.872880
     11          1           0        2.912130    0.440260   -0.788260
     12          1           0        2.907270   -1.165310   -0.046580
     13          1           0        2.775700    1.518140    1.664230
     14          1           0        6.645510   -0.242620    2.374310
 ---------------------------------------------------------------------
                    Distance matrix (angstroms):
                    1          2          3          4          5
     1  C    0.000000
     2  C    1.522187   0.000000
     3  C    2.456905   1.496061   0.000000
     4  C    3.796203   2.446860   1.520000   0.000000
     5  C    5.027621   3.589552   2.823860   1.303860   0.000000
     6  C    5.027376   3.746914   2.785464   1.658948   1.462624
     7  N    3.935960   2.879858   1.812195   1.521319   2.272569
     8  H    1.094170   2.167896   3.418684   4.605734   5.750269
     9  H    1.096925   2.174851   2.697386   4.099915   5.354344
    10  H    1.093630   2.163554   2.727933   4.130809   5.385095
    11  H    2.133556   1.100459   2.131735   2.681050   3.624604
    12  H    2.157237   1.094173   2.172611   2.716386   3.652553
    13  H    2.887797   2.307614   1.093215   2.062426   3.249476
    14  H    6.083958   4.699634   3.841704   2.460275   1.505677
                    6          7          8          9         10
     6  C    0.000000
     7  N    1.329454   0.000000
     8  H    5.844385   4.833763   0.000000
     9  H    5.465918   4.381307   1.768133   0.000000
    10  H    5.080681   3.851486   1.775308   1.772459   0.000000
    11  H    4.183775   3.582147   2.464382   2.490675   3.052811
    12  H    3.652748   2.904535   2.495373   3.076578   2.512479
    13  H    3.333547   2.467030   3.906102   2.693661   3.192194
    14  H    1.223536   2.551706   6.835895   6.509095   6.229517
                   11         12         13         14
    11  H    0.000000
    12  H    1.768606   0.000000
    13  H    2.682377   3.185135   0.000000
    14  H    4.940273   4.548242   4.310443   0.000000
 Stoichiometry    C6H7N
 Framework group  C1[X(C6H7N)]
 Deg. of freedom    36
 Full point group                 C1      NOp   1
 Largest Abelian subgroup         C1      NOp   1
 Largest concise Abelian subgroup C1      NOp   1
                         Standard orientation:                         
 ---------------------------------------------------------------------
 Center     Atomic      Atomic             Coordinates (Angstroms)
 Number     Number       Type             X           Y           Z
 ---------------------------------------------------------------------
      1          6           0        2.830703    0.137092   -0.063330
      2          6           0        1.454747   -0.442556   -0.359652
      3          6           0        0.455184    0.181297    0.562238
      4          6           0       -0.906656   -0.432591    0.281289
      5          6           0       -2.074846   -0.959185    0.040289
      6          6           0       -2.180971    0.461026   -0.292889
      7          7           0       -1.000434    1.038905   -0.093302
      8          1           0        3.595314   -0.336931   -0.686131
      9          1           0        3.111465   -0.021868    0.985073
     10          1           0        2.843593    1.213242   -0.257649
     11          1           0        1.498815   -1.526099   -0.172560
     12          1           0        1.209560   -0.302941   -1.416820
     13          1           0        0.509325    0.170813    1.654062
     14          1           0       -3.233992   -0.139047   -0.460528
 ---------------------------------------------------------------------
 Rotational constants (GHZ):           9.7087255           1.6034251           1.4899063
 Standard basis: 6-31G(2df,p) (6D, 7F)
 There are   252 symmetry adapted cartesian basis functions of A   symmetry.
 There are   231 symmetry adapted basis functions of A   symmetry.
   231 basis functions,   357 primitive gaussians,   252 cartesian basis functions
    25 alpha electrons       25 beta electrons
       nuclear repulsion energy       263.7959278689 Hartrees.
 NAtoms=   14 NActive=   14 NUniq=   14 SFac= 1.00D+00 NAtFMM=   60 NAOKFM=F Big=F
 Integral buffers will be    131072 words long.
 Raffenetti 2 integral format.
 Two-electron integral symmetry is turned on.
 One-electron integrals computed using PRISM.
 PrsmSu:  requested number of processors reduced to:  13 ShMem   1 Linda.
 NBasis=   231 RedAO= T EigKep=  3.42D-04  NBF=   231
 NBsUse=   231 1.00D-06 EigRej= -1.00D+00 NBFU=   231
 ExpMin= 1.61D-01 ExpMax= 4.17D+03 ExpMxC= 6.27D+02 IAcc=3 IRadAn=         5 AccDes= 0.00D+00
 Harris functional with IExCor=  402 and IRadAn=       5 diagonalized for initial guess.
 HarFok:  IExCor=  402 AccDes= 0.00D+00 IRadAn=         5 IDoV= 1 UseB2=F ITyADJ=14
 ICtDFT=  3500011 ScaDFX=  1.000000  1.000000  1.000000  1.000000
 FoFCou: FMM=F IPFlag=           0 FMFlag=      100000 FMFlg1=           0
         NFxFlg=           0 DoJE=T BraDBF=F KetDBF=T FulRan=T
         wScrn=  0.000000 ICntrl=       500 IOpCl=  0 I1Cent=   200000004 NGrid=           0
         NMat0=    1 NMatS0=      1 NMatT0=    0 NMatD0=    1 NMtDS0=    0 NMtDT0=    0
 Petite list used in FoFCou.
 Requested convergence on RMS density matrix=1.00D-08 within 128 cycles.
 Requested convergence on MAX density matrix=1.00D-06.
 Requested convergence on             energy=1.00D-06.
 No special actions if energy rises.
 Integral accuracy reduced to 1.0D-05 until final iterations.
 Initial convergence to 1.0D-05 achieved.  Increase integral accuracy.
 SCF Done:  E(RB3LYP) =  -287.142817834     A.U. after   17 cycles
            NFock= 17  Conv=0.29D-08     -V/T= 2.0070

 **********************************************************************

            Population analysis using the SCF density.

 **********************************************************************

 Orbital symmetries:
       Occupied  (A) (A) (A) (A) (A) (A) (A) (A) (A) (A) (A) (A)
                 (A) (A) (A) (A) (A) (A) (A) (A) (A) (A) (A) (A)
                 (A)
       Virtual   (A) (A) (A) (A) (A) (A) (A) (A) (A) (A) (A) (A)
                 (A) (A) (A) (A) (A) (A) (A) (A) (A) (A) (A) (A)
                 (A) (A) (A) (A) (A) (A) (A) (A) (A) (A) (A) (A)
                 (A) (A) (A) (A) (A) (A) (A) (A) (A) (A) (A) (A)
                 (A) (A) (A) (A) (A) (A) (A) (A) (A) (A) (A) (A)
                 (A) (A) (A) (A) (A) (A) (A) (A) (A) (A) (A) (A)
                 (A) (A) (A) (A) (A) (A) (A) (A) (A) (A) (A) (A)
                 (A) (A) (A) (A) (A) (A) (A) (A) (A) (A) (A) (A)
                 (A) (A) (A) (A) (A) (A) (A) (A) (A) (A) (A) (A)
                 (A) (A) (A) (A) (A) (A) (A) (A) (A) (A) (A) (A)
                 (A) (A) (A) (A) (A) (A) (A) (A) (A) (A) (A) (A)
                 (A) (A) (A) (A) (A) (A) (A) (A) (A) (A) (A) (A)
                 (A) (A) (A) (A) (A) (A) (A) (A) (A) (A) (A) (A)
                 (A) (A) (A) (A) (A) (A) (A) (A) (A) (A) (A) (A)
                 (A) (A) (A) (A) (A) (A) (A) (A) (A) (A) (A) (A)
                 (A) (A) (A) (A) (A) (A) (A) (A) (A) (A) (A) (A)
                 (A) (A) (A) (A) (A) (A) (A) (A) (A) (A) (A) (A)
                 (A) (A)
 The electronic state is 1-A.
 Alpha  occ. eigenvalues --  -14.34984 -10.29299 -10.28045 -10.27809 -10.22452
 Alpha  occ. eigenvalues --  -10.19272 -10.15309  -1.04246  -0.83624  -0.78179
 Alpha  occ. eigenvalues --   -0.72683  -0.63702  -0.60063  -0.52762  -0.48756
 Alpha  occ. eigenvalues --   -0.46612  -0.43782  -0.41239  -0.40876  -0.38000
 Alpha  occ. eigenvalues --   -0.37501  -0.36352  -0.23880  -0.22021  -0.19865
 Alpha virt. eigenvalues --   -0.08680  -0.06981   0.03251   0.07741   0.08679
 Alpha virt. eigenvalues --    0.10137   0.11375   0.13890   0.14985   0.15359
 Alpha virt. eigenvalues --    0.18000   0.20106   0.21991   0.22926   0.28261
 Alpha virt. eigenvalues --    0.29990   0.38650   0.40135   0.43841   0.44168
 Alpha virt. eigenvalues --    0.46278   0.46967   0.47677   0.50161   0.52752
 Alpha virt. eigenvalues --    0.53657   0.54941   0.55662   0.57317   0.59814
 Alpha virt. eigenvalues --    0.62350   0.64270   0.65228   0.68266   0.68573
 Alpha virt. eigenvalues --    0.70867   0.71796   0.72558   0.72824   0.73020
 Alpha virt. eigenvalues --    0.76038   0.77541   0.78282   0.80399   0.82943
 Alpha virt. eigenvalues --    0.86403   0.86777   0.87711   0.90615   0.91069
 Alpha virt. eigenvalues --    0.99540   1.02336   1.04878   1.07071   1.14542
 Alpha virt. eigenvalues --    1.15584   1.18014   1.19424   1.21018   1.24059
 Alpha virt. eigenvalues --    1.28613   1.32725   1.35580   1.39045   1.42854
 Alpha virt. eigenvalues --    1.46816   1.49414   1.51220   1.51508   1.53104
 Alpha virt. eigenvalues --    1.55343   1.56530   1.58662   1.60796   1.61809
 Alpha virt. eigenvalues --    1.66309   1.67986   1.72271   1.75412   1.78621
 Alpha virt. eigenvalues --    1.81547   1.85191   1.86510   1.88749   1.93904
 Alpha virt. eigenvalues --    1.96918   2.01252   2.10675   2.14857   2.20895
 Alpha virt. eigenvalues --    2.25656   2.28993   2.30987   2.33934   2.40087
 Alpha virt. eigenvalues --    2.43576   2.47020   2.50622   2.53718   2.57626
 Alpha virt. eigenvalues --    2.64693   2.66763   2.67474   2.71276   2.74334
 Alpha virt. eigenvalues --    2.76476   2.76800   2.78823   2.80638   2.83621
 Alpha virt. eigenvalues --    2.84608   2.88543   2.90304   2.91472   2.97215
 Alpha virt. eigenvalues --    3.00286   3.02365   3.04284   3.06125   3.10914
 Alpha virt. eigenvalues --    3.16477   3.18050   3.20841   3.24751   3.27871
 Alpha virt. eigenvalues --    3.28308   3.31051   3.32744   3.33961   3.36387
 Alpha virt. eigenvalues --    3.42414   3.47471   3.50436   3.55212   3.56976
 Alpha virt. eigenvalues --    3.60447   3.61535   3.62396   3.65866   3.69587
 Alpha virt. eigenvalues --    3.72640   3.73743   3.78183   3.83909   3.89356
 Alpha virt. eigenvalues --    3.91772   3.93322   3.93807   4.01110   4.04976
 Alpha virt. eigenvalues --    4.11101   4.14482   4.22118   4.24519   4.26644
 Alpha virt. eigenvalues --    4.28957   4.36809   4.39172   4.39509   4.41355
 Alpha virt. eigenvalues --    4.43854   4.45685   4.47891   4.48809   4.51456
 Alpha virt. eigenvalues --    4.53096   4.54319   4.56093   4.57579   4.59275
 Alpha virt. eigenvalues --    4.61990   4.63330   4.67593   4.68151   4.70292
 Alpha virt. eigenvalues --    4.77782   4.79605   4.82009   4.85118   4.87062
 Alpha virt. eigenvalues --    4.88442   4.89757   4.98397   4.98946   5.00683
 Alpha virt. eigenvalues --    5.03404   5.10119   5.11005   5.14214   5.23350
 Alpha virt. eigenvalues --    5.27839   5.37656   5.42251   5.48086   5.55261
 Alpha virt. eigenvalues --    5.65801   5.82524   6.12587   9.84611  10.51263
 Alpha virt. eigenvalues --   10.91305  11.29244  11.51126  11.71109  12.20467
 Alpha virt. eigenvalues --   13.54355
          Condensed to atoms (all electrons):
               1          2          3          4          5          6
     1  C    4.979996   0.395564  -0.043368   0.001282  -0.000106   0.000005
     2  C    0.395564   4.770469   0.400377  -0.018638   0.000133   0.001328
     3  C   -0.043368   0.400377   5.117457   0.368363  -0.065345  -0.015313
     4  C    0.001282  -0.018638   0.368363   4.576918   0.677502  -0.096336
     5  C   -0.000106   0.000133  -0.065345   0.677502   5.883065   0.219412
     6  C    0.000005   0.001328  -0.015313  -0.096336   0.219412   5.110157
     7  N   -0.000729  -0.008657   0.073347   0.137841  -0.202705   0.558331
     8  H    0.371018  -0.021776   0.003818  -0.000197  -0.000001  -0.000003
     9  H    0.381951  -0.028904  -0.004517   0.000482   0.000005   0.000004
    10  H    0.377746  -0.025780  -0.000561   0.000373   0.000010  -0.000003
    11  H   -0.046986   0.377729  -0.044835  -0.002588   0.002427  -0.000902
    12  H   -0.027967   0.368679  -0.022540  -0.002322   0.000230   0.001788
    13  H   -0.001980  -0.037639   0.368413  -0.018903   0.000511   0.001572
    14  H    0.000001  -0.000013   0.000113   0.024092   0.011161   0.251078
               7          8          9         10         11         12
     1  C   -0.000729   0.371018   0.381951   0.377746  -0.046986  -0.027967
     2  C   -0.008657  -0.021776  -0.028904  -0.025780   0.377729   0.368679
     3  C    0.073347   0.003818  -0.004517  -0.000561  -0.044835  -0.022540
     4  C    0.137841  -0.000197   0.000482   0.000373  -0.002588  -0.002322
     5  C   -0.202705  -0.000001   0.000005   0.000010   0.002427   0.000230
     6  C    0.558331  -0.000003   0.000004  -0.000003  -0.000902   0.001788
     7  N    6.747983  -0.000010  -0.000010   0.000380   0.002739  -0.001120
     8  H   -0.000010   0.590699  -0.031681  -0.028095  -0.000276  -0.003193
     9  H   -0.000010  -0.031681   0.589588  -0.031574  -0.004343   0.004807
    10  H    0.000380  -0.028095  -0.031574   0.568978   0.005475  -0.003901
    11  H    0.002739  -0.000276  -0.004343   0.005475   0.608644  -0.035576
    12  H   -0.001120  -0.003193   0.004807  -0.003901  -0.035576   0.568667
    13  H   -0.012036  -0.000086   0.002904   0.000039   0.000501   0.003499
    14  H    0.004019   0.000000  -0.000000   0.000000   0.000035  -0.000048
              13         14
     1  C   -0.001980   0.000001
     2  C   -0.037639  -0.000013
     3  C    0.368413   0.000113
     4  C   -0.018903   0.024092
     5  C    0.000511   0.011161
     6  C    0.001572   0.251078
     7  N   -0.012036   0.004019
     8  H   -0.000086   0.000000
     9  H    0.002904  -0.000000
    10  H    0.000039   0.000000
    11  H    0.000501   0.000035
    12  H    0.003499  -0.000048
    13  H    0.507229  -0.000097
    14  H   -0.000097   0.361302
 Mulliken charges:
               1
     1  C   -0.386427
     2  C   -0.172872
     3  C   -0.135408
     4  C    0.352133
     5  C   -0.526299
     6  C   -0.031117
     7  N   -0.299372
     8  H    0.119782
     9  H    0.121287
    10  H    0.136912
    11  H    0.137956
    12  H    0.148997
    13  H    0.186073
    14  H    0.348357
 Sum of Mulliken charges =  -0.00000
 Mulliken charges with hydrogens summed into heavy atoms:
               1
     1  C   -0.008447
     2  C    0.114081
     3  C    0.050664
     4  C    0.352133
     5  C   -0.526299
     6  C    0.317240
     7  N   -0.299372
 Electronic spatial extent (au):  <R**2>=            827.0998
 Charge=             -0.0000 electrons
 Dipole moment (field-independent basis, Debye):
    X=              2.4836    Y=             -0.0115    Z=              0.2789  Tot=              2.4992
 Quadrupole moment (field-independent basis, Debye-Ang):
   XX=            -39.4841   YY=            -50.0884   ZZ=            -39.6374
   XY=             -4.1976   XZ=              1.4187   YZ=              0.8520
 Traceless Quadrupole moment (field-independent basis, Debye-Ang):
   XX=              3.5859   YY=             -7.0184   ZZ=              3.4326
   XY=             -4.1976   XZ=              1.4187   YZ=              0.8520
 Octapole moment (field-independent basis, Debye-Ang**2):
  XXX=              0.4935  YYY=              3.8214  ZZZ=              2.4701  XYY=             18.8705
  XXY=              9.7718  XXZ=             -6.5633  XZZ=              5.0448  YZZ=              0.9167
  YYZ=              0.0145  XYZ=             -1.8247
 Hexadecapole moment (field-independent basis, Debye-Ang**3):
 XXXX=           -858.9581 YYYY=           -169.8069 ZZZZ=            -78.6214 XXXY=            -34.2294
 XXXZ=             14.0043 YYYX=            -19.1043 YYYZ=             -0.3004 ZZZX=              2.2687
 ZZZY=              1.9162 XXYY=           -211.9577 XXZZ=           -164.4899 YYZZ=            -43.0272
 XXYZ=              6.0823 YYXZ=             -1.5723 ZZXY=             -3.6528
 N-N= 2.637959278689D+02 E-N=-1.192805586221D+03  KE= 2.851474973364D+02
 PrsmSu:  requested number of processors reduced to:  13 ShMem   1 Linda.
 Calling FoFJK, ICntrl=      2127 FMM=F ISym2X=0 I1Cent= 0 IOpClX= 0 NMat=1 NMatS=1 NMatT=0.
 ***** Axes restored to original set *****
 -------------------------------------------------------------------
 Center     Atomic                   Forces (Hartrees/Bohr)
 Number     Number              X              Y              Z
 -------------------------------------------------------------------
      1        6          -0.009728423   -0.004481839   -0.002040851
      2        6          -0.020452438   -0.004398756   -0.001813950
      3        6           0.112047070    0.012670183   -0.010774370
      4        6           0.013613424    0.059206443   -0.066032455
      5        6           0.037923220    0.058258677   -0.081276750
      6        6          -0.029203286   -0.012559889    0.014652821
      7        7          -0.068600586   -0.086187061    0.114997429
      8        1          -0.000677954    0.000005117   -0.000104620
      9        1           0.000675142   -0.001190484    0.000038125
     10        1          -0.001391589    0.000065097   -0.000332184
     11        1           0.005160370   -0.000940688    0.002610197
     12        1           0.002919841    0.002043086    0.003818437
     13        1          -0.010126513   -0.013698493    0.013693680
     14        1          -0.032158278   -0.008791392    0.012564489
 -------------------------------------------------------------------
 Cartesian Forces:  Max     0.114997429 RMS     0.038196591

 GradGradGradGradGradGradGradGradGradGradGradGradGradGradGradGradGradGrad
 Berny optimization.
 FormGI is forming the generalized inverse of G from B-inverse, IUseBI=4.
 Internal  Forces:  Max     0.119562862 RMS     0.026184614
 Search for a local minimum.
 Step number   1 out of a maximum of   70
 All quantities printed in internal units (Hartrees-Bohrs-Radians)
 Mixed Optimization -- RFO/linear search
 Second derivative matrix not updated -- first step.
 ITU=  0
     Eigenvalues ---    0.00231   0.00404   0.00472   0.00501   0.00818
     Eigenvalues ---    0.02597   0.03371   0.04538   0.05602   0.05633
     Eigenvalues ---    0.05723   0.08789   0.10139   0.11565   0.12482
     Eigenvalues ---    0.15981   0.16000   0.16000   0.16000   0.21570
     Eigenvalues ---    0.21892   0.22654   0.23024   0.27705   0.30157
     Eigenvalues ---    0.30367   0.32794   0.33473   0.33631   0.34025
     Eigenvalues ---    0.34335   0.34335   0.34397   0.34444   0.53695
     Eigenvalues ---    0.60289
 RFO step:  Lambda=-1.10033844D-01 EMin= 2.30817716D-03
 Linear search not attempted -- first point.
 Maximum step size (   0.300) exceeded in Quadratic search.
    -- Step size scaled by   0.561
 Iteration  1 RMS(Cart)=  0.06278365 RMS(Int)=  0.00183198
 Iteration  2 RMS(Cart)=  0.00287615 RMS(Int)=  0.00049745
 Iteration  3 RMS(Cart)=  0.00000302 RMS(Int)=  0.00049744
 Iteration  4 RMS(Cart)=  0.00000001 RMS(Int)=  0.00049744
 Variable       Old X    -DE/DX   Delta X   Delta X   Delta X     New X
                                 (Linear)    (Quad)   (Total)
    R1        2.87652   0.01107   0.00000   0.01510   0.01510   2.89162
    R2        2.06768   0.00032   0.00000   0.00040   0.00040   2.06808
    R3        2.07289  -0.00134   0.00000  -0.00168  -0.00168   2.07121
    R4        2.06666   0.00024   0.00000   0.00029   0.00029   2.06695
    R5        2.82715   0.00941   0.00000   0.01207   0.01207   2.83921
    R6        2.07957  -0.00084   0.00000  -0.00105  -0.00105   2.07852
    R7        2.06769  -0.00138   0.00000  -0.00171  -0.00171   2.06598
    R8        2.87238  -0.07843   0.00000  -0.10644  -0.10644   2.76594
    R9        2.06588  -0.00637   0.00000  -0.00787  -0.00787   2.05801
   R10        2.46394  -0.00608   0.00000  -0.00441  -0.00416   2.45978
   R11        3.13496  -0.02324   0.00000  -0.05720  -0.05825   3.07671
   R12        2.87488   0.11956   0.00000   0.17226   0.17196   3.04684
   R13        2.76396   0.09114   0.00000   0.11090   0.11134   2.87529
   R14        2.51230   0.01072   0.00000   0.00798   0.00887   2.52118
   R15        2.31215  -0.03356   0.00000  -0.05537  -0.05537   2.25678
    A1        1.93467   0.00060   0.00000   0.00125   0.00125   1.93592
    A2        1.94147  -0.00085   0.00000  -0.00191  -0.00191   1.93956
    A3        1.92920   0.00200   0.00000   0.00429   0.00429   1.93349
    A4        1.87798  -0.00013   0.00000  -0.00053  -0.00053   1.87746
    A5        1.89329  -0.00111   0.00000  -0.00205  -0.00205   1.89123
    A6        1.88536  -0.00061   0.00000  -0.00127  -0.00127   1.88410
    A7        1.90202   0.01349   0.00000   0.02398   0.02399   1.92600
    A8        1.88142   0.00154   0.00000   0.00930   0.00933   1.89075
    A9        1.91990  -0.00232   0.00000  -0.00192  -0.00179   1.91811
   A10        1.90983  -0.00600   0.00000  -0.01165  -0.01191   1.89793
   A11        1.97409  -0.00776   0.00000  -0.01805  -0.01812   1.95596
   A12        1.87431   0.00113   0.00000  -0.00103  -0.00119   1.87312
   A13        1.89262   0.02005   0.00000   0.04071   0.03969   1.93231
   A14        2.18749   0.00114   0.00000   0.01526   0.01402   2.20151
   A15        1.79784  -0.00219   0.00000   0.01247   0.01120   1.80904
   A16        2.13488  -0.04091   0.00000  -0.05953  -0.06074   2.07414
   A17        1.27667  -0.03469   0.00000  -0.05231  -0.05105   1.22562
   A18        1.86493   0.03943   0.00000   0.05566   0.05434   1.91927
   A19        2.03123  -0.01175   0.00000   0.00767   0.00661   2.03784
   A20        1.90016   0.04778   0.00000   0.08481   0.08434   1.98450
   A21        1.17823  -0.00423   0.00000   0.01016   0.01091   1.18914
   A22        3.14159   0.00474   0.00000   0.00335   0.00330   3.14489
   A23        3.07839   0.04355   0.00000   0.09497   0.09525   3.17364
   A24        3.14159  -0.00688   0.00000  -0.02563  -0.02552   3.11607
   A25        3.14805  -0.00151   0.00000  -0.00952  -0.00902   3.13903
    D1        3.09004   0.00083   0.00000   0.00307   0.00311   3.09315
    D2        1.01886  -0.00035   0.00000  -0.00159  -0.00166   1.01719
    D3       -1.01971  -0.00132   0.00000  -0.00462  -0.00460  -1.02431
    D4        1.00124   0.00115   0.00000   0.00416   0.00421   1.00545
    D5       -1.06994  -0.00003   0.00000  -0.00050  -0.00057  -1.07051
    D6       -3.10851  -0.00100   0.00000  -0.00353  -0.00351  -3.11201
    D7       -1.09321   0.00115   0.00000   0.00415   0.00420  -1.08900
    D8        3.11880  -0.00003   0.00000  -0.00051  -0.00058   3.11822
    D9        1.08023  -0.00100   0.00000  -0.00354  -0.00351   1.07672
   D10       -3.11563  -0.01115   0.00000  -0.04347  -0.04365   3.12391
   D11       -0.98951   0.00742   0.00000   0.03009   0.03026  -0.95925
   D12       -1.06233  -0.00494   0.00000  -0.02507  -0.02537  -1.08769
   D13        1.06380   0.01364   0.00000   0.04850   0.04854   1.11233
   D14        1.02633  -0.01269   0.00000  -0.04614  -0.04618   0.98015
   D15       -3.13073   0.00589   0.00000   0.02742   0.02773  -3.10300
   D16       -2.03017   0.00589   0.00000   0.02441   0.02503  -2.00514
   D17       -2.00809   0.00445   0.00000   0.01689   0.01682  -1.99127
   D18        1.90300  -0.00711   0.00000  -0.02983  -0.02976   1.87324
   D19        1.92508  -0.00855   0.00000  -0.03735  -0.03797   1.88711
   D20       -3.12189   0.00040   0.00000   0.00122   0.00167  -3.12023
         Item               Value     Threshold  Converged?
 Maximum Force            0.119563     0.000450     NO 
 RMS     Force            0.026185     0.000300     NO 
 Maximum Displacement     0.205251     0.001800     NO 
 RMS     Displacement     0.063907     0.001200     NO 
 Predicted change in Energy=-5.004637D-02
 GradGradGradGradGradGradGradGradGradGradGradGradGradGradGradGradGradGrad

                          Input orientation:                          
 ---------------------------------------------------------------------
 Center     Atomic      Atomic             Coordinates (Angstroms)
 Number     Number       Type             X           Y           Z
 ---------------------------------------------------------------------
      1          6           0        1.040176   -0.132423    0.071940
      2          6           0        2.570165   -0.114373    0.056202
      3          6           0        3.097924    0.535330    1.303880
      4          6           0        4.561591    0.535309    1.308159
      5          6           0        5.862930    0.513562    1.289115
      6          6           0        5.343606   -0.334444    2.440755
      7          7           0        4.012552   -0.406515    2.496056
      8          1           0        0.644870   -0.559461   -0.854905
      9          1           0        0.634090    0.880984    0.168893
     10          1           0        0.667706   -0.726575    0.911352
     11          1           0        2.900284    0.471555   -0.814141
     12          1           0        2.953007   -1.130453   -0.071263
     13          1           0        2.839854    1.528221    1.669393
     14          1           0        6.536896   -0.290047    2.423882
 ---------------------------------------------------------------------
                    Distance matrix (angstroms):
                    1          2          3          4          5
     1  C    0.000000
     2  C    1.530177   0.000000
     3  C    2.489557   1.502446   0.000000
     4  C    3.791368   2.440340   1.463674   0.000000
     5  C    5.015752   3.571649   2.765131   1.301660   0.000000
     6  C    4.916463   3.664218   2.663096   1.628124   1.521540
     7  N    3.845320   2.849336   1.773386   1.612319   2.393145
     8  H    1.094381   2.176002   3.446214   4.606308   5.742504
     9  H    1.096038   2.179867   2.734620   4.103984   5.360099
    10  H    1.093784   2.173805   2.766305   4.112439   5.354531
    11  H    2.147075   1.099903   2.128178   2.695954   3.633555
    12  H    2.162289   1.093268   2.164914   2.695388   3.608472
    13  H    2.923771   2.318024   1.089052   2.020086   3.211407
    14  H    5.980837   4.622956   3.709742   2.414100   1.545223
                    6          7          8          9         10
     6  C    0.000000
     7  N    1.334150   0.000000
     8  H    5.743703   4.753274   0.000000
     9  H    5.368255   4.299692   1.767246   0.000000
    10  H    4.935269   3.715067   1.774292   1.771051   0.000000
    11  H    4.148952   3.600771   2.480232   2.503921   3.065493
    12  H    3.557925   2.870166   2.503522   3.079111   2.520169
    13  H    3.214544   2.408692   3.943153   2.745143   3.221329
    14  H    1.194235   2.528059   6.748259   6.426462   6.076652
                   11         12         13         14
    11  H    0.000000
    12  H    1.766657   0.000000
    13  H    2.699655   3.179818   0.000000
    14  H    4.928466   4.447055   4.188493   0.000000
 Stoichiometry    C6H7N
 Framework group  C1[X(C6H7N)]
 Deg. of freedom    36
 Full point group                 C1      NOp   1
 Largest Abelian subgroup         C1      NOp   1
 Largest concise Abelian subgroup C1      NOp   1
                         Standard orientation:                         
 ---------------------------------------------------------------------
 Center     Atomic      Atomic             Coordinates (Angstroms)
 Number     Number       Type             X           Y           Z
 ---------------------------------------------------------------------
      1          6           0        2.799424    0.157126   -0.061246
      2          6           0        1.432524   -0.464552   -0.355428
      3          6           0        0.391294    0.101807    0.567838
      4          6           0       -0.924362   -0.470002    0.277279
      5          6           0       -2.083429   -0.988639   -0.008898
      6          6           0       -2.099510    0.508025   -0.282433
      7          7           0       -0.927023    1.105845   -0.063704
      8          1           0        3.574234   -0.284524   -0.695506
      9          1           0        3.092144   -0.007740    0.982034
     10          1           0        2.781578    1.236075   -0.239888
     11          1           0        1.502227   -1.549185   -0.186612
     12          1           0        1.174167   -0.314751   -1.407116
     13          1           0        0.433609    0.109375    1.656041
     14          1           0       -3.164450    0.007240   -0.485692
 ---------------------------------------------------------------------
 Rotational constants (GHZ):           9.0777692           1.6570420           1.5182250
 Standard basis: 6-31G(2df,p) (6D, 7F)
 There are   252 symmetry adapted cartesian basis functions of A   symmetry.
 There are   231 symmetry adapted basis functions of A   symmetry.
   231 basis functions,   357 primitive gaussians,   252 cartesian basis functions
    25 alpha electrons       25 beta electrons
       nuclear repulsion energy       263.9314308385 Hartrees.
 NAtoms=   14 NActive=   14 NUniq=   14 SFac= 1.00D+00 NAtFMM=   60 NAOKFM=F Big=F
 Integral buffers will be    131072 words long.
 Raffenetti 2 integral format.
 Two-electron integral symmetry is turned on.
 One-electron integrals computed using PRISM.
 PrsmSu:  requested number of processors reduced to:  13 ShMem   1 Linda.
 NBasis=   231 RedAO= T EigKep=  3.37D-04  NBF=   231
 NBsUse=   231 1.00D-06 EigRej= -1.00D+00 NBFU=   231
 Initial guess from the checkpoint file:  "CCC1CtCCdN1.chk"
 B after Tr=    -0.000000   -0.000000   -0.000000
         Rot=    0.999819   -0.018407    0.002585    0.004083 Ang=  -2.18 deg.
 ExpMin= 1.61D-01 ExpMax= 4.17D+03 ExpMxC= 6.27D+02 IAcc=2 IRadAn=         4 AccDes= 0.00D+00
 Harris functional with IExCor=  402 and IRadAn=       4 diagonalized for initial guess.
 HarFok:  IExCor=  402 AccDes= 0.00D+00 IRadAn=         4 IDoV= 1 UseB2=F ITyADJ=14
 ICtDFT=  3500011 ScaDFX=  1.000000  1.000000  1.000000  1.000000
 FoFCou: FMM=F IPFlag=           0 FMFlag=      100000 FMFlg1=           0
         NFxFlg=           0 DoJE=T BraDBF=F KetDBF=T FulRan=T
         wScrn=  0.000000 ICntrl=       500 IOpCl=  0 I1Cent=   200000004 NGrid=           0
         NMat0=    1 NMatS0=      1 NMatT0=    0 NMatD0=    1 NMtDS0=    0 NMtDT0=    0
 Petite list used in FoFCou.
 Requested convergence on RMS density matrix=1.00D-08 within 128 cycles.
 Requested convergence on MAX density matrix=1.00D-06.
 Requested convergence on             energy=1.00D-06.
 No special actions if energy rises.
 Integral accuracy reduced to 1.0D-05 until final iterations.
 Initial convergence to 1.0D-05 achieved.  Increase integral accuracy.
 SCF Done:  E(RB3LYP) =  -287.200061520     A.U. after   14 cycles
            NFock= 14  Conv=0.88D-08     -V/T= 2.0074
 PrsmSu:  requested number of processors reduced to:  13 ShMem   1 Linda.
 Calling FoFJK, ICntrl=      2127 FMM=F ISym2X=0 I1Cent= 0 IOpClX= 0 NMat=1 NMatS=1 NMatT=0.
 ***** Axes restored to original set *****
 -------------------------------------------------------------------
 Center     Atomic                   Forces (Hartrees/Bohr)
 Number     Number              X              Y              Z
 -------------------------------------------------------------------
      1        6          -0.004806824   -0.003315445   -0.001685940
      2        6          -0.022155709   -0.000707437    0.000924904
      3        6           0.095693624   -0.000558352    0.000816589
      4        6           0.039608720    0.056526054   -0.068129657
      5        6           0.009722992    0.042924283   -0.061002490
      6        6          -0.017425059   -0.000556269    0.000177640
      7        7          -0.054388597   -0.067793762    0.092139954
      8        1          -0.000168111   -0.000117419    0.000173239
      9        1           0.000572695   -0.000621177    0.000104482
     10        1          -0.000667494   -0.000023949   -0.000205921
     11        1           0.003617982   -0.000703837    0.001765438
     12        1           0.003154198    0.001530694    0.003325213
     13        1          -0.015356364   -0.010657651    0.010142752
     14        1          -0.037402051   -0.015925733    0.021453798
 -------------------------------------------------------------------
 Cartesian Forces:  Max     0.095693624 RMS     0.032258528

 GradGradGradGradGradGradGradGradGradGradGradGradGradGradGradGradGradGrad
 Berny optimization.
 Using GEDIIS/GDIIS optimizer.
 FormGI is forming the generalized inverse of G from B-inverse, IUseBI=4.
 Internal  Forces:  Max     0.096750112 RMS     0.022443786
 Search for a local minimum.
 Step number   2 out of a maximum of   70
 All quantities printed in internal units (Hartrees-Bohrs-Radians)
 Mixed Optimization -- RFO/linear search
 Update second derivatives using D2CorX and points    1    2
 DE= -5.72D-02 DEPred=-5.00D-02 R= 1.14D+00
 TightC=F SS=  1.41D+00  RLast= 3.19D-01 DXNew= 5.0454D-01 9.5697D-01
 Trust test= 1.14D+00 RLast= 3.19D-01 DXMaxT set to 5.05D-01
 ITU=  1  0
 Use linear search instead of GDIIS.
 Linear search step of   0.599 exceeds DXMaxT=   0.505 but not scaled.
 Quartic linear search produced a step of  2.00000.
 Iteration  1 RMS(Cart)=  0.12344696 RMS(Int)=  0.01653126
 Iteration  2 RMS(Cart)=  0.01850608 RMS(Int)=  0.00277028
 Iteration  3 RMS(Cart)=  0.00022901 RMS(Int)=  0.00275895
 Iteration  4 RMS(Cart)=  0.00000033 RMS(Int)=  0.00275895
 Variable       Old X    -DE/DX   Delta X   Delta X   Delta X     New X
                                 (Linear)    (Quad)   (Total)
    R1        2.89162   0.00510   0.03020   0.00000   0.03020   2.92181
    R2        2.06808  -0.00004   0.00080   0.00000   0.00080   2.06888
    R3        2.07121  -0.00078  -0.00335   0.00000  -0.00335   2.06786
    R4        2.06695   0.00008   0.00058   0.00000   0.00058   2.06753
    R5        2.83921   0.00524   0.02413   0.00000   0.02413   2.86334
    R6        2.07852  -0.00069  -0.00210   0.00000  -0.00210   2.07641
    R7        2.06598  -0.00071  -0.00342   0.00000  -0.00342   2.06256
    R8        2.76594  -0.05993  -0.21288   0.00000  -0.21288   2.55306
    R9        2.05801  -0.00267  -0.01573   0.00000  -0.01573   2.04227
   R10        2.45978  -0.02165  -0.00832   0.00000  -0.00734   2.45244
   R11        3.07671  -0.01841  -0.11650   0.00000  -0.12062   2.95609
   R12        3.04684   0.09675   0.34393   0.00000   0.34130   3.38814
   R13        2.87529   0.07322   0.22267   0.00000   0.22466   3.09996
   R14        2.52118   0.00207   0.01775   0.00000   0.02268   2.54386
   R15        2.25678  -0.03827  -0.11074   0.00000  -0.11074   2.14603
    A1        1.93592   0.00020   0.00250   0.00000   0.00248   1.93840
    A2        1.93956  -0.00065  -0.00381   0.00000  -0.00381   1.93575
    A3        1.93349   0.00100   0.00858   0.00000   0.00857   1.94206
    A4        1.87746   0.00017  -0.00106   0.00000  -0.00105   1.87640
    A5        1.89123  -0.00056  -0.00410   0.00000  -0.00413   1.88710
    A6        1.88410  -0.00020  -0.00253   0.00000  -0.00252   1.88158
    A7        1.92600   0.01024   0.04797   0.00000   0.04794   1.97394
    A8        1.89075   0.00091   0.01866   0.00000   0.01881   1.90956
    A9        1.91811  -0.00097  -0.00357   0.00000  -0.00279   1.91532
   A10        1.89793  -0.00434  -0.02381   0.00000  -0.02533   1.87260
   A11        1.95596  -0.00676  -0.03624   0.00000  -0.03663   1.91933
   A12        1.87312   0.00081  -0.00238   0.00000  -0.00335   1.86977
   A13        1.93231   0.01672   0.07937   0.00000   0.07325   2.00555
   A14        2.20151  -0.00648   0.02805   0.00000   0.02099   2.22250
   A15        1.80904   0.00355   0.02241   0.00000   0.01534   1.82438
   A16        2.07414  -0.04999  -0.12148   0.00000  -0.12897   1.94517
   A17        1.22562  -0.03961  -0.10210   0.00000  -0.09489   1.13073
   A18        1.91927   0.02967   0.10869   0.00000   0.10177   2.02104
   A19        2.03784  -0.00122   0.01323   0.00000   0.00662   2.04446
   A20        1.98450   0.03268   0.16868   0.00000   0.16643   2.15093
   A21        1.18914   0.01300   0.02183   0.00000   0.02617   1.21531
   A22        3.14489  -0.00994   0.00659   0.00000   0.00688   3.15177
   A23        3.17364   0.04568   0.19050   0.00000   0.19260   3.36624
   A24        3.11607  -0.00588  -0.05104   0.00000  -0.04985   3.06622
   A25        3.13903  -0.00123  -0.01804   0.00000  -0.01588   3.12315
    D1        3.09315   0.00107   0.00622   0.00000   0.00649   3.09964
    D2        1.01719  -0.00018  -0.00333   0.00000  -0.00377   1.01343
    D3       -1.02431  -0.00113  -0.00920   0.00000  -0.00905  -1.03336
    D4        1.00545   0.00115   0.00841   0.00000   0.00868   1.01413
    D5       -1.07051  -0.00011  -0.00114   0.00000  -0.00157  -1.07208
    D6       -3.11201  -0.00106  -0.00701   0.00000  -0.00686  -3.11887
    D7       -1.08900   0.00116   0.00840   0.00000   0.00869  -1.08032
    D8        3.11822  -0.00009  -0.00115   0.00000  -0.00157   3.11665
    D9        1.07672  -0.00104  -0.00702   0.00000  -0.00686   1.06987
   D10        3.12391  -0.01086  -0.08729   0.00000  -0.08802   3.03588
   D11       -0.95925   0.00801   0.06052   0.00000   0.06122  -0.89803
   D12       -1.08769  -0.00635  -0.05073   0.00000  -0.05227  -1.13997
   D13        1.11233   0.01252   0.09707   0.00000   0.09697   1.20930
   D14        0.98015  -0.01225  -0.09236   0.00000  -0.09223   0.88792
   D15       -3.10300   0.00663   0.05545   0.00000   0.05701  -3.04599
   D16       -2.00514   0.00330   0.05007   0.00000   0.05311  -1.95203
   D17       -1.99127   0.00062   0.03364   0.00000   0.03321  -1.95806
   D18        1.87324  -0.00409  -0.05951   0.00000  -0.05909   1.81416
   D19        1.88711  -0.00677  -0.07595   0.00000  -0.07898   1.80812
   D20       -3.12023  -0.00022   0.00334   0.00000   0.00494  -3.11529
         Item               Value     Threshold  Converged?
 Maximum Force            0.096750     0.000450     NO 
 RMS     Force            0.022444     0.000300     NO 
 Maximum Displacement     0.470672     0.001800     NO 
 RMS     Displacement     0.131877     0.001200     NO 
 Predicted change in Energy=-8.636179D-02
 GradGradGradGradGradGradGradGradGradGradGradGradGradGradGradGradGradGrad

                          Input orientation:                          
 ---------------------------------------------------------------------
 Center     Atomic      Atomic             Coordinates (Angstroms)
 Number     Number       Type             X           Y           Z
 ---------------------------------------------------------------------
      1          6           0        1.077767   -0.173839    0.130750
      2          6           0        2.617062   -0.068512    0.030362
      3          6           0        3.247346    0.596575    1.237125
      4          6           0        4.598321    0.593228    1.247845
      5          6           0        5.893365    0.530604    1.191608
      6          6           0        5.159106   -0.327147    2.381619
      7          7           0        3.822013   -0.421102    2.506042
      8          1           0        0.654023   -0.619890   -0.774829
      9          1           0        0.625782    0.815174    0.253126
     10          1           0        0.776767   -0.787307    0.985205
     11          1           0        2.885364    0.531199   -0.850378
     12          1           0        3.045870   -1.061736   -0.114239
     13          1           0        2.975036    1.543890    1.680307
     14          1           0        6.287827   -0.380468    2.494777
 ---------------------------------------------------------------------
                    Distance matrix (angstroms):
                    1          2          3          4          5
     1  C    0.000000
     2  C    1.546157   0.000000
     3  C    2.554345   1.515215   0.000000
     4  C    3.772346   2.417758   1.351022   0.000000
     5  C    4.981129   3.527264   2.647233   1.297776   0.000000
     6  C    4.663394   3.472361   2.412044   1.564294   1.640427
     7  N    3.637861   2.775827   1.725126   1.792925   2.631346
     8  H    1.094803   2.192230   3.500439   4.595689   5.713249
     9  H    1.094264   2.189913   2.808671   4.101194   5.358093
    10  H    1.094092   2.194329   2.842948   4.071748   5.287633
    11  H    2.174189   1.098791   2.119663   2.709356   3.635626
    12  H    2.172973   1.091458   2.148668   2.646560   3.514115
    13  H    2.991880   2.334588   1.080725   1.930242   3.127654
    14  H    5.725037   4.432288   3.432321   2.314596   1.638262
                    6          7          8          9         10
     6  C    0.000000
     7  N    1.346152   0.000000
     8  H    5.508596   4.565062   0.000000
     9  H    5.136770   4.101207   1.765475   0.000000
    10  H    4.622403   3.423532   1.772235   1.768243   0.000000
    11  H    4.043818   3.612442   2.511891   2.530627   3.090955
    12  H    3.351819   2.806899   2.520425   3.084571   2.536320
    13  H    2.960199   2.293556   4.012074   2.843741   3.278724
    14  H    1.135632   2.466175   6.518236   6.205909   5.728535
                   11         12         13         14
    11  H    0.000000
    12  H    1.762131   0.000000
    13  H    2.727260   3.164600   0.000000
    14  H    4.857773   4.216797   3.916772   0.000000
 Stoichiometry    C6H7N
 Framework group  C1[X(C6H7N)]
 Deg. of freedom    36
 Full point group                 C1      NOp   1
 Largest Abelian subgroup         C1      NOp   1
 Largest concise Abelian subgroup C1      NOp   1
                         Standard orientation:                         
 ---------------------------------------------------------------------
 Center     Atomic      Atomic             Coordinates (Angstroms)
 Number     Number       Type             X           Y           Z
 ---------------------------------------------------------------------
      1          6           0        2.725828    0.172589   -0.058957
      2          6           0        1.372976   -0.522857   -0.335990
      3          6           0        0.258169   -0.035587    0.567144
      4          6           0       -0.966794   -0.523727    0.273131
      5          6           0       -2.109918   -1.021748   -0.086684
      6          6           0       -1.913418    0.596384   -0.271173
      7          7           0       -0.754022    1.232355   -0.019245
      8          1           0        3.515434   -0.233571   -0.699386
      9          1           0        3.035690    0.024246    0.979982
     10          1           0        2.662429    1.249967   -0.238610
     11          1           0        1.477760   -1.604157   -0.171206
     12          1           0        1.093720   -0.382605   -1.381755
     13          1           0        0.270960    0.033152    1.645605
     14          1           0       -2.978892    0.296165   -0.524737
 ---------------------------------------------------------------------
 Rotational constants (GHZ):           8.0137623           1.7848108           1.5841295
 Standard basis: 6-31G(2df,p) (6D, 7F)
 There are   252 symmetry adapted cartesian basis functions of A   symmetry.
 There are   231 symmetry adapted basis functions of A   symmetry.
   231 basis functions,   357 primitive gaussians,   252 cartesian basis functions
    25 alpha electrons       25 beta electrons
       nuclear repulsion energy       265.2512500480 Hartrees.
 NAtoms=   14 NActive=   14 NUniq=   14 SFac= 1.00D+00 NAtFMM=   60 NAOKFM=F Big=F
 Integral buffers will be    131072 words long.
 Raffenetti 2 integral format.
 Two-electron integral symmetry is turned on.
 One-electron integrals computed using PRISM.
 PrsmSu:  requested number of processors reduced to:  13 ShMem   1 Linda.
 NBasis=   231 RedAO= T EigKep=  2.88D-04  NBF=   231
 NBsUse=   231 1.00D-06 EigRej= -1.00D+00 NBFU=   231
 Initial guess from the checkpoint file:  "CCC1CtCCdN1.chk"
 B after Tr=    -0.000000   -0.000000   -0.000000
         Rot=    0.999647   -0.022722    0.005606    0.012603 Ang=  -3.05 deg.
 ExpMin= 1.61D-01 ExpMax= 4.17D+03 ExpMxC= 6.27D+02 IAcc=2 IRadAn=         4 AccDes= 0.00D+00
 Harris functional with IExCor=  402 and IRadAn=       4 diagonalized for initial guess.
 HarFok:  IExCor=  402 AccDes= 0.00D+00 IRadAn=         4 IDoV= 1 UseB2=F ITyADJ=14
 ICtDFT=  3500011 ScaDFX=  1.000000  1.000000  1.000000  1.000000
 FoFCou: FMM=F IPFlag=           0 FMFlag=      100000 FMFlg1=           0
         NFxFlg=           0 DoJE=T BraDBF=F KetDBF=T FulRan=T
         wScrn=  0.000000 ICntrl=       500 IOpCl=  0 I1Cent=   200000004 NGrid=           0
         NMat0=    1 NMatS0=      1 NMatT0=    0 NMatD0=    1 NMtDS0=    0 NMtDT0=    0
 Petite list used in FoFCou.
 Requested convergence on RMS density matrix=1.00D-08 within 128 cycles.
 Requested convergence on MAX density matrix=1.00D-06.
 Requested convergence on             energy=1.00D-06.
 No special actions if energy rises.
 Integral accuracy reduced to 1.0D-05 until final iterations.
 Initial convergence to 1.0D-05 achieved.  Increase integral accuracy.
 SCF Done:  E(RB3LYP) =  -287.281967507     A.U. after   15 cycles
            NFock= 15  Conv=0.77D-08     -V/T= 2.0072
 PrsmSu:  requested number of processors reduced to:  13 ShMem   1 Linda.
 Calling FoFJK, ICntrl=      2127 FMM=F ISym2X=0 I1Cent= 0 IOpClX= 0 NMat=1 NMatS=1 NMatT=0.
 ***** Axes restored to original set *****
 -------------------------------------------------------------------
 Center     Atomic                   Forces (Hartrees/Bohr)
 Number     Number              X              Y              Z
 -------------------------------------------------------------------
      1        6           0.003931546    0.000117140   -0.000406056
      2        6          -0.023013817    0.005842189    0.004080454
      3        6          -0.009725139   -0.034167206    0.034775760
      4        6           0.147061185    0.040336127   -0.065463346
      5        6          -0.018776454    0.028383539   -0.037775619
      6        6          -0.015729804    0.015241237   -0.014958598
      7        7          -0.034433398   -0.030004889    0.039888709
      8        1           0.001345688   -0.000136532    0.000377510
      9        1           0.000136986    0.000425246    0.000142564
     10        1           0.000968243   -0.000015832   -0.000149517
     11        1           0.000834471   -0.000478341    0.000127460
     12        1           0.003521988    0.000483515    0.002396543
     13        1          -0.024888116   -0.000880010    0.003276905
     14        1          -0.031233380   -0.025146182    0.033687231
 -------------------------------------------------------------------
 Cartesian Forces:  Max     0.147061185 RMS     0.031232095

 GradGradGradGradGradGradGradGradGradGradGradGradGradGradGradGradGradGrad
 Berny optimization.
 Using GEDIIS/GDIIS optimizer.
 FormGI is forming the generalized inverse of G from B-inverse, IUseBI=4.
 Internal  Forces:  Max     0.069952929 RMS     0.020189926
 Search for a local minimum.
 Step number   3 out of a maximum of   70
 All quantities printed in internal units (Hartrees-Bohrs-Radians)
 Mixed Optimization -- RFO/linear search
 Update second derivatives using D2CorX and points    2    3
 ITU=  0  1  0
 Use linear search instead of GDIIS.
     Eigenvalues ---    0.00249   0.00435   0.00472   0.00501   0.00818
     Eigenvalues ---    0.01785   0.03429   0.04143   0.05102   0.05490
     Eigenvalues ---    0.05549   0.05611   0.09554   0.12283   0.12925
     Eigenvalues ---    0.13738   0.16000   0.16000   0.16002   0.18084
     Eigenvalues ---    0.21996   0.22352   0.22905   0.25731   0.28460
     Eigenvalues ---    0.30163   0.32783   0.33631   0.34024   0.34334
     Eigenvalues ---    0.34335   0.34396   0.34411   0.52921   0.54036
     Eigenvalues ---    0.63416
 RFO step:  Lambda=-9.94977405D-02 EMin= 2.48523477D-03
 Quartic linear search produced a step of  0.71527.
 Maximum step size (   0.505) exceeded in Quadratic search.
    -- Step size scaled by   0.820
 Iteration  1 RMS(Cart)=  0.16919357 RMS(Int)=  0.03476891
 Iteration  2 RMS(Cart)=  0.06520298 RMS(Int)=  0.00394477
 Iteration  3 RMS(Cart)=  0.00237304 RMS(Int)=  0.00339344
 Iteration  4 RMS(Cart)=  0.00000488 RMS(Int)=  0.00339344
 Iteration  5 RMS(Cart)=  0.00000002 RMS(Int)=  0.00339344
 Variable       Old X    -DE/DX   Delta X   Delta X   Delta X     New X
                                 (Linear)    (Quad)   (Total)
    R1        2.92181  -0.00638   0.02160  -0.01282   0.00878   2.93060
    R2        2.06888  -0.00078   0.00057  -0.00162  -0.00105   2.06783
    R3        2.06786   0.00034  -0.00240   0.00042  -0.00198   2.06588
    R4        2.06753  -0.00037   0.00042  -0.00078  -0.00037   2.06717
    R5        2.86334  -0.00286   0.01726  -0.00414   0.01312   2.87647
    R6        2.07641  -0.00016  -0.00150  -0.00052  -0.00203   2.07439
    R7        2.06256   0.00063  -0.00245   0.00102  -0.00143   2.06113
    R8        2.55306   0.04646  -0.15227   0.10681  -0.04546   2.50761
    R9        2.04227   0.00684  -0.01125   0.01369   0.00243   2.04471
   R10        2.45244  -0.03449  -0.00525  -0.04421  -0.04781   2.40464
   R11        2.95609  -0.01665  -0.08628  -0.05609  -0.14147   2.81461
   R12        3.38814   0.04529   0.24412   0.14435   0.38307   3.77120
   R13        3.09996   0.05196   0.16069   0.13053   0.29068   3.39064
   R14        2.54386  -0.00613   0.01622  -0.00674   0.01562   2.55948
   R15        2.14603  -0.02651  -0.07921  -0.07750  -0.15671   1.98932
    A1        1.93840  -0.00134   0.00178  -0.00542  -0.00365   1.93475
    A2        1.93575   0.00014  -0.00272   0.00126  -0.00146   1.93429
    A3        1.94206  -0.00105   0.00613  -0.00451   0.00162   1.94368
    A4        1.87640   0.00085  -0.00075   0.00391   0.00316   1.87956
    A5        1.88710   0.00093  -0.00295   0.00273  -0.00023   1.88687
    A6        1.88158   0.00060  -0.00180   0.00256   0.00077   1.88234
    A7        1.97394   0.00233   0.03429   0.00769   0.04194   2.01588
    A8        1.90956   0.00015   0.01345  -0.00123   0.01229   1.92185
    A9        1.91532   0.00189  -0.00200   0.00724   0.00609   1.92140
   A10        1.87260  -0.00029  -0.01812   0.00004  -0.01949   1.85311
   A11        1.91933  -0.00422  -0.02620  -0.01624  -0.04284   1.87650
   A12        1.86977  -0.00001  -0.00239   0.00213  -0.00136   1.86842
   A13        2.00555   0.00948   0.05239   0.03092   0.07924   2.08479
   A14        2.22250  -0.02032   0.01501  -0.08774  -0.08060   2.14190
   A15        1.82438   0.01552   0.01097   0.06204   0.07021   1.89459
   A16        1.94517  -0.06995  -0.09225  -0.22180  -0.32579   1.61938
   A17        1.13073  -0.06080  -0.06787  -0.19747  -0.25714   0.87359
   A18        2.02104   0.02693   0.07279   0.06122   0.12938   2.15042
   A19        2.04446   0.01676   0.00474   0.10607   0.10058   2.14505
   A20        2.15093   0.00914   0.11904   0.05603   0.17457   2.32550
   A21        1.21531   0.03548   0.01872   0.13618   0.16017   1.37549
   A22        3.15177  -0.03388   0.00492  -0.13624  -0.12777   3.02400
   A23        3.36624   0.04462   0.13776   0.19221   0.33474   3.70099
   A24        3.06622  -0.00096  -0.03565   0.00522  -0.02895   3.03727
   A25        3.12315   0.00119  -0.01136   0.01827   0.00922   3.13237
    D1        3.09964   0.00149   0.00464   0.00726   0.01210   3.11174
    D2        1.01343   0.00026  -0.00269   0.00309   0.00001   1.01343
    D3       -1.03336  -0.00092  -0.00648  -0.00298  -0.00928  -1.04264
    D4        1.01413   0.00121   0.00621   0.00507   0.01148   1.02561
    D5       -1.07208  -0.00003  -0.00112   0.00090  -0.00061  -1.07269
    D6       -3.11887  -0.00121  -0.00491  -0.00517  -0.00990  -3.12877
    D7       -1.08032   0.00106   0.00621   0.00399   0.01042  -1.06990
    D8        3.11665  -0.00018  -0.00112  -0.00018  -0.00168   3.11498
    D9        1.06987  -0.00136  -0.00490  -0.00624  -0.01096   1.05890
   D10        3.03588  -0.00815  -0.06296  -0.02276  -0.08394   2.95195
   D11       -0.89803   0.00706   0.04379   0.01825   0.06003  -0.83800
   D12       -1.13997  -0.00673  -0.03739  -0.01954  -0.05588  -1.19585
   D13        1.20930   0.00849   0.06936   0.02147   0.08809   1.29739
   D14        0.88792  -0.00912  -0.06597  -0.02553  -0.08864   0.79928
   D15       -3.04599   0.00610   0.04078   0.01548   0.05533  -2.99066
   D16       -1.95203  -0.00333   0.03799  -0.03325   0.01115  -1.94088
   D17       -1.95806  -0.00368   0.02375  -0.01875   0.00805  -1.95001
   D18        1.81416  -0.00008  -0.04226  -0.00257  -0.04788   1.76628
   D19        1.80812  -0.00042  -0.05650   0.01194  -0.05098   1.75715
   D20       -3.11529   0.00134   0.00353   0.01619   0.02088  -3.09441
         Item               Value     Threshold  Converged?
 Maximum Force            0.069953     0.000450     NO 
 RMS     Force            0.020190     0.000300     NO 
 Maximum Displacement     0.902327     0.001800     NO 
 RMS     Displacement     0.227108     0.001200     NO 
 Predicted change in Energy=-9.516981D-02
 GradGradGradGradGradGradGradGradGradGradGradGradGradGradGradGradGradGrad

                          Input orientation:                          
 ---------------------------------------------------------------------
 Center     Atomic      Atomic             Coordinates (Angstroms)
 Number     Number       Type             X           Y           Z
 ---------------------------------------------------------------------
      1          6           0        1.159159   -0.237611    0.251696
      2          6           0        2.673840   -0.014115    0.005149
      3          6           0        3.433576    0.644801    1.147778
      4          6           0        4.759748    0.677998    1.115979
      5          6           0        6.023710    0.531506    1.127861
      6          6           0        4.883258   -0.274262    2.254551
      7          7           0        3.531781   -0.324471    2.328297
      8          1           0        0.683702   -0.686217   -0.625840
      9          1           0        0.654348    0.710578    0.454736
     10          1           0        0.987776   -0.898475    1.106389
     11          1           0        2.822683    0.628894   -0.871988
     12          1           0        3.162905   -0.965248   -0.208839
     13          1           0        3.078827    1.535630    1.649106
     14          1           0        5.810336   -0.558338    2.664445
 ---------------------------------------------------------------------
                    Distance matrix (angstroms):
                    1          2          3          4          5
     1  C    0.000000
     2  C    1.550805   0.000000
     3  C    2.598959   1.522160   0.000000
     4  C    3.814390   2.462515   1.326968   0.000000
     5  C    5.002306   3.574886   2.592687   1.272478   0.000000
     6  C    4.228674   3.163703   2.042352   1.489430   1.794247
     7  N    3.154227   2.495877   1.530607   1.995636   2.895419
     8  H    1.094247   2.193289   3.532582   4.637798   5.751000
     9  H    1.093216   2.192181   2.865091   4.158439   5.414353
    10  H    1.093898   2.199462   2.892291   4.088170   5.235067
    11  H    2.186506   1.097718   2.110189   2.776085   3.775640
    12  H    2.180951   1.090701   2.122717   2.646754   3.494458
    13  H    2.963488   2.295282   1.082013   1.960931   3.154726
    14  H    5.249540   4.147969   3.065421   2.242768   1.895885
                    6          7          8          9         10
     6  C    0.000000
     7  N    1.354418   0.000000
     8  H    5.109073   4.119385   0.000000
     9  H    4.700312   3.586249   1.766222   0.000000
    10  H    4.108856   2.880017   1.771477   1.767732   0.000000
    11  H    3.851871   3.413729   2.522964   2.543333   3.100599
    12  H    3.083077   2.642673   2.529465   3.088945   2.542728
    13  H    2.626451   2.031364   3.981031   2.825833   3.254520
    14  H    1.052704   2.315060   6.093004   5.751276   5.079401
                   11         12         13         14
    11  H    0.000000
    12  H    1.759775   0.000000
    13  H    2.691411   3.116635   0.000000
    14  H    4.779325   3.928133   3.588419   0.000000
 Stoichiometry    C6H7N
 Framework group  C1[X(C6H7N)]
 Deg. of freedom    36
 Full point group                 C1      NOp   1
 Largest Abelian subgroup         C1      NOp   1
 Largest concise Abelian subgroup C1      NOp   1
                         Standard orientation:                         
 ---------------------------------------------------------------------
 Center     Atomic      Atomic             Coordinates (Angstroms)
 Number     Number       Type             X           Y           Z
 ---------------------------------------------------------------------
      1          6           0        2.600395    0.123816   -0.064073
      2          6           0        1.267190   -0.636269   -0.287302
      3          6           0        0.085092   -0.141139    0.533955
      4          6           0       -1.134583   -0.582301    0.253577
      5          6           0       -2.296110   -0.894908   -0.161555
      6          6           0       -1.577923    0.746869   -0.251554
      7          7           0       -0.348589    1.238773    0.033436
      8          1           0        3.402923   -0.312064   -0.666846
      9          1           0        2.906560    0.071986    0.984115
     10          1           0        2.507234    1.179691   -0.334371
     11          1           0        1.391077   -1.697602   -0.035891
     12          1           0        0.979884   -0.587977   -1.338373
     13          1           0        0.148445    0.042753    1.598344
     14          1           0       -2.560372    0.935395   -0.579328
 ---------------------------------------------------------------------
 Rotational constants (GHZ):           7.7387034           1.9537330           1.6911888
 Standard basis: 6-31G(2df,p) (6D, 7F)
 There are   252 symmetry adapted cartesian basis functions of A   symmetry.
 There are   231 symmetry adapted basis functions of A   symmetry.
   231 basis functions,   357 primitive gaussians,   252 cartesian basis functions
    25 alpha electrons       25 beta electrons
       nuclear repulsion energy       270.2454989904 Hartrees.
 NAtoms=   14 NActive=   14 NUniq=   14 SFac= 1.00D+00 NAtFMM=   60 NAOKFM=F Big=F
 Integral buffers will be    131072 words long.
 Raffenetti 2 integral format.
 Two-electron integral symmetry is turned on.
 One-electron integrals computed using PRISM.
 PrsmSu:  requested number of processors reduced to:  13 ShMem   1 Linda.
 NBasis=   231 RedAO= T EigKep=  1.98D-04  NBF=   231
 NBsUse=   231 1.00D-06 EigRej= -1.00D+00 NBFU=   231
 Initial guess from the checkpoint file:  "CCC1CtCCdN1.chk"
 B after Tr=     0.000000    0.000000    0.000000
         Rot=    0.999060   -0.012713    0.007885    0.040697 Ang=  -4.97 deg.
 ExpMin= 1.61D-01 ExpMax= 4.17D+03 ExpMxC= 6.27D+02 IAcc=2 IRadAn=         4 AccDes= 0.00D+00
 Harris functional with IExCor=  402 and IRadAn=       4 diagonalized for initial guess.
 HarFok:  IExCor=  402 AccDes= 0.00D+00 IRadAn=         4 IDoV= 1 UseB2=F ITyADJ=14
 ICtDFT=  3500011 ScaDFX=  1.000000  1.000000  1.000000  1.000000
 FoFCou: FMM=F IPFlag=           0 FMFlag=      100000 FMFlg1=           0
         NFxFlg=           0 DoJE=T BraDBF=F KetDBF=T FulRan=T
         wScrn=  0.000000 ICntrl=       500 IOpCl=  0 I1Cent=   200000004 NGrid=           0
         NMat0=    1 NMatS0=      1 NMatT0=    0 NMatD0=    1 NMtDS0=    0 NMtDT0=    0
 Petite list used in FoFCou.
 Requested convergence on RMS density matrix=1.00D-08 within 128 cycles.
 Requested convergence on MAX density matrix=1.00D-06.
 Requested convergence on             energy=1.00D-06.
 No special actions if energy rises.
 Integral accuracy reduced to 1.0D-05 until final iterations.
 Initial convergence to 1.0D-05 achieved.  Increase integral accuracy.
 SCF Done:  E(RB3LYP) =  -287.361838219     A.U. after   16 cycles
            NFock= 16  Conv=0.52D-08     -V/T= 2.0062
 PrsmSu:  requested number of processors reduced to:  13 ShMem   1 Linda.
 Calling FoFJK, ICntrl=      2127 FMM=F ISym2X=0 I1Cent= 0 IOpClX= 0 NMat=1 NMatS=1 NMatT=0.
 ***** Axes restored to original set *****
 -------------------------------------------------------------------
 Center     Atomic                   Forces (Hartrees/Bohr)
 Number     Number              X              Y              Z
 -------------------------------------------------------------------
      1        6           0.009174848    0.003062351    0.002668017
      2        6          -0.012091086    0.015159856   -0.008527131
      3        6          -0.123612856   -0.026375726    0.031821131
      4        6           0.140374467    0.024735235   -0.047073269
      5        6           0.011004090    0.018159583   -0.022977278
      6        6          -0.049784559   -0.003015542    0.008493044
      7        7           0.040271184   -0.013841679    0.014439183
      8        1           0.002145079    0.000139821   -0.000162059
      9        1          -0.000562690    0.000945604    0.000065758
     10        1           0.001485726    0.000397452   -0.000169227
     11        1          -0.002612945   -0.002504904   -0.003223580
     12        1           0.002347363   -0.001262084    0.000499202
     13        1          -0.018540852    0.011844090   -0.011416816
     14        1           0.000402230   -0.027444058    0.035563024
 -------------------------------------------------------------------
 Cartesian Forces:  Max     0.140374467 RMS     0.033912517

 GradGradGradGradGradGradGradGradGradGradGradGradGradGradGradGradGradGrad
 Berny optimization.
 Using GEDIIS/GDIIS optimizer.
 FormGI is forming the generalized inverse of G from B-inverse, IUseBI=4.
 Internal  Forces:  Max     0.142423777 RMS     0.021828268
 Search for a local minimum.
 Step number   4 out of a maximum of   70
 All quantities printed in internal units (Hartrees-Bohrs-Radians)
 Mixed Optimization -- RFO/linear search
 Update second derivatives using D2CorX and points    3    4
 DE= -7.99D-02 DEPred=-9.52D-02 R= 8.39D-01
 TightC=F SS=  1.41D+00  RLast= 8.52D-01 DXNew= 8.4853D-01 2.5558D+00
 Trust test= 8.39D-01 RLast= 8.52D-01 DXMaxT set to 8.49D-01
 ITU=  1  0  1  0
 Use linear search instead of GDIIS.
     Eigenvalues ---    0.00256   0.00458   0.00472   0.00502   0.00818
     Eigenvalues ---    0.01511   0.03336   0.03923   0.05351   0.05554
     Eigenvalues ---    0.05629   0.06924   0.09984   0.13082   0.13320
     Eigenvalues ---    0.15821   0.16000   0.16001   0.16046   0.17782
     Eigenvalues ---    0.22032   0.22351   0.22743   0.26377   0.30140
     Eigenvalues ---    0.32577   0.33631   0.34024   0.34328   0.34334
     Eigenvalues ---    0.34352   0.34397   0.35310   0.52228   0.60779
     Eigenvalues ---    0.64853
 RFO step:  Lambda=-6.27748502D-02 EMin= 2.55871706D-03
 Quartic linear search produced a step of  0.05986.
 Iteration  1 RMS(Cart)=  0.06853209 RMS(Int)=  0.00660608
 Iteration  2 RMS(Cart)=  0.00727587 RMS(Int)=  0.00063838
 Iteration  3 RMS(Cart)=  0.00003370 RMS(Int)=  0.00063751
 Iteration  4 RMS(Cart)=  0.00000002 RMS(Int)=  0.00063751
 Variable       Old X    -DE/DX   Delta X   Delta X   Delta X     New X
                                 (Linear)    (Quad)   (Total)
    R1        2.93060  -0.01223   0.00053  -0.01874  -0.01822   2.91238
    R2        2.06783  -0.00086  -0.00006  -0.00164  -0.00171   2.06612
    R3        2.06588   0.00109  -0.00012   0.00111   0.00100   2.06687
    R4        2.06717  -0.00061  -0.00002  -0.00108  -0.00110   2.06606
    R5        2.87647  -0.00020   0.00079   0.00942   0.01021   2.88667
    R6        2.07439   0.00075  -0.00012   0.00076   0.00064   2.07503
    R7        2.06113   0.00206  -0.00009   0.00327   0.00318   2.06431
    R8        2.50761   0.14242  -0.00272   0.23897   0.23624   2.74385
    R9        2.04471   0.01054   0.00015   0.01667   0.01681   2.06152
   R10        2.40464  -0.00363  -0.00286  -0.01554  -0.01863   2.38600
   R11        2.81461   0.02966  -0.00847   0.04583   0.03925   2.85386
   R12        3.77120   0.01070   0.02293   0.18525   0.20659   3.97780
   R13        3.39064   0.03427   0.01740   0.16619   0.18333   3.57396
   R14        2.55948  -0.04166   0.00094  -0.05860  -0.05669   2.50279
   R15        1.98932   0.02161  -0.00938   0.01340   0.00402   1.99334
    A1        1.93475  -0.00258  -0.00022  -0.00902  -0.00925   1.92550
    A2        1.93429   0.00094  -0.00009   0.00249   0.00241   1.93669
    A3        1.94368  -0.00162   0.00010  -0.00310  -0.00301   1.94067
    A4        1.87956   0.00099   0.00019   0.00358   0.00378   1.88334
    A5        1.88687   0.00181  -0.00001   0.00448   0.00444   1.89131
    A6        1.88234   0.00065   0.00005   0.00212   0.00217   1.88452
    A7        2.01588  -0.00997   0.00251  -0.01349  -0.01103   2.00485
    A8        1.92185  -0.00023   0.00074   0.00161   0.00235   1.92420
    A9        1.92140   0.00406   0.00036   0.00840   0.00863   1.93003
   A10        1.85311   0.00747  -0.00117   0.02391   0.02276   1.87587
   A11        1.87650   0.00081  -0.00256  -0.01568  -0.01825   1.85825
   A12        1.86842  -0.00161  -0.00008  -0.00426  -0.00430   1.86412
   A13        2.08479  -0.00279   0.00474   0.00974   0.01408   2.09887
   A14        2.14190  -0.02100  -0.00482  -0.10087  -0.10571   2.03618
   A15        1.89459   0.01806   0.00420   0.05866   0.06202   1.95661
   A16        1.61938  -0.00550  -0.01950  -0.05429  -0.07420   1.54518
   A17        0.87359   0.01200  -0.01539   0.01072  -0.00480   0.86878
   A18        2.15042  -0.00968   0.00774   0.00924   0.01765   2.16807
   A19        2.14505   0.02001   0.00602   0.10549   0.11020   2.25525
   A20        2.32550  -0.00129   0.01045   0.05923   0.07138   2.39688
   A21        1.37549   0.02979   0.00959   0.14525   0.15469   1.53017
   A22        3.02400   0.00232  -0.00765   0.01997   0.01285   3.03685
   A23        3.70099   0.02850   0.02004   0.20448   0.22606   3.92705
   A24        3.03727   0.00428  -0.00173   0.01929   0.01691   3.05418
   A25        3.13237   0.00229   0.00055   0.00055   0.00016   3.13252
    D1        3.11174   0.00223   0.00072   0.01776   0.01850   3.13023
    D2        1.01343  -0.00040   0.00000  -0.00537  -0.00538   1.00805
    D3       -1.04264  -0.00075  -0.00056  -0.00623  -0.00681  -1.04945
    D4        1.02561   0.00205   0.00069   0.01753   0.01824   1.04385
    D5       -1.07269  -0.00057  -0.00004  -0.00559  -0.00563  -1.07833
    D6       -3.12877  -0.00092  -0.00059  -0.00645  -0.00707  -3.13583
    D7       -1.06990   0.00168   0.00062   0.01524   0.01589  -1.05401
    D8        3.11498  -0.00094  -0.00010  -0.00789  -0.00798   3.10700
    D9        1.05890  -0.00130  -0.00066  -0.00875  -0.00942   1.04949
   D10        2.95195   0.00180  -0.00502   0.00912   0.00374   2.95569
   D11       -0.83800  -0.00198   0.00359  -0.02742  -0.02333  -0.86133
   D12       -1.19585   0.00066  -0.00335   0.02037   0.01662  -1.17923
   D13        1.29739  -0.00312   0.00527  -0.01616  -0.01045   1.28694
   D14        0.79928   0.00275  -0.00531   0.01968   0.01386   0.81314
   D15       -2.99066  -0.00102   0.00331  -0.01685  -0.01321  -3.00388
   D16       -1.94088  -0.00899   0.00067  -0.04169  -0.04257  -1.98345
   D17       -1.95001  -0.00731   0.00048  -0.04961  -0.04864  -1.99865
   D18        1.76628   0.00658  -0.00287   0.04256   0.03920   1.80548
   D19        1.75715   0.00826  -0.00305   0.03463   0.03313   1.79028
[...]
 ! A17   A(3,4,7)               43.3222         -DE/DX =    0.0001              !
 ! A18   A(5,4,7)              132.1285         -DE/DX =    0.0                 !
 ! A19   A(4,6,14)             130.2201         -DE/DX =    0.0                 !
 ! A20   A(5,6,7)               97.5887         -DE/DX =    0.0                 !
 ! A21   A(5,6,14)             135.7207         -DE/DX =    0.0                 !
 ! A22   L(3,4,5,7,-1)         175.4507         -DE/DX =    0.0                 !
 ! A23   L(7,6,14,5,-1)        233.3094         -DE/DX =    0.0                 !
 ! A24   L(3,4,5,7,-2)         357.9149         -DE/DX =    0.0                 !
 ! A25   L(7,6,14,5,-2)        178.8427         -DE/DX =    0.0                 !
 ! D1    D(8,1,2,3)           -179.189          -DE/DX =    0.0                 !
 ! D2    D(8,1,2,11)            59.8833         -DE/DX =    0.0                 !
 ! D3    D(8,1,2,12)           -58.8576         -DE/DX =    0.0                 !
 ! D4    D(9,1,2,3)             61.4906         -DE/DX =    0.0                 !
 ! D5    D(9,1,2,11)           -59.4371         -DE/DX =    0.0                 !
 ! D6    D(9,1,2,12)          -178.178          -DE/DX =    0.0                 !
 ! D7    D(10,1,2,3)           -59.0712         -DE/DX =    0.0                 !
 ! D8    D(10,1,2,11)         -179.9989         -DE/DX =    0.0                 !
 ! D9    D(10,1,2,12)           61.2602         -DE/DX =    0.0                 !
 ! D10   D(1,2,3,4)            160.495          -DE/DX =    0.0                 !
 ! D11   D(1,2,3,13)           -65.4489         -DE/DX =    0.0                 !
 ! D12   D(11,2,3,4)           -77.5596         -DE/DX =    0.0                 !
 ! D13   D(11,2,3,13)           56.4965         -DE/DX =    0.0                 !
 ! D14   D(12,2,3,4)            39.1976         -DE/DX =    0.0                 !
 ! D15   D(12,2,3,13)          173.2537         -DE/DX =    0.0                 !
 ! D16   D(2,3,4,6)           -113.9081         -DE/DX =    0.0                 !
 ! D17   D(2,3,4,7)           -113.8984         -DE/DX =    0.0                 !
 ! D18   D(13,3,4,6)           110.0695         -DE/DX =    0.0                 !
 ! D19   D(13,3,4,7)           110.0793         -DE/DX =    0.0                 !
 ! D20   D(3,4,6,14)          -179.7132         -DE/DX =    0.0                 !
 --------------------------------------------------------------------------------
 GradGradGradGradGradGradGradGradGradGradGradGradGradGradGradGradGradGrad


 ----------------------------------------------------------------------

 Electric dipole moment (input orientation):
 (Debye = 10**-18 statcoulomb cm , SI units = C m)
                  (au)            (Debye)         (10**-30 SI)
   Tot        0.700730D+00      0.178108D+01      0.594103D+01
   x         -0.357344D+00     -0.908278D+00     -0.302969D+01
   y         -0.460248D+00     -0.116983D+01     -0.390215D+01
   z          0.389228D+00      0.989320D+00      0.330002D+01

 Dipole polarizability, Alpha (input orientation).
 (esu units = cm**3 , SI units = C**2 m**2 J**-1)
 Alpha(0;0):
               (au)            (10**-24 esu)      (10**-40 SI)
   iso        0.657733D+02      0.974659D+01      0.108445D+02
   aniso      0.299782D+02      0.444231D+01      0.494273D+01
   xx         0.785408D+02      0.116385D+02      0.129496D+02
   yx         0.509648D+01      0.755220D+00      0.840295D+00
   yy         0.543200D+02      0.804940D+01      0.895616D+01
   zx         0.221328D+01      0.327974D+00      0.364921D+00
   zy        -0.109879D+02     -0.162824D+01     -0.181166D+01
   zz         0.644590D+02      0.955184D+01      0.106279D+02

 ----------------------------------------------------------------------

 Dipole orientation:
     6          2.34182402         -0.44008402         -0.66526173
     6          4.34181645         -1.18450645         -2.63598337
     6          6.36774617          0.82003529         -2.81789733
     6          9.31820181          0.06623926         -4.14603959
     6          8.23539385         -0.20165626         -6.28101051
     6         10.03793916          0.55414814         -1.59067010
     7          7.92031715          1.12211408         -0.51820287
     1          0.90034381         -1.91454860         -0.53161626
     1          1.39294757          1.32379439         -1.18508629
     1          3.19095303         -0.18522175          1.19948916
     1          3.47799649         -1.43682458         -4.49343632
     1          5.22881982         -2.98033919         -2.11724498
     1          5.71834478          2.63819718         -3.53683866
     1         11.88295561          0.49232176         -0.70146205

 Electric dipole moment (dipole orientation):
 (Debye = 10**-18 statcoulomb cm , SI units = C m)
                  (au)            (Debye)         (10**-30 SI)
   Tot        0.700730D+00      0.178108D+01      0.594103D+01
   x          0.000000D+00      0.000000D+00      0.000000D+00
   y          0.000000D+00      0.000000D+00      0.000000D+00
   z          0.700730D+00      0.178108D+01      0.594103D+01

 Dipole polarizability, Alpha (dipole orientation).
 (esu units = cm**3 , SI units = C**2 m**2 J**-1)
 Alpha(0;0):
               (au)            (10**-24 esu)      (10**-40 SI)
   iso        0.657733D+02      0.974659D+01      0.108445D+02
   aniso      0.299782D+02      0.444231D+01      0.494273D+01
   xx         0.762208D+02      0.112948D+02      0.125671D+02
   yx         0.828363D+00      0.122751D+00      0.136579D+00
   yy         0.471741D+02      0.699048D+01      0.777796D+01
   zx        -0.419970D+01     -0.622332D+00     -0.692438D+00
   zy         0.452502D+01      0.670538D+00      0.746074D+00
   zz         0.739249D+02      0.109545D+02      0.121886D+02

 ----------------------------------------------------------------------
 1\1\GINC-LEWIS4-R630-HPC4-NODE674\Freq\RB3LYP\6-31G(2df,p)\C6H7N1\LINJ
 IAN\31-May-2021\0\\#N Geom=AllCheck Guess=TCheck SCRF=Check GenChk RB3
 LYP/6-31G(2df,p) Freq\\Title Card Required\\0,1\C,1.2617254058,-0.2039
 217667,0.2834568534\C,2.7597744158,-0.0315342986,-0.0148354248\C,3.473
 2797451,0.5673952398,1.1751285174\C,5.2178635634,0.4045498373,1.318947
 6008\C,5.3473345856,1.1675441561,0.3060813025\C,4.7898668056,-0.379054
 6859,2.4338770959\N,3.5024876022,-0.2933102282,2.3750641786\H,0.758411
 7405,-0.6499660196,-0.5787367705\H,0.7828351032,0.7594065417,0.4876701
 831\H,1.1036777208,-0.8513515721,1.1493049773\H,2.9090884248,0.6160059
 15,-0.88161863\H,3.2153313864,-0.9996542584,-0.2471714233\H,3.17391697
 33,1.5865636824,1.4204973623\H,5.3700565276,-0.9220025427,3.1716541772
 \\Version=ES64L-G16RevA.03\State=1-A\HF=-287.4233631\RMSD=2.501e-09\RM
 SF=3.959e-05\ZeroPoint=0.1115782\Thermal=0.1190974\Dipole=-0.3573439,-
 0.4602485,0.3892283\DipoleDeriv=0.0811049,-0.0173595,0.0262975,-0.0829
 009,0.0949497,-0.0139487,-0.1350089,-0.0166965,0.0360154,0.0093615,-0.
 0217827,-0.0562238,0.050392,0.0740587,-0.0128578,0.0754286,0.0007554,0
 .0763545,0.869157,0.2107995,-0.0402275,0.1097763,0.2138837,0.1541154,0
 .0713227,0.1065063,0.1896079,-0.5927295,-0.161912,0.0702886,-0.2625682
 ,-0.2884403,0.3409667,0.2975576,0.3647482,-0.4810489,-0.2456616,0.0620
 17,-0.1172746,0.2746088,0.0141324,-0.3329586,-0.4139788,-0.3895765,0.1
 763783,0.3575394,-0.0367181,0.0426722,-0.0872259,0.3468011,-0.2643427,
 0.1372859,-0.2340463,0.5514877,-0.4417744,-0.1313119,0.1477859,-0.1173
 033,-0.4184275,0.0892126,0.0583757,0.1128456,-0.5704149,-0.0710438,-0.
 0427802,-0.072716,-0.052298,0.0373748,-0.0646998,-0.072092,-0.064377,-
 0.0454957,-0.0094947,0.0382531,0.0174672,0.0941616,-0.0973447,-0.03124
 4,0.037672,-0.0337267,0.0523077,0.0515825,0.008745,0.005915,-0.0104314
 ,0.009091,0.0701247,0.0588615,0.0779315,-0.0270232,-0.0028682,-0.02431
 41,0.0179186,-0.0353667,0.0122851,0.0629661,-0.0173687,0.046174,-0.025
 3803,-0.0313323,0.0607588,0.0163678,0.0402623,-0.0601098,-0.0461446,-0
 .0079736,-0.0139156,0.0352284,-0.0383453,0.0289096,-0.0129855,0.030347
 2,-0.0089193,-0.0222604,-0.0418955,-0.0247996,0.009242,0.0645048,0.026
 6956,-0.0452853,0.0485462,0.0706651,0.0710709,-0.0481866,0.0681772,0.0
 227411\Polar=78.5407671,5.0964766,54.3200217,2.2132798,-10.9879289,64.
 4590203\Quadrupole=0.4820181,-0.2417146,-0.2403036,-3.7195443,5.355361
 8,1.5707523\PG=C01 [X(C6H7N1)]\NImag=0\\0.45863608,-0.01130450,0.56522
 834,0.02302152,0.00023691,0.57000571,-0.17122932,-0.01044243,0.0190079
 8,0.44373535,-0.00780578,-0.07907023,0.00264979,-0.03885059,0.58307615
 ,0.02592094,0.00439413,-0.08285764,-0.02409295,-0.03640089,0.54013474,
 -0.02776166,-0.01368121,-0.02058194,-0.07991921,-0.01855907,-0.0436304
 5,0.29252078,-0.00627763,-0.00224506,-0.00144006,-0.01896723,-0.103764
 25,-0.04715633,-0.08739954,0.54327052,-0.00700689,0.00034211,0.0056953
 8,-0.04233933,-0.04461516,-0.15066709,0.08544454,0.08039648,0.40058354
 ,0.00191775,-0.00161261,-0.00665640,-0.01833076,-0.00122920,0.00561109
 ,-0.00586640,0.00946024,-0.00335632,0.15373370,-0.00060025,-0.00032715
 ,-0.00270092,-0.00874724,0.00166576,0.00275865,0.01191296,-0.03200022,
 -0.02368867,0.09558097,0.42664525,0.00024040,-0.00018988,-0.00135132,-
 0.00882516,0.00102917,0.00234241,-0.01043772,-0.02187994,-0.01683081,-
 0.13813825,-0.47700317,0.71907157,0.00042654,-0.00120091,-0.00040221,-
 0.01027578,-0.00145764,-0.00006490,-0.01575858,0.01230861,-0.01296706,
 0.00167856,-0.04416638,0.05904596,0.01725619,-0.00004072,0.00022330,0.
 00202309,-0.00062464,-0.00028882,-0.00141795,-0.00586563,-0.00689169,-
 0.00091484,-0.03649065,-0.27472560,0.34942900,0.03982805,0.27359585,-0
 .00018053,-0.00095177,-0.00280262,-0.00887321,-0.00086662,0.00388580,0
 .01079203,-0.00064594,-0.00579666,0.04799074,0.34737197,-0.47725878,-0
 .05048573,-0.34850839,0.47806794,0.00003736,-0.00018460,-0.00121989,-0
 .00026060,-0.00111276,0.00488872,-0.04447712,0.02227931,-0.02665509,-0
 .04434660,-0.01893315,0.02216532,0.00455527,-0.00789895,0.01238837,0.7
 7221450,-0.00047417,-0.00056166,-0.00165903,-0.00393870,-0.00189342,0.
 00198172,0.05223220,-0.00383970,0.02433650,-0.03154795,-0.14238994,0.1
 1207862,-0.00345661,0.00607107,0.00364220,-0.10514826,0.33684537,0.000
 56133,0.00097874,0.00193884,0.00602620,0.00567441,-0.00658751,-0.06769
 346,0.02249311,-0.01686051,0.04262264,0.11404058,-0.22098499,0.0047580
 2,0.00140303,0.00387042,0.11786628,-0.27673680,0.51581701,0.00031785,0
 .00040860,0.00118077,0.00418523,0.01159399,-0.01866901,-0.05932119,-0.
 00501278,0.00386060,-0.08118419,-0.03832069,0.05990296,0.00793105,0.00
 523991,-0.00907385,-0.55371234,0.02484288,-0.01180239,0.68667841,0.000
 72874,0.00039422,0.00047858,0.00450404,0.01004568,-0.00401935,-0.01866
 511,-0.11359034,0.03710594,-0.03560264,0.01966929,0.03079722,0.0013855
 0,-0.00013849,-0.00016843,0.04285320,-0.06882287,0.02220268,-0.0109401
 9,0.16827802,-0.00048092,-0.00080494,0.00139763,-0.00389090,0.01781385
 ,-0.02800071,0.01654462,0.03521211,-0.13228522,0.05771109,0.03138057,0
 .00016297,-0.00337844,-0.00101585,-0.00066638,-0.03171638,0.02422520,-
 0.08280091,-0.00766817,-0.10595160,0.23624223,-0.09795830,-0.04863496,
 -0.09538841,-0.01728092,-0.01392550,-0.02655720,-0.00382816,0.00086289
 ,0.00323653,-0.00198120,-0.00098047,-0.00035141,-0.00034674,0.00058966
 ,-0.00109383,-0.00030263,-0.00046536,0.00071409,0.00078145,-0.00008669
 ,0.00034422,0.10999607,-0.04921732,-0.09087353,-0.08667691,-0.00116282
 ,-0.00210208,-0.00217968,-0.00049044,0.00036103,0.00049626,-0.00025275
 ,-0.00008387,0.00005922,-0.00007498,0.00021553,-0.00027889,0.00002777,
 -0.00002160,0.00012384,0.00049002,0.,0.00020179,0.05426879,0.09459950,
 -0.09640703,-0.08672963,-0.21520645,0.00517108,0.00394330,0.00640631,0
 .00131721,0.00033348,0.00002226,0.00070279,0.00012622,0.00027319,0.000
 16689,-0.00003994,0.00017612,0.00005592,-0.00001170,-0.00008160,-0.000
 60419,0.00004356,-0.00009481,0.10361568,0.09517664,0.23104093,-0.09345
 663,0.09730873,0.02021191,-0.01533094,0.02958383,0.00550375,0.00090311
 ,0.00214539,0.00144750,0.00023219,-0.00031963,-0.00023588,0.00009362,-
 0.00026804,0.00000150,0.00005187,0.00008489,0.00002193,-0.00017754,-0.
 00024092,-0.00026443,0.00644528,-0.01352596,-0.00184402,0.10467092,0.0
 9830700,-0.25351614,-0.04215016,-0.00205608,0.00517508,0.00102818,-0.0
 0034103,0.00045870,-0.00020056,0.00022829,0.00013720,-0.00003445,0.000
 04989,-0.00000336,0.00013807,-0.00010889,-0.00005211,-0.00010466,0.000
 11734,0.00020906,0.00027062,0.00520361,-0.01153382,-0.00120422,-0.1081
 2793,0.27347979,0.02007997,-0.04167929,-0.05634748,0.00285933,-0.00600
 414,-0.00238189,-0.00082697,0.00086944,0.00037779,0.00013984,0.0000281
 8,0.00008542,-0.00010498,-0.00008306,0.00007083,0.00010858,0.00007583,
 -0.00011186,-0.00006050,-0.00023196,-0.00029511,0.01186553,-0.02316228
 ,-0.00442216,-0.02373173,0.04701718,0.05607411,-0.05090082,-0.01941736
 ,0.02668552,-0.00553193,-0.02095440,0.02704166,0.00114191,-0.00043518,
 0.00138714,0.00037199,0.00038219,-0.00053045,-0.00046463,-0.00037418,0
 .00006593,-0.00010421,0.00005288,0.00026429,0.00027600,0.00022073,-0.0
 0028799,0.00156732,0.00973707,-0.01089764,0.00147266,0.00732681,-0.011
 64389,0.05735341,-0.02091927,-0.14333847,0.12584794,-0.00107881,-0.002
 23514,0.00131607,-0.00013499,-0.00026628,0.00124971,0.00006708,0.00002
 785,-0.00024469,-0.00018766,-0.00003795,-0.00001524,0.00009578,0.00009
 787,-0.00011287,0.00068970,-0.00007136,0.00029614,0.00272693,0.0088404
 5,-0.01176785,-0.00408993,-0.01643913,0.02317664,0.02348036,0.15159996
 ,0.02878325,0.12654968,-0.21632259,0.00146734,0.00290464,-0.00432491,-
 0.00030431,-0.00040695,0.00006337,0.00023510,0.00011023,0.00010244,0.0
 0014285,-0.00005294,0.00006452,0.00003629,0.00006904,0.00003683,-0.000
 97356,-0.00021119,-0.00043731,0.00365548,0.01563448,-0.01895842,-0.001
 59634,-0.00493276,0.00601779,-0.03241570,-0.13914514,0.23268722,-0.006
 37786,-0.02006419,0.02679897,-0.04816474,-0.01995497,0.02892806,-0.000
 25760,0.01063904,-0.01374130,0.00022740,-0.00114313,0.00206358,-0.0004
 7239,0.00075263,-0.00137538,0.00149543,0.00036282,-0.00158631,-0.00187
 503,-0.00206001,-0.00315745,0.00145127,0.00005851,-0.00062301,0.001494
 50,0.00055933,-0.00018608,-0.00650691,-0.00038818,0.00087205,0.0581573
 6,-0.00036209,-0.00141301,0.00152582,-0.01855516,-0.14635969,0.1273365
 0,0.00192458,0.00870469,-0.01275655,-0.00005117,-0.00032922,0.00034663
 ,-0.00098273,-0.00024257,-0.00065615,-0.00026557,0.00036627,-0.0003487
 5,-0.00122654,-0.00057935,-0.00196240,-0.00017906,-0.00015595,-0.00002
 709,-0.00028265,0.00068949,-0.00041531,-0.00048862,0.00124901,-0.00037
 390,0.02374837,0.15371437,0.00148719,0.00249981,-0.00333339,0.02603446
 ,0.12408811,-0.21485939,0.00390177,0.01677013,-0.02167375,-0.00100985,
 -0.00117577,0.00090722,0.00158497,0.00097829,-0.00054723,0.00050066,0.
 00090361,-0.00198942,-0.00394321,-0.00345540,-0.00174567,0.00021303,-0
 .00016933,0.00062287,0.00002053,-0.00016092,0.00000460,0.00068371,-0.0
 0016735,0.00107668,-0.02860931,-0.13618598,0.23399775,-0.01576541,0.02
 881615,0.00705643,-0.08786357,0.09677714,0.02143413,0.00433511,-0.0167
 3592,-0.00468054,0.00092156,-0.00027503,0.00036700,0.00063933,-0.00002
 758,0.00023816,0.00042369,0.00033185,-0.00008133,0.00019420,0.00018045
 ,0.00115489,0.00137360,-0.00001551,-0.00066224,-0.00612349,-0.00157696
 ,0.00141799,0.00145170,-0.00025804,0.00005646,0.00096807,-0.00346281,-
 0.00093345,0.10071448,-0.00249343,0.00514673,0.00135235,0.09496198,-0.
 25317592,-0.04653654,0.00469512,-0.01496131,-0.00459550,0.00008335,0.0
 0043924,0.00068123,-0.00001982,0.00040028,0.00015938,-0.00021867,0.000
 46916,-0.00060845,-0.00023686,0.00087194,0.00112368,0.00064643,0.00045
 385,0.00011035,-0.00158149,0.00124571,0.00040565,0.00048581,0.00059990
 ,-0.00012214,0.00743082,-0.01640285,-0.00430994,-0.10242517,0.27469850
 ,0.00308405,-0.00496564,-0.00139952,0.02001810,-0.04466140,-0.05978077
 ,0.01114575,-0.02651950,-0.00883123,-0.00041496,0.00048485,0.00053267,
 0.00031314,0.00044889,-0.00022100,-0.00101481,-0.00004698,0.00046322,0
 .00149957,-0.00024330,0.00253156,-0.00029962,0.00043011,0.00029509,0.0
 0104584,0.00004726,0.00063783,-0.00023230,-0.00049923,-0.00000136,-0.0
 1032699,0.02275262,0.00622511,-0.02208296,0.05445925,0.06336249,0.0019
 7360,-0.00005237,0.00016938,0.00579181,-0.01511949,-0.00537635,-0.0556
 7238,0.07656069,0.01498757,-0.01485416,0.01229710,0.00548859,-0.005200
 28,0.00611516,-0.00160748,-0.00060552,-0.00347170,0.00333929,0.0048615
 4,-0.00011643,-0.00018412,0.00005934,0.00015477,0.00001525,-0.00027040
 ,0.00042476,0.00007581,-0.00011363,-0.00002359,0.00001950,0.00007848,0
 .00042145,0.00039581,-0.00123452,-0.00124894,-0.00275355,0.06512697,0.
 00049638,0.00026756,0.00024579,0.00442958,-0.00889524,-0.00212951,0.07
 295355,-0.28776047,-0.06549239,-0.00401741,0.00290356,-0.00121836,-0.0
 0254119,0.00157797,0.00085316,-0.00438996,-0.00367245,0.00390710,0.010
 16196,-0.01627648,0.00252939,-0.00014694,0.00026781,0.00009906,-0.0007
 3595,0.00015960,0.00000930,-0.00006475,-0.00004260,0.00001663,-0.00027
 749,0.00054764,-0.00011711,-0.00122127,0.00038514,-0.00157155,-0.07521
 160,0.30963469,0.00098599,0.00037086,0.00061451,0.00774561,-0.02423164
 ,-0.00443698,0.01419200,-0.06676263,-0.05975599,0.00214039,0.00083096,
 0.00021020,0.00230240,-0.00189496,0.00040775,0.00242142,0.00468345,-0.
 00320335,-0.01196356,0.02770884,0.00247178,0.00005850,0.00035449,-0.00
 003161,-0.00063469,0.00029502,0.00028798,-0.00011957,0.00005398,0.0000
 1952,0.00063034,0.00066140,0.00086091,-0.00325595,-0.00199032,-0.00368
 600,-0.01348204,0.06225508,0.06782523,0.00014081,0.00006167,0.00011638
 ,0.00047537,0.00101443,-0.00093748,-0.00603860,0.00057211,0.00038265,0
 .00748016,-0.00668726,0.00924507,-0.00006218,-0.00093504,0.00121330,-0
 .13496913,0.07059523,-0.09501059,-0.00895545,0.01783931,-0.02472603,0.
 00002361,0.00000286,-0.00000667,-0.00000515,-0.00000614,0.00000710,-0.
 00001287,0.00002062,0.00002158,-0.00021798,-0.00023801,-0.00032634,-0.
 00003476,-0.00007914,0.00001874,0.00005914,0.00056511,-0.00102086,0.14
 211703,-0.00003698,0.00008510,0.00026678,0.00052812,-0.00217788,0.0010
 2500,0.00141861,0.01252437,0.00833667,0.00538444,-0.00163217,0.0061494
 0,0.00051586,0.00024449,-0.00007335,0.07300474,-0.12259599,0.10708802,
 0.00219267,0.00001065,-0.00331856,0.00012067,0.00003267,-0.00005218,0.
 00004967,-0.00001007,-0.00000617,0.00004864,0.00001589,-0.00003969,0.0
 0033643,0.00021118,0.00050185,-0.00010730,-0.00017039,-0.00011538,-0.0
 0072982,0.00090325,-0.00233452,-0.08272575,0.11255890,-0.00008926,-0.0
 0005109,-0.00003106,-0.00030855,-0.00132342,0.00112762,0.00013692,0.00
 873659,0.00595893,-0.00757789,0.00743632,-0.00726218,-0.00091091,-0.00
 035435,0.00074930,-0.09982538,0.10645833,-0.18950617,-0.00168549,-0.00
 405559,0.00351994,-0.00001258,-0.00000975,-0.00004171,0.00005413,-0.00
 000862,0.00000215,-0.00000069,0.00001187,-0.00002377,0.00031282,0.0001
 0318,0.00045368,-0.00002858,-0.00012900,-0.00012810,-0.00108766,0.0006
 1341,-0.00158393,0.11102313,-0.11742787,0.18676531\\0.00000688,0.00000
 616,0.00002338,-0.00000111,-0.00000855,-0.00002641,-0.00009537,-0.0000
 2934,0.00000452,0.00006051,-0.00006422,0.00010589,0.00004318,0.0000878
 3,-0.00011135,-0.00000327,-0.00004402,0.00007569,-0.00001495,0.0000369
 5,-0.00004874,-0.00000304,0.00000256,-0.00000302,-0.00000006,-0.000000
 99,0.00000327,0.00000161,-0.00000109,-0.00000371,0.00000160,0.00000417
 ,-0.00000503,-0.00001270,0.00000397,-0.00000161,-0.00001674,0.00000090
 ,-0.00000271,0.00003345,0.00000565,-0.00001017\\\@


 Everywhere is walking distance if you have the time.
                                    -- Steven Wright
 Job cpu time:       0 days  1 hours 10 minutes 24.8 seconds.
 Elapsed time:       0 days  0 hours 17 minutes 37.4 seconds.
 File lengths (MBytes):  RWF=     65 Int=      0 D2E=      0 Chk=      5 Scr=      1
 Normal termination of Gaussian 16 at Mon May 31 17:16:37 2021.
### All Done ###
