### Starting Gaussian ###
 Entering Gaussian System, Link 0=g16
 Initial command:
 /cluster/software/gaussian/gaussian-16-A.03/avx2/g16/l1.exe "/local/scratch/cz9n3/Gau-3778.inp" -scrdir="/local/scratch/cz9n3/"
 Entering Link 1 = /cluster/software/gaussian/gaussian-16-A.03/avx2/g16/l1.exe PID=      3779.
  
 Copyright (c) 1988,1990,1992,1993,1995,1998,2003,2009,2016,
            Gaussian, Inc.  All Rights Reserved.
  
 This is part of the Gaussian(R) 16 program.  It is based on
 the Gaussian(R) 09 system (copyright 2009, Gaussian, Inc.),
 the Gaussian(R) 03 system (copyright 2003, Gaussian, Inc.),
 the Gaussian(R) 98 system (copyright 1998, Gaussian, Inc.),
 the Gaussian(R) 94 system (copyright 1995, Gaussian, Inc.),
 the Gaussian 92(TM) system (copyright 1992, Gaussian, Inc.),
 the Gaussian 90(TM) system (copyright 1990, Gaussian, Inc.),
 the Gaussian 88(TM) system (copyright 1988, Gaussian, Inc.),
 the Gaussian 86(TM) system (copyright 1986, Carnegie Mellon
 University), and the Gaussian 82(TM) system (copyright 1983,
 Carnegie Mellon University). Gaussian is a federally registered
 trademark of Gaussian, Inc.
  
 This software contains proprietary and confidential information,
 including trade secrets, belonging to Gaussian, Inc.
  
 This software is provided under written license and may be
 used, copied, transmitted, or stored only in accord with that
 written license.
  
 The following legend is applicable only to US Government
 contracts under FAR:
  
                    RESTRICTED RIGHTS LEGEND
  
 Use, reproduction and disclosure by the US Government is
 subject to restrictions as set forth in subparagraphs (a)
 and (c) of the Commercial Computer Software - Restricted
 Rights clause in FAR 52.227-19.
  
 Gaussian, Inc.
 340 Quinnipiac St., Bldg. 40, Wallingford CT 06492
  
  
 ---------------------------------------------------------------
 Warning -- This program may not be used in any manner that
 competes with the business of Gaussian, Inc. or will provide
 assistance to any competitor of Gaussian, Inc.  The licensee
 of this program is prohibited from giving any competitor of
 Gaussian, Inc. access to this program.  By using this program,
 the user acknowledges that Gaussian, Inc. is engaged in the
 business of creating and licensing software in the field of
 computational chemistry and represents and warrants to the
 licensee that it is not a competitor of Gaussian, Inc. and that
 it will not use this program in any manner prohibited above.
 ---------------------------------------------------------------
  

 Cite this work as:
 Gaussian 16, Revision A.03,
 M. J. Frisch, G. W. Trucks, H. B. Schlegel, G. E. Scuseria, 
 M. A. Robb, J. R. Cheeseman, G. Scalmani, V. Barone, 
 G. A. Petersson, H. Nakatsuji, X. Li, M. Caricato, A. V. Marenich, 
 J. Bloino, B. G. Janesko, R. Gomperts, B. Mennucci, H. P. Hratchian, 
 J. V. Ortiz, A. F. Izmaylov, J. L. Sonnenberg, D. Williams-Young, 
 F. Ding, F. Lipparini, F. Egidi, J. Goings, B. Peng, A. Petrone, 
 T. Henderson, D. Ranasinghe, V. G. Zakrzewski, J. Gao, N. Rega, 
 G. Zheng, W. Liang, M. Hada, M. Ehara, K. Toyota, R. Fukuda, 
 J. Hasegawa, M. Ishida, T. Nakajima, Y. Honda, O. Kitao, H. Nakai, 
 T. Vreven, K. Throssell, J. A. Montgomery, Jr., J. E. Peralta, 
 F. Ogliaro, M. J. Bearpark, J. J. Heyd, E. N. Brothers, K. N. Kudin, 
 V. N. Staroverov, T. A. Keith, R. Kobayashi, J. Normand, 
 K. Raghavachari, A. P. Rendell, J. C. Burant, S. S. Iyengar, 
 J. Tomasi, M. Cossi, J. M. Millam, M. Klene, C. Adamo, R. Cammi, 
 J. W. Ochterski, R. L. Martin, K. Morokuma, O. Farkas, 
 J. B. Foresman, and D. J. Fox, Gaussian, Inc., Wallingford CT, 2016.
 
 ******************************************
 Gaussian 16:  ES64L-G16RevA.03 25-Dec-2016
                 1-Jun-2021 
 ******************************************
 %chk=CCC1pCpCC1C.chk
 %NProcShared=20
 Will use up to   20 processors via shared memory.
 -----------------------------
 # opt freq b3lyp/6-31g(2df,p)
 -----------------------------
 1/18=20,19=15,26=3,38=1/1,3;
 2/9=110,12=2,17=6,18=5,40=1/2;
 3/5=1,6=6,7=104,11=2,25=1,30=1,71=1,74=-5/1,2,3;
 4//1;
 5/5=2,38=5/2;
 6/7=2,8=2,9=2,10=2,28=1/1;
 7//1,2,3,16;
 1/18=20,19=15,26=3/3(2);
 2/9=110/2;
 99//99;
 2/9=110/2;
 3/5=1,6=6,7=104,11=2,25=1,30=1,71=1,74=-5/1,2,3;
 4/5=5,16=3,69=1/1;
 5/5=2,38=5/2;
 7//1,2,3,16;
 1/18=20,19=15,26=3/3(-5);
 2/9=110/2;
 6/7=2,8=2,9=2,10=2,19=2,28=1/1;
 99/9=1/99;
 -------------------
 Title Card Required
 -------------------
 Symbolic Z-matrix:
 Charge =  0 Multiplicity = 1
 C                     0.78914  -0.0274    0.05007 
 C                     2.30352   0.03182   0.1034 
 C                     2.93259   0.90947  -0.97375 
 C                     4.00574   0.16455  -1.73252 
 C                     2.1083    1.96984  -1.69719 
 C                     3.0952    2.39728  -0.65743 
 C                     4.26427   3.23169  -1.06403 
 H                     0.41635  -0.79438   0.73471 
 H                     0.44488  -0.27549  -0.95972 
 H                     0.34799   0.92975   0.34252 
 H                     2.66628  -0.99726  -0.01374 
 H                     2.64531   0.35514   1.09338 
 H                     3.61204  -0.80099  -2.07283 
 H                     4.84917  -0.04264  -1.0648 
 H                     4.37433   0.69415  -2.61416 
 H                     1.05903   2.11745  -1.45963 
 H                     2.3213    2.1948   -2.73846 
 H                     2.69135   2.75911   0.28635 
 H                     4.65824   2.96458  -2.04934 
 H                     5.06914   3.1376   -0.33012 
 H                     3.97027   4.28685  -1.10206 
 

 GradGradGradGradGradGradGradGradGradGradGradGradGradGradGradGradGradGrad
 Berny optimization.
 Initialization pass.
                           ----------------------------
                           !    Initial Parameters    !
                           ! (Angstroms and Degrees)  !
 --------------------------                            --------------------------
 ! Name  Definition              Value          Derivative Info.                !
 --------------------------------------------------------------------------------
 ! R1    R(1,2)                  1.5165         estimate D2E/DX2                !
 ! R2    R(1,8)                  1.0936         estimate D2E/DX2                !
 ! R3    R(1,9)                  1.0953         estimate D2E/DX2                !
 ! R4    R(1,10)                 1.0937         estimate D2E/DX2                !
 ! R5    R(2,3)                  1.5252         estimate D2E/DX2                !
 ! R6    R(2,11)                 1.0974         estimate D2E/DX2                !
 ! R7    R(2,12)                 1.0961         estimate D2E/DX2                !
 ! R8    R(3,4)                  1.5107         estimate D2E/DX2                !
 ! R9    R(3,5)                  1.5255         estimate D2E/DX2                !
 ! R10   R(3,6)                  1.5297         estimate D2E/DX2                !
 ! R11   R(4,13)                 1.0968         estimate D2E/DX2                !
 ! R12   R(4,14)                 1.0955         estimate D2E/DX2                !
 ! R13   R(4,15)                 1.0925         estimate D2E/DX2                !
 ! R14   R(5,6)                  1.4959         estimate D2E/DX2                !
 ! R15   R(5,16)                 1.0859         estimate D2E/DX2                !
 ! R16   R(5,17)                 1.0864         estimate D2E/DX2                !
 ! R17   R(6,7)                  1.4927         estimate D2E/DX2                !
 ! R18   R(6,18)                 1.0885         estimate D2E/DX2                !
 ! R19   R(7,19)                 1.0943         estimate D2E/DX2                !
 ! R20   R(7,20)                 1.0933         estimate D2E/DX2                !
 ! R21   R(7,21)                 1.096          estimate D2E/DX2                !
 ! A1    A(2,1,8)              110.2297         estimate D2E/DX2                !
 ! A2    A(2,1,9)              110.8014         estimate D2E/DX2                !
 ! A3    A(2,1,10)             111.0514         estimate D2E/DX2                !
 ! A4    A(8,1,9)              108.1293         estimate D2E/DX2                !
 ! A5    A(8,1,10)             107.9907         estimate D2E/DX2                !
 ! A6    A(9,1,10)             108.5388         estimate D2E/DX2                !
 ! A7    A(1,2,3)              114.1743         estimate D2E/DX2                !
 ! A8    A(1,2,11)             106.8417         estimate D2E/DX2                !
 ! A9    A(1,2,12)             110.7736         estimate D2E/DX2                !
 ! A10   A(3,2,11)             109.1399         estimate D2E/DX2                !
 ! A11   A(3,2,12)             109.8472         estimate D2E/DX2                !
 ! A12   A(11,2,12)            105.6606         estimate D2E/DX2                !
 ! A13   A(2,3,4)              111.3434         estimate D2E/DX2                !
 ! A14   A(2,3,5)              120.7991         estimate D2E/DX2                !
 ! A15   A(2,3,6)              117.2239         estimate D2E/DX2                !
 ! A16   A(4,3,5)              119.2346         estimate D2E/DX2                !
 ! A17   A(4,3,6)              120.5255         estimate D2E/DX2                !
 ! A18   A(3,4,13)             109.5674         estimate D2E/DX2                !
 ! A19   A(3,4,14)             109.5134         estimate D2E/DX2                !
 ! A20   A(3,4,15)             113.9499         estimate D2E/DX2                !
 ! A21   A(13,4,14)            107.3954         estimate D2E/DX2                !
 ! A22   A(13,4,15)            107.3038         estimate D2E/DX2                !
 ! A23   A(14,4,15)            108.8922         estimate D2E/DX2                !
 ! A24   A(3,5,16)             120.8536         estimate D2E/DX2                !
 ! A25   A(3,5,17)             119.5069         estimate D2E/DX2                !
 ! A26   A(6,5,16)             116.524          estimate D2E/DX2                !
 ! A27   A(6,5,17)             118.5344         estimate D2E/DX2                !
 ! A28   A(16,5,17)            111.7763         estimate D2E/DX2                !
 ! A29   A(3,6,7)              124.791          estimate D2E/DX2                !
 ! A30   A(3,6,18)             117.5919         estimate D2E/DX2                !
 ! A31   A(5,6,7)              119.1484         estimate D2E/DX2                !
 ! A32   A(5,6,18)             116.9289         estimate D2E/DX2                !
 ! A33   A(7,6,18)             109.9342         estimate D2E/DX2                !
 ! A34   A(6,7,19)             113.0034         estimate D2E/DX2                !
 ! A35   A(6,7,20)             110.2188         estimate D2E/DX2                !
 ! A36   A(6,7,21)             109.7254         estimate D2E/DX2                !
 ! A37   A(19,7,20)            108.5655         estimate D2E/DX2                !
 ! A38   A(19,7,21)            107.4778         estimate D2E/DX2                !
 ! A39   A(20,7,21)            107.6754         estimate D2E/DX2                !
 ! D1    D(8,1,2,3)            170.6665         estimate D2E/DX2                !
 ! D2    D(8,1,2,11)            49.9107         estimate D2E/DX2                !
 ! D3    D(8,1,2,12)           -64.7016         estimate D2E/DX2                !
 ! D4    D(9,1,2,3)             51.014          estimate D2E/DX2                !
 ! D5    D(9,1,2,11)           -69.7418         estimate D2E/DX2                !
 ! D6    D(9,1,2,12)           175.6459         estimate D2E/DX2                !
 ! D7    D(10,1,2,3)           -69.6937         estimate D2E/DX2                !
 ! D8    D(10,1,2,11)          169.5505         estimate D2E/DX2                !
 ! D9    D(10,1,2,12)           54.9382         estimate D2E/DX2                !
 ! D10   D(1,2,3,4)           -128.0223         estimate D2E/DX2                !
 ! D11   D(1,2,3,5)             19.4753         estimate D2E/DX2                !
 ! D12   D(1,2,3,6)             87.4612         estimate D2E/DX2                !
 ! D13   D(11,2,3,4)            -8.5534         estimate D2E/DX2                !
 ! D14   D(11,2,3,5)           138.9441         estimate D2E/DX2                !
 ! D15   D(11,2,3,6)          -153.0699         estimate D2E/DX2                !
 ! D16   D(12,2,3,4)           106.8539         estimate D2E/DX2                !
 ! D17   D(12,2,3,5)          -105.6486         estimate D2E/DX2                !
 ! D18   D(12,2,3,6)           -37.6626         estimate D2E/DX2                !
 ! D19   D(2,3,4,13)            50.5738         estimate D2E/DX2                !
 ! D20   D(2,3,4,14)           -66.9802         estimate D2E/DX2                !
 ! D21   D(2,3,4,15)           170.7917         estimate D2E/DX2                !
 ! D22   D(5,3,4,13)           -97.4933         estimate D2E/DX2                !
 ! D23   D(5,3,4,14)           144.9526         estimate D2E/DX2                !
 ! D24   D(5,3,4,15)            22.7245         estimate D2E/DX2                !
 ! D25   D(6,3,4,13)          -166.24           estimate D2E/DX2                !
 ! D26   D(6,3,4,14)            76.2059         estimate D2E/DX2                !
 ! D27   D(6,3,4,15)           -46.0221         estimate D2E/DX2                !
 ! D28   D(2,3,5,16)            -0.1132         estimate D2E/DX2                !
 ! D29   D(2,3,5,17)          -146.6901         estimate D2E/DX2                !
 ! D30   D(4,3,5,16)           144.8896         estimate D2E/DX2                !
 ! D31   D(4,3,5,17)            -1.6872         estimate D2E/DX2                !
 ! D32   D(2,3,6,7)            142.0706         estimate D2E/DX2                !
 ! D33   D(2,3,6,18)            -4.1855         estimate D2E/DX2                !
 ! D34   D(4,3,6,7)              0.9474         estimate D2E/DX2                !
 ! D35   D(4,3,6,18)          -145.3087         estimate D2E/DX2                !
 ! D36   D(16,5,6,7)          -131.9954         estimate D2E/DX2                !
 ! D37   D(16,5,6,18)            4.1537         estimate D2E/DX2                !
 ! D38   D(17,5,6,7)             6.0206         estimate D2E/DX2                !
 ! D39   D(17,5,6,18)          142.1697         estimate D2E/DX2                !
 ! D40   D(3,6,7,19)            36.4175         estimate D2E/DX2                !
 ! D41   D(3,6,7,20)           -85.2485         estimate D2E/DX2                !
 ! D42   D(3,6,7,21)           156.3409         estimate D2E/DX2                !
 ! D43   D(5,6,7,19)           -36.236          estimate D2E/DX2                !
 ! D44   D(5,6,7,20)          -157.902          estimate D2E/DX2                !
 ! D45   D(5,6,7,21)            83.6875         estimate D2E/DX2                !
 ! D46   D(18,6,7,19)         -175.1621         estimate D2E/DX2                !
 ! D47   D(18,6,7,20)           63.1719         estimate D2E/DX2                !
 ! D48   D(18,6,7,21)          -55.2387         estimate D2E/DX2                !
 --------------------------------------------------------------------------------
 Trust Radius=3.00D-01 FncErr=1.00D-07 GrdErr=1.00D-06 EigMax=2.50D+02 EigMin=1.00D-04
 Number of steps in this run=    118 maximum allowed number of steps=    126.
 GradGradGradGradGradGradGradGradGradGradGradGradGradGradGradGradGradGrad

                          Input orientation:                          
 ---------------------------------------------------------------------
 Center     Atomic      Atomic             Coordinates (Angstroms)
 Number     Number       Type             X           Y           Z
 ---------------------------------------------------------------------
      1          6           0        0.789140   -0.027400    0.050070
      2          6           0        2.303520    0.031820    0.103400
      3          6           0        2.932590    0.909470   -0.973750
      4          6           0        4.005740    0.164550   -1.732520
      5          6           0        2.108300    1.969840   -1.697190
      6          6           0        3.095200    2.397280   -0.657430
      7          6           0        4.264270    3.231690   -1.064030
      8          1           0        0.416350   -0.794380    0.734710
      9          1           0        0.444880   -0.275490   -0.959720
     10          1           0        0.347990    0.929750    0.342520
     11          1           0        2.666280   -0.997260   -0.013740
     12          1           0        2.645310    0.355140    1.093380
     13          1           0        3.612040   -0.800990   -2.072830
     14          1           0        4.849170   -0.042640   -1.064800
     15          1           0        4.374330    0.694150   -2.614160
     16          1           0        1.059030    2.117450   -1.459630
     17          1           0        2.321300    2.194800   -2.738460
     18          1           0        2.691350    2.759110    0.286350
     19          1           0        4.658240    2.964580   -2.049340
     20          1           0        5.069140    3.137600   -0.330120
     21          1           0        3.970270    4.286850   -1.102060
 ---------------------------------------------------------------------
                    Distance matrix (angstroms):
                    1          2          3          4          5
     1  C    0.000000
     2  C    1.516475   0.000000
     3  C    2.553490   1.525205   0.000000
     4  C    3.682525   2.507144   1.510725   0.000000
     5  C    2.963455   2.652575   1.525518   2.619274   0.000000
     6  C    3.420167   2.607877   1.529732   2.640073   1.495920
     7  C    4.892792   3.930216   2.678475   3.149772   2.577084
     8  H    1.093601   2.154662   3.486173   4.459876   4.051882
     9  H    1.095326   2.163147   2.755545   3.670229   2.890041
    10  H    1.093744   2.165076   2.900540   4.274396   2.888061
    11  H    2.113848   1.097416   2.151316   2.469445   3.456737
    12  H    2.163377   1.096092   2.159361   3.142102   3.268473
    13  H    3.615786   2.672410   2.143666   1.096849   3.174876
    14  H    4.210346   2.801887   2.141981   1.095514   3.458665
    15  H    4.524637   3.480240   2.194521   1.092531   2.757374
    16  H    2.636743   2.888195   2.281561   3.545615   1.085906
    17  H    3.880926   3.571410   2.267146   2.823326   1.086379
    18  H    3.382140   2.760796   2.251048   3.540508   2.212990
    19  H    5.322537   4.333599   2.891062   2.892456   2.759658
    20  H    5.336682   4.181204   3.153358   3.454934   3.463974
    21  H    5.482677   4.726147   3.535525   4.170383   3.031443
                    6          7          8          9         10
     6  C    0.000000
     7  C    1.492745   0.000000
     8  H    4.393289   5.852452   0.000000
     9  H    3.776145   5.186418   1.772330   0.000000
    10  H    3.271194   4.755477   1.769494   1.777026   0.000000
    11  H    3.481553   4.641196   2.379816   2.520010   3.035582
    12  H    2.727283   3.943347   2.533437   3.074867   2.484280
    13  H    3.535451   4.207801   4.253793   3.397950   4.414000
    14  H    3.032420   3.326161   4.842855   4.411693   4.815258
    15  H    2.892338   2.975588   5.394095   4.372408   5.000888
    16  H    2.206313   3.416371   3.702286   2.520566   2.272433
    17  H    2.229485   2.766584   4.962554   3.575920   3.871271
    18  H    1.088456   2.126249   4.243105   3.975942   2.973390
    19  H    2.168487   1.094256   6.314614   5.425655   5.332896
    20  H    2.133458   1.093294   6.184075   5.781813   5.255122
    21  H    2.129300   1.096013   6.467068   5.767459   5.145663
                   11         12         13         14         15
    11  H    0.000000
    12  H    1.747896   0.000000
    13  H    2.274387   3.506578   0.000000
    14  H    2.604042   3.110140   1.766836   0.000000
    15  H    3.541255   4.104911   1.763397   1.780126   0.000000
    16  H    3.791473   3.484233   3.925706   4.380301   3.788131
    17  H    4.210981   4.262901   3.329239   3.767944   2.546043
    18  H    3.768421   2.536235   4.368949   3.785710   3.938203
    19  H    4.879318   4.553872   3.908274   3.170039   2.356794
    20  H    4.792797   3.955172   4.546721   3.271402   3.416145
    21  H    5.550374   4.694020   5.191998   4.417956   3.918827
                   16         17         18         19         20
    16  H    0.000000
    17  H    1.798531   0.000000
    18  H    2.474801   3.099171   0.000000
    19  H    3.744289   2.555139   3.060445   0.000000
    20  H    4.289228   3.773539   2.485392   1.776089   0.000000
    21  H    3.648215   3.126273   2.428437   1.766080   1.767536
                   21
    21  H    0.000000
 Stoichiometry    C7H14
 Framework group  C1[X(C7H14)]
 Deg. of freedom    57
 Full point group                 C1      NOp   1
 Largest Abelian subgroup         C1      NOp   1
 Largest concise Abelian subgroup C1      NOp   1
                         Standard orientation:                         
 ---------------------------------------------------------------------
 Center     Atomic      Atomic             Coordinates (Angstroms)
 Number     Number       Type             X           Y           Z
 ---------------------------------------------------------------------
      1          6           0       -2.446223   -0.627883    0.021678
      2          6           0       -1.433426    0.264398   -0.669534
      3          6           0       -0.088997    0.353567    0.045176
      4          6           0        0.319841    1.790402    0.270220
      5          6           0        0.328755   -0.707386    1.058618
      6          6           0        0.957992   -0.707452   -0.298525
      7          6           0        2.423292   -0.449989   -0.420579
      8          1           0       -3.428717   -0.517457   -0.445734
      9          1           0       -2.540501   -0.362075    1.080072
     10          1           0       -2.155257   -1.679904   -0.048082
     11          1           0       -1.878186    1.266073   -0.725730
     12          1           0       -1.282438   -0.050998   -1.708353
     13          1           0       -0.507035    2.338670    0.737936
     14          1           0        0.525290    2.267744   -0.694190
     15          1           0        1.193429    1.907011    0.915875
     16          1           0       -0.324002   -1.543637    1.290532
     17          1           0        0.936673   -0.421764    1.912477
     18          1           0        0.663401   -1.504753   -0.978425
     19          1           0        2.789846    0.285619    0.301858
     20          1           0        2.662480   -0.097959   -1.427633
     21          1           0        2.977603   -1.380514   -0.252928
 ---------------------------------------------------------------------
 Rotational constants (GHZ):           4.0674956           1.8420468           1.5684463
 Standard basis: 6-31G(2df,p) (6D, 7F)
 There are   287 symmetry adapted cartesian basis functions of A   symmetry.
 There are   266 symmetry adapted basis functions of A   symmetry.
   266 basis functions,   406 primitive gaussians,   287 cartesian basis functions
    28 alpha electrons       28 beta electrons
       nuclear repulsion energy       322.3092223262 Hartrees.
 NAtoms=   21 NActive=   21 NUniq=   21 SFac= 1.00D+00 NAtFMM=   60 NAOKFM=F Big=F
 Integral buffers will be    131072 words long.
 Raffenetti 2 integral format.
 Two-electron integral symmetry is turned on.
 One-electron integrals computed using PRISM.
 PrsmSu:  requested number of processors reduced to:  13 ShMem   1 Linda.
 NBasis=   266 RedAO= T EigKep=  6.28D-04  NBF=   266
 NBsUse=   266 1.00D-06 EigRej= -1.00D+00 NBFU=   266
 ExpMin= 1.61D-01 ExpMax= 3.05D+03 ExpMxC= 4.57D+02 IAcc=3 IRadAn=         5 AccDes= 0.00D+00
 Harris functional with IExCor=  402 and IRadAn=       5 diagonalized for initial guess.
 HarFok:  IExCor=  402 AccDes= 0.00D+00 IRadAn=         5 IDoV= 1 UseB2=F ITyADJ=14
 ICtDFT=  3500011 ScaDFX=  1.000000  1.000000  1.000000  1.000000
 FoFCou: FMM=F IPFlag=           0 FMFlag=      100000 FMFlg1=           0
         NFxFlg=           0 DoJE=T BraDBF=F KetDBF=T FulRan=T
         wScrn=  0.000000 ICntrl=       500 IOpCl=  0 I1Cent=   200000004 NGrid=           0
         NMat0=    1 NMatS0=      1 NMatT0=    0 NMatD0=    1 NMtDS0=    0 NMtDT0=    0
 Petite list used in FoFCou.
 Requested convergence on RMS density matrix=1.00D-08 within 128 cycles.
 Requested convergence on MAX density matrix=1.00D-06.
 Requested convergence on             energy=1.00D-06.
 No special actions if energy rises.
 Integral accuracy reduced to 1.0D-05 until final iterations.
 Initial convergence to 1.0D-05 achieved.  Increase integral accuracy.
 SCF Done:  E(RB3LYP) =  -275.170260178     A.U. after   12 cycles
            NFock= 12  Conv=0.34D-08     -V/T= 2.0089

 **********************************************************************

            Population analysis using the SCF density.

 **********************************************************************

 Orbital symmetries:
       Occupied  (A) (A) (A) (A) (A) (A) (A) (A) (A) (A) (A) (A)
                 (A) (A) (A) (A) (A) (A) (A) (A) (A) (A) (A) (A)
                 (A) (A) (A) (A)
       Virtual   (A) (A) (A) (A) (A) (A) (A) (A) (A) (A) (A) (A)
                 (A) (A) (A) (A) (A) (A) (A) (A) (A) (A) (A) (A)
                 (A) (A) (A) (A) (A) (A) (A) (A) (A) (A) (A) (A)
                 (A) (A) (A) (A) (A) (A) (A) (A) (A) (A) (A) (A)
                 (A) (A) (A) (A) (A) (A) (A) (A) (A) (A) (A) (A)
                 (A) (A) (A) (A) (A) (A) (A) (A) (A) (A) (A) (A)
                 (A) (A) (A) (A) (A) (A) (A) (A) (A) (A) (A) (A)
                 (A) (A) (A) (A) (A) (A) (A) (A) (A) (A) (A) (A)
                 (A) (A) (A) (A) (A) (A) (A) (A) (A) (A) (A) (A)
                 (A) (A) (A) (A) (A) (A) (A) (A) (A) (A) (A) (A)
                 (A) (A) (A) (A) (A) (A) (A) (A) (A) (A) (A) (A)
                 (A) (A) (A) (A) (A) (A) (A) (A) (A) (A) (A) (A)
                 (A) (A) (A) (A) (A) (A) (A) (A) (A) (A) (A) (A)
                 (A) (A) (A) (A) (A) (A) (A) (A) (A) (A) (A) (A)
                 (A) (A) (A) (A) (A) (A) (A) (A) (A) (A) (A) (A)
                 (A) (A) (A) (A) (A) (A) (A) (A) (A) (A) (A) (A)
                 (A) (A) (A) (A) (A) (A) (A) (A) (A) (A) (A) (A)
                 (A) (A) (A) (A) (A) (A) (A) (A) (A) (A) (A) (A)
                 (A) (A) (A) (A) (A) (A) (A) (A) (A) (A) (A) (A)
                 (A) (A) (A) (A) (A) (A) (A) (A) (A) (A)
 The electronic state is 1-A.
 Alpha  occ. eigenvalues --  -10.18822 -10.17660 -10.17297 -10.16996 -10.16960
 Alpha  occ. eigenvalues --  -10.16769 -10.16713  -0.85897  -0.75855  -0.71352
 Alpha  occ. eigenvalues --   -0.69244  -0.62142  -0.56322  -0.52331  -0.47824
 Alpha  occ. eigenvalues --   -0.45156  -0.42801  -0.40888  -0.40397  -0.39984
 Alpha  occ. eigenvalues --   -0.38046  -0.36958  -0.35592  -0.34729  -0.32959
 Alpha  occ. eigenvalues --   -0.31225  -0.26752  -0.25079
 Alpha virt. eigenvalues --    0.08638   0.10715   0.11833   0.12907   0.13481
 Alpha virt. eigenvalues --    0.15124   0.15530   0.15934   0.16486   0.17390
 Alpha virt. eigenvalues --    0.18249   0.19095   0.20058   0.21654   0.22006
 Alpha virt. eigenvalues --    0.23125   0.25053   0.27287   0.30250   0.31510
 Alpha virt. eigenvalues --    0.33179   0.43460   0.44704   0.46996   0.49190
 Alpha virt. eigenvalues --    0.49388   0.49834   0.50620   0.53834   0.53945
 Alpha virt. eigenvalues --    0.56092   0.57873   0.59499   0.61467   0.62524
 Alpha virt. eigenvalues --    0.64577   0.67181   0.68861   0.69223   0.70835
 Alpha virt. eigenvalues --    0.71912   0.73865   0.74214   0.75196   0.75432
 Alpha virt. eigenvalues --    0.75801   0.77582   0.77764   0.78780   0.79474
 Alpha virt. eigenvalues --    0.80050   0.82493   0.83942   0.85979   0.87544
 Alpha virt. eigenvalues --    0.91119   0.92145   1.00095   1.02628   1.06232
 Alpha virt. eigenvalues --    1.07577   1.10365   1.12731   1.14765   1.21478
 Alpha virt. eigenvalues --    1.22586   1.25008   1.27922   1.31701   1.33181
 Alpha virt. eigenvalues --    1.34476   1.37240   1.40382   1.41722   1.45776
 Alpha virt. eigenvalues --    1.48253   1.52366   1.53329   1.54896   1.57352
 Alpha virt. eigenvalues --    1.58981   1.60355   1.61553   1.66859   1.68064
 Alpha virt. eigenvalues --    1.70836   1.72826   1.74794   1.79534   1.80746
 Alpha virt. eigenvalues --    1.85140   1.87435   1.89980   1.92963   1.94043
 Alpha virt. eigenvalues --    1.96452   1.97083   1.97479   2.01570   2.03831
 Alpha virt. eigenvalues --    2.05918   2.18052   2.23223   2.24938   2.25808
 Alpha virt. eigenvalues --    2.28162   2.32358   2.33327   2.34422   2.36412
 Alpha virt. eigenvalues --    2.41215   2.42902   2.43662   2.46881   2.48064
 Alpha virt. eigenvalues --    2.54147   2.61958   2.64351   2.66289   2.67660
 Alpha virt. eigenvalues --    2.69768   2.74694   2.77616   2.79681   2.80320
 Alpha virt. eigenvalues --    2.82273   2.84992   2.85901   2.86720   2.89157
 Alpha virt. eigenvalues --    2.89819   2.91375   2.91929   2.93227   2.94744
 Alpha virt. eigenvalues --    2.96667   2.99257   3.01341   3.02751   3.04498
 Alpha virt. eigenvalues --    3.05088   3.10474   3.13602   3.17537   3.19309
 Alpha virt. eigenvalues --    3.21757   3.22939   3.25405   3.28984   3.30674
 Alpha virt. eigenvalues --    3.33006   3.34255   3.37751   3.39039   3.43309
 Alpha virt. eigenvalues --    3.44542   3.47541   3.49475   3.51393   3.53836
 Alpha virt. eigenvalues --    3.58968   3.60405   3.61088   3.65282   3.66002
 Alpha virt. eigenvalues --    3.67986   3.68294   3.73983   3.76207   3.81116
 Alpha virt. eigenvalues --    3.85599   3.86925   3.90371   3.91964   3.94030
 Alpha virt. eigenvalues --    3.94926   4.01001   4.03496   4.07935   4.11295
 Alpha virt. eigenvalues --    4.17175   4.24539   4.25402   4.35889   4.37702
 Alpha virt. eigenvalues --    4.39564   4.41139   4.44866   4.47266   4.49672
 Alpha virt. eigenvalues --    4.51082   4.53624   4.55100   4.56362   4.61552
 Alpha virt. eigenvalues --    4.63451   4.67411   4.68085   4.69935   4.70616
 Alpha virt. eigenvalues --    4.73035   4.74478   4.74619   4.77127   4.77380
 Alpha virt. eigenvalues --    4.78045   4.80285   4.82411   4.84345   4.87738
 Alpha virt. eigenvalues --    4.89809   4.92968   4.94103   4.96201   5.00545
 Alpha virt. eigenvalues --    5.01988   5.04645   5.08444   5.22041   5.27998
 Alpha virt. eigenvalues --    5.38628   5.39373   5.43112   5.48943   5.52861
 Alpha virt. eigenvalues --    5.56932   5.65228   5.67870   5.83106   6.24142
 Alpha virt. eigenvalues --    6.43310  10.86360  11.38378  11.71887  11.76223
 Alpha virt. eigenvalues --   12.07977  12.45158  12.68427
          Condensed to atoms (all electrons):
               1          2          3          4          5          6
     1  C    4.943254   0.396996  -0.023485   0.002761  -0.012917   0.002310
     2  C    0.396996   4.956629   0.427856  -0.065596  -0.047670  -0.029743
     3  C   -0.023485   0.427856   4.304290   0.405078   0.347142   0.362237
     4  C    0.002761  -0.065596   0.405078   5.136145  -0.036992  -0.036166
     5  C   -0.012917  -0.047670   0.347142  -0.036992   5.082460   0.329477
     6  C    0.002310  -0.029743   0.362237  -0.036166   0.329477   4.705012
     7  C    0.000047   0.002220  -0.009748  -0.010853  -0.027256   0.409178
     8  H    0.369086  -0.022888   0.002790  -0.000215   0.000602  -0.000129
     9  H    0.381468  -0.031089  -0.004537   0.000928   0.002691  -0.000245
    10  H    0.379096  -0.026614  -0.005650  -0.000002  -0.000339   0.000475
    11  H   -0.037552   0.355544  -0.025435  -0.016779   0.003702   0.004234
    12  H   -0.037420   0.354078  -0.021234   0.005319   0.004131  -0.013932
    13  H    0.000803  -0.008646  -0.019598   0.362468  -0.001967   0.005089
    14  H   -0.000014  -0.002809  -0.021435   0.361789   0.005399  -0.004874
    15  H   -0.000216   0.005808  -0.007392   0.356702  -0.006315  -0.005867
    16  H    0.005260  -0.013203  -0.008373   0.003635   0.362226  -0.019936
    17  H    0.000003   0.003995  -0.014868  -0.009376   0.367684  -0.020641
    18  H    0.000135  -0.011222  -0.040011   0.004371  -0.031063   0.382606
    19  H   -0.000006  -0.000031  -0.010046   0.001534  -0.006378  -0.015350
    20  H   -0.000006   0.000352  -0.002238   0.000955   0.005357  -0.030128
    21  H    0.000003  -0.000069   0.003280   0.000077  -0.003442  -0.020992
               7          8          9         10         11         12
     1  C    0.000047   0.369086   0.381468   0.379096  -0.037552  -0.037420
     2  C    0.002220  -0.022888  -0.031089  -0.026614   0.355544   0.354078
     3  C   -0.009748   0.002790  -0.004537  -0.005650  -0.025435  -0.021234
     4  C   -0.010853  -0.000215   0.000928  -0.000002  -0.016779   0.005319
     5  C   -0.027256   0.000602   0.002691  -0.000339   0.003702   0.004131
     6  C    0.409178  -0.000129  -0.000245   0.000475   0.004234  -0.013932
     7  C    5.002592   0.000004  -0.000004  -0.000053  -0.000182   0.000348
     8  H    0.000004   0.617835  -0.031753  -0.032415  -0.005533  -0.000372
     9  H   -0.000004  -0.031753   0.595569  -0.034949  -0.003272   0.005795
    10  H   -0.000053  -0.032415  -0.034949   0.602599   0.006026  -0.006254
    11  H   -0.000182  -0.005533  -0.003272   0.006026   0.659135  -0.041171
    12  H    0.000348  -0.000372   0.005795  -0.006254  -0.041171   0.649856
    13  H    0.000040  -0.000069   0.000252  -0.000002   0.006578  -0.000138
    14  H    0.001283   0.000011   0.000020  -0.000004   0.001912   0.001028
    15  H    0.000994   0.000004  -0.000051   0.000008   0.000274  -0.000257
    16  H    0.002732  -0.000224   0.001040   0.002921   0.000192  -0.000004
    17  H   -0.010180  -0.000011  -0.000164   0.000105   0.000022  -0.000148
    18  H   -0.061236  -0.000073   0.000101   0.001171   0.000181   0.005428
    19  H    0.368726   0.000000   0.000000   0.000001   0.000009   0.000014
    20  H    0.369441  -0.000000  -0.000000  -0.000000  -0.000019   0.000011
    21  H    0.369459  -0.000000  -0.000000   0.000002   0.000003  -0.000032
              13         14         15         16         17         18
     1  C    0.000803  -0.000014  -0.000216   0.005260   0.000003   0.000135
     2  C   -0.008646  -0.002809   0.005808  -0.013203   0.003995  -0.011222
     3  C   -0.019598  -0.021435  -0.007392  -0.008373  -0.014868  -0.040011
     4  C    0.362468   0.361789   0.356702   0.003635  -0.009376   0.004371
     5  C   -0.001967   0.005399  -0.006315   0.362226   0.367684  -0.031063
     6  C    0.005089  -0.004874  -0.005867  -0.019936  -0.020641   0.382606
     7  C    0.000040   0.001283   0.000994   0.002732  -0.010180  -0.061236
     8  H   -0.000069   0.000011   0.000004  -0.000224  -0.000011  -0.000073
     9  H    0.000252   0.000020  -0.000051   0.001040  -0.000164   0.000101
    10  H   -0.000002  -0.000004   0.000008   0.002921   0.000105   0.001171
    11  H    0.006578   0.001912   0.000274   0.000192   0.000022   0.000181
    12  H   -0.000138   0.001028  -0.000257  -0.000004  -0.000148   0.005428
    13  H    0.609633  -0.036692  -0.031952   0.000131   0.000783  -0.000111
    14  H   -0.036692   0.611996  -0.032564  -0.000147  -0.000033   0.000330
    15  H   -0.031952  -0.032564   0.605176  -0.000081   0.003532  -0.000167
    16  H    0.000131  -0.000147  -0.000081   0.610996  -0.041962  -0.007995
    17  H    0.000783  -0.000033   0.003532  -0.041962   0.614640   0.003141
    18  H   -0.000111   0.000330  -0.000167  -0.007995   0.003141   0.681867
    19  H   -0.000092   0.000589   0.002654  -0.000140   0.003413   0.006378
    20  H   -0.000032  -0.000046   0.000182  -0.000164   0.000059  -0.001651
    21  H    0.000002  -0.000050  -0.000025   0.000330   0.001186  -0.003764
              19         20         21
     1  C   -0.000006  -0.000006   0.000003
     2  C   -0.000031   0.000352  -0.000069
     3  C   -0.010046  -0.002238   0.003280
     4  C    0.001534   0.000955   0.000077
     5  C   -0.006378   0.005357  -0.003442
     6  C   -0.015350  -0.030128  -0.020992
     7  C    0.368726   0.369441   0.369459
     8  H    0.000000  -0.000000  -0.000000
     9  H    0.000000  -0.000000  -0.000000
    10  H    0.000001  -0.000000   0.000002
    11  H    0.000009  -0.000019   0.000003
    12  H    0.000014   0.000011  -0.000032
    13  H   -0.000092  -0.000032   0.000002
    14  H    0.000589  -0.000046  -0.000050
    15  H    0.002654   0.000182  -0.000025
    16  H   -0.000140  -0.000164   0.000330
    17  H    0.003413   0.000059   0.001186
    18  H    0.006378  -0.001651  -0.003764
    19  H    0.602931  -0.031904  -0.032530
    20  H   -0.031904   0.616821  -0.035484
    21  H   -0.032530  -0.035484   0.609213
 Mulliken charges:
               1
     1  C   -0.369607
     2  C   -0.243900
     3  C    0.361378
     4  C   -0.465783
     5  C   -0.336533
     6  C   -0.002617
     7  C   -0.407553
     8  H    0.103349
     9  H    0.118200
    10  H    0.113877
    11  H    0.092132
    12  H    0.094955
    13  H    0.113517
    14  H    0.114309
    15  H    0.109553
    16  H    0.102764
    17  H    0.098822
    18  H    0.071584
    19  H    0.110227
    20  H    0.108493
    21  H    0.112833
 Sum of Mulliken charges =  -0.00000
 Mulliken charges with hydrogens summed into heavy atoms:
               1
     1  C   -0.034181
     2  C   -0.056813
     3  C    0.361378
     4  C   -0.128404
     5  C   -0.134947
     6  C    0.068967
     7  C   -0.076000
 Electronic spatial extent (au):  <R**2>=            917.2874
 Charge=             -0.0000 electrons
 Dipole moment (field-independent basis, Debye):
    X=             -0.0279    Y=              0.0252    Z=             -0.1072  Tot=              0.1136
 Quadrupole moment (field-independent basis, Debye-Ang):
   XX=            -46.7494   YY=            -46.1508   ZZ=            -46.0971
   XY=             -0.1913   XZ=              0.4764   YZ=              0.4556
 Traceless Quadrupole moment (field-independent basis, Debye-Ang):
   XX=             -0.4170   YY=              0.1817   ZZ=              0.2353
   XY=             -0.1913   XZ=              0.4764   YZ=              0.4556
 Octapole moment (field-independent basis, Debye-Ang**2):
  XXX=             -1.0088  YYY=             -2.0416  ZZZ=             -0.3159  XYY=             -0.5810
  XXY=              1.6941  XXZ=              0.5693  XZZ=              1.1374  YZZ=              0.1270
  YYZ=             -0.7781  XYZ=              0.4421
 Hexadecapole moment (field-independent basis, Debye-Ang**3):
 XXXX=           -780.5874 YYYY=           -325.0236 ZZZZ=           -173.0124 XXXY=             -5.6294
 XXXZ=              6.6662 YYYX=             -3.0447 YYYZ=              0.3057 ZZZX=             -0.0337
 ZZZY=              0.0242 XXYY=           -181.3190 XXZZ=           -155.3876 YYZZ=            -82.2985
 XXYZ=              2.3031 YYXZ=             -1.3107 ZZXY=              1.2009
 N-N= 3.223092223262D+02 E-N=-1.280262333224D+03  KE= 2.727532953057D+02
 PrsmSu:  requested number of processors reduced to:  13 ShMem   1 Linda.
 Calling FoFJK, ICntrl=      2127 FMM=F ISym2X=0 I1Cent= 0 IOpClX= 0 NMat=1 NMatS=1 NMatT=0.
 ***** Axes restored to original set *****
 -------------------------------------------------------------------
 Center     Atomic                   Forces (Hartrees/Bohr)
 Number     Number              X              Y              Z
 -------------------------------------------------------------------
      1        6          -0.006170741   -0.000779616    0.004517959
      2        6          -0.000791630   -0.004289273    0.000817991
      3        6           0.000658634    0.013994873    0.000830509
      4        6           0.002076467    0.000273635   -0.002542984
      5        6          -0.010516204   -0.000817724    0.002141903
      6        6          -0.000036830   -0.002313736   -0.005319475
      7        6           0.010438954    0.003144944   -0.000541608
      8        1          -0.002150766    0.000422625    0.000973732
      9        1          -0.000657894    0.000406643    0.001185965
     10        1          -0.003051215   -0.000322430   -0.000681752
     11        1           0.002702356    0.001597701   -0.000614529
     12        1          -0.001215812   -0.000279262    0.001063435
     13        1           0.000787097    0.000590292   -0.001063437
     14        1           0.002345341   -0.001267559   -0.001785127
     15        1           0.001182057    0.001413963    0.000786387
     16        1          -0.000422024   -0.005137067   -0.000689404
     17        1           0.003590283   -0.001822762    0.000003524
     18        1          -0.004843787   -0.006902647    0.001430174
     19        1           0.000580523   -0.000327273    0.000770153
     20        1           0.004365774    0.001784718   -0.000707098
     21        1           0.001129418    0.000629955   -0.000576318
 -------------------------------------------------------------------
 Cartesian Forces:  Max     0.013994873 RMS     0.003437514

 GradGradGradGradGradGradGradGradGradGradGradGradGradGradGradGradGradGrad
 Berny optimization.
 FormGI is forming the generalized inverse of G from B-inverse, IUseBI=4.
 Internal  Forces:  Max     0.016144644 RMS     0.003549521
 Search for a local minimum.
 Step number   1 out of a maximum of  118
 All quantities printed in internal units (Hartrees-Bohrs-Radians)
 Mixed Optimization -- RFO/linear search
 Second derivative matrix not updated -- first step.
 ITU=  0
     Eigenvalues ---    0.00433   0.00548   0.00624   0.00862   0.01809
     Eigenvalues ---    0.01989   0.02423   0.03081   0.03441   0.03820
     Eigenvalues ---    0.04136   0.04892   0.05419   0.05648   0.05672
     Eigenvalues ---    0.05752   0.05947   0.06035   0.08678   0.09332
     Eigenvalues ---    0.10149   0.11894   0.12452   0.15397   0.16000
     Eigenvalues ---    0.16000   0.16000   0.16000   0.16000   0.16000
     Eigenvalues ---    0.16000   0.16000   0.16000   0.17174   0.18238
     Eigenvalues ---    0.21907   0.23779   0.25544   0.29871   0.30709
     Eigenvalues ---    0.30808   0.31278   0.33151   0.33969   0.34033
     Eigenvalues ---    0.34118   0.34127   0.34183   0.34204   0.34325
     Eigenvalues ---    0.34384   0.34400   0.34435   0.34522   0.34992
     Eigenvalues ---    0.35234   0.35290
 RFO step:  Lambda=-7.37886194D-03 EMin= 4.32531885D-03
 Linear search not attempted -- first point.
 Iteration  1 RMS(Cart)=  0.06181830 RMS(Int)=  0.00131222
 Iteration  2 RMS(Cart)=  0.00160760 RMS(Int)=  0.00050741
 Iteration  3 RMS(Cart)=  0.00000151 RMS(Int)=  0.00050741
 Iteration  4 RMS(Cart)=  0.00000000 RMS(Int)=  0.00050741
 Variable       Old X    -DE/DX   Delta X   Delta X   Delta X     New X
                                 (Linear)    (Quad)   (Total)
    R1        2.86572   0.01181   0.00000   0.03756   0.03756   2.90328
    R2        2.06661   0.00105   0.00000   0.00298   0.00298   2.06959
    R3        2.06987  -0.00098   0.00000  -0.00280  -0.00280   2.06706
    R4        2.06688   0.00077   0.00000   0.00218   0.00218   2.06906
    R5        2.88222   0.01167   0.00000   0.03813   0.03813   2.92035
    R6        2.07382  -0.00054   0.00000  -0.00155  -0.00155   2.07226
    R7        2.07131   0.00050   0.00000   0.00143   0.00143   2.07274
    R8        2.85486   0.00635   0.00000   0.01985   0.01985   2.87471
    R9        2.88281  -0.00452   0.00000  -0.01945  -0.01884   2.86397
   R10        2.89077  -0.00672   0.00000  -0.02720  -0.02730   2.86347
   R11        2.07274  -0.00047   0.00000  -0.00136  -0.00136   2.07139
   R12        2.07022   0.00096   0.00000   0.00274   0.00274   2.07296
   R13        2.06458   0.00045   0.00000   0.00128   0.00128   2.06586
   R14        2.82688   0.00557   0.00000   0.02549   0.02498   2.85186
   R15        2.05206  -0.00044   0.00000  -0.00122  -0.00122   2.05084
   R16        2.05296   0.00032   0.00000   0.00090   0.00090   2.05386
   R17        2.82088   0.01614   0.00000   0.04764   0.04764   2.86852
   R18        2.05688   0.00074   0.00000   0.00208   0.00208   2.05896
   R19        2.06784  -0.00041   0.00000  -0.00116  -0.00116   2.06669
   R20        2.06603   0.00259   0.00000   0.00735   0.00735   2.07338
   R21        2.07116   0.00032   0.00000   0.00093   0.00093   2.07209
    A1        1.92387   0.00185   0.00000   0.01172   0.01164   1.93551
    A2        1.93385   0.00033   0.00000   0.00151   0.00150   1.93535
    A3        1.93821   0.00362   0.00000   0.02143   0.02134   1.95955
    A4        1.88721  -0.00108   0.00000  -0.00603  -0.00604   1.88117
    A5        1.88479  -0.00271   0.00000  -0.01526  -0.01541   1.86939
    A6        1.89436  -0.00227   0.00000  -0.01486  -0.01487   1.87948
    A7        1.99272   0.00982   0.00000   0.04732   0.04717   2.03989
    A8        1.86474   0.00003   0.00000   0.02072   0.02062   1.88536
    A9        1.93336  -0.00508   0.00000  -0.03164  -0.03133   1.90204
   A10        1.90485  -0.00466   0.00000  -0.01967  -0.02068   1.88417
   A11        1.91720  -0.00202   0.00000  -0.01186  -0.01160   1.90560
   A12        1.84413   0.00132   0.00000  -0.00813  -0.00820   1.83592
   A13        1.94331   0.00721   0.00000   0.02880   0.02875   1.97206
   A14        2.10834  -0.00495   0.00000  -0.01090  -0.01079   2.09755
   A15        2.04594   0.00017   0.00000   0.00158   0.00161   2.04755
   A16        2.08104  -0.00238   0.00000  -0.01738  -0.01736   2.06367
   A17        2.10357  -0.00767   0.00000  -0.03357  -0.03340   2.07016
   A18        1.91231   0.00131   0.00000   0.01031   0.01016   1.92247
   A19        1.91137   0.00431   0.00000   0.02673   0.02663   1.93800
   A20        1.98880  -0.00206   0.00000  -0.01592  -0.01583   1.97297
   A21        1.87440  -0.00169   0.00000  -0.00256  -0.00290   1.87151
   A22        1.87280   0.00003   0.00000  -0.00192  -0.00188   1.87093
   A23        1.90053  -0.00202   0.00000  -0.01678  -0.01666   1.88387
   A24        2.10929  -0.00070   0.00000  -0.02989  -0.02962   2.07967
   A25        2.08579  -0.00129   0.00000  -0.02309  -0.02367   2.06212
   A26        2.03373   0.00580   0.00000   0.04989   0.04936   2.08308
   A27        2.06881  -0.00384   0.00000  -0.00885  -0.00952   2.05929
   A28        1.95087   0.00137   0.00000   0.01796   0.01589   1.96675
   A29        2.17801  -0.00003   0.00000  -0.02272  -0.02191   2.15610
   A30        2.05237  -0.00455   0.00000  -0.04453  -0.04511   2.00726
   A31        2.07953   0.00417   0.00000   0.03888   0.03843   2.11797
   A32        2.04079  -0.00525   0.00000  -0.02363  -0.02507   2.01572
   A33        1.91871   0.00420   0.00000   0.04013   0.03858   1.95729
   A34        1.97228  -0.00125   0.00000  -0.01038  -0.01032   1.96196
   A35        1.92368   0.00543   0.00000   0.03423   0.03410   1.95778
   A36        1.91507   0.00128   0.00000   0.00872   0.00855   1.92362
   A37        1.89483  -0.00270   0.00000  -0.01823  -0.01813   1.87669
   A38        1.87584  -0.00056   0.00000  -0.00679  -0.00676   1.86908
   A39        1.87929  -0.00249   0.00000  -0.00886  -0.00922   1.87007
    D1        2.97869   0.00011   0.00000   0.03190   0.03226   3.01096
    D2        0.87111  -0.00013   0.00000   0.01281   0.01241   0.88352
    D3       -1.12926   0.00087   0.00000   0.02694   0.02687  -1.10239
    D4        0.89036   0.00005   0.00000   0.03086   0.03126   0.92162
    D5       -1.21722  -0.00020   0.00000   0.01177   0.01141  -1.20582
    D6        3.06560   0.00081   0.00000   0.02590   0.02587   3.09147
    D7       -1.21638   0.00026   0.00000   0.03426   0.03469  -1.18169
    D8        2.95921   0.00002   0.00000   0.01517   0.01484   2.97405
    D9        0.95885   0.00102   0.00000   0.02930   0.02930   0.98815
   D10       -2.23441  -0.00235   0.00000  -0.03681  -0.03663  -2.27104
   D11        0.33991  -0.00301   0.00000  -0.04061  -0.04039   0.29952
   D12        1.52649   0.00082   0.00000  -0.02019  -0.02016   1.50632
   D13       -0.14929   0.00078   0.00000   0.00648   0.00630  -0.14298
   D14        2.42503   0.00012   0.00000   0.00268   0.00254   2.42758
   D15       -2.67157   0.00395   0.00000   0.02310   0.02277  -2.64880
   D16        1.86495  -0.00139   0.00000  -0.02096  -0.02084   1.84411
   D17       -1.84392  -0.00205   0.00000  -0.02476  -0.02460  -1.86852
   D18       -0.65734   0.00178   0.00000  -0.00434  -0.00438  -0.66171
   D19        0.88268   0.00048   0.00000   0.04641   0.04657   0.92925
   D20       -1.16903  -0.00076   0.00000   0.02782   0.02775  -1.14127
   D21        2.98088   0.00007   0.00000   0.04073   0.04080   3.02168
   D22       -1.70158   0.00213   0.00000   0.04811   0.04826  -1.65332
   D23        2.52990   0.00089   0.00000   0.02952   0.02944   2.55934
   D24        0.39662   0.00173   0.00000   0.04243   0.04249   0.43911
   D25       -2.90144   0.00060   0.00000   0.04438   0.04438  -2.85706
   D26        1.33004  -0.00064   0.00000   0.02579   0.02556   1.35561
   D27       -0.80324   0.00020   0.00000   0.03869   0.03861  -0.76462
   D28       -0.00198  -0.00157   0.00000  -0.05272  -0.05220  -0.05417
   D29       -2.56022  -0.00080   0.00000   0.00936   0.00892  -2.55131
   D30        2.52880   0.00061   0.00000  -0.04220  -0.04157   2.48723
   D31       -0.02945   0.00138   0.00000   0.01988   0.01955  -0.00990
   D32        2.47960   0.00021   0.00000  -0.04637  -0.04564   2.43396
   D33       -0.07305  -0.00025   0.00000  -0.00416  -0.00482  -0.07787
   D34        0.01653  -0.00212   0.00000  -0.05260  -0.05203  -0.03549
   D35       -2.53612  -0.00258   0.00000  -0.01039  -0.01120  -2.54732
   D36       -2.30376  -0.00610   0.00000  -0.10278  -0.10305  -2.40680
   D37        0.07250  -0.00030   0.00000  -0.01329  -0.01467   0.05783
   D38        0.10508  -0.00094   0.00000  -0.01479  -0.01381   0.09126
   D39        2.48133   0.00486   0.00000   0.07471   0.07456   2.55589
   D40        0.63560   0.00076   0.00000   0.01694   0.01678   0.65238
   D41       -1.48787   0.00116   0.00000   0.02282   0.02279  -1.46508
   D42        2.72866   0.00013   0.00000   0.00757   0.00732   2.73598
   D43       -0.63244   0.00039   0.00000   0.01289   0.01403  -0.61841
   D44       -2.75591   0.00079   0.00000   0.01876   0.02004  -2.73587
   D45        1.46062  -0.00024   0.00000   0.00351   0.00457   1.46519
   D46       -3.05716  -0.00122   0.00000  -0.04515  -0.04619  -3.10334
   D47        1.10256  -0.00082   0.00000  -0.03928  -0.04018   1.06238
   D48       -0.96410  -0.00185   0.00000  -0.05453  -0.05564  -1.01974
         Item               Value     Threshold  Converged?
 Maximum Force            0.016145     0.000450     NO 
 RMS     Force            0.003550     0.000300     NO 
 Maximum Displacement     0.208757     0.001800     NO 
 RMS     Displacement     0.061981     0.001200     NO 
 Predicted change in Energy=-4.037430D-03
 GradGradGradGradGradGradGradGradGradGradGradGradGradGradGradGradGradGrad

                          Input orientation:                          
 ---------------------------------------------------------------------
 Center     Atomic      Atomic             Coordinates (Angstroms)
 Number     Number       Type             X           Y           Z
 ---------------------------------------------------------------------
      1          6           0        0.741732   -0.042033    0.104372
      2          6           0        2.275812    0.041081    0.096323
      3          6           0        2.921642    0.929609   -0.990708
      4          6           0        4.031089    0.222395   -1.754326
      5          6           0        2.088706    1.959966   -1.726556
      6          6           0        3.080729    2.404047   -0.679567
      7          6           0        4.311764    3.211221   -1.049985
      8          1           0        0.395022   -0.793857    0.821288
      9          1           0        0.361097   -0.320872   -0.882471
     10          1           0        0.276074    0.908613    0.384077
     11          1           0        2.670071   -0.975572   -0.019853
     12          1           0        2.620315    0.371852    1.083737
     13          1           0        3.666124   -0.730788   -2.154005
     14          1           0        4.879167   -0.004474   -1.096584
     15          1           0        4.407041    0.804619   -2.599771
     16          1           0        1.026308    2.029168   -1.516062
     17          1           0        2.323416    2.159586   -2.768820
     18          1           0        2.650055    2.723737    0.268827
     19          1           0        4.725320    2.919712   -2.019548
     20          1           0        5.111865    3.111130   -0.305920
     21          1           0        4.061091    4.276780   -1.113799
 ---------------------------------------------------------------------
                    Distance matrix (angstroms):
                    1          2          3          4          5
     1  C    0.000000
     2  C    1.536351   0.000000
     3  C    2.625890   1.545385   0.000000
     4  C    3.787420   2.557103   1.521228   0.000000
     5  C    3.028966   2.653303   1.515550   2.606295   0.000000
     6  C    3.474014   2.614097   1.515284   2.611109   1.509140
     7  C    4.966018   3.938136   2.672398   3.083497   2.639200
     8  H    1.095177   2.181758   3.554922   4.570288   4.116262
     9  H    1.093844   2.180639   2.851633   3.811051   2.983175
    10  H    1.094897   2.198719   2.981527   4.375362   2.974180
    11  H    2.146024   1.096595   2.153035   2.509161   3.445026
    12  H    2.158595   1.096849   2.169150   3.172888   3.271462
    13  H    3.758553   2.755490   2.159729   1.096130   3.148192
    14  H    4.308373   2.864012   2.171550   1.096965   3.470240
    15  H    4.632893   3.520518   2.193426   1.093207   2.733497
    16  H    2.645121   2.848427   2.253290   3.514243   1.085258
    17  H    3.950200   3.563618   2.243301   2.774536   1.086854
    18  H    3.364257   2.714121   2.208864   3.501016   2.209075
    19  H    5.399254   4.331687   2.876156   2.797823   2.821115
    20  H    5.404521   4.198832   3.166235   3.407454   3.533112
    21  H    5.581597   4.753184   3.537944   4.104778   3.103772
                    6          7          8          9         10
     6  C    0.000000
     7  C    1.517956   0.000000
     8  H    4.437586   5.906199   0.000000
     9  H    3.855224   5.302030   1.768519   0.000000
    10  H    3.351678   4.862647   1.761733   1.767203   0.000000
    11  H    3.467807   4.613628   2.432362   2.550315   3.073195
    12  H    2.729659   3.933928   2.525804   3.074071   2.504616
    13  H    3.513380   4.144291   4.422267   3.564833   4.541137
    14  H    3.034676   3.265703   4.940538   4.534194   4.920828
    15  H    2.829214   2.864026   5.509543   4.537126   5.096964
    16  H    2.249645   3.522599   3.719031   2.523219   2.330027
    17  H    2.235679   2.830876   5.032931   3.682618   3.961981
    18  H    1.089556   2.176737   4.214718   3.979253   2.990609
    19  H    2.183149   1.093645   6.372787   5.553446   5.442216
    20  H    2.182909   1.097184   6.226405   5.889045   5.358362
    21  H    2.157961   1.096505   6.549501   5.906087   5.283420
                   11         12         13         14         15
    11  H    0.000000
    12  H    1.742394   0.000000
    13  H    2.367836   3.576661   0.000000
    14  H    2.642440   3.161935   1.765543   0.000000
    15  H    3.583590   4.116783   1.762141   1.771187   0.000000
    16  H    3.737521   3.470809   3.872074   4.376778   3.755436
    17  H    4.184041   4.257504   3.245785   3.743180   2.491186
    18  H    3.710609   2.489242   4.340075   3.778416   3.872837
    19  H    4.836948   4.533543   3.803435   3.070244   2.216207
    20  H    4.769206   3.955074   4.501768   3.222777   3.328441
    21  H    5.542458   4.706746   5.129694   4.358748   3.792584
                   16         17         18         19         20
    16  H    0.000000
    17  H    1.808009   0.000000
    18  H    2.510938   3.106808   0.000000
    19  H    3.837871   2.628372   3.095447   0.000000
    20  H    4.396233   3.840151   2.557521   1.767083   0.000000
    21  H    3.797825   3.200175   2.512890   1.761595   1.765087
                   21
    21  H    0.000000
 Stoichiometry    C7H14
 Framework group  C1[X(C7H14)]
 Deg. of freedom    57
 Full point group                 C1      NOp   1
 Largest Abelian subgroup         C1      NOp   1
 Largest concise Abelian subgroup C1      NOp   1
                         Standard orientation:                         
 ---------------------------------------------------------------------
 Center     Atomic      Atomic             Coordinates (Angstroms)
 Number     Number       Type             X           Y           Z
 ---------------------------------------------------------------------
      1          6           0       -2.529347   -0.556345   -0.008856
      2          6           0       -1.432472    0.301321   -0.658202
      3          6           0       -0.064166    0.345661    0.058728
      4          6           0        0.453779    1.761280    0.263400
      5          6           0        0.287740   -0.703421    1.094334
      6          6           0        0.929361   -0.749958   -0.270826
      7          6           0        2.416498   -0.506349   -0.453223
      8          1           0       -3.488635   -0.414617   -0.517868
      9          1           0       -2.665504   -0.285152    1.042053
     10          1           0       -2.298251   -1.625817   -0.049161
     11          1           0       -1.806869    1.329091   -0.735887
     12          1           0       -1.286350   -0.030353   -1.693440
     13          1           0       -0.304172    2.371375    0.768172
     14          1           0        0.671998    2.243545   -0.697398
     15          1           0        1.359879    1.801345    0.873711
     16          1           0       -0.451240   -1.452280    1.360611
     17          1           0        0.904498   -0.404598    1.937877
     18          1           0        0.555260   -1.525356   -0.938612
     19          1           0        2.804384    0.244050    0.241402
     20          1           0        2.659825   -0.172718   -1.469735
     21          1           0        2.976816   -1.431656   -0.273856
 ---------------------------------------------------------------------
 Rotational constants (GHZ):           4.0759798           1.7913753           1.5430526
 Standard basis: 6-31G(2df,p) (6D, 7F)
 There are   287 symmetry adapted cartesian basis functions of A   symmetry.
 There are   266 symmetry adapted basis functions of A   symmetry.
   266 basis functions,   406 primitive gaussians,   287 cartesian basis functions
    28 alpha electrons       28 beta electrons
       nuclear repulsion energy       320.4109828525 Hartrees.
 NAtoms=   21 NActive=   21 NUniq=   21 SFac= 1.00D+00 NAtFMM=   60 NAOKFM=F Big=F
 Integral buffers will be    131072 words long.
 Raffenetti 2 integral format.
 Two-electron integral symmetry is turned on.
 One-electron integrals computed using PRISM.
 PrsmSu:  requested number of processors reduced to:  13 ShMem   1 Linda.
 NBasis=   266 RedAO= T EigKep=  6.22D-04  NBF=   266
 NBsUse=   266 1.00D-06 EigRej= -1.00D+00 NBFU=   266
 Initial guess from the checkpoint file:  "CCC1pCpCC1C.chk"
 B after Tr=     0.000000    0.000000   -0.000000
         Rot=    0.999803    0.002820    0.000257    0.019632 Ang=   2.27 deg.
 ExpMin= 1.61D-01 ExpMax= 3.05D+03 ExpMxC= 4.57D+02 IAcc=2 IRadAn=         4 AccDes= 0.00D+00
 Harris functional with IExCor=  402 and IRadAn=       4 diagonalized for initial guess.
 HarFok:  IExCor=  402 AccDes= 0.00D+00 IRadAn=         4 IDoV= 1 UseB2=F ITyADJ=14
 ICtDFT=  3500011 ScaDFX=  1.000000  1.000000  1.000000  1.000000
 FoFCou: FMM=F IPFlag=           0 FMFlag=      100000 FMFlg1=           0
         NFxFlg=           0 DoJE=T BraDBF=F KetDBF=T FulRan=T
         wScrn=  0.000000 ICntrl=       500 IOpCl=  0 I1Cent=   200000004 NGrid=           0
         NMat0=    1 NMatS0=      1 NMatT0=    0 NMatD0=    1 NMtDS0=    0 NMtDT0=    0
 Petite list used in FoFCou.
 Requested convergence on RMS density matrix=1.00D-08 within 128 cycles.
 Requested convergence on MAX density matrix=1.00D-06.
 Requested convergence on             energy=1.00D-06.
 No special actions if energy rises.
 Integral accuracy reduced to 1.0D-05 until final iterations.
 Initial convergence to 1.0D-05 achieved.  Increase integral accuracy.
 SCF Done:  E(RB3LYP) =  -275.173750932     A.U. after   10 cycles
            NFock= 10  Conv=0.34D-08     -V/T= 2.0094
 PrsmSu:  requested number of processors reduced to:  13 ShMem   1 Linda.
 Calling FoFJK, ICntrl=      2127 FMM=F ISym2X=0 I1Cent= 0 IOpClX= 0 NMat=1 NMatS=1 NMatT=0.
 ***** Axes restored to original set *****
 -------------------------------------------------------------------
 Center     Atomic                   Forces (Hartrees/Bohr)
 Number     Number              X              Y              Z
 -------------------------------------------------------------------
      1        6           0.001515001    0.000768927   -0.000702760
      2        6          -0.000352809   -0.000554606   -0.000207761
      3        6           0.000921194   -0.000451288    0.003070423
      4        6          -0.001426599   -0.001364205    0.000040060
      5        6          -0.002307044   -0.000197988   -0.001022142
      6        6           0.002358819    0.003093188   -0.001343156
      7        6          -0.000999643    0.001144759   -0.000153602
      8        1           0.000973361    0.000304006    0.000223018
      9        1          -0.000664630   -0.000373517   -0.000326323
     10        1           0.000218371    0.000465797   -0.000334177
     11        1          -0.000398593    0.000021575   -0.000713495
     12        1           0.000247608    0.000018572    0.000382658
     13        1           0.000062732    0.000007919   -0.000645415
     14        1           0.000162599   -0.000186114   -0.000230485
     15        1          -0.000114148    0.000445845    0.000779819
     16        1           0.000862782    0.000521026    0.001144803
     17        1           0.001554600   -0.000681594    0.000212230
     18        1          -0.001435174   -0.001858058   -0.000329248
     19        1          -0.000383173   -0.000115026    0.000264846
     20        1          -0.000979579   -0.000954200   -0.000027785
     21        1           0.000184326   -0.000055017   -0.000081509
 -------------------------------------------------------------------
 Cartesian Forces:  Max     0.003093188 RMS     0.000986510

 GradGradGradGradGradGradGradGradGradGradGradGradGradGradGradGradGradGrad
 Berny optimization.
 Using GEDIIS/GDIIS optimizer.
 FormGI is forming the generalized inverse of G from B-inverse, IUseBI=4.
 Internal  Forces:  Max     0.002199559 RMS     0.000666477
 Search for a local minimum.
 Step number   2 out of a maximum of  118
 All quantities printed in internal units (Hartrees-Bohrs-Radians)
 Mixed Optimization -- En-DIIS/RFO-DIIS
 Update second derivatives using D2CorX and points    1    2
 DE= -3.49D-03 DEPred=-4.04D-03 R= 8.65D-01
 TightC=F SS=  1.41D+00  RLast= 2.97D-01 DXNew= 5.0454D-01 8.8993D-01
 Trust test= 8.65D-01 RLast= 2.97D-01 DXMaxT set to 5.05D-01
 ITU=  1  0
 Use linear search instead of GDIIS.
     Eigenvalues ---    0.00430   0.00546   0.00625   0.00863   0.01817
     Eigenvalues ---    0.01954   0.02479   0.03133   0.03220   0.03828
     Eigenvalues ---    0.04224   0.04873   0.05454   0.05515   0.05610
     Eigenvalues ---    0.05650   0.05758   0.05883   0.09123   0.09262
     Eigenvalues ---    0.10161   0.11696   0.12748   0.15131   0.15818
     Eigenvalues ---    0.16000   0.16000   0.16000   0.16000   0.16000
     Eigenvalues ---    0.16000   0.16000   0.16342   0.17608   0.18490
     Eigenvalues ---    0.22287   0.24093   0.25668   0.30157   0.30821
     Eigenvalues ---    0.31156   0.31557   0.33753   0.33970   0.34040
     Eigenvalues ---    0.34125   0.34135   0.34181   0.34264   0.34334
     Eigenvalues ---    0.34381   0.34408   0.34504   0.34763   0.35023
     Eigenvalues ---    0.35234   0.35353
 RFO step:  Lambda=-6.16720131D-04 EMin= 4.30072851D-03
 Quartic linear search produced a step of -0.03868.
 Iteration  1 RMS(Cart)=  0.03535827 RMS(Int)=  0.00046753
 Iteration  2 RMS(Cart)=  0.00068761 RMS(Int)=  0.00003703
 Iteration  3 RMS(Cart)=  0.00000027 RMS(Int)=  0.00003703
 Variable       Old X    -DE/DX   Delta X   Delta X   Delta X     New X
                                 (Linear)    (Quad)   (Total)
    R1        2.90328  -0.00210  -0.00145  -0.00293  -0.00439   2.89890
    R2        2.06959  -0.00037  -0.00012  -0.00075  -0.00086   2.06872
    R3        2.06706   0.00062   0.00011   0.00147   0.00158   2.06864
    R4        2.06906   0.00023  -0.00008   0.00084   0.00076   2.06981
    R5        2.92035  -0.00220  -0.00148  -0.00336  -0.00484   2.91551
    R6        2.07226  -0.00009   0.00006  -0.00040  -0.00034   2.07192
    R7        2.07274   0.00043  -0.00006   0.00134   0.00128   2.07403
    R8        2.87471  -0.00042  -0.00077   0.00063  -0.00014   2.87456
    R9        2.86397  -0.00003   0.00073  -0.00102  -0.00037   2.86361
   R10        2.86347   0.00104   0.00106   0.00106   0.00208   2.86555
   R11        2.07139   0.00021   0.00005   0.00045   0.00050   2.07189
   R12        2.07296   0.00003  -0.00011   0.00034   0.00024   2.07320
   R13        2.06586  -0.00041  -0.00005  -0.00100  -0.00105   2.06481
   R14        2.85186  -0.00074  -0.00097  -0.00084  -0.00169   2.85017
   R15        2.05084  -0.00059   0.00005  -0.00172  -0.00167   2.04917
   R16        2.05386   0.00001  -0.00003   0.00011   0.00007   2.05393
   R17        2.86852  -0.00175  -0.00184  -0.00047  -0.00231   2.86621
   R18        2.05896  -0.00027  -0.00008  -0.00052  -0.00061   2.05836
   R19        2.06669  -0.00035   0.00004  -0.00108  -0.00104   2.06565
   R20        2.07338  -0.00065  -0.00028  -0.00109  -0.00137   2.07201
   R21        2.07209  -0.00009  -0.00004  -0.00017  -0.00020   2.07189
    A1        1.93551  -0.00137  -0.00045  -0.00784  -0.00829   1.92721
    A2        1.93535   0.00105  -0.00006   0.00750   0.00745   1.94280
    A3        1.95955  -0.00044  -0.00083  -0.00086  -0.00170   1.95785
    A4        1.88117   0.00024   0.00023   0.00139   0.00164   1.88282
    A5        1.86939   0.00074   0.00060   0.00086   0.00144   1.87083
    A6        1.87948  -0.00017   0.00058  -0.00101  -0.00043   1.87905
    A7        2.03989  -0.00159  -0.00182  -0.00370  -0.00553   2.03436
    A8        1.88536   0.00050  -0.00080   0.00539   0.00460   1.88996
    A9        1.90204   0.00041   0.00121  -0.00379  -0.00262   1.89942
   A10        1.88417   0.00051   0.00080   0.00150   0.00235   1.88652
   A11        1.90560   0.00036   0.00045  -0.00220  -0.00178   1.90381
   A12        1.83592  -0.00005   0.00032   0.00378   0.00411   1.84003
   A13        1.97206  -0.00039  -0.00111   0.00248   0.00120   1.97326
   A14        2.09755   0.00012   0.00042  -0.00271  -0.00234   2.09521
   A15        2.04755  -0.00035  -0.00006   0.00033   0.00019   2.04774
   A16        2.06367   0.00013   0.00067  -0.01061  -0.00992   2.05375
   A17        2.07016   0.00110   0.00129   0.01059   0.01188   2.08204
   A18        1.92247   0.00061  -0.00039   0.00594   0.00554   1.92801
   A19        1.93800   0.00057  -0.00103   0.00630   0.00525   1.94325
   A20        1.97297  -0.00109   0.00061  -0.00970  -0.00909   1.96389
   A21        1.87151  -0.00023   0.00011   0.00157   0.00165   1.87316
   A22        1.87093   0.00015   0.00007   0.00003   0.00011   1.87104
   A23        1.88387  -0.00000   0.00064  -0.00396  -0.00332   1.88055
   A24        2.07967  -0.00086   0.00115   0.00051   0.00167   2.08134
   A25        2.06212  -0.00023   0.00092  -0.01126  -0.01033   2.05179
   A26        2.08308  -0.00132  -0.00191  -0.00541  -0.00731   2.07578
   A27        2.05929   0.00002   0.00037  -0.00276  -0.00235   2.05694
   A28        1.96675   0.00123  -0.00061   0.01119   0.01066   1.97742
   A29        2.15610   0.00057   0.00085   0.00516   0.00598   2.16208
   A30        2.00726  -0.00126   0.00174  -0.01857  -0.01682   1.99044
   A31        2.11797  -0.00001  -0.00149   0.00418   0.00271   2.12068
   A32        2.01572  -0.00079   0.00097  -0.01050  -0.00952   2.00621
   A33        1.95729   0.00092  -0.00149   0.01202   0.01060   1.96790
   A34        1.96196  -0.00027   0.00040  -0.00325  -0.00288   1.95908
   A35        1.95778  -0.00164  -0.00132  -0.00755  -0.00888   1.94890
   A36        1.92362   0.00070  -0.00033   0.00665   0.00633   1.92995
   A37        1.87669   0.00072   0.00070  -0.00035   0.00031   1.87700
   A38        1.86908   0.00000   0.00026   0.00130   0.00156   1.87064
   A39        1.87007   0.00060   0.00036   0.00376   0.00415   1.87422
    D1        3.01096   0.00046  -0.00125   0.04375   0.04247   3.05342
    D2        0.88352   0.00050  -0.00048   0.04004   0.03956   0.92308
    D3       -1.10239   0.00009  -0.00104   0.03473   0.03369  -1.06870
    D4        0.92162   0.00037  -0.00121   0.04222   0.04100   0.96262
    D5       -1.20582   0.00041  -0.00044   0.03852   0.03810  -1.16772
    D6        3.09147   0.00000  -0.00100   0.03321   0.03222   3.12369
    D7       -1.18169   0.00016  -0.00134   0.03885   0.03749  -1.14421
    D8        2.97405   0.00020  -0.00057   0.03514   0.03458   3.00864
    D9        0.98815  -0.00021  -0.00113   0.02983   0.02871   1.01686
   D10       -2.27104   0.00002   0.00142  -0.04175  -0.04034  -2.31138
   D11        0.29952  -0.00019   0.00156  -0.06376  -0.06221   0.23731
   D12        1.50632  -0.00091   0.00078  -0.06493  -0.06414   1.44219
   D13       -0.14298  -0.00002  -0.00024  -0.03602  -0.03626  -0.17924
   D14        2.42758  -0.00024  -0.00010  -0.05803  -0.05813   2.36945
   D15       -2.64880  -0.00095  -0.00088  -0.05920  -0.06006  -2.70886
   D16        1.84411   0.00037   0.00081  -0.03190  -0.03111   1.81300
   D17       -1.86852   0.00016   0.00095  -0.05391  -0.05298  -1.92150
   D18       -0.66171  -0.00056   0.00017  -0.05508  -0.05491  -0.71662
   D19        0.92925   0.00025  -0.00180   0.02986   0.02806   0.95731
   D20       -1.14127  -0.00022  -0.00107   0.02017   0.01907  -1.12220
   D21        3.02168   0.00014  -0.00158   0.02759   0.02600   3.04768
   D22       -1.65332   0.00046  -0.00187   0.04872   0.04679  -1.60653
   D23        2.55934  -0.00001  -0.00114   0.03902   0.03781   2.59715
   D24        0.43911   0.00035  -0.00164   0.04645   0.04473   0.48384
   D25       -2.85706   0.00061  -0.00172   0.04927   0.04765  -2.80941
   D26        1.35561   0.00014  -0.00099   0.03958   0.03866   1.39427
   D27       -0.76462   0.00050  -0.00149   0.04700   0.04558  -0.71904
   D28       -0.05417   0.00032   0.00202   0.00795   0.00992  -0.04426
   D29       -2.55131  -0.00037  -0.00034   0.00326   0.00290  -2.54841
   D30        2.48723  -0.00007   0.00161  -0.01088  -0.00927   2.47796
   D31       -0.00990  -0.00075  -0.00076  -0.01557  -0.01629  -0.02619
   D32        2.43396   0.00014   0.00177   0.00041   0.00216   2.43612
   D33       -0.07787  -0.00052   0.00019  -0.00061  -0.00036  -0.07823
   D34       -0.03549  -0.00025   0.00201  -0.02083  -0.01887  -0.05436
   D35       -2.54732  -0.00091   0.00043  -0.02185  -0.02139  -2.56870
   D36       -2.40680   0.00040   0.00399   0.00781   0.01182  -2.39498
   D37        0.05783   0.00090   0.00057   0.02078   0.02137   0.07920
   D38        0.09126   0.00074   0.00053   0.01677   0.01729   0.10855
   D39        2.55589   0.00124  -0.00288   0.02974   0.02684   2.58273
   D40        0.65238  -0.00011  -0.00065   0.00777   0.00713   0.65951
   D41       -1.46508   0.00035  -0.00088   0.01611   0.01521  -1.44987
   D42        2.73598   0.00019  -0.00028   0.01180   0.01152   2.74750
   D43       -0.61841  -0.00025  -0.00054   0.00401   0.00344  -0.61496
   D44       -2.73587   0.00020  -0.00078   0.01235   0.01152  -2.72435
   D45        1.46519   0.00005  -0.00018   0.00804   0.00784   1.47303
   D46       -3.10334  -0.00015   0.00179  -0.00080   0.00103  -3.10231
   D47        1.06238   0.00031   0.00155   0.00754   0.00911   1.07149
   D48       -1.01974   0.00015   0.00215   0.00323   0.00543  -1.01432
         Item               Value     Threshold  Converged?
 Maximum Force            0.002200     0.000450     NO 
 RMS     Force            0.000666     0.000300     NO 
 Maximum Displacement     0.116403     0.001800     NO 
 RMS     Displacement     0.035419     0.001200     NO 
 Predicted change in Energy=-3.356981D-04
 GradGradGradGradGradGradGradGradGradGradGradGradGradGradGradGradGradGrad

                          Input orientation:                          
 ---------------------------------------------------------------------
 Center     Atomic      Atomic             Coordinates (Angstroms)
 Number     Number       Type             X           Y           Z
 ---------------------------------------------------------------------
      1          6           0        0.750566   -0.004715    0.118988
      2          6           0        2.283953    0.025171    0.086125
      3          6           0        2.933606    0.916961   -0.992284
      4          6           0        4.042454    0.212548   -1.759203
      5          6           0        2.096261    1.933934   -1.741230
      6          6           0        3.068167    2.395634   -0.684331
      7          6           0        4.287915    3.225172   -1.037257
      8          1           0        0.398441   -0.732259    0.857299
      9          1           0        0.337142   -0.286916   -0.854543
     10          1           0        0.323890    0.966310    0.392371
     11          1           0        2.645031   -1.000118   -0.057162
     12          1           0        2.653552    0.329499    1.073723
     13          1           0        3.673314   -0.724390   -2.192757
     14          1           0        4.883729   -0.040666   -1.102131
     15          1           0        4.432319    0.817524   -2.581330
     16          1           0        1.032714    1.996568   -1.539216
     17          1           0        2.348283    2.124932   -2.781106
     18          1           0        2.613073    2.695769    0.258667
     19          1           0        4.714638    2.943380   -2.003362
     20          1           0        5.078460    3.123161   -0.284361
     21          1           0        4.026932    4.288420   -1.096250
 ---------------------------------------------------------------------
                    Distance matrix (angstroms):
                    1          2          3          4          5
     1  C    0.000000
     2  C    1.534030   0.000000
     3  C    2.617265   1.542824   0.000000
     4  C    3.796226   2.555909   1.521153   0.000000
     5  C    3.004940   2.649119   1.515355   2.598300   0.000000
     6  C    3.431948   2.612984   1.516382   2.621155   1.508245
     7  C    4.927667   3.939270   2.676567   3.107629   2.639359
     8  H    1.094721   2.173376   3.545130   4.584493   4.091886
     9  H    1.094678   2.184566   2.865296   3.846715   2.968651
    10  H    1.095299   2.195763   2.954712   4.361783   2.937660
    11  H    2.147289   1.096415   2.152422   2.514020   3.427228
    12  H    2.155127   1.097529   2.166086   3.157245   3.287666
    13  H    3.795333   2.772267   2.163871   1.096397   3.123726
    14  H    4.309926   2.859217   2.175338   1.097090   3.475266
    15  H    4.639299   3.515482   2.186571   1.092649   2.722004
    16  H    2.614265   2.844950   2.253459   3.505661   1.084374
    17  H    3.936831   3.554454   2.236444   2.751675   1.086893
    18  H    3.283451   2.696328   2.198130   3.504471   2.201607
    19  H    5.376755   4.334758   2.881098   2.822922   2.818437
    20  H    5.355087   4.188564   3.157352   3.423469   3.525654
    21  H    5.535557   4.755132   3.545830   4.129465   3.112410
                    6          7          8          9         10
     6  C    0.000000
     7  C    1.516732   0.000000
     8  H    4.391784   5.863327   0.000000
     9  H    3.831911   5.289305   1.769884   0.000000
    10  H    3.276173   4.781190   1.762626   1.767921   0.000000
    11  H    3.479011   4.638181   2.440318   2.543782   3.075160
    12  H    2.744371   3.938566   2.501938   3.076351   2.509401
    13  H    3.517969   4.160764   4.475231   3.621084   4.556313
    14  H    3.066982   3.320376   4.943225   4.559978   4.903026
    15  H    2.819565   2.863875   5.522514   4.579526   5.073876
    16  H    2.243468   3.515361   3.686744   2.483324   2.301063
    17  H    2.233377   2.830849   5.020300   3.684202   3.938467
    18  H    1.089236   2.182838   4.124843   3.913503   2.872153
    19  H    2.179618   1.093095   6.350059   5.560312   5.378383
    20  H    2.174983   1.096458   6.170107   5.868035   5.264590
    21  H    2.161377   1.096398   6.495346   5.882744   5.192777
                   11         12         13         14         15
    11  H    0.000000
    12  H    1.745524   0.000000
    13  H    2.386243   3.580571   0.000000
    14  H    2.650336   3.137683   1.766932   0.000000
    15  H    3.587429   4.094093   1.761981   1.768698   0.000000
    16  H    3.711627   3.497669   3.847532   4.378549   3.746126
    17  H    4.156184   4.263388   3.196952   3.733264   2.468285
    18  H    3.709494   2.503036   4.339479   3.807325   3.860446
    19  H    4.860261   4.533089   3.817429   3.121752   2.221039
    20  H    4.793185   3.940700   4.518856   3.273602   3.318061
    21  H    5.563990   4.718900   5.143505   4.413063   3.796962
                   16         17         18         19         20
    16  H    0.000000
    17  H    1.813695   0.000000
    18  H    2.493752   3.104220   0.000000
    19  H    3.829941   2.621903   3.097524   0.000000
    20  H    4.383142   3.831979   2.560405   1.766254   0.000000
    21  H    3.796597   3.215165   2.524150   1.762080   1.767117
                   21
    21  H    0.000000
 Stoichiometry    C7H14
 Framework group  C1[X(C7H14)]
 Deg. of freedom    57
 Full point group                 C1      NOp   1
 Largest Abelian subgroup         C1      NOp   1
 Largest concise Abelian subgroup C1      NOp   1
                         Standard orientation:                         
 ---------------------------------------------------------------------
 Center     Atomic      Atomic             Coordinates (Angstroms)
 Number     Number       Type             X           Y           Z
 ---------------------------------------------------------------------
      1          6           0       -2.502737   -0.585765   -0.009923
      2          6           0       -1.436336    0.311056   -0.651600
      3          6           0       -0.063482    0.361046    0.050594
      4          6           0        0.457599    1.777548    0.240074
      5          6           0        0.284337   -0.664424    1.110658
      6          6           0        0.916199   -0.755080   -0.255847
      7          6           0        2.404447   -0.542307   -0.456645
      8          1           0       -3.458021   -0.477883   -0.533572
      9          1           0       -2.663809   -0.323237    1.040532
     10          1           0       -2.229809   -1.645778   -0.049456
     11          1           0       -1.830707    1.332880   -0.701318
[...]
 12681,-0.00430998,-0.01869399,-0.01607944,0.00129725,0.00796077,0.0067
 8680,0.03520771,0.21682931,-0.02748735,-0.12472297,-0.15042577,-0.0026
 6936,-0.01044983,-0.00915004,-0.00089178,-0.00106812,0.00016884,0.0002
 5959,0.00019201,-0.00001512,-0.00026077,-0.00005182,-0.00014217,0.0005
 9396,-0.00034405,-0.00068478,-0.00012829,0.00034480,0.00047825,0.00268
 004,0.01342993,0.01147718,-0.00337512,-0.01749460,-0.01369826,0.027806
 93,0.13855283,0.16086945,0.00367439,0.02473393,0.01829932,-0.05681040,
 -0.04006503,-0.02839106,-0.00407661,-0.01339652,-0.00667117,0.00046249
 ,-0.00110284,-0.00099010,0.00087439,0.00041731,0.00035478,-0.00186195,
 0.00015441,0.00173367,0.00065607,-0.00061559,0.00011109,0.00133365,-0.
 00044092,-0.00050585,0.00116728,-0.00022923,-0.00082899,-0.00498006,0.
 00229805,0.00290385,0.06466153,-0.00133815,-0.00879572,-0.00642188,-0.
 03917375,-0.21010096,-0.10954233,-0.00663851,-0.02450519,-0.01004302,0
 .00121742,0.00036702,-0.00079600,0.00109835,0.00152360,-0.00028729,-0.
 00427047,0.00042026,0.00194212,0.00131499,-0.00105794,0.00049681,0.000
 20718,0.00094531,0.00006558,-0.00015565,-0.00001437,0.00031905,0.00188
 722,0.00052271,-0.00061237,0.04502483,0.23275390,-0.00156139,-0.011476
 63,-0.00898543,-0.02838335,-0.10929329,-0.11992481,0.00545026,0.018596
 74,0.00896234,-0.00055235,0.00071672,0.00065532,-0.00025691,-0.0016955
 5,0.00172475,0.00342542,0.00226773,-0.00136070,-0.00083483,0.00109293,
 -0.00017225,-0.00024867,0.00022883,-0.00004579,0.00026523,0.00040857,0
 .00085270,0.00322278,-0.00048355,0.00001868,0.02482682,0.11931104,0.13
 184016,-0.02110734,0.00821489,-0.01974438,-0.14645379,0.04223909,-0.11
 371623,0.00846710,-0.00425857,0.01133864,0.00112580,-0.00052587,0.0006
 8364,-0.00123077,-0.00174186,0.00260464,0.00043798,0.00107122,-0.00042
 221,-0.00007405,0.00015071,-0.00007522,0.00066271,-0.00071040,-0.00014
 647,-0.00430191,0.00184188,0.00356626,0.00153710,0.00010741,0.00018933
 ,-0.00482047,0.00144732,-0.00517751,0.16491922,0.00834480,-0.00347851,
 0.00763082,0.04238890,-0.06592715,0.04701086,0.01392714,-0.00948741,0.
 01992234,0.00096055,0.00033542,-0.00075537,-0.00313523,-0.00046853,0.0
 0332854,0.00077607,0.00154006,-0.00099494,-0.00003378,0.00013807,0.000
 04681,-0.00040785,0.00037527,-0.00035577,0.00212971,0.00018512,-0.0008
 1129,-0.00032880,0.00018739,0.00063529,-0.01709575,0.00697491,-0.01935
 787,-0.04710512,0.07096254,0.01120127,-0.00462768,0.01068670,-0.114128
 84,0.04753090,-0.17516340,-0.01146288,0.00761621,-0.01675521,-0.001353
 26,-0.00001499,0.00040441,0.00345076,0.00045751,-0.00141519,-0.0000682
 9,0.00016524,0.00087904,-0.00018600,0.00004419,0.00011153,-0.00084806,
 0.00012653,0.00070627,0.00347609,-0.00126099,-0.00037614,-0.00069277,0
 .00026211,0.00084933,-0.01186076,0.00424674,-0.01378438,0.12113390,-0.
 05557433,0.19329321,0.00001305,0.00003245,-0.00022436,0.00124109,0.001
 28556,-0.00027311,0.00402637,0.02692272,0.01446342,-0.05665308,-0.0460
 0582,-0.02592809,0.00213335,-0.00150874,-0.00028609,-0.00443273,0.0005
 8317,0.00388134,-0.00033914,-0.00070481,0.00033652,0.00003212,-0.00004
 421,-0.00003759,0.00003520,0.00000819,0.00001829,0.00009273,-0.0000299
 6,-0.00012163,-0.00022632,-0.00066169,-0.00009368,-0.00009256,-0.00023
 040,-0.00002792,0.06252088,0.00031484,0.00030881,0.00013803,-0.0009419
 9,0.00027119,0.00090762,-0.00099602,-0.01409515,-0.00660065,-0.0457539
 0,-0.23355226,-0.10389750,-0.00031525,0.00072037,0.00081457,0.00151363
 ,0.00135906,-0.00207377,0.00023840,0.00036345,0.00020069,0.00004261,0.
 00002275,-0.00002056,-0.00002925,-0.00003216,-0.00001812,-0.00016912,0
 .00006906,0.00017316,0.00036617,0.00085165,-0.00025240,0.00003169,0.00
 005426,-0.00004970,0.04781097,0.25547508,0.00012894,0.00031315,0.00015
 182,-0.00089439,-0.00089541,0.00018727,-0.00121940,-0.01067340,-0.0062
 0927,-0.02553659,-0.10394280,-0.10463905,0.00034222,0.00014376,0.00071
 594,0.00193662,0.00121832,-0.00070576,0.00010692,0.00066169,-0.0003427
 9,0.00002871,0.00001226,-0.00001862,-0.00006886,0.00000054,-0.00000074
 ,-0.00015402,0.00008874,0.00012744,0.00065534,0.00055074,0.00007014,-0
 .00004485,-0.00009254,-0.00015977,0.02577842,0.11652776,0.11096957,0.0
 0020990,-0.00002382,0.00047863,0.00076194,0.00078727,-0.00182668,-0.01
 924193,0.00734183,-0.02090778,-0.14812800,0.03109084,-0.12016687,-0.00
 440332,-0.00061105,0.00279828,0.00166824,-0.00061713,-0.00003736,-0.00
 032182,0.00042506,0.00016604,-0.00001339,-0.00002281,0.00004317,0.0003
 0982,-0.00004959,-0.00008032,-0.00001462,-0.00000204,-0.00003648,-0.00
 002169,-0.00002322,0.00005870,0.00007237,-0.00064267,0.00113958,-0.004
 65436,0.00112089,-0.00531866,0.16364407,0.00002872,-0.00004254,-0.0000
 5265,-0.00081549,-0.00010076,-0.00004808,0.00981149,-0.00483522,0.0109
 7093,0.03086844,-0.05666495,0.03806754,0.00366889,0.00064533,-0.000719
 78,-0.00084776,0.00121505,0.00075419,-0.00014439,-0.00006173,-0.000088
 73,-0.00001966,0.00000973,-0.00003060,-0.00009377,-0.00002525,0.000021
 83,0.00001212,-0.00000647,0.00000017,-0.00005536,0.00009982,-0.0001250
 6,-0.00008006,0.00046685,-0.00010930,-0.01785140,0.00608079,-0.0215271
 8,-0.03799608,0.05839832,-0.00005752,-0.00014905,0.00023780,0.00014399
 ,-0.00038588,0.00082979,0.00793966,-0.00170150,0.00950540,-0.12031513,
 0.03813826,-0.19100335,0.00252562,-0.00088676,-0.00002813,-0.00109111,
 0.00085067,0.00081294,-0.00003619,-0.00002530,-0.00017471,-0.00006120,
 0.00000554,0.00002310,0.00006080,-0.00002601,-0.00001107,-0.00000080,0
 .00001778,-0.00001271,0.00000284,0.00004223,-0.00013771,-0.00024626,-0
 .00008936,0.00012596,-0.00870291,0.00358908,-0.01192664,0.13252263,-0.
 04152438,0.20613248,0.00007048,-0.00150583,0.00100401,-0.00466501,0.00
 381662,0.00123508,-0.01280403,-0.01809702,0.01662323,-0.10118098,-0.07
 230045,0.07734151,0.00080921,-0.00155028,0.00095775,0.00068763,-0.0009
 0846,0.00039913,-0.00020007,-0.00006436,0.00004990,-0.00055208,0.00019
 583,0.00029855,-0.00003030,0.00000439,-0.00010721,-0.00005686,0.000098
 15,0.00010291,0.00019608,0.00031112,-0.00024696,0.00028052,0.00003103,
 0.00018367,-0.00361911,-0.00412972,0.00417706,0.00994885,0.01339672,-0
 .01295274,0.10997701,0.00046981,0.00076211,-0.00033375,0.00170672,-0.0
 0098779,-0.00071720,0.00629755,0.00843304,-0.00922287,-0.07478743,-0.1
 4670229,0.10742113,0.00010221,0.00081263,-0.00010964,-0.00041023,0.000
 52043,-0.00006334,0.00012607,-0.00159082,-0.00034490,0.00020610,-0.000
 08490,-0.00014047,-0.00006588,0.00001949,0.00004078,-0.00010894,0.0000
 1605,0.00004342,0.00032267,0.00031207,0.00009244,0.00002327,-0.0001186
 5,-0.00015333,-0.01152239,-0.01672046,0.01852798,-0.00245228,-0.004050
 88,0.00244892,0.08004399,0.16122893,0.00013238,0.00089873,0.00024782,0
 .00192427,-0.00207949,-0.00052435,0.00350668,0.00715681,-0.00837155,0.
 07879480,0.10514622,-0.15669307,-0.00096031,0.00017529,0.00050786,0.00
 026472,0.00078815,-0.00026431,0.00047965,0.00056896,-0.00084903,0.0002
 6374,-0.00009967,-0.00011369,0.00019016,-0.00005764,-0.00003336,-0.000
 05689,-0.00004642,-0.00003920,0.00003117,0.00027117,0.00017716,-0.0000
 6883,-0.00037300,0.00051964,-0.00756705,-0.00986449,0.01067172,0.01139
 358,0.01496440,-0.01525047,-0.08703605,-0.11635391,0.16791055,-0.00029
 857,-0.00039638,0.00035246,-0.00042862,-0.00029016,0.00171542,-0.00772
 951,-0.00180113,-0.00079979,-0.00044027,-0.00064437,-0.00193725,-0.333
 32140,-0.00998582,0.00865010,-0.00596144,0.00195368,-0.00005236,-0.000
 13991,0.00098672,-0.00094469,0.00025349,-0.00013920,0.00013918,0.00061
 388,-0.00049614,0.00075205,0.00008855,-0.00002113,0.00016129,0.0000968
 1,0.00039355,-0.00035708,0.00007526,0.00004332,0.00001347,0.00002359,0
 .00008247,0.00010359,-0.00034454,0.00039315,0.00023788,0.00022550,-0.0
 0004646,-0.00001487,0.35440865,-0.00005407,-0.00024282,0.00061290,-0.0
 0125327,0.00142206,-0.00223734,0.02526858,0.00308056,-0.00685691,0.002
 45467,-0.00030000,0.00513950,-0.00999980,-0.03605201,0.00341885,-0.021
 19208,-0.00183486,0.00627757,-0.00236143,0.00114329,-0.00426644,-0.000
 17777,0.00002093,-0.00017146,-0.00070014,-0.00012909,0.00095931,-0.000
 07179,-0.00001380,-0.00022243,-0.00010845,-0.00042073,-0.00002356,0.00
 009669,0.00032163,-0.00042313,-0.00013275,-0.00008187,-0.00015161,0.00
 173508,-0.00124674,-0.00041605,-0.00011327,-0.00000436,0.00007709,0.01
 079350,0.03582031,-0.00092513,0.00012699,-0.00071928,-0.00017496,0.000
 85817,0.00148125,-0.01031893,-0.00274832,-0.00327655,0.00034369,-0.000
 73220,-0.00120988,0.01111406,0.00367082,-0.04737972,-0.01967497,0.0012
 3857,-0.00176581,-0.00082297,0.00176439,-0.00239129,0.00025911,-0.0001
 0846,0.00032113,0.00107433,0.00084294,-0.00076197,0.00001239,-0.000035
 61,-0.00003154,0.00031335,0.00044975,-0.00016353,0.00006543,-0.0002151
 0,0.00006483,0.00009121,0.00011179,0.00016128,-0.00031868,-0.00001496,
 0.00039136,-0.00043113,-0.00006186,0.00015694,-0.00685516,-0.00316560,
 0.05070237,-0.00058593,-0.00006351,-0.00019649,-0.00163948,-0.00031068
 ,-0.00112779,0.00242245,0.00120201,-0.01215420,0.00129142,0.00113534,-
 0.00051243,-0.09654914,-0.02214587,0.10544316,0.00174473,0.00329148,-0
 .01002471,0.00165485,-0.00071985,-0.00044661,0.00024045,-0.00006308,0.
 00021128,0.00058078,-0.00004966,0.00013156,0.00001910,-0.00001564,0.00
 009033,0.00009698,0.00005682,0.00015287,0.00046949,0.00044580,-0.00026
 221,-0.00008114,0.00028819,0.00018290,0.00007540,-0.00011788,0.0000914
 0,-0.00026424,0.00001445,-0.00025771,-0.00818974,-0.00514345,0.0267808
 5,0.09936247,0.00060928,-0.00028529,-0.00025414,0.00396453,0.00010091,
 0.00364217,-0.01384504,-0.00502441,0.02243255,-0.00274183,0.00104751,-
 0.00172731,-0.02119798,-0.04363842,0.04779349,0.01307572,0.00308163,-0
 .02006481,0.00206668,0.00090921,0.00203212,-0.00005957,0.00007713,0.00
 005857,-0.00000101,0.00015359,-0.00018600,-0.00008303,0.00006521,0.000
 21101,-0.00004924,-0.00003439,-0.00021441,-0.00075410,-0.00144581,0.00
 115923,0.00010758,-0.00036920,-0.00003537,-0.00045445,0.00046577,-0.00
 027410,0.00068343,0.00024760,-0.00034451,0.00001542,-0.00079155,0.0003
 2593,0.02171954,0.04526521,-0.00013804,-0.00002509,0.00001211,-0.00113
 795,-0.00143285,-0.00032324,0.00150115,-0.00073885,-0.00896239,0.00182
 961,0.00044906,0.00076059,0.10246833,0.04746079,-0.27267625,0.00654776
 ,0.00503458,-0.01630405,0.00238875,-0.00011019,0.00173145,0.00011429,0
 .00004656,0.00005952,0.00010542,0.00000886,0.00000074,-0.00005577,0.00
 005485,0.00011487,0.00010194,0.00012978,0.00008172,0.00020119,0.000248
 51,-0.00009753,-0.00051851,0.00023319,0.00017524,-0.00003050,-0.000272
 87,0.00019737,-0.00084376,-0.00004427,0.00037501,-0.00160980,-0.000553
 30,0.00207142,-0.10723814,-0.05123461,0.29384856,0.00002687,-0.0009152
 3,0.00029450,-0.00004119,-0.00179855,0.00020238,-0.00710504,0.00175353
 ,0.00523940,0.00110031,0.00167807,0.00084550,0.01068502,-0.00499582,-0
 .01578557,-0.14837419,0.04028238,0.13261686,-0.01461296,0.00595103,0.0
 1903944,0.00000342,-0.00020154,-0.00013646,-0.00022404,-0.00003326,-0.
 00014632,-0.00021124,-0.00117003,0.00030154,-0.00011007,-0.00005505,-0
 .00000534,-0.00004278,0.00006200,0.00009684,-0.00058053,0.00041346,0.0
 0025011,0.00004194,-0.00002353,0.00001864,0.00006560,-0.00026225,-0.00
 014221,0.00107364,0.00180065,0.00048602,-0.00049842,-0.00305934,-0.002
 27702,0.16055988,-0.00046064,-0.00088924,-0.00061594,0.00212891,0.0018
 2798,0.00074504,0.01731483,-0.00727145,-0.02264203,-0.00356011,-0.0036
 4424,-0.00253577,-0.00227262,-0.00313141,0.00082473,0.03829300,-0.0610
 9844,-0.05422762,-0.01340576,0.00461296,0.01609884,0.00010085,0.000463
 85,0.00033850,-0.00002071,0.00009040,0.00005293,-0.00109134,-0.0005609
 0,0.00148505,0.00004777,0.00049761,-0.00007252,-0.00009072,-0.00052529
 ,0.00045046,0.00174033,-0.00080258,-0.00059849,0.00006067,0.00004598,0
 .00034415,0.00003239,0.00012767,-0.00017732,-0.00052506,0.00057743,-0.
 00143383,0.00049804,0.00000960,0.00126749,-0.03638467,0.07052737,0.000
 59522,0.00091240,-0.00057167,0.00098684,-0.00074000,-0.00067615,-0.006
 92859,-0.00027528,0.00323908,0.00011447,0.00177498,0.00049823,0.015006
 23,-0.00707397,-0.01975106,0.12989174,-0.05521410,-0.19995276,0.001082
 49,-0.00056040,-0.00108629,-0.00014107,0.00033765,0.00002498,-0.000180
 57,-0.00017818,-0.00010229,0.00087980,0.00131420,0.00007355,-0.0001586
 0,-0.00026322,0.00016009,-0.00020620,-0.00014323,0.00010663,-0.0004147
 6,0.00043200,0.00028830,0.00008525,-0.00000964,0.00002935,-0.00001373,
 -0.00014323,0.00003919,0.00031067,0.00222178,0.00191643,-0.00110279,-0
 .00397175,-0.00178554,-0.14015823,0.06046382,0.21586015,0.00001749,0.0
 0003109,0.00022148,0.00001663,-0.00002080,-0.00007596,0.00074927,0.001
 01472,0.00081354,-0.00031623,0.00007723,0.00034621,0.00094522,0.001393
 12,0.00125162,-0.01594813,0.00612494,0.02073534,-0.12678749,0.03181333
 ,0.11599400,-0.00001132,-0.00011303,-0.00006515,0.00001411,0.00002567,
 -0.00000067,0.00001853,-0.00009701,-0.00020289,-0.00001641,-0.00013120
 ,-0.00003174,0.00001660,-0.00000554,0.00000382,0.00022509,0.00013778,-
 0.00023511,0.00002032,0.00013531,-0.00015281,0.00087995,0.00030871,-0.
 00045296,0.00015663,0.00025091,-0.00036427,-0.00008294,-0.00039748,-0.
 00101960,-0.00320338,-0.00383563,-0.00001279,0.13845551,0.00000591,0.0
 0007826,0.00012968,0.00018123,-0.00013403,0.00014878,0.00023326,0.0011
 2289,0.00078680,-0.00016498,-0.00122535,0.00016724,0.00055790,0.001229
 88,0.00038136,-0.01199276,0.00485964,0.01787051,0.03334550,-0.05946116
 ,-0.04959306,0.00003366,-0.00008111,-0.00006404,0.00002474,0.00001011,
 0.00000457,0.00000999,-0.00007032,-0.00013018,0.00000323,-0.00001163,-
 0.00005479,0.00000603,-0.00002433,0.00001871,0.00005285,0.00018120,-0.
 00018536,0.00006854,0.00003841,-0.00003556,0.00018940,-0.00227892,-0.0
 0067447,0.00006245,0.00008533,-0.00008433,0.00017583,0.00003455,-0.000
 37330,-0.00346812,-0.00227079,0.00040086,-0.03424762,0.06504241,-0.000
 01190,-0.00003851,-0.00004425,-0.00007420,0.00011722,0.00016628,0.0004
 4811,-0.00055397,-0.00036344,0.00038443,-0.00073494,-0.00100122,-0.000
 70412,0.00001224,0.00106691,0.00117289,-0.00020468,-0.00305603,0.11750
 078,-0.04745906,-0.21670020,0.00000897,0.00003802,0.00002416,-0.000018
 77,0.00000589,0.00001906,-0.00005668,0.00003661,0.00007387,0.00004914,
 0.00012125,0.00000071,0.00002986,-0.00001326,-0.00002935,-0.00035256,-
 0.00016929,0.00024309,-0.00002171,0.00011566,-0.00001173,-0.00030260,-
 0.00093317,0.00109015,0.00002021,-0.00005821,0.00005853,0.00005541,0.0
 0042563,0.00033361,0.00002343,0.00052687,0.00126888,-0.12999105,0.0545
 0780,0.23403174,-0.00004580,-0.00005733,-0.00004865,0.00015210,0.00014
 030,-0.00013596,0.00144595,0.00024271,0.00006995,-0.00032979,-0.000425
 30,0.00005546,-0.00342041,-0.00088563,0.00264165,-0.01575691,-0.001168
 65,-0.02159988,-0.13463558,0.00613037,-0.12144524,-0.00000352,-0.00000
 859,0.00005308,0.00009514,0.00002122,-0.00000564,-0.00003247,0.0000276
 9,0.00003498,-0.00002505,-0.00000032,0.00000381,0.00002069,-0.00013223
 ,0.00013932,0.00010222,-0.00003574,-0.00008133,0.00026568,-0.00012158,
 0.00000925,0.00005207,-0.00005625,-0.00004421,-0.00014897,-0.00121841,
 -0.00078714,0.00003015,0.00030517,0.00007479,0.00043642,0.00053867,0.0
 0042055,0.01139112,-0.00112720,0.01482118,0.14735561,-0.00006766,-0.00
 000825,0.00001378,-0.00001198,0.00021885,0.00006091,0.00103630,0.00155
 579,-0.00059681,0.00013604,-0.00014221,0.00006226,-0.00457878,-0.00091
 803,0.00111695,-0.01321570,-0.00066413,-0.01918219,0.00626112,-0.04683
 889,0.00760579,0.00001321,-0.00001703,0.00002552,0.00008567,0.00000156
 ,-0.00000784,-0.00000892,0.00000373,0.00000222,0.00005044,0.00006909,-
 0.00002199,-0.00000675,-0.00010964,0.00009230,0.00012413,-0.00003690,0
 .00009848,0.00018693,-0.00040131,-0.00000736,-0.00009754,0.00003927,-0
 .00005015,-0.00029034,-0.00131018,-0.00067786,0.00011018,0.00033631,0.
 00029609,0.00061793,0.00047952,0.00044642,-0.00493884,-0.00054626,-0.0
 0658381,-0.00280730,0.04892890,0.00000012,-0.00003594,0.00001667,0.000
 01084,-0.00008479,-0.00016646,-0.00054159,-0.00037135,0.00009908,0.000
 01487,0.00005810,-0.00027769,0.00058208,0.00090197,0.00110715,0.002646
 45,-0.00104154,0.00435696,-0.12108771,0.00744925,-0.21635110,-0.000008
 06,-0.00002363,0.00000763,0.00002761,0.00000911,0.00000250,0.00001597,
 0.00000802,-0.00002633,-0.00002301,-0.00006894,0.00002417,0.00002209,-
 0.00002837,0.00006741,0.00010970,-0.00014140,0.00007728,0.00008874,-0.
 00024666,0.00022233,-0.00021534,0.00002404,0.00003264,0.00004870,-0.00
 022451,0.00021600,0.00012910,0.00033475,0.00034401,-0.00050318,-0.0004
 2783,0.00038986,-0.01554159,0.00212491,-0.02039249,0.13508604,-0.00836
 366,0.23310687,0.00012464,-0.00007080,-0.00007089,-0.00011554,-0.00089
 801,-0.00139365,-0.00360725,-0.00190923,0.00266065,-0.00046089,0.00043
 146,0.00058903,0.00158656,0.00150343,0.00005967,0.00793205,-0.02899977
 ,0.00209360,-0.07503810,0.08281191,-0.00959455,-0.00003848,0.00002777,
 0.00002678,-0.00003026,0.00000424,-0.00000702,-0.00001299,0.00005740,0
 .00004894,-0.00027064,-0.00051077,0.00034393,0.00003882,0.00000807,0.0
 0005228,0.00023328,0.00000990,-0.00013761,0.00012512,-0.00014787,0.000
 06397,0.00017979,0.00009057,-0.00038006,-0.00001302,0.00012659,0.00013
 290,-0.00009723,0.00009575,-0.00046413,0.00101077,0.00089178,-0.000055
 92,-0.00654057,0.01605018,-0.00298082,-0.00694864,0.01740189,-0.000861
 84,0.08194257,0.00012497,-0.00012270,-0.00001823,-0.00023683,-0.000662
 11,-0.00134287,-0.00271494,0.00097463,0.00278376,-0.00033362,0.0005949
 5,0.00026787,0.00030680,0.00086621,-0.00096244,0.00508071,-0.02168118,
 0.00133706,0.08247301,-0.27209020,0.02571124,-0.00006866,0.00000742,0.
 00004514,-0.00003494,0.00001600,-0.00002170,0.00000348,0.00005957,0.00
 002648,-0.00025986,-0.00039701,0.00035664,0.00004326,0.00004381,0.0000
 4335,0.00002423,-0.00006708,-0.00004125,0.00007802,-0.00003021,0.00008
 468,-0.00003613,0.00001980,0.00007425,-0.00008806,-0.00004352,-0.00011
 122,-0.00030806,-0.00020515,-0.00044442,-0.00019166,0.00093399,0.00026
 890,0.00247433,-0.00657877,0.00084170,0.00063841,-0.00064020,0.0001484
 6,-0.08697447,0.29900174,-0.00002478,0.00002958,0.00005836,-0.00010689
 ,0.00006081,0.00010693,0.00074684,-0.00087548,0.00012904,0.00009119,-0
 .00019674,-0.00056505,0.00055832,0.00009269,0.00034011,-0.00050277,0.0
 0362672,-0.00064139,-0.00968125,0.02598645,-0.04995777,0.00000513,-0.0
 0001151,-0.00000953,-0.00000046,0.00000185,0.00001186,-0.00001445,-0.0
 0000885,-0.00002552,0.00004623,0.00008878,0.00000663,0.00001320,-0.000
 01873,-0.00003397,-0.00013063,-0.00004002,0.00016354,-0.00002955,-0.00
 012482,0.00004863,-0.00022329,0.00002323,0.00041035,0.00006597,0.00006
 354,0.00015804,0.00005420,-0.00010841,0.00004278,-0.00026032,0.0001334
 8,0.00003105,0.00878061,-0.02534614,0.00322172,-0.00926201,0.02567095,
 -0.00285651,0.00987472,-0.02904739,0.04936069\\0.00000010,0.00000037,0
 .00000270,0.00000797,-0.00000305,-0.00000402,-0.00002188,0.00000624,0.
 00000857,0.00000972,-0.00000317,-0.00000386,0.00001902,-0.00000475,0.0
 0002046,-0.00000855,-0.00001607,-0.00002002,0.00000913,0.00000918,0.00
 000559,-0.00000428,-0.00000094,-0.00000120,0.00000224,0.00000460,-0.00
 000111,-0.00000208,0.00000056,0.00000020,0.00000280,-0.00000249,0.0000
 0328,0.00000043,0.00000380,-0.00000116,0.00000030,0.00000245,-0.000000
 63,-0.00000109,-0.00000084,-0.00000134,0.00000419,0.00000254,0.0000010
 6,-0.00000573,0.00000042,-0.00000646,-0.00000576,0.00000023,-0.0000036
 5,-0.00000223,0.00000509,0.00000317,-0.00000150,-0.00000016,-0.0000031
 0,-0.00000044,-0.00000171,-0.00000050,-0.00000235,-0.00000229,0.000002
 01\\\@


 I DON'T EXACTLY UNDERSTAND WHAT YOU ARE SAYING,
 BUT YOU ARE ABSOLUTELY RIGHT.
     M.S.GORDON, IN A NDSU FACULTY MEETING
 Job cpu time:       0 days  1 hours 30 minutes  6.0 seconds.
 Elapsed time:       0 days  0 hours 22 minutes 32.1 seconds.
 File lengths (MBytes):  RWF=    111 Int=      0 D2E=      0 Chk=      7 Scr=      1
 Normal termination of Gaussian 16 at Tue Jun  1 04:38:55 2021.
### All Done ###
