### Starting Gaussian ###
 Entering Gaussian System, Link 0=g16
 Initial command:
 /cluster/software/gaussian/gaussian-16-A.03/avx2/g16/l1.exe "/local/scratch/cz9n3/Gau-15528.inp" -scrdir="/local/scratch/cz9n3/"
 Entering Link 1 = /cluster/software/gaussian/gaussian-16-A.03/avx2/g16/l1.exe PID=     15529.
  
 Copyright (c) 1988,1990,1992,1993,1995,1998,2003,2009,2016,
            Gaussian, Inc.  All Rights Reserved.
  
 This is part of the Gaussian(R) 16 program.  It is based on
 the Gaussian(R) 09 system (copyright 2009, Gaussian, Inc.),
 the Gaussian(R) 03 system (copyright 2003, Gaussian, Inc.),
 the Gaussian(R) 98 system (copyright 1998, Gaussian, Inc.),
 the Gaussian(R) 94 system (copyright 1995, Gaussian, Inc.),
 the Gaussian 92(TM) system (copyright 1992, Gaussian, Inc.),
 the Gaussian 90(TM) system (copyright 1990, Gaussian, Inc.),
 the Gaussian 88(TM) system (copyright 1988, Gaussian, Inc.),
 the Gaussian 86(TM) system (copyright 1986, Carnegie Mellon
 University), and the Gaussian 82(TM) system (copyright 1983,
 Carnegie Mellon University). Gaussian is a federally registered
 trademark of Gaussian, Inc.
  
 This software contains proprietary and confidential information,
 including trade secrets, belonging to Gaussian, Inc.
  
 This software is provided under written license and may be
 used, copied, transmitted, or stored only in accord with that
 written license.
  
 The following legend is applicable only to US Government
 contracts under FAR:
  
                    RESTRICTED RIGHTS LEGEND
  
 Use, reproduction and disclosure by the US Government is
 subject to restrictions as set forth in subparagraphs (a)
 and (c) of the Commercial Computer Software - Restricted
 Rights clause in FAR 52.227-19.
  
 Gaussian, Inc.
 340 Quinnipiac St., Bldg. 40, Wallingford CT 06492
  
  
 ---------------------------------------------------------------
 Warning -- This program may not be used in any manner that
 competes with the business of Gaussian, Inc. or will provide
 assistance to any competitor of Gaussian, Inc.  The licensee
 of this program is prohibited from giving any competitor of
 Gaussian, Inc. access to this program.  By using this program,
 the user acknowledges that Gaussian, Inc. is engaged in the
 business of creating and licensing software in the field of
 computational chemistry and represents and warrants to the
 licensee that it is not a competitor of Gaussian, Inc. and that
 it will not use this program in any manner prohibited above.
 ---------------------------------------------------------------
  

 Cite this work as:
 Gaussian 16, Revision A.03,
 M. J. Frisch, G. W. Trucks, H. B. Schlegel, G. E. Scuseria, 
 M. A. Robb, J. R. Cheeseman, G. Scalmani, V. Barone, 
 G. A. Petersson, H. Nakatsuji, X. Li, M. Caricato, A. V. Marenich, 
 J. Bloino, B. G. Janesko, R. Gomperts, B. Mennucci, H. P. Hratchian, 
 J. V. Ortiz, A. F. Izmaylov, J. L. Sonnenberg, D. Williams-Young, 
 F. Ding, F. Lipparini, F. Egidi, J. Goings, B. Peng, A. Petrone, 
 T. Henderson, D. Ranasinghe, V. G. Zakrzewski, J. Gao, N. Rega, 
 G. Zheng, W. Liang, M. Hada, M. Ehara, K. Toyota, R. Fukuda, 
 J. Hasegawa, M. Ishida, T. Nakajima, Y. Honda, O. Kitao, H. Nakai, 
 T. Vreven, K. Throssell, J. A. Montgomery, Jr., J. E. Peralta, 
 F. Ogliaro, M. J. Bearpark, J. J. Heyd, E. N. Brothers, K. N. Kudin, 
 V. N. Staroverov, T. A. Keith, R. Kobayashi, J. Normand, 
 K. Raghavachari, A. P. Rendell, J. C. Burant, S. S. Iyengar, 
 J. Tomasi, M. Cossi, J. M. Millam, M. Klene, C. Adamo, R. Cammi, 
 J. W. Ochterski, R. L. Martin, K. Morokuma, O. Farkas, 
 J. B. Foresman, and D. J. Fox, Gaussian, Inc., Wallingford CT, 2016.
 
 ******************************************
 Gaussian 16:  ES64L-G16RevA.03 25-Dec-2016
                 1-Jun-2021 
 ******************************************
 %chk=CCCCCpNpdNNdCNC.chk
 %NProcShared=20
 Will use up to   20 processors via shared memory.
 -----------------------------
 # opt freq b3lyp/6-31g(2df,p)
 -----------------------------
 1/18=20,19=15,26=3,38=1/1,3;
 2/9=110,12=2,17=6,18=5,40=1/2;
 3/5=1,6=6,7=104,11=2,25=1,30=1,71=1,74=-5/1,2,3;
 4//1;
 5/5=2,38=5/2;
 6/7=2,8=2,9=2,10=2,28=1/1;
 7//1,2,3,16;
 1/18=20,19=15,26=3/3(2);
 2/9=110/2;
 99//99;
 2/9=110/2;
 3/5=1,6=6,7=104,11=2,25=1,30=1,71=1,74=-5/1,2,3;
 4/5=5,16=3,69=1/1;
 5/5=2,38=5/2;
 7//1,2,3,16;
 1/18=20,19=15,26=3/3(-5);
 2/9=110/2;
 6/7=2,8=2,9=2,10=2,19=2,28=1/1;
 99/9=1/99;
 -------------------
 Title Card Required
 -------------------
 Symbolic Z-matrix:
 Charge =  0 Multiplicity = 1
 C                     1.06142   0.01484  -0.0788 
 C                     2.58501   0.02246  -0.07611 
 C                     3.10454   1.37533   0.40017 
 C                     4.63283   1.46968   0.43339 
 C                     5.15336   2.83055   0.91249 
 N                     4.25705   3.80308   1.25488 
 N                     6.44854   3.01271   0.97663 
 N                     6.7816    4.30731   1.4324 
 C                     8.06331   4.49192   1.49739 
 N                     8.6341    5.66128   1.90907 
 C                     10.04126   5.94348   2.00843 
 H                     0.68145  -0.95255  -0.41937 
 H                     0.66762   0.78988  -0.7452 
 H                     0.66762   0.20146   0.92617 
 H                     2.95081  -0.18692  -1.08735 
 H                     2.95081  -0.77425   0.58092 
 H                     2.70613   1.56968   1.40422 
 H                     2.70612   2.15582  -0.26067 
 H                     5.03855   1.28394  -0.56838 
 H                     5.03855   0.69733   1.09786 
 H                     3.25563   3.70078   1.21887 
 H                     4.66411   4.67777   1.56282 
 H                     8.79262   3.7095    1.22194 
 H                     7.99158   6.39974   2.16905 
 H                     10.66173   5.09362   1.70923 
 H                     10.29866   6.20965   3.03903 
 H                     10.29866   6.79659   1.37187 
 

 GradGradGradGradGradGradGradGradGradGradGradGradGradGradGradGradGradGrad
 Berny optimization.
 Initialization pass.
                           ----------------------------
                           !    Initial Parameters    !
                           ! (Angstroms and Degrees)  !
 --------------------------                            --------------------------
 ! Name  Definition              Value          Derivative Info.                !
 --------------------------------------------------------------------------------
 ! R1    R(1,2)                  1.5236         estimate D2E/DX2                !
 ! R2    R(1,12)                 1.0937         estimate D2E/DX2                !
 ! R3    R(1,13)                 1.0954         estimate D2E/DX2                !
 ! R4    R(1,14)                 1.0954         estimate D2E/DX2                !
 ! R5    R(2,3)                  1.5255         estimate D2E/DX2                !
 ! R6    R(2,15)                 1.0956         estimate D2E/DX2                !
 ! R7    R(2,16)                 1.0956         estimate D2E/DX2                !
 ! R8    R(3,4)                  1.5316         estimate D2E/DX2                !
 ! R9    R(3,17)                 1.0976         estimate D2E/DX2                !
 ! R10   R(3,18)                 1.0975         estimate D2E/DX2                !
 ! R11   R(4,5)                  1.5338         estimate D2E/DX2                !
 ! R12   R(4,19)                 1.0967         estimate D2E/DX2                !
 ! R13   R(4,20)                 1.0967         estimate D2E/DX2                !
 ! R14   R(5,6)                  1.3662         estimate D2E/DX2                !
 ! R15   R(5,7)                  1.3095         estimate D2E/DX2                !
 ! R16   R(6,21)                 1.0073         estimate D2E/DX2                !
 ! R17   R(6,22)                 1.0127         estimate D2E/DX2                !
 ! R18   R(7,8)                  1.4123         estimate D2E/DX2                !
 ! R19   R(8,9)                  1.2966         estimate D2E/DX2                !
 ! R20   R(9,10)                 1.3648         estimate D2E/DX2                !
 ! R21   R(9,23)                 1.1045         estimate D2E/DX2                !
 ! R22   R(10,11)                1.4386         estimate D2E/DX2                !
 ! R23   R(10,24)                1.0128         estimate D2E/DX2                !
 ! R24   R(11,25)                1.094          estimate D2E/DX2                !
 ! R25   R(11,26)                1.0951         estimate D2E/DX2                !
 ! R26   R(11,27)                1.0951         estimate D2E/DX2                !
 ! A1    A(2,1,12)             110.633          estimate D2E/DX2                !
 ! A2    A(2,1,13)             110.9186         estimate D2E/DX2                !
 ! A3    A(2,1,14)             110.918          estimate D2E/DX2                !
 ! A4    A(12,1,13)            108.1492         estimate D2E/DX2                !
 ! A5    A(12,1,14)            108.1484         estimate D2E/DX2                !
 ! A6    A(13,1,14)            107.9607         estimate D2E/DX2                !
 ! A7    A(1,2,3)              110.2157         estimate D2E/DX2                !
 ! A8    A(1,2,15)             109.3478         estimate D2E/DX2                !
 ! A9    A(1,2,16)             109.3484         estimate D2E/DX2                !
 ! A10   A(3,2,15)             110.1189         estimate D2E/DX2                !
 ! A11   A(3,2,16)             110.1197         estimate D2E/DX2                !
 ! A12   A(15,2,16)            107.6436         estimate D2E/DX2                !
 ! A13   A(2,3,4)              113.6565         estimate D2E/DX2                !
 ! A14   A(2,3,17)             108.6047         estimate D2E/DX2                !
 ! A15   A(2,3,18)             108.6052         estimate D2E/DX2                !
 ! A16   A(4,3,17)             109.3582         estimate D2E/DX2                !
 ! A17   A(4,3,18)             109.359          estimate D2E/DX2                !
 ! A18   A(17,3,18)            107.0447         estimate D2E/DX2                !
 ! A19   A(3,4,5)              113.5837         estimate D2E/DX2                !
 ! A20   A(3,4,19)             109.8113         estimate D2E/DX2                !
 ! A21   A(3,4,20)             109.8115         estimate D2E/DX2                !
 ! A22   A(5,4,19)             108.0629         estimate D2E/DX2                !
 ! A23   A(5,4,20)             108.063          estimate D2E/DX2                !
 ! A24   A(19,4,20)            107.2971         estimate D2E/DX2                !
 ! A25   A(4,5,6)              119.1597         estimate D2E/DX2                !
 ! A26   A(4,5,7)              118.3198         estimate D2E/DX2                !
 ! A27   A(6,5,7)              122.5205         estimate D2E/DX2                !
 ! A28   A(5,6,21)             124.8203         estimate D2E/DX2                !
 ! A29   A(5,6,22)             115.2988         estimate D2E/DX2                !
 ! A30   A(21,6,22)            119.8809         estimate D2E/DX2                !
 ! A31   A(5,7,8)              112.1211         estimate D2E/DX2                !
 ! A32   A(7,8,9)              112.3222         estimate D2E/DX2                !
 ! A33   A(8,9,10)             123.4043         estimate D2E/DX2                !
 ! A34   A(8,9,23)             122.6409         estimate D2E/DX2                !
 ! A35   A(10,9,23)            113.9548         estimate D2E/DX2                !
 ! A36   A(9,10,11)            126.7255         estimate D2E/DX2                !
 ! A37   A(9,10,24)            115.9017         estimate D2E/DX2                !
 ! A38   A(11,10,24)           117.3728         estimate D2E/DX2                !
 ! A39   A(10,11,25)           112.5503         estimate D2E/DX2                !
 ! A40   A(10,11,26)           110.0345         estimate D2E/DX2                !
 ! A41   A(10,11,27)           110.0337         estimate D2E/DX2                !
 ! A42   A(25,11,26)           108.234          estimate D2E/DX2                !
 ! A43   A(25,11,27)           108.234          estimate D2E/DX2                !
 ! A44   A(26,11,27)           107.6048         estimate D2E/DX2                !
 ! D1    D(12,1,2,3)          -179.9999         estimate D2E/DX2                !
 ! D2    D(12,1,2,15)           58.8158         estimate D2E/DX2                !
 ! D3    D(12,1,2,16)          -58.8144         estimate D2E/DX2                !
 ! D4    D(13,1,2,3)            59.9833         estimate D2E/DX2                !
 ! D5    D(13,1,2,15)          -61.2009         estimate D2E/DX2                !
 ! D6    D(13,1,2,16)         -178.8312         estimate D2E/DX2                !
 ! D7    D(14,1,2,3)           -59.9846         estimate D2E/DX2                !
 ! D8    D(14,1,2,15)          178.8312         estimate D2E/DX2                !
 ! D9    D(14,1,2,16)           61.2009         estimate D2E/DX2                !
 ! D10   D(1,2,3,4)           -179.9999         estimate D2E/DX2                !
 ! D11   D(1,2,3,17)            58.0418         estimate D2E/DX2                !
 ! D12   D(1,2,3,18)           -58.0402         estimate D2E/DX2                !
 ! D13   D(15,2,3,4)           -59.2768         estimate D2E/DX2                !
 ! D14   D(15,2,3,17)          178.7648         estimate D2E/DX2                !
 ! D15   D(15,2,3,18)           62.6829         estimate D2E/DX2                !
 ! D16   D(16,2,3,4)            59.2759         estimate D2E/DX2                !
 ! D17   D(16,2,3,17)          -62.6824         estimate D2E/DX2                !
 ! D18   D(16,2,3,18)         -178.7644         estimate D2E/DX2                !
 ! D19   D(2,3,4,5)           -179.9999         estimate D2E/DX2                !
 ! D20   D(2,3,4,19)            58.8778         estimate D2E/DX2                !
 ! D21   D(2,3,4,20)           -58.8772         estimate D2E/DX2                !
 ! D22   D(17,3,4,5)           -58.4604         estimate D2E/DX2                !
 ! D23   D(17,3,4,19)         -179.5827         estimate D2E/DX2                !
 ! D24   D(17,3,4,20)           62.6623         estimate D2E/DX2                !
 ! D25   D(18,3,4,5)            58.4594         estimate D2E/DX2                !
 ! D26   D(18,3,4,19)          -62.6629         estimate D2E/DX2                !
 ! D27   D(18,3,4,20)          179.5821         estimate D2E/DX2                !
 ! D28   D(3,4,5,6)              0.0004         estimate D2E/DX2                !
 ! D29   D(3,4,5,7)            179.9997         estimate D2E/DX2                !
 ! D30   D(19,4,5,6)           122.0976         estimate D2E/DX2                !
 ! D31   D(19,4,5,7)           -57.9032         estimate D2E/DX2                !
 ! D32   D(20,4,5,6)          -122.097          estimate D2E/DX2                !
 ! D33   D(20,4,5,7)            57.9022         estimate D2E/DX2                !
 ! D34   D(4,5,6,21)             0.0            estimate D2E/DX2                !
 ! D35   D(4,5,6,22)           179.9999         estimate D2E/DX2                !
 ! D36   D(7,5,6,21)          -179.9992         estimate D2E/DX2                !
 ! D37   D(7,5,6,22)             0.0007         estimate D2E/DX2                !
 ! D38   D(4,5,7,8)           -179.9999         estimate D2E/DX2                !
 ! D39   D(6,5,7,8)             -0.0007         estimate D2E/DX2                !
 ! D40   D(5,7,8,9)           -179.9994         estimate D2E/DX2                !
 ! D41   D(7,8,9,10)          -179.9999         estimate D2E/DX2                !
 ! D42   D(7,8,9,23)            -0.0004         estimate D2E/DX2                !
 ! D43   D(8,9,10,11)          179.9994         estimate D2E/DX2                !
 ! D44   D(8,9,10,24)           -0.0001         estimate D2E/DX2                !
 ! D45   D(23,9,10,11)          -0.0002         estimate D2E/DX2                !
 ! D46   D(23,9,10,24)        -179.9997         estimate D2E/DX2                !
 ! D47   D(9,10,11,25)           0.0005         estimate D2E/DX2                !
 ! D48   D(9,10,11,26)        -120.7996         estimate D2E/DX2                !
 ! D49   D(9,10,11,27)         120.8            estimate D2E/DX2                !
 ! D50   D(24,10,11,25)       -180.0            estimate D2E/DX2                !
 ! D51   D(24,10,11,26)         59.1999         estimate D2E/DX2                !
 ! D52   D(24,10,11,27)        -59.2005         estimate D2E/DX2                !
 --------------------------------------------------------------------------------
 Trust Radius=3.00D-01 FncErr=1.00D-07 GrdErr=1.00D-06 EigMax=2.50D+02 EigMin=1.00D-04
 Number of steps in this run=    132 maximum allowed number of steps=    162.
 GradGradGradGradGradGradGradGradGradGradGradGradGradGradGradGradGradGrad

                          Input orientation:                          
 ---------------------------------------------------------------------
 Center     Atomic      Atomic             Coordinates (Angstroms)
 Number     Number       Type             X           Y           Z
 ---------------------------------------------------------------------
      1          6           0        1.061420    0.014840   -0.078800
      2          6           0        2.585010    0.022460   -0.076110
      3          6           0        3.104540    1.375330    0.400170
      4          6           0        4.632830    1.469680    0.433390
      5          6           0        5.153360    2.830550    0.912490
      6          7           0        4.257050    3.803080    1.254880
      7          7           0        6.448540    3.012710    0.976630
      8          7           0        6.781600    4.307310    1.432400
      9          6           0        8.063310    4.491920    1.497390
     10          7           0        8.634100    5.661280    1.909070
     11          6           0       10.041260    5.943480    2.008430
     12          1           0        0.681450   -0.952550   -0.419370
     13          1           0        0.667620    0.789880   -0.745200
     14          1           0        0.667620    0.201460    0.926170
     15          1           0        2.950810   -0.186920   -1.087350
     16          1           0        2.950810   -0.774250    0.580920
     17          1           0        2.706130    1.569680    1.404220
     18          1           0        2.706120    2.155820   -0.260670
     19          1           0        5.038550    1.283940   -0.568380
     20          1           0        5.038550    0.697330    1.097860
     21          1           0        3.255630    3.700780    1.218870
     22          1           0        4.664110    4.677770    1.562820
     23          1           0        8.792620    3.709500    1.221940
     24          1           0        7.991580    6.399740    2.169050
     25          1           0       10.661730    5.093620    1.709230
     26          1           0       10.298660    6.209650    3.039030
     27          1           0       10.298660    6.796590    1.371870
 ---------------------------------------------------------------------
                    Distance matrix (angstroms):
                    1          2          3          4          5
     1  C    0.000000
     2  C    1.523611   0.000000
     3  C    2.500937   1.525454   0.000000
     4  C    3.890227   2.558828   1.531560   0.000000
     5  C    5.065062   3.931809   2.564722   1.533772   0.000000
     6  N    5.132399   4.342849   2.820067   2.502161   1.366169
     7  N    6.254776   4.997672   3.767712   2.443942   1.309499
     8  N    7.309547   6.184409   4.814850   3.696942   2.258825
     9  C    8.459024   7.243186   5.958727   4.694063   3.401480
    10  N    9.652947   8.504629   7.156967   5.979741   4.595841
    11  C   10.960968   9.746766   8.460058   7.193522   5.897710
    12  H    1.093713   2.166105   3.458618   4.712515   6.006969
    13  H    1.095379   2.170944   2.755577   4.192147   5.199436
    14  H    1.095386   2.170942   2.755581   4.192148   5.199439
    15  H    2.151203   1.095562   2.162631   2.808232   4.237418
    16  H    2.151206   1.095557   2.162637   2.808234   4.237422
    17  H    2.705910   2.144746   1.097551   2.159788   2.796520
    18  H    2.705903   2.144751   1.097548   2.159796   2.796524
    19  H    4.203316   2.802413   2.164910   1.096655   2.144332
    20  H    4.203318   2.802412   2.164913   1.096656   2.144335
    21  H    4.481591   3.956860   2.469983   2.737054   2.110106
    22  H    6.116961   5.355433   3.832770   3.401240   2.018543
    23  H    8.666827   7.335777   6.203056   4.789829   3.756664
    24  H    9.687461   8.656873   7.228886   6.212826   4.730069
    25  H   11.007134   9.702449   8.523523   7.149010   6.008196
    26  H   11.550893  10.367537   9.060331   7.833154   6.512649
    27  H   11.550895  10.367540   9.060332   7.833157   6.512650
                    6          7          8          9         10
     6  N    0.000000
     7  N    2.346217   0.000000
     8  N    2.580526   1.412319   0.000000
     9  C    3.875684   2.250941   1.296567   0.000000
    10  N    4.799942   3.558236   2.343545   1.364802   0.000000
    11  C    6.213392   4.749912   3.692458   2.506087   1.438613
    12  H    6.180942   7.136626   8.264805   9.370597  10.602312
    13  H    5.095459   6.428430   7.382073   8.569162   9.707754
    14  H    5.095461   6.428430   7.382075   8.569164   9.707756
    15  H    4.807536   5.170277   6.420451   7.396626   8.687909
    16  H    4.807539   5.170277   6.420453   7.396629   8.687912
    17  H    2.723184   4.033708   4.909671   6.103077   7.220588
    18  H    2.723186   4.033718   4.909677   6.103083   7.220593
    19  H    3.206413   2.713627   4.022699   4.869057   6.182786
    20  H    3.206412   2.713624   4.022698   4.869056   6.182786
    21  H    1.007276   3.275179   3.584123   4.880293   5.766097
    22  H    1.012723   2.510027   2.153605   3.404906   4.104632
    23  H    4.536655   2.457723   2.108524   1.104512   2.075264
    24  H    4.639511   3.908300   2.526849   2.023870   1.012791
    25  H    6.549187   4.755824   3.968668   2.675576   2.115055
    26  H    6.743576   5.412702   4.309277   3.213104   2.085253
    27  H    6.743578   5.412706   4.309280   3.213106   2.085251
                   11         12         13         14         15
    11  C    0.000000
    12  H   11.876678   0.000000
    13  H   11.045687   1.772687   0.000000
    14  H   11.045687   1.772684   1.771924   0.000000
    15  H    9.871177   2.486439   2.506823   3.068886   0.000000
    16  H    9.871178   2.486436   3.068885   2.506824   1.768638
    17  H    8.561503   3.713011   3.063269   2.501216   3.058338
    18  H    8.561510   3.713009   2.501208   3.063265   2.496338
    19  H    7.306050   4.899838   4.402316   4.744520   2.606035
    20  H    7.306048   4.899838   4.744519   4.402317   3.148920
    21  H    7.190124   5.564505   4.362190   4.362191   4.530538
    22  H    5.542051   7.175734   6.034449   6.034452   5.798621
    23  H    2.677375   9.498404   8.854911   8.854911   7.391999
    24  H    2.105982  10.686163   9.674904   9.674906   8.910533
    25  H    1.093968  11.861412  11.154759  11.154759   9.755165
    26  H    1.095097  12.479919  11.681234  11.546404  10.579887
    27  H    1.095107  12.479921  11.546406  11.681238  10.431111
                   16         17         18         19         20
    16  H    0.000000
    17  H    2.496337   0.000000
    18  H    3.058342   1.765055   0.000000
    19  H    3.148920   3.068058   2.509002   0.000000
    20  H    2.606038   2.508991   3.068066   1.766484   0.000000
    21  H    4.530540   2.208595   2.208597   3.494879   3.494876
    22  H    5.798625   3.676828   3.676829   4.024960   4.024959
    23  H    7.392000   6.454256   6.454265   4.814730   4.814728
    24  H    8.910536   7.200724   7.200728   6.510401   6.510400
    25  H    9.755166   8.706478   8.706486   7.163890   7.163888
    26  H   10.431110   9.047013   9.217821   8.058833   7.862733
    27  H   10.579892   9.217817   9.047021   7.862737   8.058834
                   21         22         23         24         25
    21  H    0.000000
    22  H    1.748321   0.000000
    23  H    5.536998   4.254214   0.000000
    24  H    5.533213   3.795359   2.962444   0.000000
    25  H    7.551872   6.013802   2.376302   3.007837   0.000000
    26  H    7.694913   6.022791   3.438128   2.472977   1.773615
    27  H    7.694915   6.022791   3.438133   2.472975   1.773623
                   26         27
    26  H    0.000000
    27  H    1.767462   0.000000
 Stoichiometry    C7H16N4
 Framework group  C1[X(C7H16N4)]
 Deg. of freedom    75
 Full point group                 C1      NOp   1
 Largest Abelian subgroup         C1      NOp   1
 Largest concise Abelian subgroup C1      NOp   1
                         Standard orientation:                         
 ---------------------------------------------------------------------
 Center     Atomic      Atomic             Coordinates (Angstroms)
 Number     Number       Type             X           Y           Z
 ---------------------------------------------------------------------
      1          6           0       -5.402550    0.230724   -0.000002
      2          6           0       -4.195430   -0.698928    0.000003
      3          6           0       -2.904359    0.113566   -0.000003
      4          6           0       -1.637042   -0.746425   -0.000002
      5          6           0       -0.339971    0.072148   -0.000004
      6          7           0       -0.413757    1.436322    0.000002
      7          7           0        0.800609   -0.571177    0.000003
      8          7           0        1.906598    0.307135    0.000002
      9          6           0        3.038143   -0.325868   -0.000003
     10          7           0        4.250137    0.301630   -0.000004
     11          6           0        5.544230   -0.326806    0.000004
     12          1           0       -6.332434   -0.345056    0.000003
     13          1           0       -5.400094    0.874875   -0.885958
     14          1           0       -5.400095    0.874870    0.885966
     15          1           0       -4.234446   -1.344454   -0.884322
     16          1           0       -4.234448   -1.344460    0.884317
     17          1           0       -2.901250    0.766056    0.882531
     18          1           0       -2.901256    0.766069   -0.882524
     19          1           0       -1.628929   -1.396401   -0.883244
     20          1           0       -1.628928   -1.396403    0.883240
     21          1           0       -1.270535    1.965979    0.000008
     22          1           0        0.477126    1.917918    0.000002
     23          1           0        3.103986   -1.428415    0.000001
     24          1           0        4.224143    1.314087   -0.000002
     25          1           0        5.480269   -1.418902    0.000001
     26          1           0        6.111827   -0.016809    0.883730
     27          1           0        6.111830   -0.016802   -0.883731
 ---------------------------------------------------------------------
 Rotational constants (GHZ):           6.0362208           0.2821700           0.2718525
 Standard basis: 6-31G(2df,p) (6D, 7F)
 There are   421 symmetry adapted cartesian basis functions of A   symmetry.
 There are   388 symmetry adapted basis functions of A   symmetry.
   388 basis functions,   596 primitive gaussians,   421 cartesian basis functions
    43 alpha electrons       43 beta electrons
       nuclear repulsion energy       588.9264669456 Hartrees.
 NAtoms=   27 NActive=   27 NUniq=   27 SFac= 1.00D+00 NAtFMM=   60 NAOKFM=F Big=F
 Integral buffers will be    131072 words long.
 Raffenetti 2 integral format.
 Two-electron integral symmetry is turned on.
 One-electron integrals computed using PRISM.
 PrsmSu:  requested number of processors reduced to:  13 ShMem   1 Linda.
 NBasis=   388 RedAO= T EigKep=  2.09D-04  NBF=   388
 NBsUse=   388 1.00D-06 EigRej= -1.00D+00 NBFU=   388
 ExpMin= 1.61D-01 ExpMax= 4.17D+03 ExpMxC= 6.27D+02 IAcc=3 IRadAn=         5 AccDes= 0.00D+00
 Harris functional with IExCor=  402 and IRadAn=       5 diagonalized for initial guess.
 HarFok:  IExCor=  402 AccDes= 0.00D+00 IRadAn=         5 IDoV= 1 UseB2=F ITyADJ=14
 ICtDFT=  3500011 ScaDFX=  1.000000  1.000000  1.000000  1.000000
 FoFCou: FMM=F IPFlag=           0 FMFlag=      100000 FMFlg1=           0
         NFxFlg=           0 DoJE=T BraDBF=F KetDBF=T FulRan=T
         wScrn=  0.000000 ICntrl=       500 IOpCl=  0 I1Cent=   200000004 NGrid=           0
         NMat0=    1 NMatS0=      1 NMatT0=    0 NMatD0=    1 NMtDS0=    0 NMtDT0=    0
 Petite list used in FoFCou.
 Requested convergence on RMS density matrix=1.00D-08 within 128 cycles.
 Requested convergence on MAX density matrix=1.00D-06.
 Requested convergence on             energy=1.00D-06.
 No special actions if energy rises.
 Integral accuracy reduced to 1.0D-05 until final iterations.
 Initial convergence to 1.0D-05 achieved.  Increase integral accuracy.
 SCF Done:  E(RB3LYP) =  -495.391910126     A.U. after   13 cycles
            NFock= 13  Conv=0.64D-08     -V/T= 2.0083

 **********************************************************************

            Population analysis using the SCF density.

 **********************************************************************

 Orbital symmetries:
       Occupied  (A) (A) (A) (A) (A) (A) (A) (A) (A) (A) (A) (A)
                 (A) (A) (A) (A) (A) (A) (A) (A) (A) (A) (A) (A)
                 (A) (A) (A) (A) (A) (A) (A) (A) (A) (A) (A) (A)
                 (A) (A) (A) (A) (A) (A) (A)
       Virtual   (A) (A) (A) (A) (A) (A) (A) (A) (A) (A) (A) (A)
                 (A) (A) (A) (A) (A) (A) (A) (A) (A) (A) (A) (A)
                 (A) (A) (A) (A) (A) (A) (A) (A) (A) (A) (A) (A)
                 (A) (A) (A) (A) (A) (A) (A) (A) (A) (A) (A) (A)
                 (A) (A) (A) (A) (A) (A) (A) (A) (A) (A) (A) (A)
                 (A) (A) (A) (A) (A) (A) (A) (A) (A) (A) (A) (A)
                 (A) (A) (A) (A) (A) (A) (A) (A) (A) (A) (A) (A)
                 (A) (A) (A) (A) (A) (A) (A) (A) (A) (A) (A) (A)
                 (A) (A) (A) (A) (A) (A) (A) (A) (A) (A) (A) (A)
                 (A) (A) (A) (A) (A) (A) (A) (A) (A) (A) (A) (A)
                 (A) (A) (A) (A) (A) (A) (A) (A) (A) (A) (A) (A)
                 (A) (A) (A) (A) (A) (A) (A) (A) (A) (A) (A) (A)
                 (A) (A) (A) (A) (A) (A) (A) (A) (A) (A) (A) (A)
                 (A) (A) (A) (A) (A) (A) (A) (A) (A) (A) (A) (A)
                 (A) (A) (A) (A) (A) (A) (A) (A) (A) (A) (A) (A)
                 (A) (A) (A) (A) (A) (A) (A) (A) (A) (A) (A) (A)
                 (A) (A) (A) (A) (A) (A) (A) (A) (A) (A) (A) (A)
                 (A) (A) (A) (A) (A) (A) (A) (A) (A) (A) (A) (A)
                 (A) (A) (A) (A) (A) (A) (A) (A) (A) (A) (A) (A)
                 (A) (A) (A) (A) (A) (A) (A) (A) (A) (A) (A) (A)
                 (A) (A) (A) (A) (A) (A) (A) (A) (A) (A) (A) (A)
                 (A) (A) (A) (A) (A) (A) (A) (A) (A) (A) (A) (A)
                 (A) (A) (A) (A) (A) (A) (A) (A) (A) (A) (A) (A)
                 (A) (A) (A) (A) (A) (A) (A) (A) (A) (A) (A) (A)
                 (A) (A) (A) (A) (A) (A) (A) (A) (A) (A) (A) (A)
                 (A) (A) (A) (A) (A) (A) (A) (A) (A) (A) (A) (A)
                 (A) (A) (A) (A) (A) (A) (A) (A) (A) (A) (A) (A)
                 (A) (A) (A) (A) (A) (A) (A) (A) (A) (A) (A) (A)
                 (A) (A) (A) (A) (A) (A) (A) (A) (A)
 The electronic state is 1-A.
 Alpha  occ. eigenvalues --  -14.34205 -14.31825 -14.30000 -14.28733 -10.22677
 Alpha  occ. eigenvalues --  -10.22331 -10.22108 -10.17898 -10.17793 -10.17750
 Alpha  occ. eigenvalues --  -10.17092  -0.95695  -0.92506  -0.87208  -0.79750
 Alpha  occ. eigenvalues --   -0.77502  -0.72847  -0.69018  -0.63756  -0.59544
 Alpha  occ. eigenvalues --   -0.57837  -0.54690  -0.51224  -0.50025  -0.47440
 Alpha  occ. eigenvalues --   -0.45558  -0.44317  -0.44217  -0.42144  -0.41860
 Alpha  occ. eigenvalues --   -0.39865  -0.39035  -0.37144  -0.36208  -0.34918
 Alpha  occ. eigenvalues --   -0.33282  -0.32736  -0.32113  -0.31489  -0.31285
 Alpha  occ. eigenvalues --   -0.24851  -0.19820  -0.16218
 Alpha virt. eigenvalues --    0.03327   0.08683   0.09027   0.09479   0.10509
 Alpha virt. eigenvalues --    0.11330   0.12593   0.13170   0.13569   0.15312
 Alpha virt. eigenvalues --    0.16199   0.16566   0.17338   0.17943   0.19025
 Alpha virt. eigenvalues --    0.19339   0.19528   0.21472   0.21556   0.22347
 Alpha virt. eigenvalues --    0.23124   0.24643   0.27454   0.30813   0.31738
 Alpha virt. eigenvalues --    0.35300   0.36863   0.41144   0.43126   0.46246
 Alpha virt. eigenvalues --    0.47793   0.47990   0.48039   0.50229   0.50925
 Alpha virt. eigenvalues --    0.51142   0.51995   0.54196   0.55351   0.56283
 Alpha virt. eigenvalues --    0.57866   0.58070   0.59139   0.59857   0.61376
 Alpha virt. eigenvalues --    0.61886   0.62404   0.65344   0.65896   0.66697
 Alpha virt. eigenvalues --    0.68658   0.69200   0.69880   0.71718   0.72108
 Alpha virt. eigenvalues --    0.72671   0.72900   0.74553   0.75060   0.75843
 Alpha virt. eigenvalues --    0.76237   0.76679   0.76743   0.77414   0.79048
 Alpha virt. eigenvalues --    0.80282   0.80323   0.80674   0.81581   0.82099
 Alpha virt. eigenvalues --    0.83452   0.84306   0.84833   0.85910   0.87702
 Alpha virt. eigenvalues --    0.88432   0.88472   0.89398   0.91730   0.94614
 Alpha virt. eigenvalues --    0.98014   0.99461   1.00138   1.03758   1.07334
 Alpha virt. eigenvalues --    1.07759   1.07922   1.09321   1.15810   1.17415
 Alpha virt. eigenvalues --    1.20235   1.20507   1.20885   1.22292   1.22429
 Alpha virt. eigenvalues --    1.23396   1.25304   1.28537   1.30346   1.32136
 Alpha virt. eigenvalues --    1.33101   1.35641   1.37613   1.38834   1.40197
 Alpha virt. eigenvalues --    1.42414   1.44725   1.46030   1.47393   1.51494
 Alpha virt. eigenvalues --    1.52926   1.53546   1.54670   1.56537   1.57820
 Alpha virt. eigenvalues --    1.58770   1.59668   1.60139   1.63956   1.64675
 Alpha virt. eigenvalues --    1.68232   1.69937   1.70572   1.72417   1.77389
 Alpha virt. eigenvalues --    1.77894   1.81410   1.84278   1.84888   1.84986
 Alpha virt. eigenvalues --    1.86561   1.88534   1.90733   1.93551   1.93657
 Alpha virt. eigenvalues --    1.95414   1.95973   1.97533   1.97904   2.01520
 Alpha virt. eigenvalues --    2.06487   2.13169   2.13971   2.18278   2.18674
 Alpha virt. eigenvalues --    2.20071   2.22344   2.23363   2.24388   2.27488
 Alpha virt. eigenvalues --    2.28051   2.28485   2.33613   2.34067   2.36000
 Alpha virt. eigenvalues --    2.37037   2.43016   2.43380   2.44518   2.52020
 Alpha virt. eigenvalues --    2.58027   2.59811   2.60219   2.62091   2.63722
 Alpha virt. eigenvalues --    2.65733   2.70124   2.72957   2.74232   2.75401
 Alpha virt. eigenvalues --    2.76642   2.78061   2.78087   2.79553   2.80834
 Alpha virt. eigenvalues --    2.81526   2.82898   2.83414   2.87585   2.88561
 Alpha virt. eigenvalues --    2.88924   2.89426   2.90149   2.93005   2.94230
 Alpha virt. eigenvalues --    2.95092   3.00656   3.01505   3.02287   3.03873
 Alpha virt. eigenvalues --    3.04774   3.04844   3.08207   3.09601   3.11265
 Alpha virt. eigenvalues --    3.12626   3.13623   3.14068   3.15683   3.20521
 Alpha virt. eigenvalues --    3.21318   3.22661   3.26208   3.29494   3.29624
 Alpha virt. eigenvalues --    3.32378   3.32870   3.37102   3.37800   3.40068
 Alpha virt. eigenvalues --    3.40128   3.46261   3.46740   3.50546   3.50772
 Alpha virt. eigenvalues --    3.51673   3.54973   3.58384   3.58543   3.60603
 Alpha virt. eigenvalues --    3.62170   3.62263   3.62722   3.65498   3.68888
 Alpha virt. eigenvalues --    3.69292   3.70920   3.73486   3.75136   3.75672
 Alpha virt. eigenvalues --    3.77329   3.78327   3.81451   3.82971   3.84770
 Alpha virt. eigenvalues --    3.86005   3.89789   3.92860   3.96020   3.96628
 Alpha virt. eigenvalues --    4.01412   4.01991   4.03398   4.03781   4.05611
 Alpha virt. eigenvalues --    4.10060   4.12917   4.13985   4.15714   4.18680
 Alpha virt. eigenvalues --    4.20683   4.21195   4.21966   4.24744   4.24796
 Alpha virt. eigenvalues --    4.27368   4.32262   4.35140   4.36598   4.38183
 Alpha virt. eigenvalues --    4.39741   4.40850   4.41155   4.42298   4.43517
 Alpha virt. eigenvalues --    4.43942   4.47267   4.47922   4.50458   4.50966
 Alpha virt. eigenvalues --    4.51175   4.52834   4.53070   4.55515   4.57524
 Alpha virt. eigenvalues --    4.58430   4.60181   4.62470   4.62743   4.62892
 Alpha virt. eigenvalues --    4.64449   4.64536   4.66854   4.68376   4.69089
 Alpha virt. eigenvalues --    4.69762   4.71265   4.71723   4.72750   4.73846
 Alpha virt. eigenvalues --    4.75455   4.77213   4.77768   4.79596   4.81234
 Alpha virt. eigenvalues --    4.83671   4.84027   4.85368   4.87094   4.88447
 Alpha virt. eigenvalues --    4.88542   4.93348   4.94007   4.95858   4.96609
 Alpha virt. eigenvalues --    4.99723   5.02797   5.03097   5.04838   5.09771
 Alpha virt. eigenvalues --    5.14493   5.16814   5.23627   5.25555   5.25590
 Alpha virt. eigenvalues --    5.27314   5.36768   5.37602   5.46482   5.50273
 Alpha virt. eigenvalues --    5.51367   5.57519   5.63081   5.67278   5.72500
 Alpha virt. eigenvalues --    5.83014   5.88784   5.96152   6.11165   6.25624
 Alpha virt. eigenvalues --    9.35880  10.47683  10.57338  11.21896  11.30856
 Alpha virt. eigenvalues --   11.31784  11.38052  11.43263  11.57988  11.71203
 Alpha virt. eigenvalues --   12.07142  12.45076  13.69564  14.55349  17.64935
          Condensed to atoms (all electrons):
               1          2          3          4          5          6
     1  C    4.949470   0.407075  -0.035854   0.002023  -0.000143   0.000010
     2  C    0.407075   4.778040   0.437508  -0.034238   0.001203   0.000553
     3  C   -0.035854   0.437508   4.822919   0.385812  -0.036665  -0.002677
     4  C    0.002023  -0.034238   0.385812   4.979904   0.383289  -0.045462
     5  C   -0.000143   0.001203  -0.036665   0.383289   4.341376   0.468647
     6  N    0.000010   0.000553  -0.002677  -0.045462   0.468647   6.503609
     7  N    0.000000  -0.000067   0.000251  -0.042617   0.618060  -0.038460
     8  N   -0.000000   0.000001   0.000005   0.001671  -0.078321  -0.024269
     9  C    0.000000  -0.000000   0.000009  -0.000280   0.002196   0.000686
    10  N   -0.000000  -0.000000  -0.000000   0.000002  -0.000280   0.000038
    11  C    0.000000  -0.000000   0.000000  -0.000000   0.000003  -0.000000
    12  H    0.372480  -0.021796   0.003158  -0.000147   0.000001   0.000000
    13  H    0.378861  -0.029425  -0.004522   0.000184   0.000004  -0.000003
    14  H    0.378859  -0.029426  -0.004522   0.000184   0.000004  -0.000003
    15  H   -0.035403   0.370004  -0.031541  -0.001506   0.000127  -0.000001
    16  H   -0.035402   0.370006  -0.031541  -0.001506   0.000127  -0.000001
    17  H   -0.003256  -0.034725   0.362059  -0.029591  -0.002938   0.001500
    18  H   -0.003256  -0.034724   0.362060  -0.029591  -0.002937   0.001500
    19  H    0.000048  -0.003049  -0.030356   0.356609  -0.015747   0.001274
    20  H    0.000048  -0.003049  -0.030355   0.356609  -0.015747   0.001274
    21  H   -0.000004  -0.000468   0.002527  -0.004680  -0.035713   0.347681
    22  H    0.000000  -0.000002   0.000464   0.005757  -0.030697   0.329293
    23  H    0.000000   0.000000   0.000002   0.000008   0.002878  -0.000018
    24  H    0.000000   0.000000   0.000000   0.000000   0.000069  -0.000049
    25  H    0.000000  -0.000000  -0.000000  -0.000000   0.000000  -0.000000
    26  H   -0.000000   0.000000   0.000000   0.000000  -0.000000  -0.000000
    27  H   -0.000000   0.000000   0.000000   0.000000  -0.000000  -0.000000
               7          8          9         10         11         12
     1  C    0.000000  -0.000000   0.000000  -0.000000   0.000000   0.372480
     2  C   -0.000067   0.000001  -0.000000  -0.000000  -0.000000  -0.021796
     3  C    0.000251   0.000005   0.000009  -0.000000   0.000000   0.003158
     4  C   -0.042617   0.001671  -0.000280   0.000002  -0.000000  -0.000147
     5  C    0.618060  -0.078321   0.002196  -0.000280   0.000003   0.000001
     6  N   -0.038460  -0.024269   0.000686   0.000038  -0.000000   0.000000
     7  N    6.565074   0.292499  -0.075360   0.000882  -0.000093  -0.000000
     8  N    0.292499   6.469653   0.672095  -0.026631   0.001511   0.000000
     9  C   -0.075360   0.672095   4.565037   0.404195  -0.055882  -0.000000
    10  N    0.000882  -0.026631   0.404195   6.339285   0.396292  -0.000000
    11  C   -0.000093   0.001511  -0.055882   0.396292   4.883148  -0.000000
    12  H   -0.000000   0.000000  -0.000000  -0.000000  -0.000000   0.604806
    13  H    0.000000   0.000000   0.000000   0.000000  -0.000000  -0.031687
    14  H    0.000000   0.000000   0.000000   0.000000  -0.000000  -0.031687
    15  H    0.000001   0.000000   0.000000  -0.000000   0.000000  -0.002200
    16  H    0.000001   0.000000   0.000000  -0.000000   0.000000  -0.002200
    17  H   -0.000014   0.000003   0.000000  -0.000000   0.000000  -0.000036
    18  H   -0.000014   0.000003   0.000000  -0.000000   0.000000  -0.000036
    19  H   -0.002001   0.000090   0.000025  -0.000000   0.000000   0.000003
    20  H   -0.002001   0.000090   0.000025  -0.000000   0.000000   0.000003
    21  H    0.005745   0.000061  -0.000079  -0.000000  -0.000000  -0.000000
    22  H   -0.019159   0.046894   0.000556  -0.000321   0.000000  -0.000000
    23  H    0.018420  -0.061527   0.352104  -0.067001  -0.003139  -0.000000
    24  H   -0.000118   0.004093  -0.017353   0.326366  -0.043882  -0.000000
    25  H   -0.000009   0.000045  -0.003830  -0.018743   0.377748  -0.000000
    26  H    0.000002  -0.000005   0.002415  -0.036753   0.379822   0.000000
    27  H    0.000002  -0.000005   0.002415  -0.036754   0.379821   0.000000
              13         14         15         16         17         18
     1  C    0.378861   0.378859  -0.035403  -0.035402  -0.003256  -0.003256
     2  C   -0.029425  -0.029426   0.370004   0.370006  -0.034725  -0.034724
     3  C   -0.004522  -0.004522  -0.031541  -0.031541   0.362059   0.362060
     4  C    0.000184   0.000184  -0.001506  -0.001506  -0.029591  -0.029591
     5  C    0.000004   0.000004   0.000127   0.000127  -0.002938  -0.002937
     6  N   -0.000003  -0.000003  -0.000001  -0.000001   0.001500   0.001500
     7  N    0.000000   0.000000   0.000001   0.000001  -0.000014  -0.000014
     8  N    0.000000   0.000000   0.000000   0.000000   0.000003   0.000003
     9  C    0.000000   0.000000   0.000000   0.000000   0.000000   0.000000
    10  N    0.000000   0.000000  -0.000000  -0.000000  -0.000000  -0.000000
    11  C   -0.000000  -0.000000   0.000000   0.000000   0.000000   0.000000
    12  H   -0.031687  -0.031687  -0.002200  -0.002200  -0.000036  -0.000036
    13  H    0.602063  -0.033740  -0.004343   0.005587  -0.000380   0.005328
    14  H   -0.033740   0.602067   0.005587  -0.004343   0.005328  -0.000380
    15  H   -0.004343   0.005587   0.637720  -0.040712   0.006235  -0.005899
    16  H    0.005587  -0.004343  -0.040712   0.637717  -0.005899   0.006235
    17  H   -0.000380   0.005328   0.006235  -0.005899   0.647681  -0.048533
    18  H    0.005328  -0.000380  -0.005899   0.006235  -0.048533   0.647678
    19  H    0.000004   0.000009   0.004597  -0.000466   0.006000  -0.005605
    20  H    0.000009   0.000004  -0.000466   0.004596  -0.005605   0.006000
    21  H    0.000009   0.000009   0.000021   0.000021   0.003855   0.003855
    22  H    0.000000   0.000000   0.000000   0.000000  -0.000002  -0.000002
    23  H   -0.000000  -0.000000  -0.000000  -0.000000   0.000000   0.000000
    24  H   -0.000000  -0.000000  -0.000000  -0.000000  -0.000000  -0.000000
    25  H   -0.000000  -0.000000  -0.000000  -0.000000  -0.000000  -0.000000
    26  H   -0.000000   0.000000  -0.000000   0.000000  -0.000000   0.000000
    27  H    0.000000  -0.000000   0.000000  -0.000000   0.000000  -0.000000
              19         20         21         22         23         24
     1  C    0.000048   0.000048  -0.000004   0.000000   0.000000   0.000000
     2  C   -0.003049  -0.003049  -0.000468  -0.000002   0.000000   0.000000
     3  C   -0.030356  -0.030355   0.002527   0.000464   0.000002   0.000000
     4  C    0.356609   0.356609  -0.004680   0.005757   0.000008   0.000000
     5  C   -0.015747  -0.015747  -0.035713  -0.030697   0.002878   0.000069
     6  N    0.001274   0.001274   0.347681   0.329293  -0.000018  -0.000049
     7  N   -0.002001  -0.002001   0.005745  -0.019159   0.018420  -0.000118
     8  N    0.000090   0.000090   0.000061   0.046894  -0.061527   0.004093
     9  C    0.000025   0.000025  -0.000079   0.000556   0.352104  -0.017353
    10  N   -0.000000  -0.000000  -0.000000  -0.000321  -0.067001   0.326366
    11  C    0.000000   0.000000  -0.000000   0.000000  -0.003139  -0.043882
    12  H    0.000003   0.000003  -0.000000  -0.000000  -0.000000  -0.000000
    13  H    0.000004   0.000009   0.000009   0.000000  -0.000000  -0.000000
    14  H    0.000009   0.000004   0.000009   0.000000  -0.000000  -0.000000
    15  H    0.004597  -0.000466   0.000021   0.000000  -0.000000  -0.000000
    16  H   -0.000466   0.004596   0.000021   0.000000  -0.000000  -0.000000
    17  H    0.006000  -0.005605   0.003855  -0.000002   0.000000  -0.000000
    18  H   -0.005605   0.006000   0.003855  -0.000002   0.000000  -0.000000
    19  H    0.599712  -0.034841   0.000058  -0.000129   0.000011   0.000000
    20  H   -0.034841   0.599711   0.000058  -0.000129   0.000011   0.000000
    21  H    0.000058   0.000058   0.456364  -0.027465  -0.000001  -0.000000
    22  H   -0.000129  -0.000129  -0.027465   0.437353   0.000290   0.000353
    23  H    0.000011   0.000011  -0.000001   0.000290   0.647772   0.008162
    24  H    0.000000   0.000000  -0.000000   0.000353   0.008162   0.478488
    25  H   -0.000000  -0.000000   0.000000   0.000000   0.007011   0.004357
    26  H   -0.000000   0.000000  -0.000000   0.000000   0.000055  -0.000945
    27  H    0.000000  -0.000000  -0.000000   0.000000   0.000055  -0.000945
              25         26         27
     1  C    0.000000  -0.000000  -0.000000
     2  C   -0.000000   0.000000   0.000000
     3  C   -0.000000   0.000000   0.000000
     4  C   -0.000000   0.000000   0.000000
     5  C    0.000000  -0.000000  -0.000000
     6  N   -0.000000  -0.000000  -0.000000
     7  N   -0.000009   0.000002   0.000002
     8  N    0.000045  -0.000005  -0.000005
     9  C   -0.003830   0.002415   0.002415
    10  N   -0.018743  -0.036753  -0.036754
    11  C    0.377748   0.379822   0.379821
    12  H   -0.000000   0.000000   0.000000
    13  H   -0.000000  -0.000000   0.000000
    14  H   -0.000000   0.000000  -0.000000
    15  H   -0.000000  -0.000000   0.000000
    16  H   -0.000000   0.000000  -0.000000
    17  H   -0.000000  -0.000000   0.000000
    18  H   -0.000000   0.000000  -0.000000
    19  H   -0.000000  -0.000000   0.000000
    20  H   -0.000000   0.000000  -0.000000
    21  H    0.000000  -0.000000  -0.000000
    22  H    0.000000   0.000000   0.000000
    23  H    0.007011   0.000055   0.000055
    24  H    0.004357  -0.000945  -0.000945
    25  H    0.549616  -0.029669  -0.029668
    26  H   -0.029669   0.608586  -0.048641
    27  H   -0.029668  -0.048641   0.608589
 Mulliken charges:
               1
     1  C   -0.375556
     2  C   -0.173419
     3  C   -0.168740
     4  C   -0.282437
     5  C    0.401203
     6  N   -0.545121
     7  N   -0.321021
     8  N   -0.297959
     9  C    0.151027
    10  N   -0.280578
    11  C   -0.315349
    12  H    0.109337
    13  H    0.112050
    14  H    0.112048
    15  H    0.097778
    16  H    0.097779
    17  H    0.098318
    18  H    0.098319
    19  H    0.123756
    20  H    0.123756
    21  H    0.248145
    22  H    0.256947
    23  H    0.094907
    24  H    0.241404
    25  H    0.143143
    26  H    0.125133
    27  H    0.125131
 Sum of Mulliken charges =  -0.00000
 Mulliken charges with hydrogens summed into heavy atoms:
               1
     1  C   -0.042121
     2  C    0.022137
     3  C    0.027898
     4  C   -0.034925
     5  C    0.401203
     6  N   -0.040028
     7  N   -0.321021
     8  N   -0.297959
     9  C    0.245934
    10  N   -0.039174
    11  C    0.078057
 Electronic spatial extent (au):  <R**2>=           4038.7270
 Charge=             -0.0000 electrons
 Dipole moment (field-independent basis, Debye):
    X=              0.9491    Y=              1.5027    Z=              0.0000  Tot=              1.7773
 Quadrupole moment (field-independent basis, Debye-Ang):
   XX=            -46.3435   YY=            -63.9803   ZZ=            -69.7208
   XY=              0.4974   XZ=              0.0001   YZ=             -0.0000
 Traceless Quadrupole moment (field-independent basis, Debye-Ang):
   XX=             13.6714   YY=             -3.9654   ZZ=             -9.7060
   XY=              0.4974   XZ=              0.0001   YZ=             -0.0000
 Octapole moment (field-independent basis, Debye-Ang**2):
  XXX=            124.2629  YYY=             16.6191  ZZZ=              0.0000  XYY=             11.9607
  XXY=              0.6644  XXZ=              0.0005  XZZ=             -0.4464  YZZ=             -0.1017
  YYZ=              0.0001  XYZ=              0.0001
 Hexadecapole moment (field-independent basis, Debye-Ang**3):
 XXXX=          -4514.0193 YYYY=           -263.2090 ZZZZ=           -101.1974 XXXY=             35.8535
 XXXZ=              0.0027 YYYX=              3.8603 YYYZ=             -0.0000 ZZZX=              0.0002
 ZZZY=             -0.0001 XXYY=           -834.8651 XXZZ=           -858.2010 YYZZ=            -65.8429
 XXYZ=             -0.0011 YYXZ=             -0.0000 ZZXY=              2.6646
 N-N= 5.889264669456D+02 E-N=-2.329300482464D+03  KE= 4.913197587297D+02
 PrsmSu:  requested number of processors reduced to:  13 ShMem   1 Linda.
 Calling FoFJK, ICntrl=      2127 FMM=F ISym2X=0 I1Cent= 0 IOpClX= 0 NMat=1 NMatS=1 NMatT=0.
 ***** Axes restored to original set *****
 -------------------------------------------------------------------
 Center     Atomic                   Forces (Hartrees/Bohr)
 Number     Number              X              Y              Z
 -------------------------------------------------------------------
      1        6          -0.002871072   -0.004640997   -0.001628166
      2        6          -0.003585058    0.003550573    0.001244780
      3        6           0.005722053   -0.001427229   -0.000498423
      4        6           0.000402994    0.011690939    0.004114976
      5        6           0.014390486    0.002439865    0.000861137
      6        7          -0.002810949    0.003574036    0.001257622
      7        7          -0.013713358   -0.002306961   -0.000813459
      8        7           0.015911002    0.001582504    0.000556948
      9        6          -0.004831195   -0.007713647   -0.002714484
     10        7          -0.012664847   -0.002472787   -0.000870095
     11        6          -0.001169200    0.004706551    0.001650587
     12        1          -0.002518079    0.000143381    0.000049793
     13        1          -0.000879033   -0.000259760    0.000106140
     14        1          -0.000877978   -0.000136015   -0.000249393
     15        1           0.002184899   -0.000913200   -0.000001984
     16        1           0.002185525   -0.000714421   -0.000568252
     17        1          -0.000786474    0.000166839    0.000160306
     18        1          -0.000786205    0.000231057   -0.000021905
     19        1           0.000920386   -0.000655879    0.001594120
     20        1           0.000919750    0.000488118   -0.001653769
     21        1           0.007240725   -0.002010736   -0.000708076
     22        1          -0.001146056   -0.004277748   -0.001505902
     23        1          -0.006497231    0.003250043    0.001143842
     24        1           0.002191618   -0.003205346   -0.001128469
     25        1          -0.004619066   -0.001196482   -0.000421341
     26        1           0.003843342   -0.000464132    0.001497433
     27        1           0.003843022    0.000571432   -0.001453965
 -------------------------------------------------------------------
 Cartesian Forces:  Max     0.015911002 RMS     0.004235294

 GradGradGradGradGradGradGradGradGradGradGradGradGradGradGradGradGradGrad
 Berny optimization.
 FormGI is forming the generalized inverse of G from B-inverse, IUseBI=4.
 Internal  Forces:  Max     0.020718517 RMS     0.003869002
 Search for a local minimum.
 Step number   1 out of a maximum of  132
 All quantities printed in internal units (Hartrees-Bohrs-Radians)
 Mixed Optimization -- RFO/linear search
 Second derivative matrix not updated -- first step.
 ITU=  0
     Eigenvalues ---    0.00319   0.00348   0.00429   0.00454   0.01132
     Eigenvalues ---    0.01181   0.01395   0.01566   0.02139   0.02139
     Eigenvalues ---    0.02157   0.02492   0.02889   0.03060   0.03481
     Eigenvalues ---    0.03852   0.03922   0.04844   0.04967   0.05289
     Eigenvalues ---    0.05603   0.05626   0.07330   0.07660   0.07948
     Eigenvalues ---    0.08492   0.09464   0.11901   0.12315   0.12893
     Eigenvalues ---    0.16000   0.16000   0.16000   0.16000   0.16000
     Eigenvalues ---    0.16000   0.16000   0.16000   0.16000   0.16000
     Eigenvalues ---    0.21891   0.21951   0.21984   0.22000   0.22000
     Eigenvalues ---    0.25000   0.25000   0.25000   0.25000   0.29078
     Eigenvalues ---    0.29280   0.29847   0.30021   0.33188   0.33954
     Eigenvalues ---    0.33955   0.34055   0.34055   0.34178   0.34178
     Eigenvalues ---    0.34198   0.34198   0.34229   0.34230   0.34358
     Eigenvalues ---    0.34387   0.39776   0.43638   0.45508   0.45520
     Eigenvalues ---    0.46432   0.51720   0.51989   0.64623   0.68156
 RFO step:  Lambda=-6.07297910D-03 EMin= 3.19213455D-03
 Linear search not attempted -- first point.
 Iteration  1 RMS(Cart)=  0.09548116 RMS(Int)=  0.00223180
 Iteration  2 RMS(Cart)=  0.00553166 RMS(Int)=  0.00025462
 Iteration  3 RMS(Cart)=  0.00001222 RMS(Int)=  0.00025457
 Iteration  4 RMS(Cart)=  0.00000001 RMS(Int)=  0.00025457
 Variable       Old X    -DE/DX   Delta X   Delta X   Delta X     New X
                                 (Linear)    (Quad)   (Total)
    R1        2.87921   0.00717   0.00000   0.02342   0.02342   2.90263
    R2        2.06682   0.00073   0.00000   0.00209   0.00209   2.06891
    R3        2.06997   0.00007   0.00000   0.00019   0.00019   2.07016
    R4        2.06998   0.00006   0.00000   0.00018   0.00018   2.07016
    R5        2.88269   0.00513   0.00000   0.01683   0.01683   2.89953
    R6        2.07031   0.00091   0.00000   0.00260   0.00260   2.07292
    R7        2.07030   0.00091   0.00000   0.00261   0.00261   2.07291
    R8        2.89423   0.00248   0.00000   0.00831   0.00831   2.90254
    R9        2.07407   0.00046   0.00000   0.00134   0.00134   2.07541
   R10        2.07407   0.00046   0.00000   0.00134   0.00134   2.07541
   R11        2.89841  -0.00751   0.00000  -0.02531  -0.02531   2.87309
   R12        2.07238  -0.00100   0.00000  -0.00290  -0.00290   2.06948
   R13        2.07238  -0.00101   0.00000  -0.00290  -0.00290   2.06948
   R14        2.58168  -0.00433   0.00000  -0.00827  -0.00827   2.57342
   R15        2.47459  -0.01864   0.00000  -0.02858  -0.02858   2.44601
   R16        1.90347  -0.00697   0.00000  -0.01482  -0.01482   1.88866
   R17        1.91377  -0.00461   0.00000  -0.01000  -0.01000   1.90377
   R18        2.66890  -0.00603   0.00000  -0.01364  -0.01364   2.65526
   R19        2.45016  -0.02072   0.00000  -0.03013  -0.03013   2.42003
   R20        2.57910  -0.00557   0.00000  -0.01059  -0.01059   2.56851
   R21        2.08723  -0.00688   0.00000  -0.02035  -0.02035   2.06687
   R22        2.71859   0.00265   0.00000   0.00657   0.00657   2.72516
   R23        1.91390  -0.00402   0.00000  -0.00871  -0.00871   1.90519
   R24        2.06730  -0.00157   0.00000  -0.00450  -0.00450   2.06280
   R25        2.06943   0.00220   0.00000   0.00631   0.00631   2.07575
   R26        2.06945   0.00219   0.00000   0.00630   0.00630   2.07575
    A1        1.93091   0.00313   0.00000   0.02012   0.02006   1.95097
    A2        1.93589   0.00052   0.00000   0.00253   0.00250   1.93840
    A3        1.93588   0.00053   0.00000   0.00254   0.00251   1.93840
    A4        1.88756  -0.00177   0.00000  -0.00946  -0.00952   1.87804
    A5        1.88755  -0.00177   0.00000  -0.00945  -0.00951   1.87804
    A6        1.88427  -0.00085   0.00000  -0.00752  -0.00751   1.87676
    A7        1.92363   0.00884   0.00000   0.04685   0.04666   1.97029
    A8        1.90848  -0.00168   0.00000   0.00227   0.00233   1.91081
    A9        1.90849  -0.00168   0.00000   0.00226   0.00232   1.91081
   A10        1.92194  -0.00308   0.00000  -0.01533  -0.01581   1.90613
   A11        1.92195  -0.00308   0.00000  -0.01534  -0.01582   1.90613
   A12        1.87874   0.00046   0.00000  -0.02224  -0.02256   1.85618
   A13        1.98368  -0.00114   0.00000  -0.00460  -0.00459   1.97909
   A14        1.89551   0.00010   0.00000  -0.00130  -0.00129   1.89422
   A15        1.89552   0.00010   0.00000  -0.00131  -0.00130   1.89422
   A16        1.90866   0.00069   0.00000   0.00532   0.00532   1.91398
   A17        1.90867   0.00069   0.00000   0.00531   0.00530   1.91398
   A18        1.86828  -0.00042   0.00000  -0.00351  -0.00353   1.86475
   A19        1.98241   0.01006   0.00000   0.05102   0.05079   2.03320
   A20        1.91657  -0.00195   0.00000  -0.00349  -0.00359   1.91298
   A21        1.91657  -0.00195   0.00000  -0.00350  -0.00359   1.91298
   A22        1.88605  -0.00346   0.00000  -0.01304  -0.01337   1.87268
   A23        1.88605  -0.00346   0.00000  -0.01305  -0.01338   1.87268
   A24        1.87269   0.00025   0.00000  -0.02213  -0.02236   1.85033
   A25        2.07973   0.00176   0.00000   0.00689   0.00689   2.08661
   A26        2.06507  -0.00604   0.00000  -0.02359  -0.02359   2.04148
   A27        2.13839   0.00428   0.00000   0.01670   0.01670   2.15509
   A28        2.17852  -0.00319   0.00000  -0.01918  -0.01918   2.15935
   A29        2.01234   0.00085   0.00000   0.00513   0.00513   2.01748
   A30        2.09232   0.00233   0.00000   0.01405   0.01405   2.10636
   A31        1.95688  -0.00204   0.00000  -0.00796  -0.00796   1.94893
   A32        1.96039  -0.00502   0.00000  -0.01959  -0.01959   1.94081
   A33        2.15381  -0.00473   0.00000  -0.02094  -0.02094   2.13288
   A34        2.14049  -0.00035   0.00000  -0.00590  -0.00590   2.13459
   A35        1.98889   0.00508   0.00000   0.02683   0.02683   2.01572
   A36        2.21178  -0.00557   0.00000  -0.02463  -0.02463   2.18715
   A37        2.02287   0.00234   0.00000   0.00965   0.00965   2.03252
   A38        2.04854   0.00323   0.00000   0.01498   0.01498   2.06352
   A39        1.96437  -0.00931   0.00000  -0.06487  -0.06450   1.89987
   A40        1.92046   0.00567   0.00000   0.03842   0.03768   1.95814
   A41        1.92045   0.00567   0.00000   0.03843   0.03769   1.95814
   A42        1.88904   0.00004   0.00000  -0.00812  -0.00777   1.88127
   A43        1.88904   0.00004   0.00000  -0.00812  -0.00777   1.88127
   A44        1.87806  -0.00201   0.00000   0.00572   0.00408   1.88214
    D1       -3.14159  -0.00000   0.00000   0.00000   0.00000  -3.14159
    D2        1.02653  -0.00070   0.00000  -0.01213  -0.01227   1.01426
    D3       -1.02651   0.00070   0.00000   0.01211   0.01226  -1.01425
    D4        1.04691  -0.00019   0.00000  -0.00304  -0.00306   1.04385
    D5       -1.06816  -0.00089   0.00000  -0.01517  -0.01533  -1.08349
    D6       -3.12119   0.00051   0.00000   0.00907   0.00920  -3.11200
    D7       -1.04693   0.00019   0.00000   0.00306   0.00308  -1.04385
    D8        3.12119  -0.00051   0.00000  -0.00907  -0.00920   3.11200
    D9        1.06816   0.00089   0.00000   0.01517   0.01533   1.08349
   D10       -3.14159   0.00000   0.00000   0.00000   0.00000  -3.14159
   D11        1.01302  -0.00020   0.00000  -0.00279  -0.00279   1.01023
   D12       -1.01299   0.00020   0.00000   0.00277   0.00277  -1.01022
   D13       -1.03458   0.00162   0.00000   0.02314   0.02296  -1.01162
   D14        3.12004   0.00142   0.00000   0.02035   0.02016   3.14020
   D15        1.09402   0.00182   0.00000   0.02591   0.02573   1.11975
   D16        1.03456  -0.00162   0.00000  -0.02312  -0.02294   1.01162
   D17       -1.09401  -0.00182   0.00000  -0.02592  -0.02573  -1.11975
   D18       -3.12003  -0.00142   0.00000  -0.02035  -0.02017  -3.14019
   D19       -3.14159  -0.00000   0.00000  -0.00000  -0.00000   3.14159
   D20        1.02761  -0.00101   0.00000  -0.01558  -0.01565   1.01196
   D21       -1.02760   0.00101   0.00000   0.01556   0.01563  -1.01197
   D22       -1.02033  -0.00014   0.00000  -0.00092  -0.00093  -1.02126
   D23       -3.13431  -0.00115   0.00000  -0.01650  -0.01657   3.13230
   D24        1.09366   0.00087   0.00000   0.01464   0.01470   1.10837
   D25        1.02031   0.00014   0.00000   0.00094   0.00094   1.02125
   D26       -1.09367  -0.00087   0.00000  -0.01464  -0.01470  -1.10837
   D27        3.13430   0.00115   0.00000   0.01650   0.01658  -3.13231
   D28        0.00001  -0.00000   0.00000  -0.00001  -0.00001  -0.00000
   D29        3.14159   0.00000   0.00000   0.00001   0.00001  -3.14159
   D30        2.13101   0.00165   0.00000   0.01976   0.01963   2.15063
   D31       -1.01060   0.00165   0.00000   0.01978   0.01965  -0.99095
   D32       -2.13100  -0.00165   0.00000  -0.01977  -0.01964  -2.15064
   D33        1.01058  -0.00165   0.00000  -0.01975  -0.01962   0.99096
   D34        0.00000   0.00000   0.00000   0.00001   0.00001   0.00001
   D35        3.14159   0.00000   0.00000   0.00001   0.00001  -3.14159
   D36       -3.14158  -0.00000   0.00000  -0.00001  -0.00001  -3.14159
   D37        0.00001  -0.00000   0.00000  -0.00001  -0.00001  -0.00000
   D38       -3.14159   0.00000   0.00000  -0.00000  -0.00000  -3.14159
   D39       -0.00001   0.00000   0.00000   0.00002   0.00002   0.00001
   D40       -3.14158  -0.00000   0.00000  -0.00001  -0.00001  -3.14159
   D41       -3.14159  -0.00000   0.00000  -0.00001  -0.00001   3.14159
   D42       -0.00001   0.00000   0.00000   0.00001   0.00001   0.00000
   D43        3.14158   0.00000   0.00000   0.00001   0.00001   3.14159
   D44       -0.00000   0.00000   0.00000   0.00001   0.00001   0.00001
   D45       -0.00000  -0.00000   0.00000  -0.00001  -0.00001  -0.00001
   D46       -3.14159  -0.00000   0.00000  -0.00001  -0.00001  -3.14159
   D47        0.00001  -0.00000   0.00000  -0.00000  -0.00000   0.00001
   D48       -2.10835   0.00223   0.00000   0.02702   0.02779  -2.08056
   D49        2.10836  -0.00223   0.00000  -0.02701  -0.02778   2.08058
   D50       -3.14159  -0.00000   0.00000  -0.00000  -0.00000   3.14159
   D51        1.03323   0.00223   0.00000   0.02702   0.02779   1.06102
   D52       -1.03324  -0.00223   0.00000  -0.02701  -0.02778  -1.06102
         Item               Value     Threshold  Converged?
 Maximum Force            0.020719     0.000450     NO 
 RMS     Force            0.003869     0.000300     NO 
 Maximum Displacement     0.303158     0.001800     NO 
 RMS     Displacement     0.099039     0.001200     NO 
 Predicted change in Energy=-3.149557D-03
 GradGradGradGradGradGradGradGradGradGradGradGradGradGradGradGradGradGrad

                          Input orientation:                          
 ---------------------------------------------------------------------
 Center     Atomic      Atomic             Coordinates (Angstroms)
 Number     Number       Type             X           Y           Z
 ---------------------------------------------------------------------
      1          6           0        1.093914   -0.108547   -0.122243
      2          6           0        2.621926    0.039080   -0.070262
      3          6           0        3.071575    1.422828    0.416900
      4          6           0        4.598104    1.583132    0.473339
      5          6           0        5.121619    2.929531    0.947350
      6          7           0        4.240738    3.909122    1.292216
      7          7           0        6.406813    3.074673    0.998447
      8          7           0        6.766637    4.355842    1.449493
      9          6           0        8.039372    4.489701    1.496614
     10          7           0        8.631846    5.643554    1.902830
     11          6           0       10.054277    5.867400    1.981635
     12          1           0        0.793353   -1.101561   -0.471841
     13          1           0        0.649890    0.629456   -0.799203
     14          1           0        0.649883    0.042592    0.867744
     15          1           0        3.041519   -0.146772   -1.066594
     16          1           0        3.041512   -0.729955    0.589894
     17          1           0        2.644529    1.597768    1.413493
     18          1           0        2.644531    2.183520   -0.250296
     19          1           0        5.023831    1.399193   -0.518735
     20          1           0        5.023826    0.818259    1.131380
     21          1           0        3.247893    3.801040    1.254166
     22          1           0        4.652140    4.776537    1.597593
     23          1           0        8.722707    3.684159    1.213012
     24          1           0        8.015281    6.395955    2.167724
     25          1           0       10.572225    4.961051    1.662544
     26          1           0       10.381865    6.098759    3.004243
     27          1           0       10.381864    6.688366    1.329508
 ---------------------------------------------------------------------
                    Distance matrix (angstroms):
                    1          2          3          4          5
     1  C    0.000000
     2  C    1.536006   0.000000
     3  C    2.558696   1.534363   0.000000
     4  C    3.936476   2.566102   1.535960   0.000000
     5  C    5.157165   3.954580   2.598886   1.520376   0.000000
     6  N    5.295740   4.410683   2.883536   2.491686   1.361794
     7  N    6.294103   4.968132   3.767042   2.402470   1.294374
     8  N    7.387889   6.174360   4.829317   3.652853   2.234412
     9  C    8.485515   7.184139   5.937213   4.619260   3.353969
    10  N    9.695772   8.451175   7.137165   5.899284   4.538784
    11  C   10.973894   9.665373   8.423820   7.099277   5.833690
    12  H    1.094821   2.192260   3.514640   4.751533   6.082572
    13  H    1.095482   2.183764   2.823633   4.256437   5.323265
    14  H    1.095483   2.183764   2.823634   4.256438   5.323268
    15  H    2.164816   1.096940   2.159931   2.790505   4.224503
    16  H    2.164815   1.096939   2.159931   2.790508   4.224506
    17  H    2.770271   2.152103   1.098258   2.168077   2.850764
    18  H    2.770267   2.152102   1.098257   2.168077   2.850763
    19  H    4.227852   2.796459   2.165012   1.095121   2.121533
    20  H    4.227854   2.796460   2.165011   1.095120   2.121532
    21  H    4.671081   4.037114   2.527449   2.711434   2.089141
    22  H    6.283539   5.417289   3.890963   3.385957   2.013619
    23  H    8.623573   7.221698   6.138624   4.687620   3.688886
    24  H    9.770251   8.631727   7.227559   6.140953   4.677466
    25  H   10.896085   9.509767   8.386323   6.965248   5.860690
    26  H   11.600500  10.314502   9.055331   7.761975   6.476496
    27  H   11.600501  10.314505   9.055334   7.761980   6.476501
                    6          7          8          9         10
     6  N    0.000000
     7  N    2.339762   0.000000
     8  N    2.569914   1.405102   0.000000
     9  C    3.848177   2.217143   1.280622   0.000000
    10  N    4.760559   3.516792   2.311433   1.359196   0.000000
    11  C    6.173118   4.697869   3.657398   2.488603   1.442092
    12  H    6.332717   7.149378   8.315942   9.361721  10.610259
    13  H    5.293811   6.507903   7.507142   8.647353   9.805803
    14  H    5.293815   6.507907   7.507146   8.647359   9.805810
    15  H    4.842767   5.095813   6.362447   7.283231   8.578876
    16  H    4.842771   5.095818   6.362452   7.283238   8.578884
    17  H    2.811575   4.063041   4.959843   6.121644   7.242638
    18  H    2.811570   4.063039   4.959841   6.121640   7.242633
    19  H    3.192573   2.649851   3.956396   4.765119   6.074236
    20  H    3.192574   2.649854   3.956397   4.765123   6.074242
    21  H    0.999435   3.251427   3.567564   4.846783   5.727352
    22  H    1.007430   2.516783   2.161021   3.400854   4.084476
    23  H    4.488310   2.404345   2.081656   1.093743   2.079263
    24  H    4.604131   3.871084   2.497404   2.021082   1.008181
    25  H    6.428952   4.620617   3.859297   2.581676   2.070899
    26  H    6.740844   5.382318   4.304054   3.217030   2.117283
    27  H    6.740847   5.382324   4.304060   3.217036   2.117285
                   11         12         13         14         15
    11  C    0.000000
    12  H   11.846969   0.000000
    13  H   11.118076   1.767532   0.000000
    14  H   11.118083   1.767529   1.767236   0.000000
    15  H    9.728347   2.513882   2.528620   3.081794   0.000000
    16  H    9.728356   2.513880   3.081793   2.528621   1.756148
    17  H    8.570701   3.777262   3.132449   2.587475   3.058080
    18  H    8.570696   3.777260   2.587471   3.132444   2.500841
    19  H    7.177890   4.914562   4.450002   4.784780   2.572882
    20  H    7.177896   4.914563   4.784780   4.450005   3.113185
    21  H    7.150239   5.747988   4.585291   4.585293   4.584075
    22  H    5.524541   7.329723   6.241869   6.241874   5.825030
    23  H    2.670281   9.413634   8.862877   8.862884   7.221394
    24  H    2.114594  10.739473   9.813468   9.813473   8.832123
    25  H    1.091585  11.702017  11.102957  11.102965   9.499978
    26  H    1.098438  12.484683  11.793677  11.659900  10.462268
    27  H    1.098439  12.484685  11.659894  11.793685  10.312182
                   16         17         18         19         20
    16  H    0.000000
    17  H    2.500841   0.000000
    18  H    3.058079   1.763888   0.000000
    19  H    3.113185   3.071485   2.519583   0.000000
    20  H    2.572886   2.519579   3.071484   1.749390   0.000000
    21  H    4.584077   2.289944   2.289940   3.473615   3.473615
    22  H    5.825036   3.764170   3.764164   4.002931   4.002933
    23  H    7.221402   6.429423   6.429418   4.679925   4.679932
    24  H    8.832129   7.241301   7.241297   6.413537   6.413540
    25  H    9.499988   8.615223   8.615218   6.944745   6.944753
    26  H   10.312186   9.091522   9.262152   7.950208   7.752411
    27  H   10.462279   9.262160   9.091521   7.752411   7.950219
                   21         22         23         24         25
    21  H    0.000000
    22  H    1.743975   0.000000
    23  H    5.476216   4.232104   0.000000
    24  H    5.504194   3.776013   2.960703   0.000000
    25  H    7.426859   5.923316   2.291997   2.975252   0.000000
    26  H    7.696482   6.046212   3.433890   2.527610   1.769398
    27  H    7.696484   6.046213   3.433895   2.527613   1.769398
                   26         27
    26  H    0.000000
    27  H    1.775492   0.000000
 Stoichiometry    C7H16N4
 Framework group  C1[X(C7H16N4)]
 Deg. of freedom    75
 Full point group                 C1      NOp   1
 Largest Abelian subgroup         C1      NOp   1
 Largest concise Abelian subgroup C1      NOp   1
                         Standard orientation:                         
 ---------------------------------------------------------------------
 Center     Atomic      Atomic             Coordinates (Angstroms)
 Number     Number       Type             X           Y           Z
 ---------------------------------------------------------------------
      1          6           0       -5.463099    0.089192   -0.000009
      2          6           0       -4.161536   -0.726436   -0.000001
      3          6           0       -2.905235    0.154459    0.000002
      4          6           0       -1.596584   -0.649657    0.000005
      5          6           0       -0.306349    0.154605    0.000006
      6          7           0       -0.362971    1.515221    0.000001
      7          7           0        0.802046   -0.513873    0.000005
      8          7           0        1.920652    0.336440    0.000006
      9          6           0        3.011866   -0.333818    0.000001
     10          7           0        4.231042    0.267034   -0.000005
     11          6           0        5.498977   -0.419967   -0.000006
     12          1           0       -6.347205   -0.556555   -0.000008
     13          1           0       -5.523703    0.733883   -0.883627
     14          1           0       -5.523710    0.733886    0.883609
     15          1           0       -4.141622   -1.383602   -0.878075
     16          1           0       -4.141630   -1.383600    0.878073
     17          1           0       -2.937302    0.808154    0.881946
     18          1           0       -2.937298    0.808154   -0.881941
     19          1           0       -1.569852   -1.308054   -0.874689
     20          1           0       -1.569855   -1.308050    0.874702
     21          1           0       -1.216599    2.035019    0.000001
     22          1           0        0.526736    1.987807   -0.000003
     23          1           0        3.026056   -1.427469   -0.000003
     24          1           0        4.234900    1.275208    0.000000
     25          1           0        5.317019   -1.496279   -0.000010
     26          1           0        6.100220   -0.181264    0.887741
     27          1           0        6.100222   -0.181260   -0.887752
 ---------------------------------------------------------------------
 Rotational constants (GHZ):           5.8796055           0.2835052           0.2727487
 Standard basis: 6-31G(2df,p) (6D, 7F)
 There are   421 symmetry adapted cartesian basis functions of A   symmetry.
 There are   388 symmetry adapted basis functions of A   symmetry.
   388 basis functions,   596 primitive gaussians,   421 cartesian basis functions
    43 alpha electrons       43 beta electrons
       nuclear repulsion energy       590.0613910839 Hartrees.
 NAtoms=   27 NActive=   27 NUniq=   27 SFac= 1.00D+00 NAtFMM=   60 NAOKFM=F Big=F
 Integral buffers will be    131072 words long.
 Raffenetti 2 integral format.
 Two-electron integral symmetry is turned on.
 One-electron integrals computed using PRISM.
 PrsmSu:  requested number of processors reduced to:  13 ShMem   1 Linda.
 NBasis=   388 RedAO= T EigKep=  2.01D-04  NBF=   388
 NBsUse=   388 1.00D-06 EigRej= -1.00D+00 NBFU=   388
 Initial guess from the checkpoint file:  "CCCCCpNpdNNdCNC.chk"
 B after Tr=    -0.000000   -0.000000    0.000000
         Rot=    1.000000    0.000001    0.000000    0.000207 Ang=   0.02 deg.
 ExpMin= 1.61D-01 ExpMax= 4.17D+03 ExpMxC= 6.27D+02 IAcc=2 IRadAn=         4 AccDes= 0.00D+00
 Harris functional with IExCor=  402 and IRadAn=       4 diagonalized for initial guess.
 HarFok:  IExCor=  402 AccDes= 0.00D+00 IRadAn=         4 IDoV= 1 UseB2=F ITyADJ=14
 ICtDFT=  3500011 ScaDFX=  1.000000  1.000000  1.000000  1.000000
 FoFCou: FMM=F IPFlag=           0 FMFlag=      100000 FMFlg1=           0
         NFxFlg=           0 DoJE=T BraDBF=F KetDBF=T FulRan=T
         wScrn=  0.000000 ICntrl=       500 IOpCl=  0 I1Cent=   200000004 NGrid=           0
         NMat0=    1 NMatS0=      1 NMatT0=    0 NMatD0=    1 NMtDS0=    0 NMtDT0=    0
 Petite list used in FoFCou.
 Requested convergence on RMS density matrix=1.00D-08 within 128 cycles.
 Requested convergence on MAX density matrix=1.00D-06.
 Requested convergence on             energy=1.00D-06.
 No special actions if energy rises.
 Integral accuracy reduced to 1.0D-05 until final iterations.
 Initial convergence to 1.0D-05 achieved.  Increase integral accuracy.
 SCF Done:  E(RB3LYP) =  -495.394789215     A.U. after   11 cycles
            NFock= 11  Conv=0.92D-08     -V/T= 2.0080
 PrsmSu:  requested number of processors reduced to:  13 ShMem   1 Linda.
 Calling FoFJK, ICntrl=      2127 FMM=F ISym2X=0 I1Cent= 0 IOpClX= 0 NMat=1 NMatS=1 NMatT=0.
 ***** Axes restored to original set *****
 -------------------------------------------------------------------
 Center     Atomic                   Forces (Hartrees/Bohr)
 Number     Number              X              Y              Z
 -------------------------------------------------------------------
      1        6           0.002018674    0.000434002    0.000153833
      2        6          -0.001849870    0.000381483    0.000133557
      3        6           0.000916465    0.000150396    0.000053497
      4        6          -0.002544360    0.001385032    0.000487597
      5        6           0.000936840   -0.002355926   -0.000830093
      6        7           0.000150795    0.001431681    0.000504170
      7        7          -0.005125399   -0.000713968   -0.000250828
      8        7           0.002794780   -0.001633452   -0.000575173
      9        6           0.002110164    0.001561189    0.000549178
     10        7           0.001765444    0.004685299    0.001649480
     11        6          -0.000635602   -0.000515878   -0.000181955
     12        1           0.000774416    0.000136762    0.000047838
     13        1          -0.000125746    0.000164780   -0.000088372
     14        1          -0.000125441    0.000073294    0.000171584
     15        1           0.000454645   -0.000337157   -0.000207041
     16        1           0.000454871   -0.000392900   -0.000049394
     17        1          -0.000391667    0.000502344    0.000174602
     18        1          -0.000391789    0.000501348    0.000178239
     19        1           0.000302770   -0.000741358   -0.000264850
     20        1           0.000302906   -0.000743938   -0.000257906
     21        1          -0.000495945   -0.001593228   -0.000560864
     22        1          -0.000354283   -0.000361287   -0.000127101
     23        1          -0.000802192    0.000201981    0.000071214
     24        1          -0.000545312   -0.000954432   -0.000336035
     25        1           0.000806365   -0.000617455   -0.000217295
     26        1          -0.000200531   -0.000343762   -0.000058335
     27        1          -0.000200997   -0.000304849   -0.000169545
 -------------------------------------------------------------------
 Cartesian Forces:  Max     0.005125399 RMS     0.001168926

 GradGradGradGradGradGradGradGradGradGradGradGradGradGradGradGradGradGrad
 Berny optimization.
 Using GEDIIS/GDIIS optimizer.
 FormGI is forming the generalized inverse of G from B-inverse, IUseBI=4.
 Internal  Forces:  Max     0.005876967 RMS     0.001152343
 Search for a local minimum.
 Step number   2 out of a maximum of  132
 All quantities printed in internal units (Hartrees-Bohrs-Radians)
 Mixed Optimization -- RFO/linear search
 Update second derivatives using D2CorX and points    1    2
 DE= -2.88D-03 DEPred=-3.15D-03 R= 9.14D-01
 TightC=F SS=  1.41D+00  RLast= 1.83D-01 DXNew= 5.0454D-01 5.4888D-01
 Trust test= 9.14D-01 RLast= 1.83D-01 DXMaxT set to 5.05D-01
 ITU=  1  0
 Use linear search instead of GDIIS.
     Eigenvalues ---    0.00319   0.00348   0.00429   0.00454   0.01132
     Eigenvalues ---    0.01181   0.01410   0.01564   0.02139   0.02139
     Eigenvalues ---    0.02157   0.02485   0.02889   0.03060   0.03496
[...]
 000619,0.00001782,-0.00008996,-0.00013925,0.00001418,0.00002646,-0.000
 01274,0.00000552,0.00000694,-0.00000703,-0.00005444,0.00010235,0.00037
 657,0.00026523,0.00040949,0.00013925,-0.00009408,-0.00102588,0.0005421
 4,-0.00054672,-0.00183734,0.00352361,-0.00268886,-0.07347539,0.1885004
 2,0.00002039,-0.00036097,0.00013901,0.00014534,0.00046077,-0.00008596,
 -0.00011480,-0.00032366,-0.00034566,-0.05898732,0.11038295,-0.13975895
 ,0.00365659,-0.01045660,0.00723098,-0.00047321,-0.00108648,-0.00090725
 ,0.00051004,-0.00032215,0.00111851,0.00024880,0.00009953,-0.00031515,-
 0.00003509,0.00015169,-0.00004389,-0.00000218,-0.00008710,0.00001228,0
 .00001661,0.00000195,0.00002399,-0.00007576,-0.00001803,-0.00002341,0.
 00015927,0.00001578,0.00000136,0.00004395,0.00000546,-0.00002204,-0.00
 005842,0.00008281,-0.00008460,-0.00031918,-0.00052601,0.00017977,-0.00
 027478,-0.00051798,0.00077391,0.00011805,-0.00040841,0.00146384,-0.011
 57672,0.02125859,-0.01958094,0.06682939,-0.11801357,0.15063140,0.00007
 963,-0.00004616,-0.00001629,-0.00008789,-0.00023350,-0.00008205,0.0005
 7928,-0.00133760,-0.00047093,-0.00025900,-0.00025915,-0.00009128,-0.01
 879434,-0.00495899,-0.00174570,-0.46994138,-0.05727904,-0.02016263,0.0
 0118743,0.00173456,0.00061079,0.00159106,0.00097820,0.00034427,-0.0007
 9181,-0.00020244,-0.00007115,0.00043166,0.00052971,0.00018640,-0.00022
 915,-0.00000988,-0.00000342,-0.00004655,0.00002403,0.00000846,-0.00002
 730,0.00000447,-0.00005645,-0.00002728,-0.00003188,0.00004683,-0.00003
 603,0.00000263,0.00003850,-0.00003607,0.00002626,-0.00002847,0.0001996
 9,-0.00065633,0.00013352,0.00019967,-0.00042792,-0.00051522,-0.0000626
 7,-0.00003303,-0.00003431,-0.00006271,-0.00004715,0.00000611,0.4894210
 3,-0.00020093,0.00010019,-0.00001070,-0.00085522,-0.00066312,0.0002157
 6,0.00104387,-0.00097362,-0.00159652,0.00084571,0.00005539,0.00074249,
 0.02481579,0.01146128,0.00773360,-0.05797632,-0.07037622,-0.02893872,0
 .00493100,-0.00590707,-0.00461338,-0.00352917,-0.00041706,0.00024541,-
 0.00039052,0.00071074,0.00018520,0.00023983,0.00030730,0.00019894,-0.0
 0012893,0.00000495,-0.00000925,0.00011919,0.00006834,0.00003517,0.0000
 1838,-0.00004732,0.00001394,-0.00001122,-0.00004905,-0.00001950,0.0000
 9105,0.00041838,0.00024683,0.00004737,0.00028504,-0.00000245,-0.000971
 43,-0.00150279,0.00106374,-0.00036691,-0.00034992,-0.00087491,-0.00031
 296,0.00025016,0.00016523,-0.00026421,0.00001308,-0.00011766,0.0578130
 6,0.06254031,-0.00007073,-0.00001072,0.00012682,-0.00030109,0.00021574
 ,-0.00119992,0.00036748,-0.00159646,0.00299899,0.00029769,0.00074249,-
 0.00179221,0.00873656,0.00773390,-0.00778355,-0.02040754,-0.02893878,0
 .00163552,0.00173593,-0.00461344,0.00557299,-0.00124259,0.00024543,-0.
 00102788,-0.00013742,0.00018518,0.00025003,0.00008443,0.00019904,-0.00
 018782,-0.00004542,-0.00000930,0.00002803,0.00004196,0.00003518,-0.000
 01917,-0.00004079,-0.00002164,-0.00004215,0.00004331,0.00001609,-0.000
 04040,-0.00003766,-0.00016835,-0.00001902,0.00008639,0.00041276,0.0001
 1431,0.00062292,0.00055943,-0.00058479,-0.00109408,-0.00037066,-0.0017
 3769,-0.00003236,-0.00041263,-0.00004611,-0.00017081,0.00046018,0.0001
 9100,0.02035036,0.02160118,0.00878703,0.00001770,0.00003424,0.00001207
 ,0.00024113,-0.00005168,-0.00001825,-0.00056650,-0.00067058,-0.0002360
 8,-0.00345838,0.00237082,0.00083470,0.02396859,0.01721762,0.00606163,-
 0.12718883,-0.12720364,-0.04478297,-0.00378419,-0.00032839,-0.00011567
 ,0.00035992,0.00269564,0.00094908,-0.00096850,-0.00442937,-0.00155946,
 0.00048340,0.00063170,0.00022243,-0.00058847,-0.00012122,-0.00004271,0
 .00001270,0.00001316,0.00000463,0.00000446,0.00000068,-0.00000192,0.00
 000445,-0.00000067,0.00000192,-0.00002092,-0.00006117,-0.00003579,-0.0
 0002091,-0.00007013,-0.00001039,0.00010069,0.00003324,-0.00025745,0.00
 010070,-0.00013537,0.00022148,0.00001458,0.00057901,0.00025294,0.00001
 457,0.00060976,0.00016554,-0.00350199,-0.02469820,-0.00869533,0.113304
 54,-0.00003011,0.00000687,0.00000424,-0.00023393,0.00002726,-0.0000902
 5,0.00080324,0.00047750,0.00029451,0.00305219,0.00017564,-0.00153782,-
 0.00385318,-0.02721078,-0.00960861,-0.13064004,-0.35274410,-0.12372446
 ,-0.00434286,-0.00153483,0.00006490,-0.00190082,-0.00004576,0.00117466
 ,0.00044264,0.00092145,0.00049003,-0.00054437,-0.00080654,-0.00022143,
 0.00022779,-0.00002995,-0.00004606,0.00001146,0.00001471,0.00000569,-0
 .00000643,-0.00001521,-0.00000383,-0.00001327,-0.00001270,0.00000069,0
 .00000399,0.00005583,0.00007630,0.00003531,0.00010011,0.00000407,-0.00
 015292,-0.00005291,0.00018617,-0.00024569,0.00014629,-0.00026197,-0.00
 022074,-0.00096099,-0.00008720,-0.00012285,-0.00041098,-0.00021966,0.0
 0454001,0.00411697,0.00385000,0.13372417,0.37785074,-0.00001058,0.0000
 0418,-0.00000351,-0.00008237,-0.00009008,0.00025139,0.00028279,0.00029
 454,-0.00025547,0.00107453,-0.00153782,0.00400237,-0.00135664,-0.00960
 841,-0.00330101,-0.04599289,-0.12372495,-0.04487186,-0.00152890,0.0000
 6493,-0.00169647,-0.00066919,0.00117465,-0.00296876,0.00015581,0.00049
 006,-0.00029798,-0.00019165,-0.00022148,-0.00025537,0.00008020,-0.0000
 4606,0.00008467,0.00000403,0.00000569,0.00000055,-0.00001316,0.0000038
 5,-0.00000885,0.00000622,-0.00000695,-0.00001137,0.00005133,0.00005917
 ,0.00000034,-0.00003749,0.00002106,-0.00004400,-0.00020198,-0.00001410
 ,0.00024065,0.00006164,-0.00006172,0.00004142,0.00007850,0.00046476,-0
 .00002924,-0.00019946,-0.00077157,-0.00057930,0.00159839,0.00385020,-0
 .00546309,0.04707871,0.12988551,0.05464761,0.00000420,-0.00001559,-0.0
 0000549,-0.00000633,0.00002499,0.00000883,-0.00001227,-0.00008511,-0.0
 0002997,-0.00024910,0.00010554,0.00003713,-0.00027026,0.00005820,0.000
 02044,-0.00037725,-0.00044521,-0.00015673,0.00645866,0.00379262,0.0013
 3526,-0.03212951,0.02470051,0.00869609,-0.15084862,0.11511125,0.040526
 24,0.00711794,-0.01112293,-0.00391602,0.00133140,-0.00203761,-0.000717
 31,-0.00000878,-0.00000630,-0.00000222,0.00000210,0.00000210,0.0000027
 6,0.00000211,0.00000336,-0.00000085,-0.00000166,-0.00000955,-0.0000117
 2,-0.00000167,-0.00001477,0.00000313,0.00001922,0.00001046,-0.00002265
 ,0.00001922,-0.00000605,0.00002420,0.00000688,-0.00002054,-0.00003296,
 0.00000687,-0.00003665,0.00001285,0.00005683,-0.00040374,-0.00014214,0
 .00136884,-0.00016123,-0.00005676,0.16820095,-0.00000769,0.00002063,0.
 00000817,0.00003848,-0.00003317,-0.00001640,-0.00003481,0.00006704,-0.
 00000568,0.00015531,-0.00005295,-0.00017811,-0.00048038,-0.00031709,0.
 00010898,0.00004763,-0.00009659,0.00022733,-0.00215736,0.00137795,0.00
 362108,0.00177019,0.00664961,-0.00653473,0.11300158,-0.19254150,-0.050
 20611,0.01605929,-0.02300174,-0.00945544,0.00320644,-0.00014175,0.0005
 0627,0.00001368,0.00000942,0.00000338,0.00000224,-0.00000359,-0.000000
 25,0.00000022,-0.00000277,-0.00000062,-0.00000255,0.00000314,0.0000044
 2,-0.00000060,0.00000131,0.00000064,0.00001068,-0.00000148,0.00000022,
 0.00001219,-0.00000964,0.00000292,-0.00001801,-0.00002838,-0.00002018,
 -0.00003280,0.00001050,0.00000347,-0.00011830,-0.00005955,-0.00012438,
 -0.00011353,-0.00005353,-0.00017759,-0.12681724,0.20990765,-0.00000271
 ,0.00000819,0.00000025,0.00001355,-0.00001646,0.00000779,-0.00001226,-
 0.00000568,0.00008117,0.00005468,-0.00017812,0.00039027,-0.00016915,0.
 00010897,-0.00058822,0.00001677,0.00022735,-0.00066232,-0.00075955,0.0
 0362105,-0.00763258,0.00062341,-0.00653481,0.02291045,0.03978341,-0.05
 020619,-0.06761043,0.00565376,-0.00945526,0.00052683,0.00112886,0.0005
 0628,-0.00140153,0.00000482,0.00000337,0.00000102,-0.00000243,0.000000
 38,-0.00000166,0.00000330,-0.00000127,-0.00000247,0.00000224,-0.000001
 64,-0.00000506,-0.00000335,0.00000674,-0.00000321,0.00000618,-0.000007
 22,-0.00001355,0.00000187,0.00001037,-0.00000539,-0.00002992,0.0000517
 8,0.00003129,0.00001203,-0.00006850,-0.00000755,-0.00004164,-0.0001243
 4,0.00024984,-0.00003997,-0.00017759,0.00038837,-0.04464746,0.06462200
 ,0.04910446,0.00000646,-0.00001104,-0.00000385,-0.00001773,0.00001638,
 0.00000567,0.00004344,-0.00003313,-0.00001167,0.00009080,-0.00001469,-
 0.00000513,0.00097086,-0.00076144,-0.00026802,-0.00042206,0.00072176,0
 .00025409,-0.00225865,0.00024774,0.00008706,-0.00001487,0.00105030,0.0
 0036993,0.01720259,-0.00999372,-0.00351863,-0.20862192,0.17238466,0.06
 069060,-0.01379527,0.02419466,0.00851803,-0.00000878,-0.00000510,-0.00
 000180,-0.00000228,0.00000171,-0.00000101,-0.00000230,0.00000071,0.000
 00185,0.00000088,0.00000168,0.00000181,0.00000090,0.00000238,-0.000000
 29,-0.00000793,0.00000074,0.00000620,-0.00000792,0.00000447,-0.0000043
 6,-0.00005547,-0.00004765,-0.00003030,-0.00005545,-0.00005616,-0.00000
 629,0.00002581,0.00007456,0.00002629,-0.00018144,-0.00023254,-0.000081
 87,-0.00114449,-0.00227917,-0.00080238,0.21223553,-0.00001027,0.000020
 87,0.00000629,0.00002732,-0.00003338,-0.00001342,-0.00004524,0.0000671
 0,0.00001047,0.00004759,-0.00002097,-0.00009017,-0.00068392,0.00038540
 ,0.00013208,0.00030442,-0.00033247,-0.00000529,-0.00035384,0.00020469,
 0.00056387,0.00235871,0.00367575,0.00208423,0.02163472,-0.02585703,-0.
 00923695,0.17221639,-0.27553713,-0.09451031,-0.00634468,0.00847592,0.0
 0392225,0.00001504,0.00001058,0.00000375,0.00000302,-0.00000500,0.0000
 0120,0.00000080,-0.00000289,-0.00000184,-0.00000085,0.00000415,0.00000
 466,0.00000040,0.00000117,0.00000009,0.00000061,-0.00000545,0.00000134
 ,0.00000551,-0.00000649,-0.00000048,0.00002606,0.00002184,0.00002352,0
 .00002475,0.00004519,0.00000087,-0.00004546,0.00000172,0.00000688,-0.0
 0017021,0.00003561,-0.00004911,-0.00267481,-0.00259386,-0.00260883,-0.
 18357187,0.29091143,-0.00000361,0.00000634,0.00000516,0.00000963,-0.00
 001349,0.00000019,-0.00001593,0.00001045,0.00004109,0.00001675,-0.0000
 9016,0.00020338,-0.00024074,0.00013206,0.00005670,0.00010714,-0.000005
 24,-0.00031928,-0.00012459,0.00056379,-0.00119817,0.00083038,0.0020842
 9,-0.00151080,0.00761662,-0.00923656,-0.00287225,0.06063157,-0.0945108
 5,-0.04036402,-0.00223388,0.00392236,-0.00128393,0.00000529,0.00000374
 ,0.00000124,-0.00000249,0.00000075,-0.00000206,0.00000383,-0.00000143,
 -0.00000418,0.00000170,-0.00000362,-0.00000481,-0.00000186,0.00000842,
 -0.00000183,0.00000807,-0.00000178,-0.00000759,-0.00000590,0.00000265,
 -0.00000653,0.00000711,0.00002986,0.00001486,0.00001078,-0.00000549,-0
 .00000847,-0.00001599,0.00000692,-0.00001550,-0.00005993,-0.00004914,0
 .00015778,-0.00094165,-0.00260881,0.00389793,-0.06462913,0.09980286,0.
 04256857,-0.00000061,-0.00000052,-0.00000019,-0.00000036,0.00000087,0.
 00000033,0.00000062,-0.00000161,-0.00000056,0.00001186,0.00000797,0.00
 000279,-0.00004402,-0.00006292,-0.00002218,0.00006117,0.00001287,0.000
 00454,0.00006324,-0.00011806,-0.00004152,-0.00023575,-0.00114078,-0.00
 040166,0.00163590,0.00500551,0.00176229,-0.02469512,0.03187709,0.01122
 268,-0.10003310,0.09186292,0.03234156,0.00000011,0.00000013,0.00000005
 ,0.00000039,-0.00000008,0.00000039,0.00000039,0.00000018,-0.00000035,-
 0.00000007,-0.00000036,-0.00000111,-0.00000007,-0.00000096,0.00000063,
 0.00000213,0.00000061,-0.00000137,0.00000213,-0.00000039,0.00000145,-0
 .00000717,-0.00000932,-0.00000850,-0.00000717,-0.00001259,0.00000080,0
 .00000780,0.00000381,0.00000134,-0.00000287,0.00002995,0.00001054,0.00
 007069,-0.00148776,-0.00052378,-0.00513736,-0.00261190,-0.00091955,0.1
 1877914,-0.00000169,0.00000611,0.00000215,0.00000722,-0.00000955,-0.00
 000450,-0.00000990,0.00001576,0.00000517,0.00000672,-0.00000503,-0.000
 00726,-0.00012759,0.00009576,0.00003810,0.00006777,-0.00006503,-0.0000
 2164,0.00020352,-0.00006108,0.00001546,0.00034446,0.00016476,0.0001109
 8,-0.00381082,-0.00007357,-0.00026379,-0.00080841,0.00549590,0.0020921
 0,0.10344030,-0.23962126,-0.06780176,0.00000391,0.00000313,0.00000100,
 0.00000040,-0.00000152,-0.00000029,-0.00000009,-0.00000121,-0.00000030
 ,-0.00000043,0.00000129,0.00000250,-0.00000019,0.00000151,-0.00000057,
 -0.00000051,-0.00000141,0.00000175,0.00000090,-0.00000088,-0.00000175,
 0.00000757,0.00000934,0.00000902,0.00000776,0.00001088,-0.00000038,-0.
 00000549,-0.00000630,-0.00000595,-0.00000850,-0.00000805,-0.00000402,0
 .00001925,0.00045945,0.00010408,-0.00164887,0.00050976,0.00003206,-0.1
 0910560,0.25633807,-0.00000060,0.00000213,0.00000082,0.00000255,-0.000
 00444,0.00000147,-0.00000349,0.00000519,0.00000285,0.00000235,-0.00000
 729,0.00001313,-0.00004486,0.00003807,0.00000105,0.00002385,-0.0000216
 3,-0.00001119,0.00007162,0.00001553,-0.00009972,0.00012124,0.00011093,
 -0.00011129,-0.00134161,-0.00026377,0.00058275,-0.00028468,0.00209218,
 0.00029022,0.03641750,-0.06780177,-0.07090774,0.00000138,0.00000100,0.
 00000063,-0.00000063,0.00000009,-0.00000049,0.00000074,-0.00000067,-0.
 00000079,0.00000019,-0.00000028,-0.00000079,-0.00000042,0.00000215,-0.
 00000105,0.00000204,-0.00000110,-0.00000086,-0.00000190,0.00000108,-0.
 00000138,0.00000298,0.00000157,0.00000008,0.00000243,0.00000710,-0.000
 00147,-0.00000194,-0.00000597,0.00000856,-0.00000299,-0.00000402,0.000
 00197,0.00000677,0.00010409,0.00020042,-0.00058051,0.00003207,0.000429
 90,-0.03841200,0.07445658,0.07106506,0.00001649,-0.00003569,-0.0000120
 7,-0.00004298,0.00005914,0.00002032,0.00007452,-0.00009374,-0.00005331
 ,0.00000564,0.00007306,-0.00011373,0.00123787,-0.00077565,-0.00016787,
 -0.00065691,0.00061146,0.00030487,-0.00106340,-0.00050738,0.00103555,-
 0.00209051,-0.00140163,-0.00089047,-0.00038810,0.00780875,-0.00263554,
 -0.02458369,-0.01785022,-0.03056344,-0.06273184,-0.01093532,-0.0580936
 6,-0.00002583,-0.00001909,-0.00000657,-0.00000294,0.00000720,0.0000006
 6,-0.00000407,0.00000603,0.00000481,0.00000098,-0.00000403,-0.00000425
 ,0.00000180,-0.00000853,0.00000138,-0.00000652,0.00001052,0.00000074,-
 0.00000726,0.00000637,0.00000775,-0.00006133,-0.00008242,-0.00005282,-
 0.00006123,-0.00006233,0.00000051,0.00006211,0.00003692,0.00000075,0.0
 0014339,-0.00008270,-0.00003602,0.00019201,-0.00037188,-0.00016916,0.0
 0057834,-0.00009439,0.00002497,0.00476402,0.00156998,0.01376692,0.0807
 4692,0.00000387,-0.00000851,-0.00000313,-0.00001013,0.00001539,0.00000
 380,0.00001505,-0.00002434,-0.00000835,-0.00001166,0.00000720,-0.00000
 825,0.00028266,-0.00007748,-0.00003954,-0.00016581,0.00010007,0.000027
 74,-0.00022447,-0.00010028,-0.00007401,-0.00016265,-0.00027244,0.00054
 469,-0.00126218,0.00032649,-0.00092852,-0.00372493,0.00052817,-0.00536
 308,-0.01289869,-0.06036633,-0.04500910,-0.00000631,-0.00000482,-0.000
 00185,-0.00000032,0.00000140,0.00000068,-0.00000118,0.00000178,0.00000
 115,0.00000035,-0.00000108,-0.00000071,0.00000066,-0.00000322,0.000000
 62,-0.00000294,0.00000287,-0.00000041,-0.00000027,0.00000110,0.0000029
 9,-0.00001093,-0.00001007,-0.00000404,-0.00000781,-0.00001428,-0.00000
 055,0.00001085,0.00000350,0.00000753,0.00005712,-0.00001013,-0.0000033
 8,0.00000603,0.00031173,-0.00020084,0.00017524,-0.00003056,0.00051687,
 -0.00748968,-0.00441901,-0.02608417,0.01977700,0.05888106,0.00000905,-
 0.00001699,-0.00000673,-0.00001805,0.00003097,0.00000836,0.00003523,-0
 .00004296,-0.00001645,0.00001703,0.00000328,-0.00000332,0.00064465,-0.
 00025773,-0.00008201,-0.00033367,0.00028355,0.00010607,-0.00043189,-0.
 00013526,-0.00013420,-0.00030466,0.00000430,-0.00001496,0.00081720,0.0
 0208851,-0.00013929,-0.00622459,-0.00127423,0.00855492,-0.06050776,-0.
 04746691,-0.27178322,-0.00001351,-0.00001074,-0.00000404,-0.00000119,0
 .00000347,0.00000057,-0.00000272,0.00000356,0.00000339,0.00000011,-0.0
 0000192,-0.00000090,0.00000090,-0.00000517,0.00000094,-0.00000572,0.00
 000515,0.00000101,-0.00000148,0.00000252,0.00000448,-0.00002979,-0.000
 02519,-0.00001576,-0.00002654,-0.00003646,-0.00000218,0.00003204,0.000
 01517,0.00000369,0.00008145,-0.00002921,-0.00002663,0.00002924,0.00007
 665,-0.00002432,-0.00057173,-0.00049159,0.00015362,-0.00147097,-0.0006
 1399,-0.00794045,0.07154349,0.05220857,0.29120068,0.00001649,-0.000035
 35,-0.00001295,-0.00004297,0.00005883,0.00002117,0.00007452,-0.0001064
 6,-0.00001716,0.00000563,-0.00001432,0.00013442,0.00123787,-0.00070974
 ,-0.00035510,-0.00065695,0.00066763,0.00014545,-0.00106339,0.00025330,
 -0.00112501,-0.00209045,-0.00165041,-0.00018397,-0.00038827,0.00443539
 ,0.00694614,-0.02458368,-0.03306049,0.01263947,-0.06273229,-0.04491839
 ,0.03843031,-0.00002583,-0.00001901,-0.00000684,-0.00000407,0.00000771
 ,0.00000003,-0.00000294,0.00000602,0.00000399,0.00000179,-0.00000579,-
 0.00000640,0.00000099,-0.00000582,0.00000079,-0.00000725,0.00000982,-0
 .00000206,-0.00000652,0.00000866,0.00000602,-0.00006123,-0.00004825,-0
 .00003943,-0.00006133,-0.00009734,-0.00001047,0.00006214,0.00002924,0.
 00002256,0.00014337,-0.00008706,-0.00002375,0.00019201,-0.00039582,-0.
 00010113,0.00057830,-0.00005791,-0.00007858,0.00476408,0.00984835,-0.0
 0974693,0.00390252,0.00565112,-0.00326612,0.08074745,0.00000872,-0.000
 01761,-0.00000563,-0.00001921,0.00002964,0.00001325,0.00003378,-0.0000
 4633,-0.00001564,0.00000156,0.00000064,0.00001144,0.00062421,-0.000224
 44,-0.00007496,-0.00033831,0.00025444,0.00009153,-0.00044552,-0.000215
 75,0.00000845,-0.00031761,0.00009667,-0.00045492,-0.00047190,0.0007100
 7,0.00161118,-0.00680277,0.00043746,-0.00116143,-0.04796121,-0.1884980
 1,0.11194974,-0.00001339,-0.00001067,-0.00000347,-0.00000262,0.0000047
 0,-0.00000008,-0.00000100,0.00000309,0.00000134,0.00000107,-0.00000381
 ,-0.00000441,0.00000035,-0.00000231,-0.00000040,-0.00000114,0.00000512
 ,-0.00000249,-0.00000587,0.00000446,0.00000318,-0.00002272,-0.00002759
 ,-0.00001989,-0.00002718,-0.00002659,-0.00000466,0.00002854,0.00001467
 ,0.00000131,0.00009552,-0.00003251,-0.00000136,0.00002304,0.00011920,0
 .00031619,-0.00022162,0.00005406,-0.00059687,-0.00675939,-0.01883781,0
 .01732534,0.00235858,0.00516181,-0.00431736,0.06023608,0.20104738,-0.0
 0000467,0.00000820,0.00000240,0.00000774,-0.00001392,-0.00000585,-0.00
 001802,0.00001901,0.00000549,-0.00002059,-0.00000009,0.00000322,-0.000
 32530,0.00014329,0.00006494,0.00015622,-0.00016431,-0.00004830,0.00019
 593,0.00006965,-0.00001869,0.00013550,0.00008544,-0.00038416,-0.001427
 67,-0.00140580,-0.00052281,0.00251791,-0.00525031,0.00864567,0.0390820
 1,0.11440754,-0.14365130,0.00000658,0.00000543,0.00000181,0.00000138,-
 0.00000249,0.00000045,0.00000074,-0.00000143,-0.00000112,-0.00000029,0
 .00000136,0.00000152,0.00000012,0.00000081,0.00000031,0.00000098,-0.00
 000201,0.00000048,0.00000261,-0.00000240,-0.00000058,0.00001580,0.0000
 1601,0.00001114,0.00001638,0.00001650,0.00000076,-0.00001821,-0.000006
 37,-0.00000748,-0.00002767,0.00002448,-0.00000423,-0.00001904,0.000038
 70,0.00016821,0.00055545,0.00041156,0.00006899,-0.00354562,-0.00814475
 ,0.00647832,0.00608618,0.02441528,-0.01984326,-0.04337446,-0.12466937,
 0.14903410\\-0.00003206,-0.00000822,-0.00000289,0.00001605,0.00001876,
 0.00000660,-0.00000481,-0.00001350,-0.00000473,0.00000156,-0.00001225,
 -0.00000430,-0.00002583,0.00001747,0.00000613,0.00000330,-0.00001414,-
 0.00000491,0.00002676,0.00000126,0.00000045,-0.00002904,-0.00002236,-0
 .00000788,0.00001960,0.00002480,0.00000873,-0.00000608,0.00000251,0.00
 000095,0.00001715,0.00000638,0.00000221,0.00000175,0.00000047,0.000000
 16,0.00000552,-0.00000067,0.00000216,0.00000552,0.00000084,-0.00000210
 ,-0.00000156,-0.00000089,0.00000013,-0.00000156,-0.00000061,-0.0000006
 6,0.00000022,0.00000164,-0.00000085,0.00000021,0.00000074,0.00000168,0
 .00000156,0.00000338,-0.00000120,0.00000158,0.00000190,0.00000303,-0.0
 0000778,0.00000010,0.,0.00000629,0.00000486,0.00000169,0.00000310,-0.0
 0001110,-0.00000391,0.00000300,-0.00000004,-0.00000002,-0.00000768,0.0
 0000592,0.00000210,0.00000161,-0.00000295,-0.00000321,0.00000163,-0.00
 000431,0.00000064\\\@


 REALITY IS FOR PEOPLE WHO CAN'T FACE SCIENCE FICTION.
 Job cpu time:       0 days  2 hours 42 minutes 52.0 seconds.
 Elapsed time:       0 days  0 hours 40 minutes 49.7 seconds.
 File lengths (MBytes):  RWF=    298 Int=      0 D2E=      0 Chk=     13 Scr=      1
 Normal termination of Gaussian 16 at Tue Jun  1 14:45:14 2021.
### All Done ###
