### Starting Gaussian ###
 Entering Gaussian System, Link 0=g16
 Initial command:
 /cluster/software/gaussian/gaussian-16-A.03/avx2/g16/l1.exe "/local/scratch/cz9n3/Gau-8739.inp" -scrdir="/local/scratch/cz9n3/"
 Entering Link 1 = /cluster/software/gaussian/gaussian-16-A.03/avx2/g16/l1.exe PID=      8741.
  
 Copyright (c) 1988,1990,1992,1993,1995,1998,2003,2009,2016,
            Gaussian, Inc.  All Rights Reserved.
  
 This is part of the Gaussian(R) 16 program.  It is based on
 the Gaussian(R) 09 system (copyright 2009, Gaussian, Inc.),
 the Gaussian(R) 03 system (copyright 2003, Gaussian, Inc.),
 the Gaussian(R) 98 system (copyright 1998, Gaussian, Inc.),
 the Gaussian(R) 94 system (copyright 1995, Gaussian, Inc.),
 the Gaussian 92(TM) system (copyright 1992, Gaussian, Inc.),
 the Gaussian 90(TM) system (copyright 1990, Gaussian, Inc.),
 the Gaussian 88(TM) system (copyright 1988, Gaussian, Inc.),
 the Gaussian 86(TM) system (copyright 1986, Carnegie Mellon
 University), and the Gaussian 82(TM) system (copyright 1983,
 Carnegie Mellon University). Gaussian is a federally registered
 trademark of Gaussian, Inc.
  
 This software contains proprietary and confidential information,
 including trade secrets, belonging to Gaussian, Inc.
  
 This software is provided under written license and may be
 used, copied, transmitted, or stored only in accord with that
 written license.
  
 The following legend is applicable only to US Government
 contracts under FAR:
  
                    RESTRICTED RIGHTS LEGEND
  
 Use, reproduction and disclosure by the US Government is
 subject to restrictions as set forth in subparagraphs (a)
 and (c) of the Commercial Computer Software - Restricted
 Rights clause in FAR 52.227-19.
  
 Gaussian, Inc.
 340 Quinnipiac St., Bldg. 40, Wallingford CT 06492
  
  
 ---------------------------------------------------------------
 Warning -- This program may not be used in any manner that
 competes with the business of Gaussian, Inc. or will provide
 assistance to any competitor of Gaussian, Inc.  The licensee
 of this program is prohibited from giving any competitor of
 Gaussian, Inc. access to this program.  By using this program,
 the user acknowledges that Gaussian, Inc. is engaged in the
 business of creating and licensing software in the field of
 computational chemistry and represents and warrants to the
 licensee that it is not a competitor of Gaussian, Inc. and that
 it will not use this program in any manner prohibited above.
 ---------------------------------------------------------------
  

 Cite this work as:
 Gaussian 16, Revision A.03,
 M. J. Frisch, G. W. Trucks, H. B. Schlegel, G. E. Scuseria, 
 M. A. Robb, J. R. Cheeseman, G. Scalmani, V. Barone, 
 G. A. Petersson, H. Nakatsuji, X. Li, M. Caricato, A. V. Marenich, 
 J. Bloino, B. G. Janesko, R. Gomperts, B. Mennucci, H. P. Hratchian, 
 J. V. Ortiz, A. F. Izmaylov, J. L. Sonnenberg, D. Williams-Young, 
 F. Ding, F. Lipparini, F. Egidi, J. Goings, B. Peng, A. Petrone, 
 T. Henderson, D. Ranasinghe, V. G. Zakrzewski, J. Gao, N. Rega, 
 G. Zheng, W. Liang, M. Hada, M. Ehara, K. Toyota, R. Fukuda, 
 J. Hasegawa, M. Ishida, T. Nakajima, Y. Honda, O. Kitao, H. Nakai, 
 T. Vreven, K. Throssell, J. A. Montgomery, Jr., J. E. Peralta, 
 F. Ogliaro, M. J. Bearpark, J. J. Heyd, E. N. Brothers, K. N. Kudin, 
 V. N. Staroverov, T. A. Keith, R. Kobayashi, J. Normand, 
 K. Raghavachari, A. P. Rendell, J. C. Burant, S. S. Iyengar, 
 J. Tomasi, M. Cossi, J. M. Millam, M. Klene, C. Adamo, R. Cammi, 
 J. W. Ochterski, R. L. Martin, K. Morokuma, O. Farkas, 
 J. B. Foresman, and D. J. Fox, Gaussian, Inc., Wallingford CT, 2016.
 
 ******************************************
 Gaussian 16:  ES64L-G16RevA.03 25-Dec-2016
                 1-Jun-2021 
 ******************************************
 %chk=CCCCNpCpCdNN.chk
 %NProcShared=20
 Will use up to   20 processors via shared memory.
 -----------------------------
 # opt freq b3lyp/6-31g(2df,p)
 -----------------------------
 1/18=20,19=15,26=3,38=1/1,3;
 2/9=110,12=2,17=6,18=5,40=1/2;
 3/5=1,6=6,7=104,11=2,25=1,30=1,71=1,74=-5/1,2,3;
 4//1;
 5/5=2,38=5/2;
 6/7=2,8=2,9=2,10=2,28=1/1;
 7//1,2,3,16;
 1/18=20,19=15,26=3/3(2);
 2/9=110/2;
 99//99;
 2/9=110/2;
 3/5=1,6=6,7=104,11=2,25=1,30=1,71=1,74=-5/1,2,3;
 4/5=5,16=3,69=1/1;
 5/5=2,38=5/2;
 7//1,2,3,16;
 1/18=20,19=15,26=3/3(-5);
 2/9=110/2;
 6/7=2,8=2,9=2,10=2,19=2,28=1/1;
 99/9=1/99;
 -------------------
 Title Card Required
 -------------------
 Symbolic Z-matrix:
 Charge =  0 Multiplicity = 1
 C                     0.99516   0.09554  -0.09596 
 C                     2.51954   0.10098  -0.10553 
 C                     3.04394  -0.60545   1.13754 
 C                     4.57062  -0.66139   1.23598 
 N                     5.062    -1.34535   2.4395 
 C                     4.14432  -1.90632   3.42661 
 C                     6.41331  -1.48887   2.69204 
 N                     6.89704  -2.08555   3.74199 
 N                     8.21764  -2.14679   3.84976 
 H                     0.60272   0.59963  -0.98297 
 H                     0.60713   0.61031   0.79008 
 H                     0.60713  -0.92911  -0.08476 
 H                     2.88123   1.13431  -0.13183 
 H                     2.88123  -0.40524  -1.00675 
 H                     2.64377  -1.62752   1.13917 
 H                     2.64377  -0.0838    2.01646 
 H                     4.96777   0.36141   1.22053 
 H                     4.96777  -1.17154   0.34935 
 H                     3.08554  -1.77921   3.20295 
 H                     4.30914  -1.43231   4.39957 
 H                     4.30915  -2.98479   3.5173 
 H                     7.05564  -1.04442   1.90997 
 H                     8.59938  -2.61129   4.66711 
 H                     8.85636  -1.75976   3.16872 
 

 GradGradGradGradGradGradGradGradGradGradGradGradGradGradGradGradGradGrad
 Berny optimization.
 Initialization pass.
                           ----------------------------
                           !    Initial Parameters    !
                           ! (Angstroms and Degrees)  !
 --------------------------                            --------------------------
 ! Name  Definition              Value          Derivative Info.                !
 --------------------------------------------------------------------------------
 ! R1    R(1,2)                  1.5244         estimate D2E/DX2                !
 ! R2    R(1,10)                 1.0931         estimate D2E/DX2                !
 ! R3    R(1,11)                 1.0957         estimate D2E/DX2                !
 ! R4    R(1,12)                 1.0957         estimate D2E/DX2                !
 ! R5    R(2,3)                  1.5229         estimate D2E/DX2                !
 ! R6    R(2,13)                 1.0951         estimate D2E/DX2                !
 ! R7    R(2,14)                 1.0951         estimate D2E/DX2                !
 ! R8    R(3,4)                  1.5309         estimate D2E/DX2                !
 ! R9    R(3,15)                 1.0976         estimate D2E/DX2                !
 ! R10   R(3,16)                 1.0976         estimate D2E/DX2                !
 ! R11   R(4,5)                  1.4689         estimate D2E/DX2                !
 ! R12   R(4,17)                 1.0973         estimate D2E/DX2                !
 ! R13   R(4,18)                 1.0973         estimate D2E/DX2                !
 ! R14   R(5,6)                  1.4599         estimate D2E/DX2                !
 ! R15   R(5,7)                  1.3822         estimate D2E/DX2                !
 ! R16   R(6,19)                 1.0896         estimate D2E/DX2                !
 ! R17   R(6,20)                 1.0948         estimate D2E/DX2                !
 ! R18   R(6,21)                 1.0948         estimate D2E/DX2                !
 ! R19   R(7,8)                  1.3009         estimate D2E/DX2                !
 ! R20   R(7,22)                 1.1053         estimate D2E/DX2                !
 ! R21   R(8,9)                  1.3264         estimate D2E/DX2                !
 ! R22   R(9,23)                 1.0147         estimate D2E/DX2                !
 ! R23   R(9,24)                 1.0107         estimate D2E/DX2                !
 ! A1    A(2,1,10)             110.6257         estimate D2E/DX2                !
 ! A2    A(2,1,11)             110.948          estimate D2E/DX2                !
 ! A3    A(2,1,12)             110.9483         estimate D2E/DX2                !
 ! A4    A(10,1,11)            108.2028         estimate D2E/DX2                !
 ! A5    A(10,1,12)            108.2037         estimate D2E/DX2                !
 ! A6    A(11,1,12)            107.7973         estimate D2E/DX2                !
 ! A7    A(1,2,3)              109.7278         estimate D2E/DX2                !
 ! A8    A(1,2,13)             109.4986         estimate D2E/DX2                !
 ! A9    A(1,2,14)             109.4986         estimate D2E/DX2                !
 ! A10   A(3,2,13)             110.0946         estimate D2E/DX2                !
 ! A11   A(3,2,14)             110.0948         estimate D2E/DX2                !
 ! A12   A(13,2,14)            107.8982         estimate D2E/DX2                !
 ! A13   A(2,3,4)              114.383          estimate D2E/DX2                !
 ! A14   A(2,3,15)             107.9154         estimate D2E/DX2                !
 ! A15   A(2,3,16)             107.9156         estimate D2E/DX2                !
 ! A16   A(4,3,15)             109.236          estimate D2E/DX2                !
 ! A17   A(4,3,16)             109.2359         estimate D2E/DX2                !
 ! A18   A(15,3,16)            107.9651         estimate D2E/DX2                !
 ! A19   A(3,4,5)              113.7848         estimate D2E/DX2                !
 ! A20   A(3,4,17)             109.0246         estimate D2E/DX2                !
 ! A21   A(3,4,18)             109.0243         estimate D2E/DX2                !
 ! A22   A(5,4,17)             108.9334         estimate D2E/DX2                !
 ! A23   A(5,4,18)             108.9336         estimate D2E/DX2                !
 ! A24   A(17,4,18)            106.9161         estimate D2E/DX2                !
 ! A25   A(4,5,6)              121.5094         estimate D2E/DX2                !
 ! A26   A(4,5,7)              121.6748         estimate D2E/DX2                !
 ! A27   A(6,5,7)              116.8158         estimate D2E/DX2                !
 ! A28   A(5,6,19)             115.2906         estimate D2E/DX2                !
 ! A29   A(5,6,20)             109.872          estimate D2E/DX2                !
 ! A30   A(5,6,21)             109.8716         estimate D2E/DX2                !
 ! A31   A(19,6,20)            106.1539         estimate D2E/DX2                !
 ! A32   A(19,6,21)            106.1549         estimate D2E/DX2                !
 ! A33   A(20,6,21)            109.2838         estimate D2E/DX2                !
 ! A34   A(5,7,8)              123.9603         estimate D2E/DX2                !
 ! A35   A(5,7,22)             113.3979         estimate D2E/DX2                !
 ! A36   A(8,7,22)             122.6419         estimate D2E/DX2                !
 ! A37   A(7,8,9)              117.191          estimate D2E/DX2                !
 ! A38   A(8,9,23)             117.4621         estimate D2E/DX2                !
 ! A39   A(8,9,24)             123.8312         estimate D2E/DX2                !
 ! A40   A(23,9,24)            118.7067         estimate D2E/DX2                !
 ! D1    D(10,1,2,3)           179.9997         estimate D2E/DX2                !
 ! D2    D(10,1,2,13)           59.0572         estimate D2E/DX2                !
 ! D3    D(10,1,2,14)          -59.0577         estimate D2E/DX2                !
 ! D4    D(11,1,2,3)            59.9012         estimate D2E/DX2                !
 ! D5    D(11,1,2,13)          -61.0413         estimate D2E/DX2                !
 ! D6    D(11,1,2,14)         -179.1561         estimate D2E/DX2                !
 ! D7    D(12,1,2,3)           -59.9006         estimate D2E/DX2                !
 ! D8    D(12,1,2,13)          179.1569         estimate D2E/DX2                !
 ! D9    D(12,1,2,14)           61.0421         estimate D2E/DX2                !
 ! D10   D(1,2,3,4)           -179.9999         estimate D2E/DX2                !
 ! D11   D(1,2,3,15)            58.2179         estimate D2E/DX2                !
 ! D12   D(1,2,3,16)           -58.2177         estimate D2E/DX2                !
 ! D13   D(13,2,3,4)           -59.4179         estimate D2E/DX2                !
 ! D14   D(13,2,3,15)          178.7999         estimate D2E/DX2                !
 ! D15   D(13,2,3,16)           62.3643         estimate D2E/DX2                !
 ! D16   D(14,2,3,4)            59.4179         estimate D2E/DX2                !
 ! D17   D(14,2,3,15)          -62.3643         estimate D2E/DX2                !
 ! D18   D(14,2,3,16)         -178.7999         estimate D2E/DX2                !
 ! D19   D(2,3,4,5)           -179.9998         estimate D2E/DX2                !
 ! D20   D(2,3,4,17)            58.1945         estimate D2E/DX2                !
 ! D21   D(2,3,4,18)           -58.194          estimate D2E/DX2                !
 ! D22   D(15,3,4,5)           -58.9441         estimate D2E/DX2                !
 ! D23   D(15,3,4,17)          179.2501         estimate D2E/DX2                !
 ! D24   D(15,3,4,18)           62.8616         estimate D2E/DX2                !
 ! D25   D(16,3,4,5)            58.9444         estimate D2E/DX2                !
 ! D26   D(16,3,4,17)          -62.8613         estimate D2E/DX2                !
 ! D27   D(16,3,4,18)         -179.2498         estimate D2E/DX2                !
 ! D28   D(3,4,5,6)             -0.0003         estimate D2E/DX2                !
 ! D29   D(3,4,5,7)            179.9998         estimate D2E/DX2                !
 ! D30   D(17,4,5,6)           121.856          estimate D2E/DX2                !
 ! D31   D(17,4,5,7)           -58.1439         estimate D2E/DX2                !
 ! D32   D(18,4,5,6)          -121.8563         estimate D2E/DX2                !
 ! D33   D(18,4,5,7)            58.1438         estimate D2E/DX2                !
 ! D34   D(4,5,6,19)             0.0            estimate D2E/DX2                !
 ! D35   D(4,5,6,20)          -119.8661         estimate D2E/DX2                !
 ! D36   D(4,5,6,21)           119.867          estimate D2E/DX2                !
 ! D37   D(7,5,6,19)           179.9999         estimate D2E/DX2                !
 ! D38   D(7,5,6,20)            60.1338         estimate D2E/DX2                !
 ! D39   D(7,5,6,21)           -60.1331         estimate D2E/DX2                !
 ! D40   D(4,5,7,8)            179.9997         estimate D2E/DX2                !
 ! D41   D(4,5,7,22)             0.0001         estimate D2E/DX2                !
 ! D42   D(6,5,7,8)             -0.0002         estimate D2E/DX2                !
 ! D43   D(6,5,7,22)          -179.9998         estimate D2E/DX2                !
 ! D44   D(5,7,8,9)           -179.9997         estimate D2E/DX2                !
 ! D45   D(22,7,8,9)             0.0            estimate D2E/DX2                !
 ! D46   D(7,8,9,23)          -179.9997         estimate D2E/DX2                !
 ! D47   D(7,8,9,24)            -0.0003         estimate D2E/DX2                !
 ! D48   D(8,9,23,24)          179.9995         estimate D2E/DX2                !
 --------------------------------------------------------------------------------
 Trust Radius=3.00D-01 FncErr=1.00D-07 GrdErr=1.00D-06 EigMax=2.50D+02 EigMin=1.00D-04
 Number of steps in this run=    121 maximum allowed number of steps=    144.
 GradGradGradGradGradGradGradGradGradGradGradGradGradGradGradGradGradGrad

                          Input orientation:                          
 ---------------------------------------------------------------------
 Center     Atomic      Atomic             Coordinates (Angstroms)
 Number     Number       Type             X           Y           Z
 ---------------------------------------------------------------------
      1          6           0        0.995160    0.095540   -0.095960
      2          6           0        2.519540    0.100980   -0.105530
      3          6           0        3.043940   -0.605450    1.137540
      4          6           0        4.570620   -0.661390    1.235980
      5          7           0        5.062000   -1.345350    2.439500
      6          6           0        4.144320   -1.906320    3.426610
      7          6           0        6.413310   -1.488870    2.692040
      8          7           0        6.897040   -2.085550    3.741990
      9          7           0        8.217640   -2.146790    3.849760
     10          1           0        0.602720    0.599630   -0.982970
     11          1           0        0.607130    0.610310    0.790080
     12          1           0        0.607130   -0.929110   -0.084760
     13          1           0        2.881230    1.134310   -0.131830
     14          1           0        2.881230   -0.405240   -1.006750
     15          1           0        2.643770   -1.627520    1.139170
     16          1           0        2.643770   -0.083800    2.016460
     17          1           0        4.967770    0.361410    1.220530
     18          1           0        4.967770   -1.171540    0.349350
     19          1           0        3.085540   -1.779210    3.202950
     20          1           0        4.309140   -1.432310    4.399570
     21          1           0        4.309150   -2.984790    3.517300
     22          1           0        7.055640   -1.044420    1.909970
     23          1           0        8.599380   -2.611290    4.667110
     24          1           0        8.856360   -1.759760    3.168720
 ---------------------------------------------------------------------
                    Distance matrix (angstroms):
                    1          2          3          4          5
     1  C    0.000000
     2  C    1.524420   0.000000
     3  C    2.492069   1.522912   0.000000
     4  C    3.889849   2.566668   1.530873   0.000000
     5  N    5.004389   3.877261   2.512990   1.468917   0.000000
     6  C    5.131584   4.375520   2.853584   2.555473   1.459866
     7  C    6.296003   5.051284   3.814388   2.490048   1.382177
     8  N    7.370156   6.224695   4.880598   3.704126   2.368913
     9  N    8.530004   7.291442   6.041443   4.726417   3.548127
    10  H    1.093116   2.166276   3.450846   4.717853   5.948229
    11  H    1.095729   2.172291   2.745331   4.186323   5.137223
    12  H    1.095719   2.172287   2.745326   4.186321   5.137218
    13  H    2.153506   1.095117   2.159755   2.819482   4.185237
    14  H    2.153504   1.095115   2.159754   2.819484   4.185236
    15  H    2.685591   2.133641   1.097618   2.157668   2.760129
    16  H    2.685590   2.133640   1.097613   2.157663   2.760128
    17  H    4.193502   2.796442   2.154722   1.097309   2.099475
    18  H    4.193498   2.796436   2.154721   1.097312   2.099480
    19  H    4.332111   3.847273   2.375997   2.706281   2.162749
    20  H    5.790214   5.084247   3.595173   3.266648   2.101484
    21  H    5.790217   5.084248   3.595174   3.266646   2.101476
    22  H    6.484804   5.094152   4.108902   2.603133   2.084601
    23  H    9.372189   8.191395   6.880710   5.639652   4.367826
    24  H    8.711988   7.371455   6.264371   4.827988   3.885957
                    6          7          8          9         10
     6  C    0.000000
     7  C    2.421193   0.000000
     8  N    2.776519   1.300929   0.000000
     9  N    4.102294   2.242494   1.326405   0.000000
    10  H    6.186042   7.185436   8.315883   9.427890   0.000000
    11  H    5.079019   6.460320   7.452812   8.653502   1.773088
    12  H    5.079013   6.460315   7.452807   8.653500   1.773090
    13  H    4.848023   5.227897   6.442104   7.422664   2.490367
    14  H    4.848022   5.227895   6.442104   7.422665   2.490369
    15  H    2.749866   4.079223   5.007471   6.219724   3.691823
    16  H    2.749864   4.079223   5.007471   6.219722   3.691821
    17  H    3.269168   2.771004   4.008423   4.874995   4.895490
    18  H    3.269174   2.771007   4.008429   4.875001   4.895486
    19  H    1.089585   3.379257   3.861598   5.185743   5.417121
    20  H    1.094761   2.710422   2.748883   4.011128   6.843834
    21  H    1.094756   2.710410   2.748871   4.011118   6.843838
    22  H    3.393944   1.105331   2.113150   2.515601   7.260315
    23  H    4.677968   3.152718   2.007539   1.014666  10.304367
    24  H    4.721367   2.503817   2.067296   1.010728   9.535503
                   11         12         13         14         15
    11  H    0.000000
    12  H    1.770638   0.000000
    13  H    2.509188   3.071066   0.000000
    14  H    3.071070   2.509190   1.770791   0.000000
    15  H    3.045923   2.476627   3.049514   2.480993   0.000000
    16  H    2.476631   3.045912   2.480994   3.049510   1.775587
    17  H    4.388897   4.731216   2.603824   3.146773   3.059974
    18  H    4.731217   4.388896   3.146765   2.603819   2.496539
    19  H    4.204077   4.204072   4.432956   4.432957   2.115977
    20  H    5.559280   5.836720   5.400005   5.685252   3.666302
    21  H    5.836731   5.559281   5.685252   5.400006   3.204867
    22  H    6.750968   6.750965   5.132398   5.132398   4.516496
    23  H    9.449134   9.449130   8.352041   8.352041   6.991670
    24  H    8.906456   8.906453   7.414273   7.414274   6.537036
                   16         17         18         19         20
    16  H    0.000000
    17  H    2.496536   0.000000
    18  H    3.059969   1.763205   0.000000
    19  H    2.115971   3.472036   3.472043   0.000000
    20  H    3.204863   3.709113   4.111700   1.746263   0.000000
    21  H    3.666300   4.111689   3.709119   1.746270   1.785664
    22  H    4.516495   2.609768   2.609769   4.239506   3.727174
    23  H    6.991669   5.822753   5.822759   5.765289   4.457323
    24  H    6.537034   4.839002   4.839006   5.770954   4.722227
                   21         22         23         24
    21  H    0.000000
    22  H    3.727164   0.000000
    23  H    4.457313   3.527043   0.000000
    24  H    4.722216   2.310575   1.742502   0.000000
 Stoichiometry    C6H15N3
 Framework group  C1[X(C6H15N3)]
 Deg. of freedom    66
 Full point group                 C1      NOp   1
 Largest Abelian subgroup         C1      NOp   1
 Largest concise Abelian subgroup C1      NOp   1
                         Standard orientation:                         
 ---------------------------------------------------------------------
 Center     Atomic      Atomic             Coordinates (Angstroms)
 Number     Number       Type             X           Y           Z
 ---------------------------------------------------------------------
      1          6           0        4.324253    0.189073   -0.000002
      2          6           0        3.103583   -0.724065   -0.000001
      3          6           0        1.833258    0.115897    0.000000
      4          6           0        0.537041   -0.698592    0.000003
      5          7           0       -0.679718    0.124339   -0.000001
      6          6           0       -0.614454    1.582746   -0.000001
      7          6           0       -1.939899   -0.443426   -0.000004
      8          7           0       -3.045715    0.241840   -0.000002
      9          7           0       -4.182393   -0.441763    0.000003
     10          1           0        5.245402   -0.399472    0.000003
     11          1           0        4.330542    0.834657    0.885325
     12          1           0        4.330539    0.834662   -0.885313
     13          1           0        3.128833   -1.368050    0.885396
     14          1           0        3.128833   -1.368050   -0.885394
     15          1           0        1.855010    0.760963   -0.887796
     16          1           0        1.855010    0.760963    0.887791
     17          1           0        0.525062   -1.351829    0.881606
     18          1           0        0.525068   -1.351837   -0.881599
     19          1           0        0.390522    2.003720    0.000004
     20          1           0       -1.110011    1.977425    0.892834
     21          1           0       -1.110018    1.977417   -0.892829
     22          1           0       -1.923392   -1.548633   -0.000001
     23          1           0       -5.047398    0.088626   -0.000000
     24          1           0       -4.231914   -1.451277    0.000001
 ---------------------------------------------------------------------
 Rotational constants (GHZ):           6.0524097           0.5239985           0.4896501
 Standard basis: 6-31G(2df,p) (6D, 7F)
 There are   354 symmetry adapted cartesian basis functions of A   symmetry.
 There are   327 symmetry adapted basis functions of A   symmetry.
   327 basis functions,   501 primitive gaussians,   354 cartesian basis functions
    36 alpha electrons       36 beta electrons
       nuclear repulsion energy       456.6380346018 Hartrees.
 NAtoms=   24 NActive=   24 NUniq=   24 SFac= 1.00D+00 NAtFMM=   60 NAOKFM=F Big=F
 Integral buffers will be    131072 words long.
 Raffenetti 2 integral format.
 Two-electron integral symmetry is turned on.
 One-electron integrals computed using PRISM.
 PrsmSu:  requested number of processors reduced to:  13 ShMem   1 Linda.
 NBasis=   327 RedAO= T EigKep=  2.07D-04  NBF=   327
 NBsUse=   327 1.00D-06 EigRej= -1.00D+00 NBFU=   327
 ExpMin= 1.61D-01 ExpMax= 4.17D+03 ExpMxC= 6.27D+02 IAcc=3 IRadAn=         5 AccDes= 0.00D+00
 Harris functional with IExCor=  402 and IRadAn=       5 diagonalized for initial guess.
 HarFok:  IExCor=  402 AccDes= 0.00D+00 IRadAn=         5 IDoV= 1 UseB2=F ITyADJ=14
 ICtDFT=  3500011 ScaDFX=  1.000000  1.000000  1.000000  1.000000
 FoFCou: FMM=F IPFlag=           0 FMFlag=      100000 FMFlg1=           0
         NFxFlg=           0 DoJE=T BraDBF=F KetDBF=T FulRan=T
         wScrn=  0.000000 ICntrl=       500 IOpCl=  0 I1Cent=   200000004 NGrid=           0
         NMat0=    1 NMatS0=      1 NMatT0=    0 NMatD0=    1 NMtDS0=    0 NMtDT0=    0
 Petite list used in FoFCou.
 Requested convergence on RMS density matrix=1.00D-08 within 128 cycles.
 Requested convergence on MAX density matrix=1.00D-06.
 Requested convergence on             energy=1.00D-06.
 No special actions if energy rises.
 Integral accuracy reduced to 1.0D-05 until final iterations.
 Initial convergence to 1.0D-05 achieved.  Increase integral accuracy.
 SCF Done:  E(RB3LYP) =  -401.893364681     A.U. after   13 cycles
            NFock= 13  Conv=0.56D-08     -V/T= 2.0082

 **********************************************************************

            Population analysis using the SCF density.

 **********************************************************************

 Orbital symmetries:
       Occupied  (A) (A) (A) (A) (A) (A) (A) (A) (A) (A) (A) (A)
                 (A) (A) (A) (A) (A) (A) (A) (A) (A) (A) (A) (A)
                 (A) (A) (A) (A) (A) (A) (A) (A) (A) (A) (A) (A)
       Virtual   (A) (A) (A) (A) (A) (A) (A) (A) (A) (A) (A) (A)
                 (A) (A) (A) (A) (A) (A) (A) (A) (A) (A) (A) (A)
                 (A) (A) (A) (A) (A) (A) (A) (A) (A) (A) (A) (A)
                 (A) (A) (A) (A) (A) (A) (A) (A) (A) (A) (A) (A)
                 (A) (A) (A) (A) (A) (A) (A) (A) (A) (A) (A) (A)
                 (A) (A) (A) (A) (A) (A) (A) (A) (A) (A) (A) (A)
                 (A) (A) (A) (A) (A) (A) (A) (A) (A) (A) (A) (A)
                 (A) (A) (A) (A) (A) (A) (A) (A) (A) (A) (A) (A)
                 (A) (A) (A) (A) (A) (A) (A) (A) (A) (A) (A) (A)
                 (A) (A) (A) (A) (A) (A) (A) (A) (A) (A) (A) (A)
                 (A) (A) (A) (A) (A) (A) (A) (A) (A) (A) (A) (A)
                 (A) (A) (A) (A) (A) (A) (A) (A) (A) (A) (A) (A)
                 (A) (A) (A) (A) (A) (A) (A) (A) (A) (A) (A) (A)
                 (A) (A) (A) (A) (A) (A) (A) (A) (A) (A) (A) (A)
                 (A) (A) (A) (A) (A) (A) (A) (A) (A) (A) (A) (A)
                 (A) (A) (A) (A) (A) (A) (A) (A) (A) (A) (A) (A)
                 (A) (A) (A) (A) (A) (A) (A) (A) (A) (A) (A) (A)
                 (A) (A) (A) (A) (A) (A) (A) (A) (A) (A) (A) (A)
                 (A) (A) (A) (A) (A) (A) (A) (A) (A) (A) (A) (A)
                 (A) (A) (A) (A) (A) (A) (A) (A) (A) (A) (A) (A)
                 (A) (A) (A) (A) (A) (A) (A) (A) (A) (A) (A) (A)
                 (A) (A) (A) (A) (A) (A) (A) (A) (A) (A) (A) (A)
                 (A) (A) (A) (A) (A) (A) (A) (A) (A) (A) (A) (A)
                 (A) (A) (A) (A) (A) (A) (A) (A) (A) (A) (A) (A)
                 (A) (A) (A)
 The electronic state is 1-A.
 Alpha  occ. eigenvalues --  -14.32588 -14.32579 -14.31807 -10.21228 -10.21139
 Alpha  occ. eigenvalues --  -10.19044 -10.18422 -10.18292 -10.17513  -0.97130
 Alpha  occ. eigenvalues --   -0.91462  -0.80136  -0.75993  -0.71929  -0.68536
 Alpha  occ. eigenvalues --   -0.62632  -0.58135  -0.55867  -0.50989  -0.50233
 Alpha  occ. eigenvalues --   -0.48462  -0.45433  -0.44083  -0.42826  -0.40771
 Alpha  occ. eigenvalues --   -0.40342  -0.37424  -0.36560  -0.36416  -0.35676
 Alpha  occ. eigenvalues --   -0.33554  -0.33280  -0.33265  -0.25289  -0.25264
 Alpha  occ. eigenvalues --   -0.14498
 Alpha virt. eigenvalues --    0.05923   0.08336   0.09523   0.11327   0.12349
 Alpha virt. eigenvalues --    0.12379   0.13147   0.15081   0.15591   0.16744
 Alpha virt. eigenvalues --    0.17940   0.18239   0.18926   0.19024   0.19653
 Alpha virt. eigenvalues --    0.19814   0.20707   0.22394   0.23822   0.26233
 Alpha virt. eigenvalues --    0.28499   0.29728   0.33311   0.38466   0.44092
 Alpha virt. eigenvalues --    0.45439   0.47931   0.48258   0.48824   0.51381
 Alpha virt. eigenvalues --    0.51593   0.53188   0.53988   0.55533   0.57695
 Alpha virt. eigenvalues --    0.57845   0.60115   0.60918   0.61764   0.63452
 Alpha virt. eigenvalues --    0.64495   0.65737   0.66394   0.69713   0.71247
 Alpha virt. eigenvalues --    0.71320   0.73103   0.73267   0.73645   0.74791
 Alpha virt. eigenvalues --    0.75188   0.75447   0.76159   0.77546   0.78167
 Alpha virt. eigenvalues --    0.78201   0.80208   0.80909   0.81556   0.82366
 Alpha virt. eigenvalues --    0.82801   0.84359   0.84700   0.87109   0.87935
 Alpha virt. eigenvalues --    0.88902   0.89582   0.94534   0.96769   0.99260
 Alpha virt. eigenvalues --    1.02045   1.05433   1.06053   1.09983   1.13369
 Alpha virt. eigenvalues --    1.16993   1.18468   1.18680   1.20518   1.22547
 Alpha virt. eigenvalues --    1.23479   1.25832   1.27435   1.32428   1.33677
 Alpha virt. eigenvalues --    1.35780   1.36430   1.38315   1.40880   1.44723
 Alpha virt. eigenvalues --    1.44786   1.49314   1.49999   1.51893   1.53650
 Alpha virt. eigenvalues --    1.55418   1.55852   1.59158   1.60926   1.63574
 Alpha virt. eigenvalues --    1.63772   1.68147   1.68637   1.70730   1.73425
 Alpha virt. eigenvalues --    1.78467   1.79862   1.82512   1.86010   1.86825
 Alpha virt. eigenvalues --    1.87785   1.88966   1.92950   1.94540   1.94953
 Alpha virt. eigenvalues --    1.95547   1.96024   1.99599   2.01383   2.07465
 Alpha virt. eigenvalues --    2.13942   2.17862   2.19635   2.19790   2.23790
 Alpha virt. eigenvalues --    2.24855   2.25915   2.32683   2.34041   2.34493
 Alpha virt. eigenvalues --    2.35911   2.38127   2.42279   2.47043   2.50342
 Alpha virt. eigenvalues --    2.51396   2.52703   2.52913   2.56365   2.64412
 Alpha virt. eigenvalues --    2.65421   2.66973   2.67717   2.73272   2.74317
 Alpha virt. eigenvalues --    2.75018   2.77563   2.78152   2.81669   2.82631
 Alpha virt. eigenvalues --    2.86091   2.87543   2.88204   2.89177   2.90086
 Alpha virt. eigenvalues --    2.90662   2.91752   2.94878   2.95131   2.98243
 Alpha virt. eigenvalues --    2.98469   3.02182   3.02533   3.04298   3.06040
 Alpha virt. eigenvalues --    3.09632   3.11766   3.13780   3.16478   3.19233
 Alpha virt. eigenvalues --    3.20587   3.21654   3.27292   3.29688   3.29719
 Alpha virt. eigenvalues --    3.31280   3.32794   3.36369   3.37257   3.39131
 Alpha virt. eigenvalues --    3.40614   3.44667   3.48149   3.49102   3.51025
 Alpha virt. eigenvalues --    3.53855   3.54259   3.57498   3.61286   3.62154
 Alpha virt. eigenvalues --    3.62974   3.65958   3.69061   3.69945   3.71654
 Alpha virt. eigenvalues --    3.73819   3.76123   3.76855   3.80389   3.81088
 Alpha virt. eigenvalues --    3.81503   3.85797   3.91289   3.92145   3.92347
 Alpha virt. eigenvalues --    3.95341   4.00050   4.02296   4.09777   4.10086
 Alpha virt. eigenvalues --    4.11043   4.14016   4.17968   4.21280   4.24249
 Alpha virt. eigenvalues --    4.25258   4.29254   4.31030   4.34535   4.38611
 Alpha virt. eigenvalues --    4.38649   4.41488   4.42218   4.42376   4.44213
 Alpha virt. eigenvalues --    4.47555   4.48465   4.50422   4.50519   4.51871
 Alpha virt. eigenvalues --    4.52195   4.55185   4.56439   4.60047   4.62108
 Alpha virt. eigenvalues --    4.63115   4.63312   4.63919   4.66690   4.66741
 Alpha virt. eigenvalues --    4.68819   4.68896   4.70090   4.71639   4.72818
 Alpha virt. eigenvalues --    4.75670   4.77918   4.78514   4.80989   4.82428
 Alpha virt. eigenvalues --    4.83893   4.84190   4.85485   4.86904   4.88449
 Alpha virt. eigenvalues --    4.92199   4.94148   4.95615   4.96456   5.01486
 Alpha virt. eigenvalues --    5.09231   5.09618   5.17632   5.21097   5.21168
 Alpha virt. eigenvalues --    5.26828   5.27327   5.35559   5.37642   5.42821
 Alpha virt. eigenvalues --    5.46546   5.48947   5.53732   5.58947   5.69921
 Alpha virt. eigenvalues --    5.80905   5.85477   5.91497   6.06198   7.22972
 Alpha virt. eigenvalues --   10.56328  11.04156  11.24139  11.35744  11.40616
 Alpha virt. eigenvalues --   11.50234  11.70108  12.05092  12.28777  13.56093
 Alpha virt. eigenvalues --   21.06628
          Condensed to atoms (all electrons):
               1          2          3          4          5          6
     1  C    4.938261   0.411257  -0.033416   0.002089  -0.000066   0.000017
     2  C    0.411257   4.800892   0.424740  -0.031656   0.001767   0.000475
     3  C   -0.033416   0.424740   4.768817   0.418013  -0.029825  -0.007854
     4  C    0.002089  -0.031656   0.418013   4.869569   0.406227  -0.077922
     5  N   -0.000066   0.001767  -0.029825   0.406227   6.170138   0.404402
     6  C    0.000017   0.000475  -0.007854  -0.077922   0.404402   4.936998
     7  C    0.000000  -0.000042   0.002909  -0.054650   0.365880  -0.045601
     8  N   -0.000000   0.000001  -0.000070   0.001330  -0.013840  -0.011104
     9  N    0.000000  -0.000000  -0.000000  -0.000070   0.003098   0.000041
    10  H    0.373738  -0.022749   0.003043  -0.000155   0.000001   0.000000
    11  H    0.379539  -0.029759  -0.004409   0.000174   0.000002  -0.000008
    12  H    0.379540  -0.029759  -0.004409   0.000174   0.000002  -0.000008
    13  H   -0.034896   0.368383  -0.029882  -0.002265   0.000052  -0.000006
    14  H   -0.034897   0.368384  -0.029882  -0.002265   0.000052  -0.000006
    15  H   -0.003584  -0.037198   0.369351  -0.030418  -0.000968  -0.001569
    16  H   -0.003584  -0.037198   0.369351  -0.030418  -0.000968  -0.001569
    17  H   -0.000015  -0.003963  -0.024841   0.343982  -0.034072   0.003693
    18  H   -0.000015  -0.003963  -0.024841   0.343982  -0.034072   0.003693
    19  H    0.000054   0.000117   0.004753  -0.013738  -0.015652   0.373410
    20  H   -0.000000  -0.000024   0.000138   0.004235  -0.036940   0.367922
    21  H   -0.000000  -0.000024   0.000138   0.004235  -0.036940   0.367923
    22  H    0.000000  -0.000004   0.000487  -0.004206  -0.067204   0.007922
    23  H   -0.000000   0.000000  -0.000000   0.000003   0.000019   0.000012
    24  H    0.000000  -0.000000   0.000001   0.000016  -0.001325   0.000059
               7          8          9         10         11         12
     1  C    0.000000  -0.000000   0.000000   0.373738   0.379539   0.379540
     2  C   -0.000042   0.000001  -0.000000  -0.022749  -0.029759  -0.029759
     3  C    0.002909  -0.000070  -0.000000   0.003043  -0.004409  -0.004409
     4  C   -0.054650   0.001330  -0.000070  -0.000155   0.000174   0.000174
     5  N    0.365880  -0.013840   0.003098   0.000001   0.000002   0.000002
     6  C   -0.045601  -0.011104   0.000041   0.000000  -0.000008  -0.000008
     7  C    4.711351   0.671932  -0.112786  -0.000000   0.000000   0.000000
     8  N    0.671932   6.355464   0.343359   0.000000   0.000000   0.000000
     9  N   -0.112786   0.343359   6.511143  -0.000000  -0.000000  -0.000000
    10  H   -0.000000   0.000000  -0.000000   0.602360  -0.031430  -0.031430
    11  H    0.000000   0.000000  -0.000000  -0.031430   0.597919  -0.033356
    12  H    0.000000   0.000000  -0.000000  -0.031430  -0.033356   0.597915
    13  H    0.000002   0.000000  -0.000000  -0.002120  -0.004235   0.005506
    14  H    0.000002   0.000000  -0.000000  -0.002120   0.005506  -0.004235
    15  H    0.000117  -0.000004   0.000000  -0.000010  -0.000383   0.005457
    16  H    0.000117  -0.000004   0.000000  -0.000010   0.005457  -0.000383
    17  H   -0.001185   0.000131  -0.000017   0.000005   0.000010   0.000007
    18  H   -0.001185   0.000131  -0.000017   0.000005   0.000007   0.000010
    19  H    0.004089   0.000455  -0.000007  -0.000001   0.000005   0.000005
    20  H   -0.000358   0.007540  -0.000157  -0.000000   0.000000  -0.000000
    21  H   -0.000358   0.007541  -0.000157  -0.000000  -0.000000   0.000000
    22  H    0.375748  -0.075366  -0.006364   0.000000   0.000000   0.000000
    23  H    0.003819  -0.032425   0.368481   0.000000   0.000000   0.000000
    24  H   -0.001329  -0.043354   0.338773   0.000000  -0.000000  -0.000000
              13         14         15         16         17         18
     1  C   -0.034896  -0.034897  -0.003584  -0.003584  -0.000015  -0.000015
     2  C    0.368383   0.368384  -0.037198  -0.037198  -0.003963  -0.003963
     3  C   -0.029882  -0.029882   0.369351   0.369351  -0.024841  -0.024841
     4  C   -0.002265  -0.002265  -0.030418  -0.030418   0.343982   0.343982
     5  N    0.000052   0.000052  -0.000968  -0.000968  -0.034072  -0.034072
     6  C   -0.000006  -0.000006  -0.001569  -0.001569   0.003693   0.003693
     7  C    0.000002   0.000002   0.000117   0.000117  -0.001185  -0.001185
     8  N    0.000000   0.000000  -0.000004  -0.000004   0.000131   0.000131
     9  N   -0.000000  -0.000000   0.000000   0.000000  -0.000017  -0.000017
    10  H   -0.002120  -0.002120  -0.000010  -0.000010   0.000005   0.000005
    11  H   -0.004235   0.005506  -0.000383   0.005457   0.000010   0.000007
    12  H    0.005506  -0.004235   0.005457  -0.000383   0.000007   0.000010
    13  H    0.637308  -0.040482   0.006344  -0.006123   0.005000  -0.000653
    14  H   -0.040482   0.637307  -0.006123   0.006344  -0.000653   0.005000
    15  H    0.006344  -0.006123   0.634390  -0.045237   0.006498  -0.007410
    16  H   -0.006123   0.006344  -0.045237   0.634389  -0.007410   0.006498
    17  H    0.005000  -0.000653   0.006498  -0.007410   0.675695  -0.063769
    18  H   -0.000653   0.005000  -0.007410   0.006498  -0.063769   0.675696
    19  H    0.000013   0.000013   0.002340   0.002340   0.000298   0.000298
    20  H    0.000002  -0.000000   0.000248  -0.000319   0.000692  -0.000442
    21  H   -0.000000   0.000002  -0.000319   0.000248  -0.000442   0.000692
    22  H    0.000000   0.000000   0.000011   0.000011   0.003007   0.003007
    23  H    0.000000   0.000000   0.000000   0.000000   0.000000   0.000000
    24  H   -0.000000  -0.000000  -0.000000  -0.000000   0.000000   0.000000
              19         20         21         22         23         24
     1  C    0.000054  -0.000000  -0.000000   0.000000  -0.000000   0.000000
     2  C    0.000117  -0.000024  -0.000024  -0.000004   0.000000  -0.000000
     3  C    0.004753   0.000138   0.000138   0.000487  -0.000000   0.000001
     4  C   -0.013738   0.004235   0.004235  -0.004206   0.000003   0.000016
     5  N   -0.015652  -0.036940  -0.036940  -0.067204   0.000019  -0.001325
     6  C    0.373410   0.367922   0.367923   0.007922   0.000012   0.000059
     7  C    0.004089  -0.000358  -0.000358   0.375748   0.003819  -0.001329
     8  N    0.000455   0.007540   0.007541  -0.075366  -0.032425  -0.043354
     9  N   -0.000007  -0.000157  -0.000157  -0.006364   0.368481   0.338773
    10  H   -0.000001  -0.000000  -0.000000   0.000000   0.000000   0.000000
    11  H    0.000005   0.000000  -0.000000   0.000000   0.000000  -0.000000
    12  H    0.000005  -0.000000   0.000000   0.000000   0.000000  -0.000000
    13  H    0.000013   0.000002  -0.000000   0.000000   0.000000  -0.000000
    14  H    0.000013  -0.000000   0.000002   0.000000   0.000000  -0.000000
    15  H    0.002340   0.000248  -0.000319   0.000011   0.000000  -0.000000
    16  H    0.002340  -0.000319   0.000248   0.000011   0.000000  -0.000000
    17  H    0.000298   0.000692  -0.000442   0.003007   0.000000   0.000000
    18  H    0.000298  -0.000442   0.000692   0.003007   0.000000   0.000000
    19  H    0.591629  -0.035083  -0.035082  -0.000094  -0.000001   0.000001
    20  H   -0.035083   0.620967  -0.049248   0.000058  -0.000001   0.000007
    21  H   -0.035082  -0.049248   0.620963   0.000058  -0.000001   0.000007
    22  H   -0.000094   0.000058   0.000058   0.685384  -0.000263   0.018102
    23  H   -0.000001  -0.000001  -0.000001  -0.000263   0.447426  -0.041399
    24  H    0.000001   0.000007   0.000007   0.018102  -0.041399   0.505906
 Mulliken charges:
               1
     1  C   -0.374020
     2  C   -0.179679
     3  C   -0.172311
     4  C   -0.146264
     5  N   -0.079768
     6  C   -0.320920
     7  C    0.081529
     8  N   -0.211716
     9  N   -0.445320
    10  H    0.110874
    11  H    0.114961
    12  H    0.114963
    13  H    0.098052
    14  H    0.098052
    15  H    0.108468
    16  H    0.108469
    17  H    0.097350
    18  H    0.097349
    19  H    0.119839
    20  H    0.120762
    21  H    0.120763
    22  H    0.059706
    23  H    0.254330
    24  H    0.224533
 Sum of Mulliken charges =  -0.00000
 Mulliken charges with hydrogens summed into heavy atoms:
               1
     1  C   -0.033222
     2  C    0.016425
     3  C    0.044626
     4  C    0.048434
     5  N   -0.079768
     6  C    0.040444
     7  C    0.141234
     8  N   -0.211716
     9  N    0.033543
 Electronic spatial extent (au):  <R**2>=           2293.1459
 Charge=             -0.0000 electrons
 Dipole moment (field-independent basis, Debye):
    X=              1.0454    Y=             -1.2664    Z=             -0.0000  Tot=              1.6422
 Quadrupole moment (field-independent basis, Debye-Ang):
   XX=            -51.3705   YY=            -54.7160   ZZ=            -58.5990
   XY=              4.5269   XZ=              0.0000   YZ=             -0.0000
 Traceless Quadrupole moment (field-independent basis, Debye-Ang):
   XX=              3.5247   YY=              0.1792   ZZ=             -3.7038
   XY=              4.5269   XZ=              0.0000   YZ=             -0.0000
 Octapole moment (field-independent basis, Debye-Ang**2):
  XXX=            -69.1965  YYY=             -3.8327  ZZZ=             -0.0000  XYY=            -11.6199
  XXY=            -16.8483  XXZ=             -0.0002  XZZ=              2.4678  YZZ=              0.7924
  YYZ=              0.0000  XYZ=             -0.0000
 Hexadecapole moment (field-independent basis, Debye-Ang**3):
 XXXX=          -2277.0784 YYYY=           -296.9161 ZZZZ=            -91.7574 XXXY=             35.1925
 XXXZ=              0.0007 YYYX=             23.1993 YYYZ=              0.0000 ZZZX=             -0.0000
 ZZZY=             -0.0000 XXYY=           -463.5461 XXZZ=           -475.7844 YYZZ=            -63.1546
 XXYZ=             -0.0002 YYXZ=             -0.0001 ZZXY=             -0.9691
 N-N= 4.566380346018D+02 E-N=-1.846388062467D+03  KE= 3.986067261330D+02
 PrsmSu:  requested number of processors reduced to:  13 ShMem   1 Linda.
 Calling FoFJK, ICntrl=      2127 FMM=F ISym2X=0 I1Cent= 0 IOpClX= 0 NMat=1 NMatS=1 NMatT=0.
 ***** Axes restored to original set *****
 -------------------------------------------------------------------
 Center     Atomic                   Forces (Hartrees/Bohr)
 Number     Number              X              Y              Z
 -------------------------------------------------------------------
      1        6          -0.002692021    0.002021117   -0.003544163
      2        6          -0.000255643   -0.000874223    0.001541504
      3        6           0.005739951   -0.000869566    0.001525487
      4        6           0.007276199   -0.003612689    0.006353503
      5        7          -0.018712175   -0.003996774    0.007032677
      6        6           0.004867210   -0.001497311    0.002640504
      7        6           0.005156075   -0.003522061    0.006198571
      8        7          -0.039912373    0.014721503   -0.025905017
      9        7           0.039355530   -0.009359111    0.016469332
     10        1          -0.002414214    0.000030573   -0.000055245
     11        1          -0.000613513   -0.000039442   -0.000564423
     12        1          -0.000615764    0.000499597   -0.000255657
     13        1           0.001769243    0.000647078   -0.001668312
     14        1           0.001770036    0.001101159   -0.001411032
     15        1          -0.000363912    0.001214438    0.001769895
     16        1          -0.000365324   -0.002140564   -0.000135459
     17        1           0.000132577    0.002894816   -0.002128684
     18        1           0.000132323    0.000348107   -0.003574479
     19        1           0.004470090    0.003672566   -0.006464176
     20        1           0.002824479   -0.003444870    0.003721203
     21        1           0.002823636   -0.001436933    0.004864378
     22        1          -0.001868833   -0.002467371    0.004341448
     23        1          -0.006181399    0.005947630   -0.010465958
     24        1          -0.002322177    0.000162332   -0.000285896
 -------------------------------------------------------------------
 Cartesian Forces:  Max     0.039912373 RMS     0.008739097

 GradGradGradGradGradGradGradGradGradGradGradGradGradGradGradGradGradGrad
 Berny optimization.
 FormGI is forming the generalized inverse of G from B-inverse, IUseBI=4.
 Internal  Forces:  Max     0.031331073 RMS     0.005865626
 Search for a local minimum.
 Step number   1 out of a maximum of  121
 All quantities printed in internal units (Hartrees-Bohrs-Radians)
 Mixed Optimization -- RFO/linear search
 Second derivative matrix not updated -- first step.
 ITU=  0
     Eigenvalues ---    0.00358   0.00443   0.00463   0.00780   0.00900
     Eigenvalues ---    0.01101   0.01348   0.01928   0.02268   0.02328
     Eigenvalues ---    0.03002   0.03471   0.03916   0.04032   0.04866
     Eigenvalues ---    0.04995   0.05435   0.05596   0.05612   0.06919
     Eigenvalues ---    0.07420   0.07867   0.08586   0.09585   0.11837
     Eigenvalues ---    0.12377   0.12976   0.16000   0.16000   0.16000
     Eigenvalues ---    0.16000   0.16000   0.16000   0.16000   0.16000
     Eigenvalues ---    0.16000   0.21889   0.21980   0.22000   0.22005
     Eigenvalues ---    0.25000   0.25000   0.25000   0.29343   0.29945
     Eigenvalues ---    0.30088   0.33099   0.33947   0.33947   0.33981
     Eigenvalues ---    0.33981   0.34159   0.34160   0.34228   0.34228
     Eigenvalues ---    0.34268   0.34269   0.34455   0.34861   0.35870
     Eigenvalues ---    0.36981   0.45200   0.45851   0.48706   0.60363
     Eigenvalues ---    0.66936
 RFO step:  Lambda=-1.16673604D-02 EMin= 3.57559526D-03
 Linear search not attempted -- first point.
 Iteration  1 RMS(Cart)=  0.13917464 RMS(Int)=  0.00338952
 Iteration  2 RMS(Cart)=  0.00952956 RMS(Int)=  0.00015787
 Iteration  3 RMS(Cart)=  0.00003851 RMS(Int)=  0.00015750
 Iteration  4 RMS(Cart)=  0.00000000 RMS(Int)=  0.00015750
 Variable       Old X    -DE/DX   Delta X   Delta X   Delta X     New X
                                 (Linear)    (Quad)   (Total)
    R1        2.88074   0.00630   0.00000   0.02024   0.02024   2.90098
    R2        2.06569   0.00093   0.00000   0.00260   0.00260   2.06829
    R3        2.07063  -0.00026   0.00000  -0.00073  -0.00073   2.06990
    R4        2.07061  -0.00025   0.00000  -0.00071  -0.00071   2.06990
    R5        2.87789   0.00748   0.00000   0.02395   0.02395   2.90184
    R6        2.06947   0.00124   0.00000   0.00349   0.00349   2.07296
    R7        2.06947   0.00124   0.00000   0.00349   0.00349   2.07296
    R8        2.89293  -0.00172   0.00000  -0.00563  -0.00563   2.88730
    R9        2.07420  -0.00100   0.00000  -0.00284  -0.00284   2.07136
   R10        2.07419  -0.00099   0.00000  -0.00283  -0.00283   2.07136
   R11        2.77585  -0.00085   0.00000  -0.00229  -0.00229   2.77356
   R12        2.07361   0.00278   0.00000   0.00790   0.00790   2.08151
   R13        2.07362   0.00277   0.00000   0.00789   0.00789   2.08151
   R14        2.75875  -0.00516   0.00000  -0.01353  -0.01353   2.74522
   R15        2.61194  -0.00798   0.00000  -0.01599  -0.01599   2.59594
   R16        2.05902  -0.00259   0.00000  -0.00718  -0.00718   2.05183
   R17        2.06880   0.00224   0.00000   0.00632   0.00632   2.07512
   R18        2.06879   0.00224   0.00000   0.00633   0.00633   2.07512
   R19        2.45840  -0.02492   0.00000  -0.03660  -0.03660   2.42180
   R20        2.08877  -0.00515   0.00000  -0.01503  -0.01503   2.07374
   R21        2.50654   0.03133   0.00000   0.05092   0.05092   2.55746
   R22        1.91744  -0.01348   0.00000  -0.02907  -0.02907   1.88837
   R23        1.91000  -0.00121   0.00000  -0.00258  -0.00258   1.90742
    A1        1.93078   0.00289   0.00000   0.01749   0.01745   1.94823
    A2        1.93641   0.00039   0.00000   0.00195   0.00194   1.93834
    A3        1.93641   0.00039   0.00000   0.00195   0.00193   1.93835
    A4        1.88849  -0.00163   0.00000  -0.00889  -0.00892   1.87957
    A5        1.88851  -0.00163   0.00000  -0.00890  -0.00893   1.87958
    A6        1.88142  -0.00059   0.00000  -0.00470  -0.00470   1.87672
    A7        1.91511   0.00821   0.00000   0.04272   0.04253   1.95764
    A8        1.91111  -0.00190   0.00000  -0.00249  -0.00259   1.90852
    A9        1.91111  -0.00190   0.00000  -0.00249  -0.00259   1.90852
   A10        1.92151  -0.00236   0.00000  -0.00828  -0.00855   1.91296
   A11        1.92152  -0.00236   0.00000  -0.00829  -0.00855   1.91296
   A12        1.88318   0.00014   0.00000  -0.02233  -0.02249   1.86069
   A13        1.99636  -0.00835   0.00000  -0.03539  -0.03529   1.96107
   A14        1.88348   0.00292   0.00000   0.01377   0.01378   1.89726
   A15        1.88348   0.00292   0.00000   0.01376   0.01378   1.89726
   A16        1.90653   0.00248   0.00000   0.01020   0.01027   1.91680
   A17        1.90653   0.00248   0.00000   0.01020   0.01028   1.91680
   A18        1.88435  -0.00226   0.00000  -0.01185  -0.01199   1.87235
   A19        1.98592   0.01252   0.00000   0.06054   0.06040   2.04632
   A20        1.90284  -0.00456   0.00000  -0.02353  -0.02414   1.87870
   A21        1.90283  -0.00456   0.00000  -0.02353  -0.02413   1.87870
   A22        1.90125  -0.00250   0.00000   0.00006   0.00021   1.90146
   A23        1.90125  -0.00250   0.00000   0.00005   0.00021   1.90146
   A24        1.86604   0.00099   0.00000  -0.01818  -0.01881   1.84723
   A25        2.12074   0.02376   0.00000   0.09080   0.09080   2.21154
   A26        2.12363  -0.01947   0.00000  -0.07439  -0.07439   2.04923
   A27        2.03882  -0.00429   0.00000  -0.01641  -0.01641   2.02241
   A28        2.01220  -0.01167   0.00000  -0.06406  -0.06377   1.94843
   A29        1.91763   0.00325   0.00000   0.01705   0.01720   1.93483
   A30        1.91762   0.00325   0.00000   0.01706   0.01721   1.93483
   A31        1.85274   0.00509   0.00000   0.03337   0.03364   1.88638
   A32        1.85275   0.00509   0.00000   0.03336   0.03363   1.88638
   A33        1.90736  -0.00501   0.00000  -0.03714  -0.03714   1.87022
   A34        2.16351  -0.00570   0.00000  -0.02460  -0.02460   2.13892
   A35        1.97917   0.00429   0.00000   0.02070   0.02070   1.99987
   A36        2.14050   0.00141   0.00000   0.00390   0.00390   2.14440
   A37        2.04537   0.00765   0.00000   0.02924   0.02924   2.07461
   A38        2.05010  -0.00025   0.00000  -0.00148  -0.00148   2.04862
   A39        2.16126  -0.00179   0.00000  -0.01043  -0.01043   2.15084
   A40        2.07182   0.00204   0.00000   0.01191   0.01191   2.08373
    D1        3.14159   0.00000   0.00000   0.00000   0.00000   3.14159
    D2        1.03074  -0.00104   0.00000  -0.01502  -0.01507   1.01567
    D3       -1.03075   0.00104   0.00000   0.01503   0.01508  -1.01567
    D4        1.04547  -0.00011   0.00000  -0.00167  -0.00168   1.04379
    D5       -1.06537  -0.00115   0.00000  -0.01670  -0.01676  -1.08213
    D6       -3.12686   0.00093   0.00000   0.01336   0.01340  -3.11347
    D7       -1.04546   0.00011   0.00000   0.00166   0.00168  -1.04379
    D8        3.12688  -0.00093   0.00000  -0.01336  -0.01340   3.11347
    D9        1.06539   0.00115   0.00000   0.01669   0.01675   1.08214
   D10       -3.14159  -0.00000   0.00000  -0.00000  -0.00000  -3.14159
   D11        1.01609   0.00020   0.00000   0.00023   0.00028   1.01637
   D12       -1.01609  -0.00020   0.00000  -0.00023  -0.00028  -1.01637
   D13       -1.03704   0.00137   0.00000   0.01888   0.01883  -1.01821
   D14        3.12065   0.00158   0.00000   0.01911   0.01911   3.13976
   D15        1.08846   0.00117   0.00000   0.01865   0.01855   1.10701
   D16        1.03704  -0.00137   0.00000  -0.01888  -0.01883   1.01821
   D17       -1.08846  -0.00117   0.00000  -0.01865  -0.01855  -1.10701
   D18       -3.12065  -0.00158   0.00000  -0.01911  -0.01911  -3.13976
   D19       -3.14159   0.00000   0.00000  -0.00000  -0.00000  -3.14159
   D20        1.01569  -0.00194   0.00000  -0.02395  -0.02362   0.99207
   D21       -1.01568   0.00194   0.00000   0.02394   0.02362  -0.99206
   D22       -1.02877  -0.00007   0.00000   0.00124   0.00123  -1.02754
   D23        3.12850  -0.00202   0.00000  -0.02270  -0.02239   3.10612
   D24        1.09714   0.00187   0.00000   0.02519   0.02485   1.12199
   D25        1.02877   0.00007   0.00000  -0.00124  -0.00123   1.02754
   D26       -1.09714  -0.00187   0.00000  -0.02519  -0.02485  -1.12198
   D27       -3.12850   0.00202   0.00000   0.02270   0.02239  -3.10611
   D28       -0.00001   0.00000   0.00000  -0.00000  -0.00000  -0.00001
   D29        3.14159   0.00000   0.00000   0.00000   0.00000   3.14159
   D30        2.12679   0.00079   0.00000   0.01081   0.01107   2.13786
   D31       -1.01480   0.00079   0.00000   0.01081   0.01107  -1.00373
   D32       -2.12679  -0.00079   0.00000  -0.01081  -0.01108  -2.13787
   D33        1.01480  -0.00079   0.00000  -0.01081  -0.01108   1.00372
   D34       -0.00000   0.00000   0.00000   0.00000   0.00000   0.00000
   D35       -2.09206  -0.00105   0.00000  -0.01221  -0.01211  -2.10417
   D36        2.09207   0.00105   0.00000   0.01221   0.01211   2.10418
   D37        3.14159   0.00000   0.00000   0.00000   0.00000  -3.14159
   D38        1.04953  -0.00105   0.00000  -0.01221  -0.01211   1.03742
   D39       -1.04952   0.00105   0.00000   0.01221   0.01211  -1.03741
   D40        3.14159   0.00000   0.00000   0.00000   0.00000   3.14159
   D41        0.00000  -0.00000   0.00000  -0.00000  -0.00000  -0.00000
   D42       -0.00000   0.00000   0.00000   0.00000   0.00000   0.00000
   D43       -3.14159  -0.00000   0.00000  -0.00000  -0.00000   3.14159
   D44       -3.14159  -0.00000   0.00000  -0.00001  -0.00001   3.14159
   D45       -0.00000  -0.00000   0.00000  -0.00000  -0.00000  -0.00000
   D46       -3.14159   0.00000   0.00000   0.00000   0.00000  -3.14158
   D47       -0.00000  -0.00000   0.00000  -0.00000  -0.00000  -0.00001
   D48        3.14158  -0.00000   0.00000  -0.00001  -0.00001   3.14158
         Item               Value     Threshold  Converged?
 Maximum Force            0.031331     0.000450     NO 
 RMS     Force            0.005866     0.000300     NO 
 Maximum Displacement     0.396040     0.001800     NO 
 RMS     Displacement     0.144178     0.001200     NO 
 Predicted change in Energy=-6.116790D-03
 GradGradGradGradGradGradGradGradGradGradGradGradGradGradGradGradGradGrad

                          Input orientation:                          
 ---------------------------------------------------------------------
 Center     Atomic      Atomic             Coordinates (Angstroms)
 Number     Number       Type             X           Y           Z
 ---------------------------------------------------------------------
      1          6           0        1.022373    0.185640   -0.254505
      2          6           0        2.547625    0.099729   -0.103326
      3          6           0        2.962137   -0.630813    1.182173
      4          6           0        4.479596   -0.718894    1.337173
      5          7           0        4.994671   -1.397944    2.532054
      6          6           0        4.208937   -2.001655    3.594371
      7          6           0        6.358529   -1.479102    2.674864
      8          7           0        6.913956   -2.049745    3.678991
      9          7           0        8.265219   -2.086874    3.744321
     10          1           0        0.736857    0.707687   -1.173123
     11          1           0        0.573085    0.723414    0.587347
     12          1           0        0.573086   -0.812831   -0.285687
     13          1           0        2.970542    1.111891   -0.104158
     14          1           0        2.970547   -0.417539   -0.973326
     15          1           0        2.530742   -1.638378    1.168591
     16          1           0        2.530737   -0.103514    2.040848
     17          1           0        4.878125    0.307597    1.309463
     18          1           0        4.878129   -1.220400    0.441103
     19          1           0        3.143489   -1.898314    3.412525
     20          1           0        4.436303   -1.535337    4.562200
     21          1           0        4.436311   -3.071784    3.689049
     22          1           0        6.931114   -1.016564    1.860958
     23          1           0        8.674757   -2.537243    4.536793
     24          1           0        8.864431   -1.685558    3.038132
 ---------------------------------------------------------------------
                    Distance matrix (angstroms):
                    1          2          3          4          5
     1  C    0.000000
     2  C    1.535132   0.000000
     3  C    2.548201   1.535585   0.000000
     4  C    3.912035   2.545132   1.527895   0.000000
     5  N    5.104097   3.895676   2.557706   1.467703   0.000000
     6  C    5.454566   4.566042   3.041778   2.610302   1.452709
     7  C    6.310874   4.973332   3.805679   2.428522   1.373713
     8  N    7.428330   6.163685   4.885114   3.630617   2.328940
     9  N    8.579845   7.230249   6.066909   4.690060   3.555376
    10  H    1.094491   2.189282   3.505834   4.727030   6.024201
    11  H    1.095343   2.182847   2.809861   4.231232   5.275649
    12  H    1.095342   2.182848   2.809859   4.231231   5.275646
    13  H    2.162385   1.096964   2.166041   2.776050   4.164851
    14  H    2.162386   1.096964   2.166041   2.776050   4.164849
    15  H    2.761779   2.153851   1.096118   2.161458   2.826267
    16  H    2.761778   2.153851   1.096117   2.161459   2.826271
    17  H    4.162655   2.733205   2.137247   1.101489   2.101709
    18  H    4.162653   2.733202   2.137247   1.101489   2.101709
    19  H    4.721134   4.087596   2.571753   2.735562   2.110089
    20  H    6.149580   5.292229   3.796829   3.327049   2.110011
    21  H    6.149585   5.292233   3.796834   3.327053   2.110010
    22  H    6.390125   4.931480   4.045038   2.524460   2.084618
    23  H    9.430250   8.125643   6.893618   5.580621   4.342811
    24  H    8.708658   7.277228   6.276475   4.801508   3.913295
                    6          7          8          9         10
     6  C    0.000000
     7  C    2.395684   0.000000
     8  N    2.706770   1.281563   0.000000
     9  N    4.059947   2.269051   1.353350   0.000000
    10  H    6.490367   7.154875   8.324842   9.416318   0.000000
    11  H    5.448634   6.533006   7.579929   8.776852   1.768141
    12  H    5.448630   6.533003   7.579925   8.776847   1.768145
    13  H    4.990682   5.090644   6.313372   7.285361   2.509067
    14  H    4.990681   5.090641   6.313369   7.285357   2.509068
    15  H    2.971989   4.116573   5.067928   6.302361   3.769041
    16  H    2.971991   4.116578   5.067933   6.302367   3.769039
    17  H    3.316815   2.692250   3.913609   4.809826   4.844936
    18  H    3.316817   2.692247   3.913607   4.809823   4.844933
    19  H    1.085784   3.325111   3.782903   5.135928   5.797524
    20  H    1.098108   2.694467   2.680194   3.953949   7.184079
    21  H    1.098107   2.694462   2.680185   3.953940   7.184084
    22  H    3.374222   1.097378   2.091172   2.544102   7.109677
    23  H    4.595494   3.154577   2.018390   0.999283  10.302571
    24  H    4.699250   2.540499   2.085111   1.009363   9.461488
                   11         12         13         14         15
    11  H    0.000000
    12  H    1.766985   0.000000
    13  H    2.525252   3.079822   0.000000
    14  H    3.079822   2.525257   1.759150   0.000000
    15  H    3.122232   2.574659   3.062237   2.504333   0.000000
    16  H    2.574660   3.122225   2.504334   3.062236   1.765402
    17  H    4.384943   4.725804   2.506808   3.061993   3.052355
    18  H    4.725802   4.384944   3.061989   2.506804   2.492823
    19  H    4.632717   4.632712   4.632311   4.632310   2.340570
    20  H    5.985471   6.240871   5.561580   5.834378   3.893375
    21  H    6.240880   5.985474   5.834383   5.561584   3.469661
    22  H    6.713728   6.713726   4.906947   4.906943   4.497699
    23  H    9.584732   9.584726   8.209304   8.209298   7.064111
    24  H    8.975295   8.975290   7.241383   7.241377   6.604016
                   16         17         18         19         20
    16  H    0.000000
    17  H    2.492823   0.000000
    18  H    3.052355   1.757505   0.000000
    19  H    2.340571   3.506832   3.506835   0.000000
    20  H    3.469657   3.764560   4.156662   1.767731   0.000000
    21  H    3.893380   4.156662   3.764568   1.767734   1.767219
    22  H    4.497704   2.504458   2.504453   4.186997   3.713478
    23  H    7.064118   5.737873   5.737868   5.680416   4.355336
    24  H    6.604024   4.780335   4.780328   5.737126   4.685474
                   21         22         23         24
    21  H    0.000000
    22  H    3.713474   0.000000
    23  H    4.355322   3.537350   0.000000
    24  H    4.685463   2.360298   1.734165   0.000000
 Stoichiometry    C6H15N3
 Framework group  C1[X(C6H15N3)]
 Deg. of freedom    66
 Full point group                 C1      NOp   1
 Largest Abelian subgroup         C1      NOp   1
 Largest concise Abelian subgroup C1      NOp   1
                         Standard orientation:                         
 ---------------------------------------------------------------------
 Center     Atomic      Atomic             Coordinates (Angstroms)
 Number     Number       Type             X           Y           Z
 ---------------------------------------------------------------------
      1          6           0        4.406419    0.047150   -0.000004
      2          6           0        3.080386   -0.726328   -0.000000
      3          6           0        1.863439    0.210188    0.000001
      4          6           0        0.541020   -0.555104    0.000005
      5          7           0       -0.694119    0.237727    0.000001
      6          6           0       -0.795852    1.686870    0.000000
      7          6           0       -1.885089   -0.446874    0.000001
      8          7           0       -3.021253    0.146030   -0.000000
      9          7           0       -4.148801   -0.602431   -0.000002
     10          1           0        5.267481   -0.628485   -0.000003
     11          1           0        4.487366    0.689538    0.883490
     12          1           0        4.487361    0.689541   -0.883495
     13          1           0        3.041275   -1.380656    0.879576
     14          1           0        3.041271   -1.380659   -0.879574
     15          1           0        1.918201    0.857731   -0.882702
     16          1           0        1.918206    0.857735    0.882699
     17          1           0        0.539670   -1.219232    0.878760
     18          1           0        0.539669   -1.219239   -0.878745
     19          1           0        0.182914    2.156917   -0.000001
     20          1           0       -1.343687    2.040347    0.883612
     21          1           0       -1.343696    2.040345   -0.883607
     22          1           0       -1.783581   -1.539547    0.000002
     23          1           0       -5.022398   -0.117256   -0.000011
     24          1           0       -4.142774   -1.611776   -0.000008
 ---------------------------------------------------------------------
 Rotational constants (GHZ):           5.6842032           0.5213040           0.4846858
 Standard basis: 6-31G(2df,p) (6D, 7F)
 There are   354 symmetry adapted cartesian basis functions of A   symmetry.
 There are   327 symmetry adapted basis functions of A   symmetry.
   327 basis functions,   501 primitive gaussians,   354 cartesian basis functions
    36 alpha electrons       36 beta electrons
       nuclear repulsion energy       455.2202976068 Hartrees.
 NAtoms=   24 NActive=   24 NUniq=   24 SFac= 1.00D+00 NAtFMM=   60 NAOKFM=F Big=F
 Integral buffers will be    131072 words long.
 Raffenetti 2 integral format.
 Two-electron integral symmetry is turned on.
 One-electron integrals computed using PRISM.
 PrsmSu:  requested number of processors reduced to:  13 ShMem   1 Linda.
 NBasis=   327 RedAO= T EigKep=  1.99D-04  NBF=   327
 NBsUse=   327 1.00D-06 EigRej= -1.00D+00 NBFU=   327
 Initial guess from the checkpoint file:  "CCCCNpCpCdNN.chk"
 B after Tr=     0.000000   -0.000000   -0.000000
         Rot=    0.999987    0.000000   -0.000000   -0.005061 Ang=   0.58 deg.
 ExpMin= 1.61D-01 ExpMax= 4.17D+03 ExpMxC= 6.27D+02 IAcc=2 IRadAn=         4 AccDes= 0.00D+00
 Harris functional with IExCor=  402 and IRadAn=       4 diagonalized for initial guess.
 HarFok:  IExCor=  402 AccDes= 0.00D+00 IRadAn=         4 IDoV= 1 UseB2=F ITyADJ=14
 ICtDFT=  3500011 ScaDFX=  1.000000  1.000000  1.000000  1.000000
 FoFCou: FMM=F IPFlag=           0 FMFlag=      100000 FMFlg1=           0
         NFxFlg=           0 DoJE=T BraDBF=F KetDBF=T FulRan=T
         wScrn=  0.000000 ICntrl=       500 IOpCl=  0 I1Cent=   200000004 NGrid=           0
         NMat0=    1 NMatS0=      1 NMatT0=    0 NMatD0=    1 NMtDS0=    0 NMtDT0=    0
 Petite list used in FoFCou.
 Requested convergence on RMS density matrix=1.00D-08 within 128 cycles.
 Requested convergence on MAX density matrix=1.00D-06.
 Requested convergence on             energy=1.00D-06.
 No special actions if energy rises.
 Integral accuracy reduced to 1.0D-05 until final iterations.
 Initial convergence to 1.0D-05 achieved.  Increase integral accuracy.
 SCF Done:  E(RB3LYP) =  -401.898644268     A.U. after   11 cycles
            NFock= 11  Conv=0.61D-08     -V/T= 2.0083
 PrsmSu:  requested number of processors reduced to:  13 ShMem   1 Linda.
 Calling FoFJK, ICntrl=      2127 FMM=F ISym2X=0 I1Cent= 0 IOpClX= 0 NMat=1 NMatS=1 NMatT=0.
 ***** Axes restored to original set *****
 -------------------------------------------------------------------
 Center     Atomic                   Forces (Hartrees/Bohr)
 Number     Number              X              Y              Z
 -------------------------------------------------------------------
      1        6           0.001474592   -0.000090180    0.000160830
      2        6          -0.001947551   -0.000439375    0.000773323
      3        6           0.000782945   -0.001550839    0.002728343
      4        6           0.003990565   -0.000606981    0.001067770
      5        7          -0.008740624   -0.000614839    0.001081716
      6        6          -0.000954872    0.001425027   -0.002505724
      7        6           0.007237571    0.000085669   -0.000150901
      8        7          -0.008346969    0.000559195   -0.000984444
      9        7           0.010061621    0.000560808   -0.000985573
     10        1           0.000530233   -0.000033399    0.000058038
     11        1          -0.000112247    0.000078238    0.000067690
     12        1          -0.000112513   -0.000098668   -0.000032983
     13        1           0.000704477    0.000018563   -0.000208291
     14        1           0.000704515    0.000169355   -0.000122638
     15        1          -0.000808866   -0.000499422    0.001101377
     16        1          -0.000808891   -0.000690520    0.000992898
     17        1           0.000274582    0.000366862   -0.000098032
     18        1           0.000274548   -0.000103383   -0.000365141
     19        1          -0.002269431    0.001779646   -0.003132188
     20        1           0.001091259   -0.000600882   -0.000115810
     21        1           0.001091068    0.000406572    0.000456828
     22        1          -0.000119379   -0.000124185    0.000218481
     23        1          -0.002057969   -0.000202468    0.000355924
     24        1          -0.001938665    0.000205206   -0.000361493
 -------------------------------------------------------------------
 Cartesian Forces:  Max     0.010061621 RMS     0.002307892

 GradGradGradGradGradGradGradGradGradGradGradGradGradGradGradGradGradGrad
 Berny optimization.
 Using GEDIIS/GDIIS optimizer.
 FormGI is forming the generalized inverse of G from B-inverse, IUseBI=4.
 Internal  Forces:  Max     0.009556859 RMS     0.002104508
 Search for a local minimum.
 Step number   2 out of a maximum of  121
 All quantities printed in internal units (Hartrees-Bohrs-Radians)
 Mixed Optimization -- RFO/linear search
 Update second derivatives using D2CorX and points    1    2
 DE= -5.28D-03 DEPred=-6.12D-03 R= 8.63D-01
 TightC=F SS=  1.41D+00  RLast= 2.22D-01 DXNew= 5.0454D-01 6.6634D-01
 Trust test= 8.63D-01 RLast= 2.22D-01 DXMaxT set to 5.05D-01
 ITU=  1  0
 Use linear search instead of GDIIS.
     Eigenvalues ---    0.00358   0.00443   0.00463   0.00780   0.00900
     Eigenvalues ---    0.01069   0.01339   0.01928   0.02268   0.02325
     Eigenvalues ---    0.03002   0.03621   0.03645   0.03677   0.04868
     Eigenvalues ---    0.04899   0.05493   0.05512   0.05570   0.07217
     Eigenvalues ---    0.07347   0.08285   0.08293   0.10061   0.12161
     Eigenvalues ---    0.12168   0.13330   0.14269   0.16000   0.16000
     Eigenvalues ---    0.16000   0.16000   0.16000   0.16000   0.16000
     Eigenvalues ---    0.16081   0.20754   0.21909   0.21993   0.22884
     Eigenvalues ---    0.24349   0.25000   0.29274   0.29391   0.30020
     Eigenvalues ---    0.31761   0.33028   0.33915   0.33947   0.33981
     Eigenvalues ---    0.33982   0.34159   0.34161   0.34210   0.34228
     Eigenvalues ---    0.34260   0.34268   0.34455   0.34988   0.36757
     Eigenvalues ---    0.38383   0.45266   0.45856   0.50117   0.57442
     Eigenvalues ---    0.66199
 RFO step:  Lambda=-1.65031684D-03 EMin= 3.57559526D-03
 Quartic linear search produced a step of -0.05871.
 Iteration  1 RMS(Cart)=  0.03301429 RMS(Int)=  0.00039119
 Iteration  2 RMS(Cart)=  0.00052027 RMS(Int)=  0.00001920
 Iteration  3 RMS(Cart)=  0.00000019 RMS(Int)=  0.00001920
 Variable       Old X    -DE/DX   Delta X   Delta X   Delta X     New X
                                 (Linear)    (Quad)   (Total)
    R1        2.90098  -0.00180  -0.00119  -0.00163  -0.00282   2.89816
    R2        2.06829  -0.00020  -0.00015  -0.00004  -0.00019   2.06810
    R3        2.06990   0.00014   0.00004   0.00023   0.00027   2.07017
    R4        2.06990   0.00014   0.00004   0.00023   0.00028   2.07017
    R5        2.90184  -0.00111  -0.00141   0.00129  -0.00011   2.90172
    R6        2.07296   0.00029  -0.00020   0.00148   0.00128   2.07424
    R7        2.07296   0.00029  -0.00021   0.00148   0.00128   2.07424
    R8        2.88730  -0.00114   0.00033  -0.00476  -0.00443   2.88288
    R9        2.07136   0.00076   0.00017   0.00154   0.00171   2.07307
   R10        2.07136   0.00076   0.00017   0.00155   0.00171   2.07307
   R11        2.77356  -0.00833   0.00013  -0.02220  -0.02206   2.75149
   R12        2.08151   0.00044  -0.00046   0.00279   0.00232   2.08383
   R13        2.08151   0.00044  -0.00046   0.00278   0.00232   2.08383
   R14        2.74522  -0.00456   0.00079  -0.01423  -0.01343   2.73179
   R15        2.59594   0.00454   0.00094   0.00555   0.00649   2.60243
   R16        2.05183   0.00292   0.00042   0.00642   0.00684   2.05868
   R17        2.07512  -0.00013  -0.00037   0.00089   0.00052   2.07565
   R18        2.07512  -0.00013  -0.00037   0.00090   0.00052   2.07565
   R19        2.42180  -0.00304   0.00215  -0.01156  -0.00941   2.41239
   R20        2.07374  -0.00028   0.00088  -0.00376  -0.00287   2.07087
   R21        2.55746   0.00599  -0.00299   0.01947   0.01648   2.57394
   R22        1.88837  -0.00047   0.00171  -0.00675  -0.00505   1.88332
   R23        1.90742  -0.00082   0.00015  -0.00218  -0.00203   1.90539
    A1        1.94823  -0.00078  -0.00102  -0.00183  -0.00285   1.94538
    A2        1.93834   0.00022  -0.00011   0.00195   0.00184   1.94018
    A3        1.93835   0.00022  -0.00011   0.00195   0.00184   1.94018
    A4        1.87957   0.00023   0.00052  -0.00105  -0.00052   1.87905
    A5        1.87958   0.00023   0.00052  -0.00105  -0.00052   1.87905
    A6        1.87672  -0.00008   0.00028  -0.00009   0.00018   1.87690
    A7        1.95764   0.00087  -0.00250   0.01339   0.01089   1.96853
    A8        1.90852   0.00005   0.00015   0.00205   0.00222   1.91074
    A9        1.90852   0.00005   0.00015   0.00205   0.00221   1.91074
   A10        1.91296  -0.00044   0.00050  -0.00451  -0.00403   1.90893
   A11        1.91296  -0.00044   0.00050  -0.00451  -0.00403   1.90893
   A12        1.86069  -0.00015   0.00132  -0.00964  -0.00833   1.85236
   A13        1.96107  -0.00342   0.00207  -0.02030  -0.01819   1.94288
   A14        1.89726   0.00130  -0.00081   0.00957   0.00877   1.90603
   A15        1.89726   0.00130  -0.00081   0.00957   0.00877   1.90603
   A16        1.91680   0.00105  -0.00060   0.00641   0.00583   1.92264
   A17        1.91680   0.00105  -0.00060   0.00641   0.00583   1.92264
   A18        1.87235  -0.00118   0.00070  -0.01129  -0.01062   1.86174
   A19        2.04632  -0.00956  -0.00355  -0.03175  -0.03530   2.01102
   A20        1.87870   0.00285   0.00142   0.00620   0.00764   1.88634
   A21        1.87870   0.00285   0.00142   0.00620   0.00764   1.88634
   A22        1.90146   0.00287  -0.00001   0.00989   0.00981   1.91127
   A23        1.90146   0.00287  -0.00001   0.00989   0.00981   1.91127
   A24        1.84723  -0.00124   0.00110   0.00249   0.00351   1.85074
   A25        2.21154  -0.00769  -0.00533  -0.01086  -0.01619   2.19536
   A26        2.04923  -0.00009   0.00437  -0.01496  -0.01059   2.03864
   A27        2.02241   0.00777   0.00096   0.02582   0.02678   2.04919
   A28        1.94843  -0.00404   0.00374  -0.03530  -0.03158   1.91685
   A29        1.93483   0.00014  -0.00101   0.00395   0.00293   1.93776
   A30        1.93483   0.00014  -0.00101   0.00395   0.00293   1.93776
   A31        1.88638   0.00218  -0.00197   0.01974   0.01775   1.90412
   A32        1.88638   0.00218  -0.00197   0.01974   0.01774   1.90412
   A33        1.87022  -0.00037   0.00218  -0.01034  -0.00816   1.86207
   A34        2.13892   0.00049   0.00144  -0.00276  -0.00131   2.13760
   A35        1.99987  -0.00021  -0.00122   0.00319   0.00197   2.00184
   A36        2.14440  -0.00027  -0.00023  -0.00043  -0.00066   2.14374
   A37        2.07461  -0.00336  -0.00172  -0.00679  -0.00851   2.06610
   A38        2.04862  -0.00143   0.00009  -0.00858  -0.00850   2.04012
   A39        2.15084  -0.00101   0.00061  -0.00790  -0.00729   2.14355
   A40        2.08373   0.00244  -0.00070   0.01649   0.01579   2.09952
    D1        3.14159   0.00000  -0.00000   0.00000   0.00000  -3.14159
    D2        1.01567  -0.00006   0.00088  -0.00463  -0.00375   1.01192
    D3       -1.01567   0.00006  -0.00089   0.00463   0.00376  -1.01191
    D4        1.04379   0.00009   0.00010   0.00123   0.00133   1.04513
    D5       -1.08213   0.00003   0.00098  -0.00340  -0.00242  -1.08455
    D6       -3.11347   0.00016  -0.00079   0.00586   0.00509  -3.10838
    D7       -1.04379  -0.00009  -0.00010  -0.00124  -0.00134  -1.04513
    D8        3.11347  -0.00016   0.00079  -0.00587  -0.00509   3.10838
    D9        1.08214  -0.00003  -0.00098   0.00339   0.00241   1.08455
   D10       -3.14159   0.00000   0.00000   0.00000   0.00000  -3.14159
   D11        1.01637   0.00001  -0.00002  -0.00148  -0.00148   1.01489
   D12       -1.01637  -0.00001   0.00002   0.00148   0.00148  -1.01489
   D13       -1.01821   0.00034  -0.00111   0.00843   0.00731  -1.01090
   D14        3.13976   0.00035  -0.00112   0.00695   0.00583  -3.13760
   D15        1.10701   0.00034  -0.00109   0.00991   0.00879   1.11580
   D16        1.01821  -0.00034   0.00111  -0.00843  -0.00731   1.01090
   D17       -1.10701  -0.00034   0.00109  -0.00991  -0.00879  -1.11580
   D18       -3.13976  -0.00035   0.00112  -0.00695  -0.00583   3.13760
   D19       -3.14159  -0.00000   0.00000  -0.00000  -0.00000  -3.14159
   D20        0.99207   0.00067   0.00139   0.00446   0.00583   0.99790
   D21       -0.99206  -0.00067  -0.00139  -0.00446  -0.00583  -0.99789
   D22       -1.02754   0.00010  -0.00007   0.00306   0.00298  -1.02456
   D23        3.10612   0.00077   0.00131   0.00752   0.00881   3.11493
   D24        1.12199  -0.00057  -0.00146  -0.00140  -0.00285   1.11914
   D25        1.02754  -0.00010   0.00007  -0.00306  -0.00299   1.02456
   D26       -1.12198   0.00057   0.00146   0.00140   0.00285  -1.11914
   D27       -3.10611  -0.00077  -0.00131  -0.00752  -0.00882  -3.11493
   D28       -0.00001  -0.00000   0.00000  -0.00000  -0.00000  -0.00001
   D29        3.14159   0.00000  -0.00000  -0.00000  -0.00000   3.14159
   D30        2.13786  -0.00082  -0.00065  -0.00681  -0.00752   2.13035
   D31       -1.00373  -0.00082  -0.00065  -0.00681  -0.00751  -1.01124
   D32       -2.13787   0.00082   0.00065   0.00680   0.00751  -2.13036
   D33        1.00372   0.00082   0.00065   0.00681   0.00751   1.01124
   D34        0.00000   0.00000  -0.00000   0.00000   0.00000   0.00001
   D35       -2.10417  -0.00014   0.00071  -0.00391  -0.00321  -2.10738
   D36        2.10418   0.00014  -0.00071   0.00391   0.00321   2.10739
   D37       -3.14159   0.00000  -0.00000   0.00000   0.00000  -3.14159
   D38        1.03742  -0.00014   0.00071  -0.00391  -0.00321   1.03421
   D39       -1.03741   0.00014  -0.00071   0.00391   0.00320  -1.03421
   D40        3.14159  -0.00000  -0.00000  -0.00000  -0.00000   3.14159
   D41       -0.00000  -0.00000   0.00000  -0.00000  -0.00000  -0.00000
   D42        0.00000  -0.00000  -0.00000  -0.00000  -0.00000  -0.00000
   D43        3.14159   0.00000   0.00000   0.00000   0.00000  -3.14159
   D44        3.14159   0.00000   0.00000   0.00000   0.00000  -3.14159
   D45       -0.00000   0.00000   0.00000   0.00000   0.00000   0.00000
[...]
 1513348,0.01738644,0.02863539,0.00178348,-0.00087496,-0.00006278,-0.00
 037100,-0.00004033,-0.00029537,-0.00032651,-0.00020368,-0.00001714,0.0
 0021448,0.00003954,-0.00020545,-0.00000878,-0.00000995,-0.00000249,0.0
 0007463,-0.00003758,0.00015092,0.00008673,0.00026714,0.00019934,-0.000
 00067,-0.00003069,-0.00004583,0.00008335,0.00001634,0.00056471,-0.0001
 3746,0.00100200,-0.00187328,0.00465965,-0.00589334,-0.00991150,0.09442
 055,-0.00071986,0.00042247,-0.00021892,-0.00566116,0.00733328,0.014090
 45,0.04560073,-0.10949605,-0.09739851,0.00036195,-0.00106278,-0.000998
 45,0.00003085,0.00008998,-0.00004520,0.00119118,0.00024684,-0.00024456
 ,0.00007326,-0.00010513,0.00019767,-0.00007961,-0.00000294,0.00003129,
 0.00000700,-0.00001442,0.00003319,-0.00029215,0.00000930,-0.00002265,-
 0.00001033,0.00010104,-0.00032718,0.00013512,-0.00004611,-0.00006425,-
 0.00046774,0.00103200,-0.00059422,0.00092438,-0.00038800,0.00350347,0.
 01153167,-0.01481750,-0.02343415,-0.05242353,0.11581632,0.00137863,-0.
 00090362,0.00101065,0.00994943,-0.01334070,-0.02508270,0.07617550,-0.0
 9790875,-0.20041668,-0.00123377,0.00167977,0.00182982,0.00070103,-0.00
 026665,0.00056339,0.00027457,0.00131181,-0.00035776,-0.00024237,-0.000
 09527,0.00004619,0.00001721,0.00000214,0.00014600,0.00005765,-0.000030
 12,0.00002773,0.00002516,0.00032534,0.00052338,-0.00117808,0.00045202,
 0.00035721,-0.00011573,0.00003353,0.00000113,0.00027749,0.00017723,0.0
 0125704,-0.00163969,0.00342273,-0.00399499,-0.00000913,0.00002143,-0.0
 0087140,-0.08288721,0.10344602,0.22457601,-0.00004079,0.00027005,0.000
 07009,0.00098712,-0.00167348,0.00114260,-0.01597623,-0.03234842,-0.002
 29202,-0.07923403,-0.07864096,0.00179800,0.00395635,0.01056010,-0.0058
 6508,-0.00104244,0.00075440,0.00072335,0.00240162,0.00039562,0.0001847
 1,-0.00109305,0.00110751,-0.00006729,0.00068675,-0.00037784,-0.0001351
 7,0.00001195,0.00011083,-0.00002338,-0.00001362,-0.00002473,0.00002601
 ,0.00028778,0.00017786,0.00006124,0.00002563,0.00106939,-0.00061972,-0
 .00006222,0.00015556,-0.00014622,-0.00668974,0.00057990,-0.00057513,0.
 00180066,0.00023109,0.00047889,0.08840498,0.00004384,0.00066221,-0.000
 05703,0.00052333,0.00006104,0.00001129,-0.00025986,0.00057001,-0.00054
 812,-0.08010941,-0.25079477,-0.00816999,0.00208580,-0.01082215,0.01710
 186,0.00223657,-0.00264504,-0.00266529,-0.00506483,0.00053092,0.001077
 92,-0.00031012,-0.00007468,0.00031379,0.00176542,0.00005643,0.00018602
 ,-0.00008137,-0.00001058,-0.00002608,-0.00001217,-0.00003979,-0.000010
 96,0.00027226,-0.00007435,0.00008022,-0.00017144,0.00077234,-0.0005174
 3,-0.00000226,0.00003703,0.00011264,0.00069880,0.00142115,0.00060062,-
 0.00031265,0.00075979,0.00030864,0.08585076,0.27778725,-0.00000876,0.0
 0001395,-0.00013612,-0.00039546,-0.00085213,0.00033995,0.00029882,-0.0
 0111171,0.00004933,-0.00051969,-0.00869540,-0.04827520,0.00557671,0.03
 290395,-0.01285262,-0.00265939,0.00362117,0.00137909,0.00437398,-0.000
 36582,0.00087198,-0.00005163,0.00089194,-0.00087896,-0.00086463,-0.000
 31580,-0.00011868,-0.00005035,-0.00000159,-0.00002280,0.00003332,0.000
 00675,0.00000095,0.00001428,0.00005650,-0.00005151,-0.00029715,0.00028
 300,0.00014115,-0.00000304,-0.00012017,0.00004990,-0.00057562,0.000538
 93,0.00058824,-0.00014766,0.00076493,0.00026324,0.00384477,-0.00395937
 ,0.06026747,-0.00004083,-0.00019834,-0.00019620,0.00098712,-0.00012515
 ,0.00202254,-0.01597661,0.01852330,0.02661849,-0.07923602,0.03870101,0
 .06848536,0.00395650,-0.00036544,-0.01207390,-0.00104238,-0.00100741,-
 0.00027800,0.00240136,-0.00036099,-0.00024548,-0.00109296,-0.00050907,
 -0.00098589,0.00068693,0.00030961,0.00025540,0.00001196,-0.00003666,-0
 .00010716,0.00028778,-0.00014364,-0.00012144,-0.00001362,-0.00000973,0
 .00003455,-0.00006223,0.00004602,-0.00020847,0.00002569,-0.00001490,-0
 .00123595,0.00180065,-0.00052964,0.00004654,-0.00668974,0.00019720,-0.
 00079261,0.00543511,-0.00773929,-0.00892942,0.08840720,-0.00001487,0.0
 0005397,0.00037621,0.00007196,-0.00010275,-0.00075449,-0.00012392,-0.0
 0054391,-0.00044775,0.04144378,-0.10872712,-0.09331799,-0.00585884,0.0
 0966451,0.02070049,0.00114030,0.00074551,0.00160163,-0.00116585,0.0010
 9586,-0.00070248,0.00020303,-0.00013821,0.00092996,-0.00016053,-0.0001
 2993,-0.00020486,0.00008489,-0.00003173,0.00001101,-0.00015159,0.00000
 264,0.00001068,-0.00002242,-0.00001158,-0.00001004,0.00000375,0.000043
 21,-0.00012385,0.00034302,0.00020340,0.00062186,0.00028688,0.00086532,
 0.00070208,0.00013680,0.00130741,0.00060668,0.01163263,-0.01729300,-0.
 02426552,-0.04723854,0.11375109,-0.00004210,0.00030506,0.00047203,-0.0
 0065216,0.00010874,0.00050378,0.00037587,0.00011556,0.00116384,0.06856
 088,-0.09279243,-0.19034120,0.00106264,0.00489881,-0.03333988,-0.00328
 259,-0.00468495,-0.00201130,0.00658974,0.00074179,0.00030648,0.0002398
 8,0.00035135,-0.00081459,-0.00195929,0.00029668,0.00006744,0.00004409,
 -0.00001342,-0.00000155,-0.00022664,0.00003436,-0.00012853,0.00002746,
 -0.00002763,-0.00002722,0.00000053,0.00010910,0.00004371,-0.00000475,-
 0.00017849,0.00071006,0.00019310,0.00024583,0.00015770,-0.00089494,0.0
 0066843,0.00070191,0.00207954,-0.00397283,-0.00047267,-0.07179197,0.09
 374872,0.22430178,0.00009218,-0.00003570,0.00006213,0.00067970,0.00019
 620,-0.00034527,-0.00032487,0.00119000,-0.00209390,-0.00129227,0.00117
 835,-0.00207342,-0.02130199,0.00104078,-0.00183145,-0.30371905,0.03061
 093,-0.05386618,0.00060330,-0.00161073,0.00283407,0.00054010,-0.000144
 19,0.00025375,-0.00046469,-0.00000849,0.00001504,-0.00001656,0.0000079
 2,-0.00001372,-0.00000191,-0.00000111,0.00001900,-0.00000196,-0.000015
 61,0.00001077,-0.00006190,0.00013336,-0.00017347,-0.00006187,0.0000808
 7,-0.00020340,0.00026113,0.00080168,-0.00045511,0.00026115,-0.00001922
 ,-0.00092173,0.00004968,-0.00015247,0.00020101,0.00004964,-0.00009471,
 0.00023390,0.33477909,0.00004150,0.00006348,-0.00002350,0.00002908,-0.
 00050684,0.00004220,-0.00000807,0.00044970,0.00197290,-0.00012924,0.00
 060649,-0.00052753,-0.01741685,-0.00005839,-0.00382039,0.03726845,-0.0
 5246119,0.00885885,-0.00016142,-0.00141216,0.00290621,0.00103985,0.000
 35162,-0.00003880,-0.00029711,0.00028271,-0.00017698,-0.00003544,-0.00
 000182,-0.00001970,0.00001716,-0.00001707,0.00000737,-0.00001666,-0.00
 001789,-0.00001048,-0.00000214,-0.00000480,0.00004690,-0.00001971,0.00
 005793,-0.00015290,-0.00005001,-0.00020785,-0.00007511,0.00067087,-0.0
 0121727,0.00081910,-0.00002107,0.00002656,0.00001047,0.00016821,0.0000
 2863,-0.00004629,-0.03543342,0.05294397,-0.00007302,-0.00002360,0.0000
 9150,-0.00005109,0.00004225,-0.00055710,0.00001424,0.00197292,-0.00190
 075,0.00022734,-0.00052754,0.00123495,0.03064766,-0.00382052,0.0044933
 4,-0.06558089,0.00885892,-0.06301602,0.00028409,0.00290615,-0.00487441
 ,-0.00182976,-0.00003870,0.00039756,0.00052313,-0.00017692,0.00049366,
 0.00006241,-0.00001966,0.00002162,0.00000915,-0.00001087,-0.00001597,-
 0.00001010,0.00000779,-0.00001525,0.00002416,-0.00011556,0.00012106,0.
 00001423,0.00000955,0.00005827,-0.00075105,0.00021777,-0.00166038,-0.0
 0034141,0.00052620,-0.00065101,-0.00018325,-0.00004500,0.00004995,-0.0
 0007570,0.00000922,0.00004793,0.06235204,-0.01429836,0.06997902,0.0000
 3109,-0.00003225,-0.00001032,0.00023512,0.00014424,0.00005137,-0.00026
 470,-0.00049055,-0.00065567,-0.00176872,0.00164983,0.00106764,-0.00040
 850,0.00373270,0.02241782,-0.06056777,-0.02491765,-0.05075672,0.004756
 87,-0.00115230,0.00292491,-0.00006015,0.00235338,-0.00175217,-0.000102
 34,-0.00061461,-0.00022704,-0.00000856,0.00001042,-0.00000645,-0.00000
 165,0.00000096,0.00001149,0.00000875,0.00000337,0.00001636,-0.00000546
 ,0.00007251,-0.00009280,-0.00003667,0.00001467,-0.00007364,0.00020541,
 0.00049300,0.00011582,0.00003972,-0.00012324,0.00006475,0.00001978,0.0
 0021581,-0.00016066,0.00035102,-0.00033763,0.00087153,-0.00454075,-0.0
 1473651,-0.02590487,0.05997264,-0.00001021,-0.00002065,0.00000908,0.00
 006187,-0.00000949,-0.00000621,-0.00022895,-0.00006967,0.00001960,-0.0
 0118278,0.00066390,0.00159951,0.00352015,0.00969771,0.01887959,-0.0250
 5543,-0.09887438,-0.09778905,0.00076518,0.00021574,-0.00019941,-0.0012
 8148,0.00005772,-0.00051887,0.00040931,-0.00018777,0.00036738,0.000011
 31,0.00000085,0.00000170,0.00001083,-0.00000081,-0.00000031,0.00000898
 ,0.00000436,0.00000068,0.00000226,0.00000873,0.00001096,-0.00001481,-0
 .00000192,-0.00002805,0.00001697,-0.00000828,0.00001193,0.00014014,0.0
 0002752,-0.00001095,-0.00006675,-0.00000558,-0.00011958,0.00007221,-0.
 00047089,0.00076117,0.00141796,0.00193781,0.00535652,0.02920413,0.1036
 9997,0.00003941,0.00004835,-0.00005608,-0.00019362,-0.00008794,0.00005
 896,0.00058114,0.00001970,-0.00026674,0.00258011,-0.00437005,-0.001409
 75,0.00690102,0.00430769,-0.03004210,-0.04806462,-0.09641763,-0.230927
 11,-0.00500858,0.00062310,-0.00015209,-0.00187514,-0.00016376,0.000906
 28,0.00227720,-0.00017694,0.00055703,-0.00004739,0.00001102,-0.0000173
 5,-0.00003579,0.00001371,0.00001369,-0.00000947,-0.00000964,0.00000042
 ,0.00001836,-0.00000472,-0.00000072,0.00000343,0.00001832,0.00007892,-
 0.00003901,0.00000694,0.00003538,-0.00023214,0.00008243,0.00008857,0.0
 0009051,0.00008171,0.00001704,-0.00053954,0.00080122,-0.00176539,-0.00
 174239,-0.00283514,-0.00379588,0.04653717,0.09946479,0.26555728,0.0000
 3112,0.00002521,0.00002228,0.00023516,-0.00011801,-0.00009768,-0.00026
 469,0.00081442,0.00008585,-0.00176879,-0.00176153,-0.00087090,-0.00040
 836,-0.02116996,0.00826594,-0.06056801,0.05635921,-0.00456843,0.004756
 78,-0.00192321,0.00248681,-0.00006010,0.00030109,-0.00291863,-0.000102
 16,0.00050958,0.00041184,-0.00000856,0.00000029,-0.00001224,0.00000877
 ,-0.00001572,0.00000553,-0.00000164,-0.00001037,0.00000510,-0.00003668
 ,0.00005578,-0.00005027,-0.00000551,0.00004265,-0.00010972,0.00003969,
 0.00000742,0.00013904,0.00020541,-0.00035181,-0.00036431,0.00035104,-0
 .00057600,0.00073607,0.00001979,0.00002755,-0.00026769,-0.00454088,0.0
 2979711,-0.00059683,0.00199800,-0.00770543,-0.00133650,0.05997298,-0.0
 0002831,-0.00002238,0.00004868,0.00013473,-0.00000021,-0.00009361,-0.0
 0038225,-0.00019770,0.00009607,-0.00161107,-0.00208468,-0.00273289,-0.
 00773004,-0.00943911,0.01570723,0.05411652,-0.28172913,0.01250659,0.00
 391173,0.00013012,0.00067415,0.00226684,0.00038398,-0.00035822,-0.0021
 6653,0.00044553,-0.00055407,0.00003489,-0.00000674,0.00001580,0.000003
 54,-0.00000234,-0.00000556,0.00002506,0.00001601,0.00000390,0.00000449
 ,0.00005327,-0.00001461,-0.00001697,0.00000470,-0.00000214,0.00012770,
 0.00010379,0.00003691,0.00002484,0.00003236,-0.00001710,0.00042665,-0.
 00073939,0.00096110,-0.00004365,-0.00000557,0.00008169,0.00077142,-0.0
 0118558,-0.00097451,0.00509175,-0.01618089,-0.00158421,-0.05492787,0.3
 1062995,0.00002886,0.00000987,-0.00005509,-0.00015220,-0.00001176,0.00
 004981,0.00049421,0.00009603,-0.00013853,0.00233649,0.00323674,0.00133
 889,0.00050716,0.03027933,-0.01090498,-0.00307206,0.01113495,-0.048072
 81,-0.00322070,-0.00014868,-0.00006692,0.00014134,-0.00071321,0.000579
 91,0.00081412,-0.00000979,-0.00007639,-0.00003392,0.00000629,-0.000009
 55,-0.00001261,0.00000478,0.00000732,-0.00002760,-0.00001032,-0.000002
 96,0.00001456,-0.00006094,0.00002348,0.00000738,0.00001344,0.00000352,
 -0.00023922,-0.00005652,0.00001209,-0.00003452,-0.00001228,-0.00000517
 ,-0.00033819,0.00092112,-0.00149681,0.00010367,-0.00011958,0.00001695,
 -0.00211001,0.00721720,-0.00067248,0.00593601,-0.02779965,0.00132274,-
 0.00127364,-0.02380062,0.05862783,-0.00000033,0.00001372,-0.00002347,-
 0.00008314,0.00000897,-0.00001611,0.00000975,0.00029651,-0.00052167,0.
 00008707,-0.00180982,0.00318464,-0.02096061,-0.01474469,0.02594618,-0.
 00435052,0.00196012,-0.00344929,-0.12581677,-0.04994674,0.08788914,0.0
 0681714,0.00608045,-0.01069965,0.00636622,0.00207754,-0.00365617,-0.00
 000896,0.00000150,-0.00000281,0.00000921,-0.00000773,0.00000073,0.0000
 0926,0.00000319,0.00000694,-0.00001446,0.00004100,-0.00001876,-0.00001
 468,-0.00000486,-0.00004464,0.00023177,0.00007624,0.00009466,0.0002318
 2,-0.00012040,-0.00001706,-0.00024284,0.00094275,-0.00030731,-0.000242
 77,-0.00021847,-0.00096745,-0.00095225,-0.00081325,0.00143117,0.000090
 15,0.00005344,0.00014598,0.00009020,-0.00015298,0.00002896,0.13850748,
 0.00000374,0.00000220,-0.00001655,-0.00004152,0.00000957,0.00002604,0.
 00002503,-0.00009014,-0.00034210,0.00116020,0.00016711,0.00068529,-0.0
 0025733,0.00185886,0.00003479,0.00065285,0.00274784,0.00093515,-0.0528
 8471,-0.08702659,0.07901945,-0.00559847,0.00854744,0.02648974,-0.00297
 381,-0.00368223,-0.00503547,-0.00000877,0.00000372,-0.00000259,0.00000
 454,-0.00000201,-0.00000037,-0.00000428,-0.00000238,0.00000237,0.00000
 079,-0.00000938,0.00000512,-0.00000590,-0.00000356,-0.00002408,-0.0000
 0892,0.00000207,0.00000917,0.00011614,-0.00001943,-0.00001468,-0.00005
 414,-0.00009360,-0.00015281,0.00016772,-0.00020878,-0.00068742,0.00009
 270,0.00034014,0.00013620,-0.00037136,-0.00037139,0.00024107,0.0004251
 8,-0.00002865,-0.00020209,0.05782183,0.07932559,-0.00000660,-0.0000166
 3,0.00002196,0.00007308,0.00002614,-0.00002132,-0.00004407,-0.00034215
 ,0.00031737,-0.00204159,0.00068532,-0.00064929,0.00045284,0.00003455,0
 .00181728,-0.00114869,0.00093523,0.00163371,0.09305885,0.07901930,-0.1
 8116677,0.00985107,0.02648985,-0.02301189,0.00523261,-0.00503567,0.002
 31725,0.00001543,-0.00000254,0.00000673,0.00000232,0.00000216,-0.00000
 355,-0.00000272,-0.00000015,-0.00000320,0.00000629,-0.00002069,0.00000
 774,0.00000265,0.00000164,0.00000184,-0.00012985,-0.00002744,-0.000016
 15,-0.00005882,0.00002199,0.00000535,-0.00016292,-0.00075593,0.0002916
 8,-0.00003689,-0.00008419,0.00040696,-0.00016315,0.00013619,0.00017784
 ,-0.00027370,0.00000206,-0.00005178,0.00017894,0.00003692,-0.00039462,
 -0.10174637,-0.10006540,0.19853952,0.00000490,0.00001519,-0.00002678,-
 0.00007138,-0.00001897,0.00003354,0.00005066,0.00009417,-0.00016590,-0
 .00040455,-0.00021476,0.00037785,-0.00041604,0.00096870,-0.00170543,0.
 00032221,0.00019962,-0.00035085,-0.00652982,-0.00091296,0.00160750,-0.
 02114956,0.01787864,-0.03145473,-0.12344433,0.07043081,-0.12390696,-0.
 00001319,0.00000215,-0.00000378,-0.00000069,0.00000061,0.00000166,-0.0
 0000068,-0.00000172,0.00000035,0.00000130,0.00000339,0.00000096,0.0000
 0140,-0.00000258,-0.00000247,-0.00000021,-0.00001033,0.00000068,-0.000
 00025,0.00000475,0.00000926,0.00000106,0.00006074,-0.00002589,0.000001
 04,-0.00000882,-0.00006536,-0.00001475,-0.00002187,0.00003842,-0.00001
 612,0.00003416,0.00009686,-0.00001617,-0.00010076,0.00002018,0.0000079
 8,0.00013934,-0.00024506,0.14009287,0.00001060,0.00000746,-0.00001693,
 -0.00002359,-0.00001482,0.00001913,0.00003077,0.00001781,-0.00004593,0
 .00002579,0.00022405,0.00061520,-0.00151632,0.00214348,0.00077643,0.00
 022431,0.00009733,-0.00038526,0.00009820,0.00050891,-0.00055485,-0.000
 64871,-0.00809983,-0.00877410,0.07384866,-0.08506261,0.19665471,-0.000
 01218,0.00000454,-0.00000616,0.00000050,-0.00000167,0.00000087,-0.0000
 0581,-0.00000583,0.00000203,-0.00000270,-0.00000649,0.00000284,0.00000
 327,-0.00000019,-0.00000820,-0.00002029,-0.00000632,-0.00000296,0.0000
 1320,-0.00000269,0.00000128,0.00000857,0.00003533,-0.00005738,0.000051
 48,-0.00004508,-0.00010129,-0.00002249,-0.00005744,-0.00001674,0.00013
 615,0.00001520,0.00008235,-0.00014314,-0.00011525,0.00003588,-0.000048
 97,-0.00015460,-0.00029175,-0.07879729,0.10137892,-0.00001866,-0.00001
 738,0.00002738,0.00004157,0.00001933,-0.00003759,-0.00005415,-0.000046
 18,0.00007230,-0.00004558,0.00061588,-0.00050920,0.00266997,0.00077536
 ,0.00121807,-0.00039497,-0.00038504,0.00055706,-0.00017455,-0.00055434
 ,0.00117003,0.00113761,-0.00877245,0.00235016,-0.12991248,0.19664622,-
 0.31927331,0.00002145,-0.00000599,0.00001197,0.00000655,-0.00000034,-0
 .00000756,0.00000284,0.00000342,-0.00000329,-0.00000238,-0.00000456,0.
 00000309,0.00000131,-0.00000086,-0.00000329,-0.00000323,0.00000354,-0.
 00000161,0.00001566,-0.00000501,-0.00000522,-0.00006507,-0.00014927,0.
 00004942,-0.00004068,-0.00000953,0.00013006,0.00003964,-0.00001686,-0.
 00003761,0.00008559,-0.00004194,-0.00018580,-0.00007325,0.00016020,-0.
 00005539,0.00008623,-0.00029168,0.00019299,0.13862748,-0.18852064,0.32
 590713,0.00000687,0.00000935,-0.00001852,-0.00002160,-0.00001426,0.000
 02528,-0.00000884,0.00006216,-0.00010960,-0.00004255,-0.00016267,0.000
 28675,-0.00062319,0.00081702,-0.00143951,0.00014484,-0.00015807,0.0002
 7876,0.00517055,-0.00485045,0.00853495,-0.02928074,-0.01179992,0.02076
 988,-0.18289811,-0.08428612,0.14834288,-0.00001117,0.00000382,-0.00000
 603,0.00000013,-0.00000159,0.00000336,-0.00000002,-0.00000170,0.000003
 39,-0.00000082,0.00001003,-0.00000556,-0.00000057,-0.00000019,-0.00001
 160,0.00001629,0.00001711,0.00001342,0.00001622,-0.00002011,-0.0000078
 7,-0.00002453,0.00009577,-0.00008229,-0.00002464,0.00002157,-0.0001242
 3,-0.00002028,0.00013057,-0.00023009,0.00007282,-0.00018306,-0.0001469
 7,0.00007263,0.00022028,0.00008175,0.00022928,0.00159915,-0.00281364,0
 .01159430,0.00678999,-0.01195090,0.19563314,-0.00000068,-0.00000319,0.
 00000121,0.00000915,0.00000052,0.00000099,-0.00000596,0.00001048,0.000
 03709,0.00001415,0.00047796,-0.00000022,0.00091319,-0.00031765,0.00059
 396,-0.00011490,0.00034543,0.00049262,0.00219771,0.00095493,-0.0041547
 5,-0.00186728,-0.00121762,-0.00394980,-0.08155037,-0.06538041,0.154055
 89,0.00000133,0.00000135,0.00000049,0.00000501,-0.00000160,-0.00000231
 ,-0.00000495,-0.00000344,0.00000035,0.00000158,-0.00001475,0.00000698,
 0.,0.00000062,-0.00001589,-0.00002269,-0.00001984,0.00000770,0.0000060
 1,-0.00000601,-0.00001988,-0.00012353,-0.00012715,-0.00003542,0.000085
 71,-0.00005298,0.00003746,0.00001598,0.00005923,0.00002447,-0.00034682
 ,-0.00012781,-0.00015238,0.00033757,-0.00006208,-0.00001019,-0.0015093
 4,-0.00131179,-0.00074880,-0.00974220,-0.01086023,0.00059813,0.0917013
 3,0.07765603,0.00000102,0.00000235,-0.00000408,-0.00001620,0.00000086,
 -0.00000054,0.00001044,0.00003707,-0.00003343,-0.00002505,-0.00000032,
 0.00047750,-0.00160502,0.00059470,-0.00102456,0.00020199,0.00049219,-0
 .00024125,-0.00386806,-0.00415469,0.00590512,0.00328080,-0.00395121,0.
 00349026,0.14353994,0.15406398,-0.24896864,-0.00000233,0.00000007,0.00
 000062,0.00000270,-0.00000106,-0.00000239,-0.00000276,-0.00000139,-0.0
 0000060,-0.00000068,-0.00000659,0.00000580,-0.00000185,-0.00000238,-0.
 00000952,0.00000652,-0.00001155,0.00000110,0.00002290,-0.00000067,-0.0
 0001269,-0.00002626,0.00008149,-0.00005403,0.00009276,-0.00007948,-0.0
 0012828,-0.00002814,0.00002465,0.00003015,-0.00018644,0.00002905,0.000
 03448,0.00020269,-0.00019171,-0.00003084,0.00265614,-0.00074914,-0.000
 41966,0.01713848,0.00059145,-0.01156978,-0.16139360,-0.14676768,0.2525
 5526\\-0.00002643,0.00000281,-0.00000492,-0.00007928,0.00000572,-0.000
 01007,0.00006644,0.00000196,-0.00000336,0.00002698,0.00004609,-0.00008
 137,-0.00012053,-0.00005761,0.00010164,-0.00006152,0.00002351,-0.00004
 164,0.00005799,0.00002763,-0.00004859,0.00040858,-0.00001237,0.0000252
 4,-0.00050421,-0.00000387,-0.00000491,0.00002592,-0.00000196,0.0000034
 2,0.00001956,0.00000308,0.00000157,0.00001955,-0.00000292,-0.00000186,
 0.00000617,-0.00000611,0.00000058,0.00000616,0.00000263,0.00000554,-0.
 00001489,-0.00000423,0.00000695,-0.00001488,-0.00000382,0.00000720,-0.
 00001804,-0.00000563,-0.00001010,-0.00001811,0.00001153,-0.00000036,0.
 00004024,0.00000247,-0.00000433,0.00001604,-0.00001392,0.00001940,0.00
 001600,-0.00000958,0.00002190,-0.00000022,0.00001356,-0.00002360,0.000
 09557,-0.00002322,0.00004497,0.00005290,0.00000424,-0.00000329\\\@


 ERROR IS A HARDY PLANT... IT FLOURISHETH IN EVERY SOIL.
            MARTIN FARQUHAR TUPPER
 Job cpu time:       0 days  2 hours  4 minutes 11.1 seconds.
 Elapsed time:       0 days  0 hours 31 minutes 31.6 seconds.
 File lengths (MBytes):  RWF=    192 Int=      0 D2E=      0 Chk=     10 Scr=      1
 Normal termination of Gaussian 16 at Tue Jun  1 01:11:11 2021.
### All Done ###
