### Starting Gaussian ###
 Entering Gaussian System, Link 0=g16
 Initial command:
 /cluster/software/gaussian/gaussian-16-A.03/avx2/g16/l1.exe "/local/scratch/linjian/Gau-20295.inp" -scrdir="/local/scratch/linjian/"
 Entering Link 1 = /cluster/software/gaussian/gaussian-16-A.03/avx2/g16/l1.exe PID=     20310.
  
 Copyright (c) 1988,1990,1992,1993,1995,1998,2003,2009,2016,
            Gaussian, Inc.  All Rights Reserved.
  
 This is part of the Gaussian(R) 16 program.  It is based on
 the Gaussian(R) 09 system (copyright 2009, Gaussian, Inc.),
 the Gaussian(R) 03 system (copyright 2003, Gaussian, Inc.),
 the Gaussian(R) 98 system (copyright 1998, Gaussian, Inc.),
 the Gaussian(R) 94 system (copyright 1995, Gaussian, Inc.),
 the Gaussian 92(TM) system (copyright 1992, Gaussian, Inc.),
 the Gaussian 90(TM) system (copyright 1990, Gaussian, Inc.),
 the Gaussian 88(TM) system (copyright 1988, Gaussian, Inc.),
 the Gaussian 86(TM) system (copyright 1986, Carnegie Mellon
 University), and the Gaussian 82(TM) system (copyright 1983,
 Carnegie Mellon University). Gaussian is a federally registered
 trademark of Gaussian, Inc.
  
 This software contains proprietary and confidential information,
 including trade secrets, belonging to Gaussian, Inc.
  
 This software is provided under written license and may be
 used, copied, transmitted, or stored only in accord with that
 written license.
  
 The following legend is applicable only to US Government
 contracts under FAR:
  
                    RESTRICTED RIGHTS LEGEND
  
 Use, reproduction and disclosure by the US Government is
 subject to restrictions as set forth in subparagraphs (a)
 and (c) of the Commercial Computer Software - Restricted
 Rights clause in FAR 52.227-19.
  
 Gaussian, Inc.
 340 Quinnipiac St., Bldg. 40, Wallingford CT 06492
  
  
 ---------------------------------------------------------------
 Warning -- This program may not be used in any manner that
 competes with the business of Gaussian, Inc. or will provide
 assistance to any competitor of Gaussian, Inc.  The licensee
 of this program is prohibited from giving any competitor of
 Gaussian, Inc. access to this program.  By using this program,
 the user acknowledges that Gaussian, Inc. is engaged in the
 business of creating and licensing software in the field of
 computational chemistry and represents and warrants to the
 licensee that it is not a competitor of Gaussian, Inc. and that
 it will not use this program in any manner prohibited above.
 ---------------------------------------------------------------
  

 Cite this work as:
 Gaussian 16, Revision A.03,
 M. J. Frisch, G. W. Trucks, H. B. Schlegel, G. E. Scuseria, 
 M. A. Robb, J. R. Cheeseman, G. Scalmani, V. Barone, 
 G. A. Petersson, H. Nakatsuji, X. Li, M. Caricato, A. V. Marenich, 
 J. Bloino, B. G. Janesko, R. Gomperts, B. Mennucci, H. P. Hratchian, 
 J. V. Ortiz, A. F. Izmaylov, J. L. Sonnenberg, D. Williams-Young, 
 F. Ding, F. Lipparini, F. Egidi, J. Goings, B. Peng, A. Petrone, 
 T. Henderson, D. Ranasinghe, V. G. Zakrzewski, J. Gao, N. Rega, 
 G. Zheng, W. Liang, M. Hada, M. Ehara, K. Toyota, R. Fukuda, 
 J. Hasegawa, M. Ishida, T. Nakajima, Y. Honda, O. Kitao, H. Nakai, 
 T. Vreven, K. Throssell, J. A. Montgomery, Jr., J. E. Peralta, 
 F. Ogliaro, M. J. Bearpark, J. J. Heyd, E. N. Brothers, K. N. Kudin, 
 V. N. Staroverov, T. A. Keith, R. Kobayashi, J. Normand, 
 K. Raghavachari, A. P. Rendell, J. C. Burant, S. S. Iyengar, 
 J. Tomasi, M. Cossi, J. M. Millam, M. Klene, C. Adamo, R. Cammi, 
 J. W. Ochterski, R. L. Martin, K. Morokuma, O. Farkas, 
 J. B. Foresman, and D. J. Fox, Gaussian, Inc., Wallingford CT, 2016.
 
 ******************************************
 Gaussian 16:  ES64L-G16RevA.03 25-Dec-2016
                 1-Jun-2021 
 ******************************************
 %chk=CCCCCCCtCCpNpO.chk
 %NProcShared=20
 Will use up to   20 processors via shared memory.
 -----------------------------
 # opt freq b3lyp/6-31g(2df,p)
 -----------------------------
 1/18=20,19=15,26=3,38=1/1,3;
 2/9=110,12=2,17=6,18=5,40=1/2;
 3/5=1,6=6,7=104,11=2,25=1,30=1,71=1,74=-5/1,2,3;
 4//1;
 5/5=2,38=5/2;
 6/7=2,8=2,9=2,10=2,28=1/1;
 7//1,2,3,16;
 1/18=20,19=15,26=3/3(2);
 2/9=110/2;
 99//99;
 2/9=110/2;
 3/5=1,6=6,7=104,11=2,25=1,30=1,71=1,74=-5/1,2,3;
 4/5=5,16=3,69=1/1;
 5/5=2,38=5/2;
 7//1,2,3,16;
 1/18=20,19=15,26=3/3(-5);
 2/9=110/2;
 6/7=2,8=2,9=2,10=2,19=2,28=1/1;
 99/9=1/99;
 -------------------
 Title Card Required
 -------------------
 Symbolic Z-matrix:
 Charge =  0 Multiplicity = 1
 C                     0.96549   0.04241   0.09258 
 C                     2.48386   0.03291   0.09086 
 C                     3.01196  -1.37582  -0.16197 
 C                     4.53906  -1.4022   -0.1667 
 C                     5.05274  -2.82178  -0.42071 
 C                     6.5802   -2.88334  -0.42866 
 C                     7.07046  -4.25846  -0.65745 
 C                     7.47657  -5.37872  -0.85042 
 C                     7.96756  -6.74161  -1.11437 
 N                     8.91599  -7.16205  -0.1124 
 O                     6.89068  -7.64816  -1.11851 
 H                     0.59083   1.05368   0.27405 
 H                     0.57459  -0.61497   0.87587 
 H                     0.57458  -0.30161  -0.8704 
 H                     2.85192   0.40352   1.05463 
 H                     2.85191   0.71552  -0.68389 
 H                     2.63361  -1.74242  -1.12427 
 H                     2.63362  -2.05411   0.61287 
 H                     4.91388  -1.03419   0.79628 
 H                     4.91412  -0.72259  -0.94174 
 H                     4.66168  -3.1809   -1.38107 
 H                     4.65962  -3.49175   0.35421 
 H                     6.96323  -2.5115    0.52903 
 H                     6.96623  -2.21248  -1.20592 
 H                     8.44157  -6.79268  -2.09902 
 H                     8.50354  -7.08632   0.81071 
 H                     9.70615  -6.52108  -0.12809 
 H                     6.54     -7.65008  -0.21677 
 

 GradGradGradGradGradGradGradGradGradGradGradGradGradGradGradGradGradGrad
 Berny optimization.
 Initialization pass.
                           ----------------------------
                           !    Initial Parameters    !
                           ! (Angstroms and Degrees)  !
 --------------------------                            --------------------------
 ! Name  Definition              Value          Derivative Info.                !
 --------------------------------------------------------------------------------
 ! R1    R(1,2)                  1.5184         estimate D2E/DX2                !
 ! R2    R(1,12)                 1.0936         estimate D2E/DX2                !
 ! R3    R(1,13)                 1.0948         estimate D2E/DX2                !
 ! R4    R(1,14)                 1.0948         estimate D2E/DX2                !
 ! R5    R(2,3)                  1.5256         estimate D2E/DX2                !
 ! R6    R(2,15)                 1.0962         estimate D2E/DX2                !
 ! R7    R(2,16)                 1.0962         estimate D2E/DX2                !
 ! R8    R(3,4)                  1.5273         estimate D2E/DX2                !
 ! R9    R(3,17)                 1.0971         estimate D2E/DX2                !
 ! R10   R(3,18)                 1.0971         estimate D2E/DX2                !
 ! R11   R(4,5)                  1.5309         estimate D2E/DX2                !
 ! R12   R(4,19)                 1.0969         estimate D2E/DX2                !
 ! R13   R(4,20)                 1.0969         estimate D2E/DX2                !
 ! R14   R(5,6)                  1.5287         estimate D2E/DX2                !
 ! R15   R(5,21)                 1.0974         estimate D2E/DX2                !
 ! R16   R(5,22)                 1.0972         estimate D2E/DX2                !
 ! R17   R(6,7)                  1.4777         estimate D2E/DX2                !
 ! R18   R(6,23)                 1.0964         estimate D2E/DX2                !
 ! R19   R(6,24)                 1.0969         estimate D2E/DX2                !
 ! R20   R(7,8)                  1.2071         estimate D2E/DX2                !
 ! R21   R(8,9)                  1.4725         estimate D2E/DX2                !
 ! R22   R(9,10)                 1.4423         estimate D2E/DX2                !
 ! R23   R(9,11)                 1.4077         estimate D2E/DX2                !
 ! R24   R(9,25)                 1.094          estimate D2E/DX2                !
 ! R25   R(10,26)                1.0139         estimate D2E/DX2                !
 ! R26   R(10,27)                1.0176         estimate D2E/DX2                !
 ! R27   R(11,28)                0.9675         estimate D2E/DX2                !
 ! A1    A(2,1,12)             110.3992         estimate D2E/DX2                !
 ! A2    A(2,1,13)             110.739          estimate D2E/DX2                !
 ! A3    A(2,1,14)             110.7386         estimate D2E/DX2                !
 ! A4    A(12,1,13)            108.3136         estimate D2E/DX2                !
 ! A5    A(12,1,14)            108.3136         estimate D2E/DX2                !
 ! A6    A(13,1,14)            108.2505         estimate D2E/DX2                !
 ! A7    A(1,2,3)              110.6174         estimate D2E/DX2                !
 ! A8    A(1,2,15)             109.4291         estimate D2E/DX2                !
 ! A9    A(1,2,16)             109.4296         estimate D2E/DX2                !
 ! A10   A(3,2,15)             109.9787         estimate D2E/DX2                !
 ! A11   A(3,2,16)             109.9781         estimate D2E/DX2                !
 ! A12   A(15,2,16)            107.3444         estimate D2E/DX2                !
 ! A13   A(2,3,4)              111.2586         estimate D2E/DX2                !
 ! A14   A(2,3,17)             109.5457         estimate D2E/DX2                !
 ! A15   A(2,3,18)             109.5414         estimate D2E/DX2                !
 ! A16   A(4,3,17)             109.6535         estimate D2E/DX2                !
 ! A17   A(4,3,18)             109.6525         estimate D2E/DX2                !
 ! A18   A(17,3,18)            107.0961         estimate D2E/DX2                !
 ! A19   A(3,4,5)              110.6111         estimate D2E/DX2                !
 ! A20   A(3,4,19)             109.4591         estimate D2E/DX2                !
 ! A21   A(3,4,20)             109.4726         estimate D2E/DX2                !
 ! A22   A(5,4,19)             110.0053         estimate D2E/DX2                !
 ! A23   A(5,4,20)             110.0325         estimate D2E/DX2                !
 ! A24   A(19,4,20)            107.1929         estimate D2E/DX2                !
 ! A25   A(4,5,6)              111.93           estimate D2E/DX2                !
 ! A26   A(4,5,21)             109.2141         estimate D2E/DX2                !
 ! A27   A(4,5,22)             109.1963         estimate D2E/DX2                !
 ! A28   A(6,5,21)             109.7759         estimate D2E/DX2                !
 ! A29   A(6,5,22)             109.6987         estimate D2E/DX2                !
 ! A30   A(21,5,22)            106.8926         estimate D2E/DX2                !
 ! A31   A(5,6,7)              111.7016         estimate D2E/DX2                !
 ! A32   A(5,6,23)             109.3208         estimate D2E/DX2                !
 ! A33   A(5,6,24)             109.3108         estimate D2E/DX2                !
 ! A34   A(7,6,23)             109.5681         estimate D2E/DX2                !
 ! A35   A(7,6,24)             110.0392         estimate D2E/DX2                !
 ! A36   A(23,6,24)            106.7726         estimate D2E/DX2                !
 ! A37   A(8,9,10)             111.3797         estimate D2E/DX2                !
 ! A38   A(8,9,11)             109.9693         estimate D2E/DX2                !
 ! A39   A(8,9,25)             110.4274         estimate D2E/DX2                !
 ! A40   A(10,9,11)            108.5038         estimate D2E/DX2                !
 ! A41   A(10,9,25)            109.071          estimate D2E/DX2                !
 ! A42   A(11,9,25)            107.3829         estimate D2E/DX2                !
 ! A43   A(9,10,26)            110.0733         estimate D2E/DX2                !
 ! A44   A(9,10,27)            108.4388         estimate D2E/DX2                !
 ! A45   A(26,10,27)           106.4319         estimate D2E/DX2                !
 ! A46   A(9,11,28)            106.0105         estimate D2E/DX2                !
 ! A47   L(6,7,8,22,-1)        180.3839         estimate D2E/DX2                !
 ! A48   L(7,8,9,26,-1)        181.1283         estimate D2E/DX2                !
 ! A49   L(6,7,8,22,-2)        179.7876         estimate D2E/DX2                !
 ! A50   L(7,8,9,26,-2)        180.1372         estimate D2E/DX2                !
 ! D1    D(12,1,2,3)          -179.9986         estimate D2E/DX2                !
 ! D2    D(12,1,2,15)           58.6827         estimate D2E/DX2                !
 ! D3    D(12,1,2,16)          -58.6802         estimate D2E/DX2                !
 ! D4    D(13,1,2,3)            60.0491         estimate D2E/DX2                !
 ! D5    D(13,1,2,15)          -61.2697         estimate D2E/DX2                !
 ! D6    D(13,1,2,16)         -178.6326         estimate D2E/DX2                !
 ! D7    D(14,1,2,3)           -60.0464         estimate D2E/DX2                !
 ! D8    D(14,1,2,15)          178.6349         estimate D2E/DX2                !
 ! D9    D(14,1,2,16)           61.272          estimate D2E/DX2                !
 ! D10   D(1,2,3,4)           -179.9992         estimate D2E/DX2                !
 ! D11   D(1,2,3,17)            58.5964         estimate D2E/DX2                !
 ! D12   D(1,2,3,18)           -58.5989         estimate D2E/DX2                !
 ! D13   D(15,2,3,4)           -59.0061         estimate D2E/DX2                !
 ! D14   D(15,2,3,17)          179.5895         estimate D2E/DX2                !
 ! D15   D(15,2,3,18)           62.3942         estimate D2E/DX2                !
 ! D16   D(16,2,3,4)            59.0074         estimate D2E/DX2                !
 ! D17   D(16,2,3,17)          -62.3971         estimate D2E/DX2                !
 ! D18   D(16,2,3,18)         -179.5923         estimate D2E/DX2                !
 ! D19   D(2,3,4,5)            179.9698         estimate D2E/DX2                !
 ! D20   D(2,3,4,19)            58.6023         estimate D2E/DX2                !
 ! D21   D(2,3,4,20)           -58.6199         estimate D2E/DX2                !
 ! D22   D(17,3,4,5)           -58.6888         estimate D2E/DX2                !
 ! D23   D(17,3,4,19)          179.9437         estimate D2E/DX2                !
 ! D24   D(17,3,4,20)           62.7216         estimate D2E/DX2                !
 ! D25   D(18,3,4,5)            58.6343         estimate D2E/DX2                !
 ! D26   D(18,3,4,19)          -62.7332         estimate D2E/DX2                !
 ! D27   D(18,3,4,20)         -179.9553         estimate D2E/DX2                !
 ! D28   D(3,4,5,6)           -179.8777         estimate D2E/DX2                !
 ! D29   D(3,4,5,21)            58.3487         estimate D2E/DX2                !
 ! D30   D(3,4,5,22)           -58.214          estimate D2E/DX2                !
 ! D31   D(19,4,5,6)           -58.8336         estimate D2E/DX2                !
 ! D32   D(19,4,5,21)          179.3928         estimate D2E/DX2                !
 ! D33   D(19,4,5,22)           62.8301         estimate D2E/DX2                !
 ! D34   D(20,4,5,6)            59.0433         estimate D2E/DX2                !
 ! D35   D(20,4,5,21)          -62.7303         estimate D2E/DX2                !
 ! D36   D(20,4,5,22)         -179.2929         estimate D2E/DX2                !
 ! D37   D(4,5,6,7)            179.2903         estimate D2E/DX2                !
 ! D38   D(4,5,6,23)            57.8558         estimate D2E/DX2                !
 ! D39   D(4,5,6,24)           -58.6878         estimate D2E/DX2                !
 ! D40   D(21,5,6,7)           -59.2593         estimate D2E/DX2                !
 ! D41   D(21,5,6,23)          179.3063         estimate D2E/DX2                !
 ! D42   D(21,5,6,24)           62.7626         estimate D2E/DX2                !
 ! D43   D(22,5,6,7)            57.9158         estimate D2E/DX2                !
 ! D44   D(22,5,6,23)          -63.5186         estimate D2E/DX2                !
 ! D45   D(22,5,6,24)          179.9377         estimate D2E/DX2                !
 ! D46   D(5,6,9,10)          -127.6524         estimate D2E/DX2                !
 ! D47   D(5,6,9,11)            -6.831          estimate D2E/DX2                !
 ! D48   D(5,6,9,25)           111.0806         estimate D2E/DX2                !
 ! D49   D(23,6,9,10)           -5.9751         estimate D2E/DX2                !
 ! D50   D(23,6,9,11)          114.8463         estimate D2E/DX2                !
 ! D51   D(23,6,9,25)         -127.2421         estimate D2E/DX2                !
 ! D52   D(24,6,9,10)          111.0586         estimate D2E/DX2                !
 ! D53   D(24,6,9,11)         -128.12           estimate D2E/DX2                !
 ! D54   D(24,6,9,25)          -10.2084         estimate D2E/DX2                !
 ! D55   D(8,9,10,26)           55.6816         estimate D2E/DX2                !
 ! D56   D(8,9,10,27)          -60.3778         estimate D2E/DX2                !
 ! D57   D(11,9,10,26)         -65.501          estimate D2E/DX2                !
 ! D58   D(11,9,10,27)         178.4396         estimate D2E/DX2                !
 ! D59   D(25,9,10,26)         177.8171         estimate D2E/DX2                !
 ! D60   D(25,9,10,27)          61.7577         estimate D2E/DX2                !
 ! D61   D(8,9,11,28)          -65.1064         estimate D2E/DX2                !
 ! D62   D(10,9,11,28)          56.9409         estimate D2E/DX2                !
 ! D63   D(25,9,11,28)         174.7035         estimate D2E/DX2                !
 --------------------------------------------------------------------------------
 Trust Radius=3.00D-01 FncErr=1.00D-07 GrdErr=1.00D-06 EigMax=2.50D+02 EigMin=1.00D-04
 Number of steps in this run=    150 maximum allowed number of steps=    168.
 GradGradGradGradGradGradGradGradGradGradGradGradGradGradGradGradGradGrad

                          Input orientation:                          
 ---------------------------------------------------------------------
 Center     Atomic      Atomic             Coordinates (Angstroms)
 Number     Number       Type             X           Y           Z
 ---------------------------------------------------------------------
      1          6           0        0.965490    0.042410    0.092580
      2          6           0        2.483860    0.032910    0.090860
      3          6           0        3.011960   -1.375820   -0.161970
      4          6           0        4.539060   -1.402200   -0.166700
      5          6           0        5.052740   -2.821780   -0.420710
      6          6           0        6.580200   -2.883340   -0.428660
      7          6           0        7.070460   -4.258460   -0.657450
      8          6           0        7.476570   -5.378720   -0.850420
      9          6           0        7.967560   -6.741610   -1.114370
     10          7           0        8.915990   -7.162050   -0.112400
     11          8           0        6.890680   -7.648160   -1.118510
     12          1           0        0.590830    1.053680    0.274050
     13          1           0        0.574590   -0.614970    0.875870
     14          1           0        0.574580   -0.301610   -0.870400
     15          1           0        2.851920    0.403520    1.054630
     16          1           0        2.851910    0.715520   -0.683890
     17          1           0        2.633610   -1.742420   -1.124270
     18          1           0        2.633620   -2.054110    0.612870
     19          1           0        4.913880   -1.034190    0.796280
     20          1           0        4.914120   -0.722590   -0.941740
     21          1           0        4.661680   -3.180900   -1.381070
     22          1           0        4.659620   -3.491750    0.354210
     23          1           0        6.963230   -2.511500    0.529030
     24          1           0        6.966230   -2.212480   -1.205920
     25          1           0        8.441570   -6.792680   -2.099020
     26          1           0        8.503540   -7.086320    0.810710
     27          1           0        9.706150   -6.521080   -0.128090
     28          1           0        6.540000   -7.650080   -0.216770
 ---------------------------------------------------------------------
                    Distance matrix (angstroms):
                    1          2          3          4          5
     1  C    0.000000
     2  C    1.518401   0.000000
     3  C    2.502841   1.525560   0.000000
     4  C    3.863227   2.519866   1.527335   0.000000
     5  C    5.017237   3.874287   2.514464   1.530881   0.000000
     6  C    6.352690   5.055138   3.882792   2.535479   1.528721
     7  C    7.505377   6.325561   5.002653   3.847992   2.488230
     8  C    8.524791   7.422863   6.035720   4.990907   3.549302
     9  C    9.823881   8.798731   7.365917   6.415761   4.933802
    10  N   10.731109   9.653034   8.266830   7.234386   5.818737
    11  O    9.783633   8.937644   7.436510   6.741519   5.211419
    12  H    1.093603   2.158493   3.457521   4.670560   5.950674
    13  H    1.094758   2.163631   2.756225   4.174171   5.157999
    14  H    1.094756   2.163625   2.756197   4.174158   5.158236
    15  H    2.148152   1.096208   2.161430   2.756576   4.174062
    16  H    2.148153   1.096200   2.161416   2.756574   4.174375
    17  H    2.729279   2.156563   1.097071   2.159498   2.740840
    18  H    2.729241   2.156519   1.097085   2.159495   2.740392
    19  H    4.152595   2.746146   2.156908   1.096928   2.166985
    20  H    4.152917   2.746490   2.157073   1.096917   2.167322
    21  H    5.120859   4.151873   2.732416   2.157198   1.097354
    22  H    5.119115   4.150483   2.731004   2.156873   1.097226
    23  H    6.533439   5.170181   4.168907   2.755211   2.155980
    24  H    6.540605   5.178326   4.174456   2.761827   2.156211
    25  H   10.364041   9.320867   7.910449   6.929698   5.483515
    26  H   10.399841   9.350838   7.982065   6.998689   5.622341
    27  H   10.932851   9.755214   8.443165   7.273462   5.951863
    28  H    9.505012   8.693402   7.198361   6.560661   5.056285
                    6          7          8          9         10
     6  C    0.000000
     7  C    1.477719   0.000000
     8  C    2.684824   1.207123   0.000000
     9  C    4.157068   2.679477   1.472484   0.000000
    10  N    4.885007   3.483374   2.407669   1.442301   0.000000
    11  O    4.824500   3.425633   2.359131   1.407665   2.313102
    12  H    7.201839   8.430429   9.489658  10.821756  11.702814
    13  H    6.550928   7.604105   8.562168   9.805752  10.649877
    14  H    6.551941   7.609104   8.568250   9.807613  10.826787
    15  H    5.186875   6.516238   7.645319   9.051365   9.765897
    16  H    5.188167   6.522066   7.652122   9.053396   9.957699
    17  H    4.166671   5.121915   6.062337   7.310473   8.358503
    18  H    4.165081   5.114530   6.053793   7.308005   8.129283
    19  H    2.774249   4.142473   5.306029   6.749088   7.375178
    20  H    2.776313   4.151265   5.315453   6.751437   7.626888
    21  H    2.162486   2.736235   3.610486   4.866069   5.963072
    22  H    2.161406   2.724601   3.598194   4.864235   5.639638
    23  H    1.096425   2.114498   3.222941   4.647932   5.084518
    24  H    1.096907   2.120782   3.226748   4.639403   5.430985
    25  H    4.640877   3.221853   2.118846   1.093997   2.075613
    26  H    4.785427   3.493709   2.594209   2.027815   1.013895
    27  H    4.805732   3.513763   2.607254   2.010989   1.017566
    28  H    4.771616   3.461022   2.537273   1.915445   2.427837
                   11         12         13         14         15
    11  O    0.000000
    12  H   10.832791   0.000000
    13  H    9.661072   1.773935   0.000000
    14  H    9.691567   1.773934   1.774163   0.000000
    15  H    9.266265   2.478818   2.501102   3.064184   0.000000
    16  H    9.297941   2.478807   3.064187   2.501114   1.766294
    17  H    7.280140   3.734491   3.084034   2.525864   3.065995
    18  H    7.239726   3.734454   2.525846   3.083990   2.506542
    19  H    7.163711   4.829150   4.360220   4.705743   2.526942
    20  H    7.204274   4.829505   4.706040   4.360495   3.083227
    21  H    4.999379   6.102697   5.327483   5.025483   4.696374
    22  H    4.941890   6.101017   5.023491   5.325806   4.351034
    23  H    5.394898   7.306367   6.673218   6.903395   5.067195
    24  H    5.436908   7.314632   6.909338   6.679610   5.374113
    25  H    2.024477  11.350372  10.435681  10.272927   9.642354
    26  H    2.576601  11.364796  10.234787  10.570091   9.386054
    27  H    3.190315  11.858658  10.921330  11.073319   9.814753
    28  H    0.967530  10.554097   9.288313   9.487543   8.948680
                   16         17         18         19         20
    16  H    0.000000
    17  H    2.506603   0.000000
    18  H    3.065956   1.764881   0.000000
    19  H    3.082873   3.064267   2.504688   0.000000
    20  H    2.527322   2.504815   3.064382   1.765732   0.000000
    21  H    4.352403   2.499648   3.059163   3.068032   2.509985
    22  H    4.695379   3.057904   2.497677   2.509915   3.067980
    23  H    5.365425   4.697924   4.354510   2.540414   3.092283
    24  H    5.076744   4.358809   4.701552   3.099889   2.549651
    25  H    9.466782   7.758071   7.971241   7.347623   7.115349
    26  H    9.749023   8.170526   7.734225   7.036629   7.513460
    27  H    9.982880   8.593532   8.397828   7.343451   7.566245
    28  H    9.154424   7.140300   6.874808   6.887709   7.152565
                   21         22         23         24         25
    21  H    0.000000
    22  H    1.762903   0.000000
    23  H    3.064916   2.509596   0.000000
    24  H    2.505886   3.064472   1.760532   0.000000
    25  H    5.277118   5.587273   5.236472   4.894128   0.000000
    26  H    5.900516   5.282523   4.835378   5.494036   2.925166
    27  H    6.178466   5.905668   4.902260   5.218516   2.357434
    28  H    4.985705   4.599299   5.209640   5.543247   2.809621
                   26         27         28
    26  H    0.000000
    27  H    1.626995   0.000000
    28  H    2.286707   3.362590   0.000000
 Stoichiometry    C9H17NO
 Framework group  C1[X(C9H17NO)]
 Deg. of freedom    78
 Full point group                 C1      NOp   1
 Largest Abelian subgroup         C1      NOp   1
 Largest concise Abelian subgroup C1      NOp   1
                         Standard orientation:                         
 ---------------------------------------------------------------------
 Center     Atomic      Atomic             Coordinates (Angstroms)
 Number     Number       Type             X           Y           Z
 ---------------------------------------------------------------------
      1          6           0        5.662733    0.958134    0.132395
      2          6           0        4.650501   -0.172904    0.091424
      3          6           0        3.230490    0.379520    0.015735
      4          6           0        2.199654   -0.746701   -0.026188
      5          6           0        0.781007   -0.176256   -0.101207
      6          6           0       -0.276543   -1.279407   -0.141612
      7          6           0       -1.644474   -0.723211   -0.196983
      8          6           0       -2.763867   -0.274412   -0.248793
      9          6           0       -4.126088    0.277064   -0.340653
     10          7           0       -4.983927   -0.267518    0.682955
     11          8           0       -4.089006    1.676626   -0.194462
     12          1           0        6.679159    0.558247    0.186585
     13          1           0        5.496735    1.595453    1.006903
     14          1           0        5.585275    1.580388   -0.764985
     15          1           0        4.762958   -0.795502    0.986632
     16          1           0        4.851127   -0.810520   -0.777396
     17          1           0        3.127953    1.007047   -0.878280
     18          1           0        3.039900    1.022012    0.884340
     19          1           0        2.305634   -1.372578    0.868406
     20          1           0        2.393382   -1.387576   -0.895081
     21          1           0        0.692616    0.455693   -0.993963
     22          1           0        0.606404    0.471863    0.766757
     23          1           0       -0.173583   -1.913363    0.747008
     24          1           0       -0.096779   -1.922542   -1.011824
     25          1           0       -4.559594    0.062313   -1.321869
     26          1           0       -4.577904   -0.108312    1.598259
     27          1           0       -5.030726   -1.276591    0.560381
     28          1           0       -3.783490    1.842623    0.708433
 ---------------------------------------------------------------------
 Rotational constants (GHZ):           3.4994393           0.2443227           0.2336779
 Standard basis: 6-31G(2df,p) (6D, 7F)
 There are   426 symmetry adapted cartesian basis functions of A   symmetry.
 There are   393 symmetry adapted basis functions of A   symmetry.
   393 basis functions,   603 primitive gaussians,   426 cartesian basis functions
    43 alpha electrons       43 beta electrons
       nuclear repulsion energy       562.1864002687 Hartrees.
 NAtoms=   28 NActive=   28 NUniq=   28 SFac= 1.00D+00 NAtFMM=   60 NAOKFM=F Big=F
 Integral buffers will be    131072 words long.
 Raffenetti 2 integral format.
 Two-electron integral symmetry is turned on.
 One-electron integrals computed using PRISM.
 PrsmSu:  requested number of processors reduced to:  13 ShMem   1 Linda.
 NBasis=   393 RedAO= T EigKep=  5.09D-05  NBF=   393
 NBsUse=   393 1.00D-06 EigRej= -1.00D+00 NBFU=   393
 ExpMin= 1.61D-01 ExpMax= 5.48D+03 ExpMxC= 8.25D+02 IAcc=3 IRadAn=         5 AccDes= 0.00D+00
 Harris functional with IExCor=  402 and IRadAn=       5 diagonalized for initial guess.
 HarFok:  IExCor=  402 AccDes= 0.00D+00 IRadAn=         5 IDoV= 1 UseB2=F ITyADJ=14
 ICtDFT=  3500011 ScaDFX=  1.000000  1.000000  1.000000  1.000000
 FoFCou: FMM=F IPFlag=           0 FMFlag=      100000 FMFlg1=           0
         NFxFlg=           0 DoJE=T BraDBF=F KetDBF=T FulRan=T
         wScrn=  0.000000 ICntrl=       500 IOpCl=  0 I1Cent=   200000004 NGrid=           0
         NMat0=    1 NMatS0=      1 NMatT0=    0 NMatD0=    1 NMtDS0=    0 NMtDT0=    0
 Petite list used in FoFCou.
 Requested convergence on RMS density matrix=1.00D-08 within 128 cycles.
 Requested convergence on MAX density matrix=1.00D-06.
 Requested convergence on             energy=1.00D-06.
 No special actions if energy rises.
 Integral accuracy reduced to 1.0D-05 until final iterations.
 Initial convergence to 1.0D-05 achieved.  Increase integral accuracy.
 SCF Done:  E(RB3LYP) =  -483.139066798     A.U. after   13 cycles
            NFock= 13  Conv=0.67D-08     -V/T= 2.0078

 **********************************************************************

            Population analysis using the SCF density.

 **********************************************************************

 Orbital symmetries:
       Occupied  (A) (A) (A) (A) (A) (A) (A) (A) (A) (A) (A) (A)
                 (A) (A) (A) (A) (A) (A) (A) (A) (A) (A) (A) (A)
                 (A) (A) (A) (A) (A) (A) (A) (A) (A) (A) (A) (A)
                 (A) (A) (A) (A) (A) (A) (A)
       Virtual   (A) (A) (A) (A) (A) (A) (A) (A) (A) (A) (A) (A)
                 (A) (A) (A) (A) (A) (A) (A) (A) (A) (A) (A) (A)
                 (A) (A) (A) (A) (A) (A) (A) (A) (A) (A) (A) (A)
                 (A) (A) (A) (A) (A) (A) (A) (A) (A) (A) (A) (A)
                 (A) (A) (A) (A) (A) (A) (A) (A) (A) (A) (A) (A)
                 (A) (A) (A) (A) (A) (A) (A) (A) (A) (A) (A) (A)
                 (A) (A) (A) (A) (A) (A) (A) (A) (A) (A) (A) (A)
                 (A) (A) (A) (A) (A) (A) (A) (A) (A) (A) (A) (A)
                 (A) (A) (A) (A) (A) (A) (A) (A) (A) (A) (A) (A)
                 (A) (A) (A) (A) (A) (A) (A) (A) (A) (A) (A) (A)
                 (A) (A) (A) (A) (A) (A) (A) (A) (A) (A) (A) (A)
                 (A) (A) (A) (A) (A) (A) (A) (A) (A) (A) (A) (A)
                 (A) (A) (A) (A) (A) (A) (A) (A) (A) (A) (A) (A)
                 (A) (A) (A) (A) (A) (A) (A) (A) (A) (A) (A) (A)
                 (A) (A) (A) (A) (A) (A) (A) (A) (A) (A) (A) (A)
                 (A) (A) (A) (A) (A) (A) (A) (A) (A) (A) (A) (A)
                 (A) (A) (A) (A) (A) (A) (A) (A) (A) (A) (A) (A)
                 (A) (A) (A) (A) (A) (A) (A) (A) (A) (A) (A) (A)
                 (A) (A) (A) (A) (A) (A) (A) (A) (A) (A) (A) (A)
                 (A) (A) (A) (A) (A) (A) (A) (A) (A) (A) (A) (A)
                 (A) (A) (A) (A) (A) (A) (A) (A) (A) (A) (A) (A)
                 (A) (A) (A) (A) (A) (A) (A) (A) (A) (A) (A) (A)
                 (A) (A) (A) (A) (A) (A) (A) (A) (A) (A) (A) (A)
                 (A) (A) (A) (A) (A) (A) (A) (A) (A) (A) (A) (A)
                 (A) (A) (A) (A) (A) (A) (A) (A) (A) (A) (A) (A)
                 (A) (A) (A) (A) (A) (A) (A) (A) (A) (A) (A) (A)
                 (A) (A) (A) (A) (A) (A) (A) (A) (A) (A) (A) (A)
                 (A) (A) (A) (A) (A) (A) (A) (A) (A) (A) (A) (A)
                 (A) (A) (A) (A) (A) (A) (A) (A) (A) (A) (A) (A)
                 (A) (A)
 The electronic state is 1-A.
 Alpha  occ. eigenvalues --  -19.13603 -14.31333 -10.27339 -10.20580 -10.18378
 Alpha  occ. eigenvalues --  -10.17905 -10.17636 -10.17613 -10.17482 -10.16973
 Alpha  occ. eigenvalues --  -10.16309  -1.03246  -0.88085  -0.81742  -0.78743
 Alpha  occ. eigenvalues --   -0.74575  -0.71265  -0.66403  -0.63771  -0.58800
 Alpha  occ. eigenvalues --   -0.57859  -0.52919  -0.50424  -0.48792  -0.48672
 Alpha  occ. eigenvalues --   -0.46124  -0.45653  -0.43148  -0.41493  -0.41027
 Alpha  occ. eigenvalues --   -0.39481  -0.39000  -0.36342  -0.35604  -0.34959
 Alpha  occ. eigenvalues --   -0.33370  -0.33222  -0.32625  -0.31289  -0.29262
 Alpha  occ. eigenvalues --   -0.26886  -0.25205  -0.23420
 Alpha virt. eigenvalues --    0.04146   0.05322   0.08382   0.08745   0.10205
 Alpha virt. eigenvalues --    0.11256   0.12254   0.12278   0.13110   0.14598
 Alpha virt. eigenvalues --    0.15476   0.16660   0.17374   0.17975   0.18171
 Alpha virt. eigenvalues --    0.19168   0.19809   0.20198   0.20663   0.21407
 Alpha virt. eigenvalues --    0.22903   0.23064   0.25097   0.25795   0.27531
 Alpha virt. eigenvalues --    0.29004   0.29904   0.31026   0.40334   0.41348
 Alpha virt. eigenvalues --    0.44247   0.45232   0.47527   0.49172   0.50332
 Alpha virt. eigenvalues --    0.51582   0.52321   0.52621   0.54589   0.55161
 Alpha virt. eigenvalues --    0.57107   0.58490   0.58761   0.59454   0.59689
 Alpha virt. eigenvalues --    0.60763   0.62420   0.63077   0.64147   0.64813
 Alpha virt. eigenvalues --    0.66010   0.68605   0.68908   0.70365   0.70889
 Alpha virt. eigenvalues --    0.72003   0.72790   0.73473   0.73763   0.74239
 Alpha virt. eigenvalues --    0.74577   0.75552   0.76522   0.77421   0.77745
 Alpha virt. eigenvalues --    0.79003   0.79484   0.79914   0.80270   0.81595
 Alpha virt. eigenvalues --    0.81944   0.82638   0.83488   0.84615   0.84821
 Alpha virt. eigenvalues --    0.85982   0.86666   0.88578   0.89640   0.89965
 Alpha virt. eigenvalues --    0.90618   0.93032   0.95240   0.99478   1.01065
 Alpha virt. eigenvalues --    1.03509   1.05019   1.06579   1.07603   1.08528
 Alpha virt. eigenvalues --    1.12393   1.13451   1.16899   1.19094   1.19369
 Alpha virt. eigenvalues --    1.20006   1.21922   1.22398   1.24702   1.26148
 Alpha virt. eigenvalues --    1.26520   1.29838   1.32945   1.34043   1.34342
 Alpha virt. eigenvalues --    1.34758   1.36931   1.39291   1.42975   1.44242
 Alpha virt. eigenvalues --    1.46618   1.48886   1.49279   1.53071   1.54669
 Alpha virt. eigenvalues --    1.56056   1.58017   1.59635   1.60447   1.62726
 Alpha virt. eigenvalues --    1.64601   1.65198   1.67246   1.67925   1.69390
 Alpha virt. eigenvalues --    1.70200   1.71830   1.75792   1.79361   1.82941
 Alpha virt. eigenvalues --    1.83299   1.84829   1.86359   1.87783   1.88689
 Alpha virt. eigenvalues --    1.89880   1.90144   1.93266   1.94829   1.96055
 Alpha virt. eigenvalues --    1.97443   2.01684   2.11505   2.13007   2.15482
 Alpha virt. eigenvalues --    2.16366   2.18352   2.19894   2.20278   2.21178
 Alpha virt. eigenvalues --    2.23084   2.23698   2.30726   2.32375   2.33633
 Alpha virt. eigenvalues --    2.34778   2.36300   2.37578   2.39123   2.40607
 Alpha virt. eigenvalues --    2.46537   2.50398   2.51468   2.52236   2.58769
 Alpha virt. eigenvalues --    2.59038   2.61089   2.64465   2.66820   2.67784
 Alpha virt. eigenvalues --    2.68485   2.70321   2.72369   2.73336   2.73849
 Alpha virt. eigenvalues --    2.74648   2.75913   2.76886   2.78459   2.79878
 Alpha virt. eigenvalues --    2.80645   2.81562   2.83072   2.83282   2.84453
 Alpha virt. eigenvalues --    2.85621   2.86735   2.87312   2.89245   2.90241
 Alpha virt. eigenvalues --    2.91162   2.92590   2.93551   2.93909   2.94672
 Alpha virt. eigenvalues --    2.95209   3.01245   3.02044   3.02148   3.03130
 Alpha virt. eigenvalues --    3.04186   3.05760   3.08214   3.09342   3.09715
 Alpha virt. eigenvalues --    3.13103   3.15343   3.16022   3.17630   3.20919
 Alpha virt. eigenvalues --    3.22768   3.23751   3.24549   3.26701   3.29755
 Alpha virt. eigenvalues --    3.32760   3.36689   3.37127   3.39741   3.42041
 Alpha virt. eigenvalues --    3.44054   3.45648   3.47903   3.51020   3.52852
 Alpha virt. eigenvalues --    3.55200   3.55659   3.57316   3.57764   3.58485
 Alpha virt. eigenvalues --    3.61450   3.62311   3.66364   3.66696   3.68344
 Alpha virt. eigenvalues --    3.71173   3.72819   3.73645   3.74790   3.76508
 Alpha virt. eigenvalues --    3.78660   3.81383   3.81908   3.84313   3.86179
 Alpha virt. eigenvalues --    3.89263   3.91263   3.96748   3.99097   4.02424
 Alpha virt. eigenvalues --    4.03380   4.07835   4.11804   4.14997   4.16844
 Alpha virt. eigenvalues --    4.18553   4.20258   4.22957   4.24196   4.28168
 Alpha virt. eigenvalues --    4.31982   4.33253   4.35046   4.37953   4.38356
 Alpha virt. eigenvalues --    4.39219   4.40176   4.42990   4.44441   4.45723
 Alpha virt. eigenvalues --    4.45980   4.48435   4.49333   4.50959   4.52780
 Alpha virt. eigenvalues --    4.54477   4.55519   4.56326   4.57783   4.59509
 Alpha virt. eigenvalues --    4.60026   4.61905   4.63170   4.63316   4.63562
 Alpha virt. eigenvalues --    4.64564   4.64992   4.66714   4.67565   4.69768
 Alpha virt. eigenvalues --    4.70456   4.73239   4.73534   4.75356   4.76642
 Alpha virt. eigenvalues --    4.77689   4.78222   4.79445   4.81008   4.83569
 Alpha virt. eigenvalues --    4.83903   4.85086   4.86095   4.90374   4.91670
 Alpha virt. eigenvalues --    4.94330   4.95180   4.96971   4.97761   4.99141
 Alpha virt. eigenvalues --    4.99993   5.03030   5.05228   5.09289   5.13614
 Alpha virt. eigenvalues --    5.16897   5.22413   5.30339   5.33623   5.38856
 Alpha virt. eigenvalues --    5.44295   5.46327   5.47545   5.49877   5.50925
 Alpha virt. eigenvalues --    5.52746   5.54616   5.61474   5.64045   5.71139
 Alpha virt. eigenvalues --    5.86444   5.90556   5.99979   6.11575   6.25905
 Alpha virt. eigenvalues --    6.46242   6.97341   7.20813   9.49926   9.94041
 Alpha virt. eigenvalues --   11.09771  11.28798  11.44326  11.59015  11.87539
 Alpha virt. eigenvalues --   12.11454  12.27199  12.38820  12.58359  13.30762
          Condensed to atoms (all electrons):
               1          2          3          4          5          6
     1  C    4.951505   0.405912  -0.036518   0.002360  -0.000153   0.000001
     2  C    0.405912   4.772405   0.429874  -0.033017   0.002083  -0.000140
     3  C   -0.036518   0.429874   4.772512   0.431038  -0.030881   0.001838
     4  C    0.002360  -0.033017   0.431038   4.827188   0.403499  -0.035151
     5  C   -0.000153   0.002083  -0.030881   0.403499   4.812121   0.410391
     6  C    0.000001  -0.000140   0.001838  -0.035151   0.410391   4.978333
     7  C   -0.000000   0.000002  -0.000263   0.002429  -0.043321   0.455525
     8  C   -0.000000   0.000000  -0.000010  -0.000060  -0.001999  -0.072089
     9  C   -0.000000   0.000000  -0.000000  -0.000000   0.000041  -0.001827
    10  N   -0.000000   0.000000  -0.000000   0.000000  -0.000002  -0.000116
    11  O    0.000000  -0.000000  -0.000000  -0.000000   0.000005  -0.000058
    12  H    0.371100  -0.021996   0.003457  -0.000174   0.000001  -0.000000
    13  H    0.379258  -0.029270  -0.004685   0.000203   0.000005   0.000000
    14  H    0.379419  -0.029202  -0.004664   0.000203   0.000005   0.000000
    15  H   -0.035902   0.370776  -0.033261  -0.002447   0.000169   0.000009
    16  H   -0.035813   0.370936  -0.033165  -0.002458   0.000168   0.000009
    17  H   -0.002702  -0.035439   0.366142  -0.032150  -0.002571   0.000132
    18  H   -0.002698  -0.035587   0.365720  -0.032374  -0.002660   0.000131
    19  H    0.000094  -0.003044  -0.032359   0.361875  -0.031119  -0.002978
    20  H    0.000094  -0.003035  -0.032167   0.362235  -0.030903  -0.002900
    21  H    0.000006   0.000134  -0.002961  -0.032566   0.368999  -0.036008
    22  H    0.000006   0.000138  -0.002998  -0.032669   0.367255  -0.037067
    23  H    0.000000   0.000006   0.000054  -0.003473  -0.031143   0.351568
    24  H    0.000000   0.000006   0.000044  -0.003273  -0.030014   0.353270
    25  H   -0.000000   0.000000  -0.000000   0.000000  -0.000001  -0.000091
    26  H    0.000000  -0.000000   0.000000   0.000000  -0.000001  -0.000016
    27  H    0.000000  -0.000000   0.000000  -0.000000   0.000000   0.000019
    28  H   -0.000000   0.000000  -0.000000   0.000000  -0.000002  -0.000015
               7          8          9         10         11         12
     1  C   -0.000000  -0.000000  -0.000000  -0.000000   0.000000   0.371100
     2  C    0.000002   0.000000   0.000000   0.000000  -0.000000  -0.021996
     3  C   -0.000263  -0.000010  -0.000000  -0.000000  -0.000000   0.003457
     4  C    0.002429  -0.000060  -0.000000   0.000000  -0.000000  -0.000174
     5  C   -0.043321  -0.001999   0.000041  -0.000002   0.000005   0.000001
     6  C    0.455525  -0.072089  -0.001827  -0.000116  -0.000058  -0.000000
     7  C    5.069891   0.731659  -0.069624  -0.024106  -0.025623   0.000000
     8  C    0.731659   5.085991   0.286500  -0.086490  -0.074243   0.000000
     9  C   -0.069624   0.286500   4.844361   0.407037   0.390611   0.000000
    10  N   -0.024106  -0.086490   0.407037   6.602319  -0.050988   0.000000
    11  O   -0.025623  -0.074243   0.390611  -0.050988   7.844438  -0.000000
    12  H    0.000000   0.000000   0.000000   0.000000  -0.000000   0.609631
    13  H    0.000000   0.000000   0.000000  -0.000000   0.000000  -0.031870
    14  H    0.000000   0.000000   0.000000  -0.000000   0.000000  -0.031817
    15  H    0.000000   0.000000   0.000000  -0.000000   0.000000  -0.002389
    16  H    0.000000   0.000000   0.000000   0.000000   0.000000  -0.002390
    17  H    0.000024   0.000001   0.000000  -0.000000   0.000000  -0.000048
    18  H    0.000025   0.000001   0.000000   0.000000   0.000000  -0.000049
    19  H    0.000557   0.000027   0.000000   0.000000  -0.000000   0.000004
    20  H    0.000579   0.000028   0.000000   0.000000  -0.000000   0.000004
    21  H    0.001765   0.001672   0.000018   0.000000  -0.000002   0.000000
    22  H    0.001727   0.001656  -0.000007  -0.000000  -0.000002   0.000000
    23  H   -0.018874   0.000518   0.000057   0.000023  -0.000001   0.000000
    24  H   -0.016760  -0.000645  -0.000071  -0.000002  -0.000001   0.000000
    25  H   -0.007585  -0.062246   0.378018  -0.031854  -0.017311   0.000000
    26  H   -0.000646  -0.002427  -0.047267   0.327187   0.000820  -0.000000
    27  H    0.001763   0.007321  -0.045078   0.328908   0.004678  -0.000000
    28  H    0.000175  -0.001275  -0.062112  -0.004760   0.307786   0.000000
              13         14         15         16         17         18
     1  C    0.379258   0.379419  -0.035902  -0.035813  -0.002702  -0.002698
     2  C   -0.029270  -0.029202   0.370776   0.370936  -0.035439  -0.035587
     3  C   -0.004685  -0.004664  -0.033261  -0.033165   0.366142   0.365720
     4  C    0.000203   0.000203  -0.002447  -0.002458  -0.032150  -0.032374
     5  C    0.000005   0.000005   0.000169   0.000168  -0.002571  -0.002660
     6  C    0.000000   0.000000   0.000009   0.000009   0.000132   0.000131
     7  C    0.000000   0.000000   0.000000   0.000000   0.000024   0.000025
     8  C    0.000000   0.000000   0.000000   0.000000   0.000001   0.000001
     9  C    0.000000   0.000000   0.000000   0.000000   0.000000   0.000000
    10  N   -0.000000  -0.000000  -0.000000   0.000000  -0.000000   0.000000
    11  O    0.000000   0.000000   0.000000   0.000000   0.000000   0.000000
    12  H   -0.031870  -0.031817  -0.002389  -0.002390  -0.000048  -0.000049
    13  H    0.602016  -0.033351  -0.004508   0.005721  -0.000413   0.005145
    14  H   -0.033351   0.601050   0.005721  -0.004499   0.005124  -0.000414
    15  H   -0.004508   0.005721   0.645919  -0.041624   0.006210  -0.005572
    16  H    0.005721  -0.004499  -0.041624   0.644933  -0.005552   0.006222
    17  H   -0.000413   0.005124   0.006210  -0.005552   0.644284  -0.042261
    18  H    0.005145  -0.000414  -0.005572   0.006222  -0.042261   0.646778
    19  H    0.000005   0.000010   0.005014  -0.000452   0.006197  -0.005453
    20  H    0.000010   0.000004  -0.000451   0.004990  -0.005436   0.006195
    21  H    0.000001  -0.000002   0.000008   0.000006   0.005026  -0.000440
    22  H   -0.000002   0.000001   0.000006   0.000008  -0.000447   0.005093
    23  H    0.000000  -0.000000  -0.000002   0.000001   0.000008   0.000003
    24  H   -0.000000   0.000000   0.000001  -0.000002   0.000003   0.000008
    25  H    0.000000  -0.000000   0.000000  -0.000000   0.000000  -0.000000
    26  H    0.000000  -0.000000   0.000000  -0.000000   0.000000  -0.000000
    27  H    0.000000  -0.000000   0.000000   0.000000   0.000000   0.000000
    28  H   -0.000000  -0.000000   0.000000  -0.000000   0.000000  -0.000000
              19         20         21         22         23         24
     1  C    0.000094   0.000094   0.000006   0.000006   0.000000   0.000000
     2  C   -0.003044  -0.003035   0.000134   0.000138   0.000006   0.000006
     3  C   -0.032359  -0.032167  -0.002961  -0.002998   0.000054   0.000044
     4  C    0.361875   0.362235  -0.032566  -0.032669  -0.003473  -0.003273
     5  C   -0.031119  -0.030903   0.368999   0.367255  -0.031143  -0.030014
     6  C   -0.002978  -0.002900  -0.036008  -0.037067   0.351568   0.353270
     7  C    0.000557   0.000579   0.001765   0.001727  -0.018874  -0.016760
     8  C    0.000027   0.000028   0.001672   0.001656   0.000518  -0.000645
     9  C    0.000000   0.000000   0.000018  -0.000007   0.000057  -0.000071
    10  N    0.000000   0.000000   0.000000  -0.000000   0.000023  -0.000002
    11  O   -0.000000  -0.000000  -0.000002  -0.000002  -0.000001  -0.000001
    12  H    0.000004   0.000004   0.000000   0.000000   0.000000   0.000000
    13  H    0.000005   0.000010   0.000001  -0.000002   0.000000  -0.000000
    14  H    0.000010   0.000004  -0.000002   0.000001  -0.000000   0.000000
    15  H    0.005014  -0.000451   0.000008   0.000006  -0.000002   0.000001
    16  H   -0.000452   0.004990   0.000006   0.000008   0.000001  -0.000002
    17  H    0.006197  -0.005436   0.005026  -0.000447   0.000008   0.000003
    18  H   -0.005453   0.006195  -0.000440   0.005093   0.000003   0.000008
    19  H    0.647378  -0.042874   0.006024  -0.005279   0.005126  -0.000507
    20  H   -0.042874   0.645325  -0.005231   0.006076  -0.000501   0.004924
    21  H    0.006024  -0.005231   0.624127  -0.040100   0.006030  -0.005588
    22  H   -0.005279   0.006076  -0.040100   0.633635  -0.005510   0.006044
    23  H    0.005126  -0.000501   0.006030  -0.005510   0.614062  -0.041132
    24  H   -0.000507   0.004924  -0.005588   0.006044  -0.041132   0.605882
    25  H    0.000000   0.000000  -0.000001   0.000001  -0.000003   0.000021
    26  H    0.000000   0.000000  -0.000000   0.000001  -0.000008   0.000002
    27  H   -0.000000  -0.000000  -0.000000  -0.000000  -0.000003  -0.000000
    28  H    0.000000   0.000000  -0.000001   0.000012  -0.000001   0.000001
              25         26         27         28
     1  C   -0.000000   0.000000   0.000000  -0.000000
     2  C    0.000000  -0.000000  -0.000000   0.000000
     3  C   -0.000000   0.000000   0.000000  -0.000000
     4  C    0.000000   0.000000  -0.000000   0.000000
     5  C   -0.000001  -0.000001   0.000000  -0.000002
     6  C   -0.000091  -0.000016   0.000019  -0.000015
     7  C   -0.007585  -0.000646   0.001763   0.000175
     8  C   -0.062246  -0.002427   0.007321  -0.001275
     9  C    0.378018  -0.047267  -0.045078  -0.062112
    10  N   -0.031854   0.327187   0.328908  -0.004760
    11  O   -0.017311   0.000820   0.004678   0.307786
    12  H    0.000000  -0.000000  -0.000000   0.000000
    13  H    0.000000   0.000000   0.000000  -0.000000
    14  H   -0.000000  -0.000000  -0.000000  -0.000000
    15  H    0.000000   0.000000   0.000000   0.000000
    16  H   -0.000000  -0.000000   0.000000  -0.000000
    17  H    0.000000   0.000000   0.000000   0.000000
    18  H   -0.000000  -0.000000   0.000000  -0.000000
    19  H    0.000000   0.000000  -0.000000   0.000000
    20  H    0.000000   0.000000  -0.000000   0.000000
    21  H   -0.000001  -0.000000  -0.000000  -0.000001
    22  H    0.000001   0.000001  -0.000000   0.000012
    23  H   -0.000003  -0.000008  -0.000003  -0.000001
    24  H    0.000021   0.000002  -0.000000   0.000001
    25  H    0.607142   0.007145  -0.002043   0.007615
    26  H    0.007145   0.515469  -0.026683   0.006821
    27  H   -0.002043  -0.026683   0.500504  -0.000324
    28  H    0.007615   0.006821  -0.000324   0.467768
 Mulliken charges:
               1
     1  C   -0.375969
     2  C   -0.161544
     3  C   -0.156747
     4  C   -0.181216
     5  C   -0.159971
     6  C   -0.362769
     7  C   -0.059321
     8  C    0.186108
     9  C   -0.080657
    10  N   -0.467156
    11  O   -0.380110
    12  H    0.106534
    13  H    0.111735
    14  H    0.112411
    15  H    0.092324
    16  H    0.092963
    17  H    0.093869
    18  H    0.092186
    19  H    0.091756
    20  H    0.093036
    21  H    0.109084
    22  H    0.102423
    23  H    0.123193
    24  H    0.127791
    25  H    0.121192
    26  H    0.219603
    27  H    0.230939
    28  H    0.278314
 Sum of Mulliken charges =  -0.00000
 Mulliken charges with hydrogens summed into heavy atoms:
               1
     1  C   -0.045289
     2  C    0.023743
     3  C    0.029309
     4  C    0.003575
     5  C    0.051536
     6  C   -0.111785
     7  C   -0.059321
     8  C    0.186108
     9  C    0.040535
    10  N   -0.016614
    11  O   -0.101796
 Electronic spatial extent (au):  <R**2>=           4610.7941
 Charge=             -0.0000 electrons
 Dipole moment (field-independent basis, Debye):
    X=              2.0838    Y=             -1.6622    Z=              1.3051  Tot=              2.9679
 Quadrupole moment (field-independent basis, Debye-Ang):
   XX=            -80.7139   YY=            -69.1048   ZZ=            -65.0005
   XY=              6.1783   XZ=             -4.1617   YZ=              2.4557
 Traceless Quadrupole moment (field-independent basis, Debye-Ang):
   XX=             -9.1075   YY=              2.5016   ZZ=              6.6059
   XY=              6.1783   XZ=             -4.1617   YZ=              2.4557
 Octapole moment (field-independent basis, Debye-Ang**2):
  XXX=             50.6985  YYY=              1.3332  ZZZ=              4.8441  XYY=             -8.1465
  XXY=            -39.2298  XXZ=              7.5405  XZZ=            -18.8934  YZZ=              3.5817
  YYZ=              6.9650  XYZ=             -8.3006
 Hexadecapole moment (field-independent basis, Debye-Ang**3):
 XXXX=          -6196.9227 YYYY=           -394.8304 ZZZZ=           -144.2750 XXXY=            141.1246
 XXXZ=              2.1467 YYYX=             -7.4682 YYYZ=              9.5875 ZZZX=            -20.6699
 ZZZY=              0.0878 XXYY=          -1008.6001 XXZZ=           -885.1874 YYZZ=            -83.4765
 XXYZ=             26.2385 YYXZ=            -29.4419 ZZXY=            -14.1716
 N-N= 5.621864002687D+02 E-N=-2.246890713986D+03  KE= 4.793858368466D+02
 PrsmSu:  requested number of processors reduced to:  13 ShMem   1 Linda.
 Calling FoFJK, ICntrl=      2127 FMM=F ISym2X=0 I1Cent= 0 IOpClX= 0 NMat=1 NMatS=1 NMatT=0.
 ***** Axes restored to original set *****
 -------------------------------------------------------------------
 Center     Atomic                   Forces (Hartrees/Bohr)
 Number     Number              X              Y              Z
 -------------------------------------------------------------------
      1        6          -0.004151169    0.005968274    0.001049924
      2        6          -0.005334351   -0.004309699   -0.000774522
      3        6           0.007326842    0.008705824    0.001472179
      4        6          -0.003821089   -0.009807592   -0.001674276
      5        6          -0.001765253    0.005637173    0.000741453
      6        6           0.004108591   -0.015769475   -0.001198203
      7        6           0.002691900    0.009277747    0.001295655
      8        6          -0.003776322    0.008533615   -0.007417875
      9        6          -0.012840179    0.005550548    0.010412199
     10        7           0.021025352   -0.006962097   -0.000100149
     11        8          -0.004007910   -0.005498520   -0.003229256
     12        1          -0.003449378   -0.000158584   -0.000026684
     13        1          -0.001544657    0.000048377   -0.000206400
     14        1          -0.001529837   -0.000021709    0.000226336
     15        1           0.001897047    0.000602978   -0.000124163
     16        1           0.001891086    0.000502940    0.000332644
     17        1          -0.000582959   -0.000844260    0.000018639
     18        1          -0.000605856   -0.000802523   -0.000276083
     19        1           0.001077124    0.000709313    0.000155413
     20        1           0.001082237    0.000644231    0.000089006
     21        1           0.001102848   -0.001064844    0.000989629
     22        1           0.000830914   -0.000635690   -0.001071431
     23        1           0.001156266    0.000651032    0.000249365
     24        1           0.001532696   -0.000827212   -0.000110896
     25        1          -0.000477008   -0.001698036   -0.000628702
     26        1          -0.001394795    0.003316486    0.002096196
     27        1           0.001161837   -0.001533078    0.002651292
     28        1          -0.001603977   -0.000215222   -0.004941286
 -------------------------------------------------------------------
 Cartesian Forces:  Max     0.021025352 RMS     0.004676263

 GradGradGradGradGradGradGradGradGradGradGradGradGradGradGradGradGradGrad
 Berny optimization.
 FormGI is forming the generalized inverse of G from B-inverse, IUseBI=4.
 Internal  Forces:  Max     0.018414073 RMS     0.003552758
 Search for a local minimum.
 Step number   1 out of a maximum of  150
 All quantities printed in internal units (Hartrees-Bohrs-Radians)
 Mixed Optimization -- RFO/linear search
 Second derivative matrix not updated -- first step.
 ITU=  0
     Eigenvalues ---    0.00230   0.00357   0.00386   0.00404   0.00428
     Eigenvalues ---    0.00523   0.00884   0.00958   0.01132   0.01590
     Eigenvalues ---    0.03092   0.03390   0.03613   0.03716   0.03750
     Eigenvalues ---    0.03830   0.04621   0.04764   0.04862   0.04902
     Eigenvalues ---    0.04913   0.04974   0.05063   0.05679   0.05714
     Eigenvalues ---    0.06035   0.06233   0.07996   0.08040   0.08119
     Eigenvalues ---    0.08212   0.08342   0.09160   0.11947   0.11967
     Eigenvalues ---    0.12037   0.12112   0.12550   0.16000   0.16000
     Eigenvalues ---    0.16000   0.16000   0.16000   0.16000   0.18301
     Eigenvalues ---    0.19943   0.21882   0.21889   0.21895   0.21903
     Eigenvalues ---    0.21915   0.29342   0.29542   0.29671   0.29837
     Eigenvalues ---    0.30521   0.33976   0.33991   0.34007   0.34008
     Eigenvalues ---    0.34024   0.34025   0.34026   0.34081   0.34105
     Eigenvalues ---    0.34106   0.34269   0.34269   0.34355   0.34400
     Eigenvalues ---    0.34832   0.35444   0.39271   0.44374   0.44729
     Eigenvalues ---    0.45327   0.53885   1.01324
 RFO step:  Lambda=-1.04913595D-02 EMin= 2.30000000D-03
 Linear search not attempted -- first point.
 Iteration  1 RMS(Cart)=  0.09567699 RMS(Int)=  0.00550192
 Iteration  2 RMS(Cart)=  0.01408914 RMS(Int)=  0.00073316
 Iteration  3 RMS(Cart)=  0.00011738 RMS(Int)=  0.00073145
 Iteration  4 RMS(Cart)=  0.00000026 RMS(Int)=  0.00073145
 Variable       Old X    -DE/DX   Delta X   Delta X   Delta X     New X
                                 (Linear)    (Quad)   (Total)
    R1        2.86936   0.01071   0.00000   0.03393   0.03393   2.90329
    R2        2.06661   0.00103   0.00000   0.00291   0.00291   2.06952
    R3        2.06879   0.00037   0.00000   0.00106   0.00106   2.06985
    R4        2.06879   0.00035   0.00000   0.00100   0.00100   2.06979
    R5        2.88289   0.00674   0.00000   0.02183   0.02183   2.90472
    R6        2.07153   0.00073   0.00000   0.00208   0.00208   2.07362
    R7        2.07152   0.00071   0.00000   0.00203   0.00203   2.07355
    R8        2.88625   0.00625   0.00000   0.02035   0.02035   2.90660
    R9        2.07316   0.00047   0.00000   0.00133   0.00133   2.07449
   R10        2.07319   0.00051   0.00000   0.00146   0.00146   2.07465
   R11        2.89295   0.00379   0.00000   0.01248   0.01248   2.90542
   R12        2.07289   0.00074   0.00000   0.00212   0.00212   2.07501
   R13        2.07287   0.00071   0.00000   0.00201   0.00201   2.07489
   R14        2.88886   0.00778   0.00000   0.02543   0.02544   2.91430
   R15        2.07370  -0.00091   0.00000  -0.00260  -0.00260   2.07110
   R16        2.07346  -0.00067   0.00000  -0.00190  -0.00190   2.07155
   R17        2.79249  -0.00979   0.00000  -0.02727  -0.02728   2.76521
   R18        2.07194   0.00084   0.00000   0.00240   0.00240   2.07434
   R19        2.07285   0.00011   0.00000   0.00032   0.00032   2.07317
   R20        2.28113  -0.00185   0.00000  -0.00180  -0.00181   2.27932
   R21        2.78259   0.00603   0.00000   0.01649   0.01650   2.79909
   R22        2.72555   0.01841   0.00000   0.04566   0.04563   2.77118
   R23        2.66010   0.00800   0.00000   0.01761   0.01761   2.67771
   R24        2.06735   0.00044   0.00000   0.00124   0.00124   2.06859
   R25        1.91598   0.00272   0.00000   0.00587   0.00592   1.92191
   R26        1.92292  -0.00010   0.00000  -0.00023  -0.00023   1.92269
   R27        1.82837  -0.00402   0.00000  -0.00732  -0.00732   1.82104
    A1        1.92683   0.00423   0.00000   0.02665   0.02651   1.95334
    A2        1.93276   0.00102   0.00000   0.00506   0.00499   1.93775
    A3        1.93275   0.00101   0.00000   0.00499   0.00493   1.93768
    A4        1.89043  -0.00248   0.00000  -0.01277  -0.01290   1.87753
    A5        1.89043  -0.00247   0.00000  -0.01274  -0.01287   1.87756
    A6        1.88933  -0.00156   0.00000  -0.01268  -0.01267   1.87666
    A7        1.93064   0.00966   0.00000   0.04847   0.04833   1.97897
    A8        1.90990  -0.00200   0.00000  -0.00032  -0.00025   1.90964
    A9        1.90991  -0.00200   0.00000  -0.00038  -0.00031   1.90960
   A10        1.91949  -0.00336   0.00000  -0.01617  -0.01659   1.90290
   A11        1.91948  -0.00337   0.00000  -0.01629  -0.01671   1.90277
   A12        1.87351   0.00078   0.00000  -0.01728  -0.01760   1.85591
   A13        1.94183   0.00965   0.00000   0.04744   0.04733   1.98916
   A14        1.91193  -0.00276   0.00000  -0.00909  -0.00921   1.90272
   A15        1.91186  -0.00277   0.00000  -0.00912  -0.00925   1.90261
   A16        1.91382  -0.00275   0.00000  -0.00916  -0.00929   1.90453
   A17        1.91380  -0.00274   0.00000  -0.00909  -0.00921   1.90458
   A18        1.86918   0.00101   0.00000  -0.01342  -0.01364   1.85554
   A19        1.93053   0.00964   0.00000   0.04765   0.04754   1.97807
   A20        1.91042  -0.00250   0.00000  -0.00561  -0.00566   1.90476
   A21        1.91066  -0.00250   0.00000  -0.00610  -0.00612   1.90454
   A22        1.91995  -0.00295   0.00000  -0.01160  -0.01185   1.90811
   A23        1.92043  -0.00303   0.00000  -0.01262  -0.01283   1.90760
   A24        1.87087   0.00101   0.00000  -0.01378  -0.01402   1.85685
   A25        1.95355   0.00430   0.00000   0.02173   0.02171   1.97526
   A26        1.90615  -0.00038   0.00000   0.00488   0.00496   1.91111
   A27        1.90583  -0.00052   0.00000   0.00425   0.00430   1.91013
   A28        1.91595  -0.00205   0.00000  -0.01287  -0.01303   1.90292
   A29        1.91460  -0.00182   0.00000  -0.01064  -0.01080   1.90381
   A30        1.86563   0.00029   0.00000  -0.00863  -0.00878   1.85685
   A31        1.94956   0.00540   0.00000   0.02585   0.02509   1.97465
   A32        1.90801   0.00033   0.00000   0.00735   0.00629   1.91430
   A33        1.90783  -0.00107   0.00000  -0.00073  -0.00172   1.90611
   A34        1.91232  -0.00170   0.00000  -0.00223  -0.00178   1.91054
   A35        1.92055  -0.00312   0.00000  -0.02238  -0.02170   1.89885
   A36        1.86353  -0.00007   0.00000  -0.00930  -0.00800   1.85553
   A37        1.94394   0.00471   0.00000   0.04843   0.04661   1.99055
   A38        1.91933  -0.00075   0.00000   0.02380   0.01895   1.93827
   A39        1.92732  -0.00108   0.00000  -0.02664  -0.02641   1.90091
   A40        1.89375   0.00576   0.00000   0.05949   0.05728   1.95102
   A41        1.90365  -0.00477   0.00000  -0.04652  -0.04362   1.86002
   A42        1.87418  -0.00411   0.00000  -0.06158  -0.06238   1.81181
   A43        1.92114  -0.00356   0.00000  -0.02378  -0.02376   1.89738
   A44        1.89261   0.00543   0.00000   0.02891   0.02902   1.92164
   A45        1.85759  -0.00173   0.00000  -0.01635  -0.01609   1.84149
   A46        1.85023   0.00474   0.00000   0.02778   0.02778   1.87801
   A47        3.14829  -0.00492   0.00000  -0.05876  -0.06011   3.08819
   A48        3.16128  -0.00752   0.00000  -0.21630  -0.21508   2.94621
   A49        3.13789   0.00072   0.00000   0.00067  -0.00025   3.13763
   A50        3.14399  -0.00236   0.00000  -0.04105  -0.04252   3.10147
    D1       -3.14157   0.00000   0.00000   0.00007   0.00007  -3.14150
    D2        1.02421  -0.00069   0.00000  -0.01068  -0.01080   1.01341
    D3       -1.02416   0.00069   0.00000   0.01062   0.01074  -1.01343
    D4        1.04805  -0.00031   0.00000  -0.00459  -0.00463   1.04343
    D5       -1.06936  -0.00101   0.00000  -0.01534  -0.01549  -1.08485
    D6       -3.11773   0.00038   0.00000   0.00596   0.00604  -3.11169
    D7       -1.04801   0.00032   0.00000   0.00473   0.00476  -1.04325
    D8        3.11777  -0.00038   0.00000  -0.00602  -0.00611   3.11166
    D9        1.06940   0.00100   0.00000   0.01527   0.01543   1.08483
   D10       -3.14158  -0.00000   0.00000  -0.00008  -0.00008   3.14153
   D11        1.02270  -0.00100   0.00000  -0.01346  -0.01345   1.00925
   D12       -1.02274   0.00099   0.00000   0.01336   0.01334  -1.00940
   D13       -1.02985   0.00156   0.00000   0.02040   0.02022  -1.00963
   D14        3.13443   0.00057   0.00000   0.00702   0.00686   3.14129
   D15        1.08898   0.00256   0.00000   0.03384   0.03365   1.12263
   D16        1.02987  -0.00156   0.00000  -0.02040  -0.02022   1.00965
   D17       -1.08903  -0.00255   0.00000  -0.03378  -0.03359  -1.12262
   D18       -3.13448  -0.00056   0.00000  -0.00696  -0.00680  -3.14128
   D19        3.14107   0.00003   0.00000   0.00070   0.00070  -3.14142
   D20        1.02280  -0.00085   0.00000  -0.01180  -0.01184   1.01097
   D21       -1.02311   0.00082   0.00000   0.01164   0.01168  -1.01143
   D22       -1.02431   0.00103   0.00000   0.01419   0.01417  -1.01014
   D23        3.14061   0.00015   0.00000   0.00169   0.00163  -3.14094
   D24        1.09470   0.00182   0.00000   0.02513   0.02515   1.11985
   D25        1.02336  -0.00097   0.00000  -0.01279  -0.01277   1.01059
   D26       -1.09490  -0.00184   0.00000  -0.02528  -0.02531  -1.12021
   D27       -3.14081  -0.00017   0.00000  -0.00185  -0.00179   3.14058
   D28       -3.13946  -0.00008   0.00000  -0.00179  -0.00180  -3.14126
   D29        1.01838  -0.00007   0.00000  -0.00322  -0.00328   1.01510
   D30       -1.01603   0.00008   0.00000   0.00198   0.00203  -1.01400
   D31       -1.02684   0.00113   0.00000   0.01459   0.01451  -1.01233
   D32        3.13100   0.00114   0.00000   0.01315   0.01303  -3.13916
   D33        1.09659   0.00130   0.00000   0.01836   0.01834   1.11493
   D34        1.03050  -0.00125   0.00000  -0.01693  -0.01685   1.01365
   D35       -1.09485  -0.00124   0.00000  -0.01837  -0.01834  -1.11319
   D36       -3.12925  -0.00108   0.00000  -0.01316  -0.01303   3.14091
   D37        3.12921   0.00093   0.00000   0.01301   0.01316  -3.14082
   D38        1.00977  -0.00068   0.00000  -0.00608  -0.00596   1.00382
   D39       -1.02430  -0.00017   0.00000   0.00134   0.00109  -1.02321
   D40       -1.03427   0.00191   0.00000   0.02481   0.02486  -1.00941
   D41        3.12948   0.00029   0.00000   0.00572   0.00574   3.13523
   D42        1.09541   0.00080   0.00000   0.01314   0.01279   1.10820
   D43        1.01082  -0.00001   0.00000   0.00053   0.00075   1.01157
   D44       -1.10861  -0.00162   0.00000  -0.01857  -0.01837  -1.12698
   D45        3.14051  -0.00111   0.00000  -0.01115  -0.01133   3.12918
   D46       -2.22796  -0.00184   0.00000   0.00914   0.00855  -2.21940
   D47       -0.11922   0.00398   0.00000   0.04022   0.03965  -0.07958
   D48        1.93872   0.00017   0.00000   0.03434   0.03564   1.97436
   D49       -0.10429  -0.00239   0.00000  -0.02875  -0.02867  -0.13296
   D50        2.00445   0.00343   0.00000   0.00233   0.00243   2.00687
   D51       -2.22079  -0.00038   0.00000  -0.00355  -0.00158  -2.22237
   D52        1.93834  -0.00362   0.00000  -0.03784  -0.03922   1.89912
   D53       -2.23612   0.00220   0.00000  -0.00676  -0.00812  -2.24424
   D54       -0.17817  -0.00161   0.00000  -0.01264  -0.01213  -0.19030
   D55        0.97183   0.00125   0.00000   0.00284   0.00372   0.97554
   D56       -1.05379   0.00219   0.00000   0.01904   0.02002  -1.03377
   D57       -1.14321  -0.00458   0.00000  -0.09645  -0.09810  -1.24131
   D58        3.11436  -0.00364   0.00000  -0.08026  -0.08180   3.03256
   D59        3.10349  -0.00026   0.00000  -0.03059  -0.02991   3.07358
   D60        1.07787   0.00068   0.00000  -0.01439  -0.01361   1.06426
   D61       -1.13632  -0.00322   0.00000  -0.01090  -0.01229  -1.14861
   D62        0.99381   0.00580   0.00000   0.10156   0.10241   1.09622
   D63        3.04915   0.00099   0.00000   0.04475   0.04529   3.09444
         Item               Value     Threshold  Converged?
 Maximum Force            0.018414     0.000450     NO 
 RMS     Force            0.003553     0.000300     NO 
 Maximum Displacement     0.421506     0.001800     NO 
 RMS     Displacement     0.101937     0.001200     NO 
 Predicted change in Energy=-6.017032D-03
 GradGradGradGradGradGradGradGradGradGradGradGradGradGradGradGradGradGrad

                          Input orientation:                          
 ---------------------------------------------------------------------
 Center     Atomic      Atomic             Coordinates (Angstroms)
 Number     Number       Type             X           Y           Z
 ---------------------------------------------------------------------
      1          6           0        0.915944    0.087095    0.146846
      2          6           0        2.451139    0.027425    0.147130
      3          6           0        3.007531   -1.368631   -0.175624
      4          6           0        4.543804   -1.443592   -0.179018
      5          6           0        5.084404   -2.845820   -0.503617
      6          6           0        6.624945   -2.916872   -0.505563
      7          6           0        7.138625   -4.251494   -0.815592
      8          6           0        7.504709   -5.375752   -1.054044
      9          6           0        7.976366   -6.779865   -1.055665
     10          7           0        8.915681   -7.096038    0.025163
     11          8           0        6.885210   -7.683384   -1.085193
     12          1           0        0.545823    1.091270    0.379182
     13          1           0        0.495820   -0.600169    0.889065
     14          1           0        0.511923   -0.196298   -0.830961
     15          1           0        2.828325    0.345029    1.127410
     16          1           0        2.844185    0.746511   -0.582554
     17          1           0        2.629833   -1.686332   -1.156195
     18          1           0        2.613929   -2.088025    0.554332
     19          1           0        4.921799   -1.126489    0.801939
     20          1           0        4.937371   -0.724838   -0.909815
     21          1           0        4.710754   -3.164137   -1.483530
     22          1           0        4.693415   -3.565343    0.225153
     23          1           0        7.011166   -2.593727    0.469804
     24          1           0        7.018171   -2.206573   -1.243415
     25          1           0        8.503505   -6.976026   -1.994765
     26          1           0        8.480290   -6.863269    0.914319
     27          1           0        9.737284   -6.499438   -0.039902
     28          1           0        6.403699   -7.585994   -0.256161
 ---------------------------------------------------------------------
                    Distance matrix (angstroms):
                    1          2          3          4          5
     1  C    0.000000
     2  C    1.536355   0.000000
     3  C    2.568630   1.537112   0.000000
     4  C    3.951020   2.578664   1.538105   0.000000
     5  C    5.138205   3.951340   2.569644   1.537484   0.000000
     6  C    6.483992   5.149325   3.948620   2.570669   1.542180
     7  C    7.646659   6.419385   5.078031   3.875905   2.508600
     8  C    8.642723   7.495046   6.087139   4.999451   3.544207
     9  C    9.922235   8.849523   7.399004   6.405217   4.913748
    10  N   10.752116   9.620234   8.231024   7.148787   5.746534
    11  O    9.875748   8.979765   7.465910   6.725945   5.194532
    12  H    1.095143   2.194503   3.524049   4.766651   6.072785
    13  H    1.095320   2.183486   2.834217   4.270636   5.295055
    14  H    1.095285   2.183408   2.834059   4.270461   5.294780
    15  H    2.164541   1.097310   2.160241   2.801569   4.234579
    16  H    2.164479   1.097274   2.160115   2.801445   4.234342
    17  H    2.789332   2.160452   1.097775   2.162657   2.791986
    18  H    2.789327   2.160426   1.097855   2.162756   2.792267
    19  H    4.236604   2.804363   2.163027   1.098048   2.164951
    20  H    4.236466   2.804351   2.162820   1.097983   2.164527
    21  H    5.256350   4.236860   2.799184   2.165618   1.095979
    22  H    5.255066   4.235784   2.797923   2.165079   1.096218
    23  H    6.666547   5.269574   4.236335   2.798510   2.173364
    24  H    6.665652   5.270877   4.234095   2.799567   2.166886
    25  H   10.585143   9.500904   8.059646   7.041591   5.565283
    26  H   10.301257   9.188084   7.831355   6.787062   5.448163
    27  H   11.010601   9.783804   8.463639   7.249357   5.934076
    28  H    9.442148   8.587754   7.084917   6.418276   4.926564
                    6          7          8          9         10
     6  C    0.000000
     7  C    1.463284   0.000000
     8  C    2.668503   1.206165   0.000000
     9  C    4.129366   2.674342   1.481215   0.000000
    10  N    4.795265   3.457778   2.472835   1.466447   0.000000
    11  O    4.808673   3.451778   2.389542   1.416983   2.387609
    12  H    7.335101   8.569576   9.607424  10.919090  11.713747
    13  H    6.699125   7.769484   8.700942   9.895918  10.669428
    14  H    6.698989   7.769043   8.704916   9.955489  10.906994
    15  H    5.265067   6.594086   7.704197   9.057167   9.676794
    16  H    5.265022   6.593677   7.708754   9.121922   9.936698
    17  H    4.230659   5.198583   6.114464   7.385093   8.376898
    18  H    4.230676   5.199054   6.108662   7.304874   8.066740
    19  H    2.795665   4.158891   5.307762   6.688927   7.224265
    20  H    2.795772   4.158329   5.314417   6.776439   7.569236
    21  H    2.163721   2.742817   3.589134   4.890888   5.951253
    22  H    2.164549   2.744632   3.580126   4.769845   5.507571
    23  H    1.097693   2.101589   3.210196   4.558774   4.908736
    24  H    1.097077   2.092664   3.211896   4.676365   5.395990
    25  H    4.714174   3.267479   2.107944   1.094652   2.065043
    26  H    4.586111   3.407935   2.653096   2.035125   1.017028
    27  H    4.768466   3.522496   2.697322   2.052132   1.017445
    28  H    4.681010   3.460054   2.594997   1.939674   2.574734
                   11         12         13         14         15
    11  O    0.000000
    12  H   10.923679   0.000000
    13  H    9.741351   1.767328   0.000000
    14  H    9.835643   1.767322   1.766879   0.000000
    15  H    9.263333   2.515260   2.528000   3.081228   0.000000
    16  H    9.361926   2.515206   3.081238   2.527853   1.756535
    17  H    7.353768   3.796782   3.149103   2.609889   3.062790
    18  H    7.227719   3.796795   2.610009   3.148983   2.508812
    19  H    7.099938   4.924057   4.458015   4.793602   2.579522
    20  H    7.228153   4.923967   4.793630   4.457596   3.121374
    21  H    5.030956   6.238977   5.474377   5.183059   4.761806
    22  H    4.845537   6.237811   5.181972   5.472725   4.425340
    23  H    5.323390   7.442317   6.826404   7.048391   5.154115
    24  H    5.480708   7.443109   7.047628   6.822213   5.448514
    25  H    1.986594  11.577633  10.634427  10.544408   9.775147
    26  H    2.686060  11.247969  10.147847  10.535150   9.162405
    27  H    3.260166  11.928010  11.003136  11.201010   9.795053
    28  H    0.963655  10.488722   9.220430   9.468423   8.809012
                   16         17         18         19         20
    16  H    0.000000
    17  H    2.508732   0.000000
    18  H    3.062699   1.757132   0.000000
    19  H    3.121126   3.066076   2.512395   0.000000
    20  H    2.579417   2.511953   3.066006   1.758313   0.000000
    21  H    4.425947   2.573186   3.115698   3.069188   2.516085
    22  H    4.760686   3.114029   2.571981   2.516516   3.068573
    23  H    5.443196   4.760601   4.427028   2.574599   3.113956
    24  H    5.155541   4.419929   4.758498   3.121671   2.576152
    25  H    9.677800   7.948841   8.067066   7.407243   7.278171
    26  H    9.587234   8.081804   7.572763   6.751750   7.318475
    27  H   10.015641   8.656094   8.399754   7.264033   7.559227
    28  H    9.066825   7.061030   6.726583   6.711245   7.046478
                   21         22         23         24         25
    21  H    0.000000
    22  H    1.755239   0.000000
    23  H    3.071283   2.525047   0.000000
    24  H    2.509733   3.067155   1.756433   0.000000
    25  H    5.401557   5.574727   5.244589   5.051576   0.000000
    26  H    5.800229   5.068697   4.537059   5.336518   2.911362
    27  H    6.202765   5.841214   4.790208   5.222136   2.360262
    28  H    4.891351   4.395722   5.081218   5.503673   2.793563
                   26         27         28
    26  H    0.000000
    27  H    1.619550   0.000000
    28  H    2.490901   3.512856   0.000000
 Stoichiometry    C9H17NO
 Framework group  C1[X(C9H17NO)]
 Deg. of freedom    78
 Full point group                 C1      NOp   1
 Largest Abelian subgroup         C1      NOp   1
 Largest concise Abelian subgroup C1      NOp   1
                         Standard orientation:                         
 ---------------------------------------------------------------------
 Center     Atomic      Atomic             Coordinates (Angstroms)
 Number     Number       Type             X           Y           Z
 ---------------------------------------------------------------------
      1          6           0        5.744330    0.941608    0.149037
      2          6           0        4.678825   -0.165204    0.156243
      3          6           0        3.245835    0.366323   -0.007248
      4          6           0        2.167959   -0.730912   -0.001976
      5          6           0        0.740739   -0.183376   -0.166608
      6          6           0       -0.336955   -1.286489   -0.160337
      7          6           0       -1.694885   -0.764632   -0.318104
      8          6           0       -2.792543   -0.276981   -0.428447
      9          6           0       -4.148128    0.299124   -0.271951
     10          7           0       -4.916624   -0.274029    0.837722
     11          8           0       -4.095044    1.713269   -0.199740
     12          1           0        6.755072    0.536805    0.266819
     13          1           0        5.576383    1.654079    0.963840
     14          1           0        5.720592    1.503709   -0.790712
     15          1           0        4.746004   -0.730068    1.094595
     16          1           0        4.889448   -0.879431   -0.649690
     17          1           0        3.178900    0.931655   -0.945880
     18          1           0        3.035375    1.081148    0.798989
     19          1           0        2.234284   -1.296100    0.937105
     20          1           0        2.377895   -1.445224   -0.808977
     21          1           0        0.670710    0.379292   -1.104515
     22          1           0        0.528346    0.529672    0.638466
     23          1           0       -0.272089   -1.861395    0.772511
     24          1           0       -0.133657   -1.994430   -0.973397
     25          1           0       -4.723330    0.105431   -1.182933
     26          1           0       -4.379497   -0.169303    1.694970
     27          1           0       -5.026047   -1.276964    0.706030
     28          1           0       -3.632731    1.946415    0.612996
 ---------------------------------------------------------------------
 Rotational constants (GHZ):           3.3082942           0.2421271           0.2319692
 Standard basis: 6-31G(2df,p) (6D, 7F)
 There are   426 symmetry adapted cartesian basis functions of A   symmetry.
 There are   393 symmetry adapted basis functions of A   symmetry.
   393 basis functions,   603 primitive gaussians,   426 cartesian basis functions
    43 alpha electrons       43 beta electrons
       nuclear repulsion energy       558.2467037666 Hartrees.
 NAtoms=   28 NActive=   28 NUniq=   28 SFac= 1.00D+00 NAtFMM=   60 NAOKFM=F Big=F
 Integral buffers will be    131072 words long.
 Raffenetti 2 integral format.
 Two-electron integral symmetry is turned on.
 One-electron integrals computed using PRISM.
 PrsmSu:  requested number of processors reduced to:  13 ShMem   1 Linda.
 NBasis=   393 RedAO= T EigKep=  7.86D-05  NBF=   393
[...]
 0440,0.00001076,-0.00002479,0.00078294,-0.00021483,0.00049639,-0.00000
 562,-0.00004369,-0.00001446,0.00030613,-0.00151965,0.00136672,-0.00002
 511,-0.00034564,0.00085249,0.04961167,0.05308451,0.30998666,-0.0000040
 1,-0.00006256,0.00001226,0.00012361,0.00016443,-0.00004865,0.00130831,
 0.00038898,-0.00062303,0.00464222,0.00774529,-0.00628485,-0.10691809,-
 0.08413264,0.06745009,-0.02031022,-0.02120397,0.01823544,0.00167059,-0
 .00220523,-0.00016049,0.00009492,0.00109905,-0.00001381,-0.00015514,-0
 .00010547,0.00007860,0.00005221,0.00000449,-0.00000106,0.00012756,0.00
 006464,-0.00005007,0.00001682,-0.00000740,0.00000559,-0.00002451,-0.00
 000229,0.00000321,-0.00000130,0.00000148,-0.00000181,-0.00000175,-0.00
 002133,-0.00000647,-0.00014249,-0.00004784,0.00006214,-0.00002736,0.00
 001866,-0.00003951,0.00003597,-0.00012815,0.00028091,0.00018387,-0.000
 64965,-0.00002604,-0.00031336,0.00244069,0.00038070,0.00303942,0.00422
 695,-0.00315127,0.12138005,0.00003439,0.00003650,-0.00005643,0.0002225
 7,0.00009145,-0.00029095,-0.00192072,0.00088982,0.00046400,-0.01429558
 ,-0.02313998,0.01735387,-0.08548420,-0.16429308,0.09465934,0.00243989,
 0.00204068,-0.00215418,0.00019193,0.00111112,-0.00057067,-0.00012395,0
 .00009327,0.00012413,0.00002345,-0.00017778,0.00002230,-0.00004502,0.0
 0009002,-0.00001054,0.00001217,0.00008915,-0.00002712,0.00000417,-0.00
 000655,-0.00000134,0.00007348,-0.00000759,-0.00000675,0.00000520,-0.00
 000157,0.00000433,-0.00002825,-0.00002660,0.00000922,-0.00003148,0.000
 36764,-0.00006820,0.00014104,0.00001941,-0.00002492,0.00124580,0.00036
 707,-0.00031429,-0.00031894,0.00132487,-0.00034852,0.00237050,-0.00518
 545,-0.00198282,0.00319351,0.00396069,-0.00328636,0.09143568,0.1818565
 1,0.00000501,0.00008678,-0.00001893,-0.00029178,-0.00014144,0.00010429
 ,-0.00013155,0.00017764,0.00001586,-0.00396270,-0.00623022,0.00433726,
 0.06860553,0.09478183,-0.12652117,-0.00406437,-0.00422503,0.00312861,0
 .00022171,-0.00007979,0.00013161,-0.00003500,-0.00023124,-0.00004407,0
 .00009669,0.00009601,-0.00005734,-0.00003776,-0.00001025,-0.00000505,-
 0.00012284,-0.00004511,0.00002802,-0.00002476,-0.00000309,-0.00000184,
 -0.00000047,0.00000260,0.00001747,0.00000050,0.00000429,-0.00000597,-0
 .00000296,-0.00002424,-0.00002722,0.00005829,-0.00006088,-0.00005994,0
 .00009790,0.00008642,-0.00002005,-0.00028133,0.00018985,0.00017594,-0.
 00058225,0.00042561,0.00085474,0.00036781,-0.00204140,0.00106272,0.015
 66901,0.02138930,-0.01751753,-0.07446644,-0.10334397,0.13251081,0.0000
 0871,-0.00002141,-0.00000564,0.00005861,0.00002309,0.00011029,-0.00013
 320,-0.00015314,0.00011407,0.00165659,-0.00136694,-0.00097718,-0.00943
 696,-0.00519664,-0.03321285,-0.05221628,-0.00901192,-0.04408963,0.0011
 0855,0.00258531,0.01213972,-0.00013080,0.00141409,-0.00050656,0.000268
 23,-0.00045058,-0.00043937,-0.00014203,0.00004173,0.00003072,0.0000361
 0,0.00042359,0.00003890,0.00000477,0.00000185,0.00000019,-0.00000404,-
 0.00000267,-0.00000187,0.00000563,-0.00000603,0.00000433,-0.00002228,0
 .00005851,0.00002673,-0.00000132,0.00000131,0.00000289,0.00020206,-0.0
 0000069,0.00024196,-0.00002350,-0.00001893,-0.00002346,-0.00002420,0.0
 0068835,0.00084537,-0.00002052,0.00011264,0.00013679,-0.00651424,0.000
 97491,-0.00085083,0.00157700,-0.00039267,0.00047153,0.06118011,-0.0000
 0108,-0.00000241,-0.00001080,0.00000122,0.00000773,0.00001146,0.000053
 07,-0.00005605,0.00003080,0.00009240,0.00055171,0.00109637,-0.00025196
 ,0.00046814,0.00225283,-0.00991414,-0.05422193,-0.04634520,-0.00334767
 ,-0.01300207,-0.03253113,0.00063196,-0.00118392,0.00075002,0.00024760,
 0.00089522,0.00108505,0.00045157,-0.00056775,-0.00012724,-0.00012849,-
 0.00051307,0.00011576,0.00000348,-0.00000174,0.00000015,-0.00000300,-0
 .00000026,0.00000006,-0.00000594,0.00000100,0.00000058,0.00000849,-0.0
 0000891,-0.00001904,0.00000124,-0.00000462,0.00000514,-0.00000480,-0.0
 0007040,-0.00007178,-0.00004451,-0.00001528,-0.00000618,0.00012012,0.0
 0015588,-0.00027487,0.00000114,-0.00001051,0.00008736,0.00081302,0.000
 46619,0.00001574,-0.00006331,-0.00006637,-0.00048870,0.00727349,0.0625
 7807,-0.00000286,0.00000962,0.00000329,-0.00004596,0.00000787,-0.00000
 958,-0.00007434,0.00017026,0.00042428,0.00074139,-0.00018095,0.0002471
 4,-0.00218463,-0.00073810,-0.00607130,-0.04566406,-0.04433234,-0.27779
 432,0.00208779,-0.00737056,-0.00576239,-0.00063050,0.00152195,0.000610
 41,-0.00009881,0.00020998,0.00013256,0.00013230,-0.00014857,0.00000003
 ,0.00001191,-0.00025980,0.00003835,-0.00000551,0.00000164,-0.00000289,
 0.00000151,-0.00000095,-0.00000154,0.00000479,-0.00000050,0.00000466,-
 0.00001720,0.00001387,0.00001926,-0.00000107,0.00000457,-0.00000634,0.
 00023376,-0.00007183,0.00003662,0.00001785,0.00000263,-0.00002366,-0.0
 0038789,0.00064338,0.00043547,-0.00005403,-0.00000040,-0.00005375,-0.0
 0117438,-0.00011991,0.00141445,-0.00015094,-0.00011041,0.00084620,0.05
 044628,0.05327191,0.30353517,0.00000771,-0.00001542,-0.00000454,0.0000
 6723,0.00006948,-0.00004646,-0.00004499,0.00009798,-0.00028401,0.00147
 833,-0.00186933,0.00055128,-0.02000379,-0.02177185,0.01849574,-0.10480
 881,-0.08303388,0.06769303,0.00645947,0.00811626,-0.00812869,-0.000740
 91,0.00141217,0.00103265,0.00017263,-0.00066864,0.00041579,-0.00015496
 ,0.00007640,-0.00004678,-0.00001458,0.00025148,0.00006226,0.00000121,0
 .00000134,0.00000274,0.00000959,-0.00000264,-0.00000471,-0.00000310,-0
 .00000322,-0.00000082,-0.00000205,0.00000296,0.00000148,-0.00002077,0.
 00007123,-0.00000112,-0.00001794,-0.00002767,0.00001002,0.00033930,0.0
 0009247,-0.00009769,-0.00001347,0.00014831,-0.00002972,0.00006906,0.00
 125386,-0.00029606,0.00163931,-0.00004128,-0.00030285,-0.00626905,0.00
 124303,-0.00165402,0.00255944,0.00408193,-0.00310846,0.11933284,-0.000
 00654,0.00000096,0.00000667,-0.00003281,0.00000639,0.00000031,0.000095
 66,0.00019267,-0.00014318,0.00062537,0.00102712,-0.00046113,0.00041074
 ,0.00179271,-0.00149549,-0.08543236,-0.15904723,0.09294719,-0.01084375
 ,-0.03013955,0.01423913,0.00062776,0.00069657,-0.00059069,-0.00018552,
 0.00126705,-0.00074243,0.00061395,-0.00065299,0.00016351,0.00021388,-0
 .00037955,-0.00007007,-0.00000068,-0.00000178,0.00000044,-0.00000167,0
 .00000305,-0.00000232,-0.00000121,-0.00000045,-0.00000012,0.00000077,-
 0.00000117,-0.00000096,-0.00000213,-0.00000957,0.00000231,-0.00002652,
 -0.00001305,-0.00000174,0.00008449,-0.00012904,0.00003118,-0.00001455,
 -0.00000251,-0.00003824,-0.00017883,0.00030733,0.00024200,-0.00027932,
 -0.00000945,-0.00016694,0.00100865,0.00058694,-0.00028963,0.00299011,0
 .00456210,-0.00263540,0.09041508,0.17988224,0.00000235,-0.00001927,0.0
 0000059,0.00006894,0.00002830,-0.00001590,-0.00003278,-0.00032137,0.00
 008634,0.00011705,-0.00000572,-0.00005065,-0.00376856,-0.00402827,0.00
 327033,0.06828202,0.09154869,-0.12047975,-0.00615089,-0.00584583,0.005
 74724,0.00093629,-0.00124533,-0.00035178,0.00020647,0.00044076,-0.0001
 1862,0.00011236,-0.00024821,0.00005394,0.00003472,-0.00009287,0.000030
 11,0.00000805,-0.00000081,0.00000018,-0.00000485,-0.00000128,-0.000001
 32,-0.00000378,0.00000040,-0.00000214,0.00000464,0.00000023,-0.0000093
 0,0.00000295,-0.00000491,0.00001798,-0.00003954,-0.00000561,-0.0000305
 9,-0.00009134,0.00003383,-0.00004357,0.00007623,0.00010098,-0.00006919
 ,0.00028237,-0.00025376,0.00016830,0.00033334,-0.00056761,0.00072222,-
 0.00148746,-0.00007308,0.00104545,0.01545058,0.02129892,-0.01797510,-0
 .07431594,-0.10081135,0.12805928,0.00000361,0.00001053,0.00000528,-0.0
 0001673,-0.00001361,-0.00000829,0.00001684,0.00003596,0.00002501,-0.00
 007315,-0.00003864,-0.00002189,0.00013353,0.00015216,0.00004134,-0.000
 18834,-0.00003773,-0.00036877,-0.00002271,0.00077751,-0.00004164,0.002
 54092,0.00500093,0.01122073,-0.04782372,-0.00090843,-0.01980326,-0.011
 66933,-0.00709760,-0.03574671,-0.00418965,-0.00262461,0.02579712,-0.00
 000663,0.00000333,-0.00000055,-0.00000079,-0.00000137,0.00000060,-0.00
 000104,-0.00000055,-0.00000262,0.00000011,-0.00000070,-0.00000051,0.00
 000052,0.00000111,-0.00000005,-0.00000338,0.00000124,-0.00000729,-0.00
 000344,-0.00000136,0.00000221,-0.00000095,-0.00000294,-0.00000264,0.00
 000164,-0.00000271,-0.00000139,-0.00000805,0.00000986,-0.00002704,-0.0
 0000236,-0.00000535,0.00001118,-0.00002447,0.00002881,-0.00000491,-0.0
 0006175,0.00011511,-0.00001322,0.06664254,-0.00001044,-0.00002952,-0.0
 0001210,0.00004166,0.00004013,0.00001980,-0.00004802,-0.00008320,-0.00
 005105,0.00015731,0.00008567,0.00002383,-0.00031748,-0.00028629,-0.000
 03789,-0.00014341,-0.00021501,0.00089243,0.00071791,-0.00044065,0.0000
 7421,0.00149809,-0.01229742,-0.02938276,-0.00255970,-0.05958117,-0.060
 58495,0.00113899,0.00311416,0.00575905,-0.00650289,0.00204792,0.030288
 28,0.00001926,-0.00001167,0.00000034,0.00000281,0.00000489,-0.00000076
 ,0.00000281,0.00000331,0.00000565,-0.00000089,-0.00000142,-0.00000013,
 -0.00000149,-0.00000403,-0.00000030,0.00001029,0.00000008,0.00001282,0
 .00001237,0.00000403,-0.00000364,0.00000158,-0.00000142,0.00000723,-0.
 00000241,0.00000966,0.00000088,0.00002264,0.00000388,0.00004092,0.0000
 2031,0.00001912,-0.00001663,0.00016135,-0.00010040,-0.00001569,0.00027
 473,-0.00035836,0.00002198,0.00679756,0.06932556,-0.00000241,-0.000006
 70,-0.00000452,0.00001039,0.00000953,0.00000421,-0.00001113,-0.0000225
 9,-0.00001686,0.00003806,0.00002539,0.00002155,-0.00005531,-0.00007076
 ,-0.00005481,0.00012507,-0.00007839,0.00001066,-0.00064256,0.00126745,
 0.00021206,0.00202087,-0.00859538,-0.00403022,-0.02263839,-0.04709509,
 -0.28649774,-0.00506508,-0.00237416,-0.01020191,0.00883971,0.00431621,
 -0.02091327,0.00000454,-0.00000240,0.00000016,-0.00000003,0.00000054,-
 0.00000012,0.00000123,0.00000064,0.00000279,0.00000021,0.00000092,0.00
 000176,-0.00000074,-0.00000206,0.00000016,0.00000342,-0.00000033,0.000
 00643,-0.00000006,-0.00000015,-0.00000035,0.00000066,0.00000289,0.0000
 0369,-0.00000215,-0.00000623,0.00000032,0.00000778,0.00000091,0.000021
 12,-0.00000786,0.00000270,-0.00000004,-0.00001244,0.00005752,0.0000388
 7,0.00002637,-0.00003053,-0.00000844,0.01935653,0.04934292,0.31889792,
 -0.00000732,-0.00002065,-0.00000852,0.00002763,0.00003121,0.00001519,-
 0.00003233,-0.00005925,-0.00002855,0.00008694,0.00006950,0.00002982,-0
 .00014204,-0.00016162,-0.00006005,-0.00003087,0.00024437,0.00001866,0.
 00001985,0.00065643,0.00062834,0.00201113,-0.00189801,-0.00003603,-0.0
 0851234,-0.01858363,-0.03874165,-0.06999159,-0.03656366,-0.04486055,-0
 .00023948,0.00039057,0.00220418,0.00001498,-0.00001056,-0.00000029,0.0
 0000125,0.00000384,0.00000009,0.00000127,0.00000306,0.00000321,0.00000
 007,-0.00000205,-0.00000266,-0.00000098,-0.00000467,0.00000120,0.00000
 422,0.00000065,0.00000492,0.00000323,0.00000178,-0.00000075,0.00000199
 ,-0.00000653,-0.00000517,-0.00000178,-0.00001199,0.00000395,-0.0000042
 2,0.00000905,0.00001208,-0.00000735,0.00000932,-0.00000389,0.00003408,
 -0.00009365,-0.00004982,0.00003979,-0.00010737,0.00001035,-0.00639741,
 0.00106005,-0.00185430,0.07859524,0.00000973,0.00002429,0.00000837,-0.
 00002947,-0.00003433,-0.00001890,0.00004019,0.00006741,0.00002673,-0.0
 0009241,-0.00007204,-0.00003956,0.00016239,0.00015988,0.00005464,0.000
 02894,-0.00020960,-0.00016581,-0.00011080,-0.00004263,-0.00019495,-0.0
 0116306,0.00215877,0.00286389,0.01049212,-0.00229685,0.00778397,-0.053
 17723,-0.11881710,-0.19635010,-0.00154135,-0.00134158,0.00118525,-0.00
 001706,0.00001212,0.00000025,-0.00000377,-0.00000585,0.00000104,-0.000
 00121,-0.00000328,-0.00000312,0.00000053,0.00000410,0.00000348,-0.0000
 0027,0.00000196,0.00000103,-0.00000387,-0.00000098,-0.00000327,-0.0000
 0954,-0.00000510,0.00000290,0.00000049,0.00001144,0.00000768,0.0000003
 7,0.00000322,0.00000232,-0.00000174,-0.00001003,-0.00000611,-0.0000167
 2,-0.00001646,0.00000468,-0.00000366,0.00008185,0.00003472,-0.00002741
 ,0.00010097,0.00001665,0.00200464,0.00155846,0.00057432,0.04250011,0.1
 1484576,-0.00000559,-0.00001617,-0.00000562,0.00002177,0.00002101,0.00
 001383,-0.00002530,-0.00005108,-0.00001937,0.00007219,0.00005250,0.000
 04064,-0.00009633,-0.00014602,-0.00007841,-0.00002582,0.00020623,0.000
 03287,0.00026277,-0.00023954,-0.00004136,0.00204006,0.00072499,0.00139
 524,-0.00204489,-0.00607973,-0.00946133,-0.05119446,-0.14203173,-0.307
 54634,-0.00112738,0.00003836,0.00073872,0.00001062,-0.00000691,0.00000
 012,0.00000228,0.00000351,-0.00000054,0.00000047,0.00000190,0.00000146
 ,-0.00000052,-0.00000269,-0.00000314,0.00000004,-0.00000078,-0.0000007
 0,0.00000158,0.00000064,0.00000158,0.00000617,0.00000384,-0.00000163,-
 0.00000084,-0.00000997,-0.00000967,-0.00000095,-0.00000551,-0.00000270
 ,-0.00000913,0.00001015,0.00000253,0.00000873,0.00001563,-0.00000105,0
 .00000529,-0.00010863,-0.00003049,-0.00001907,-0.00004926,-0.00003352,
 -0.00256292,0.00044000,0.00154863,0.06096026,0.16645703,0.33823511,-0.
 00000606,-0.00001653,-0.00000581,0.00002124,0.00002425,0.00001212,-0.0
 0002604,-0.00004775,-0.00001745,0.00006566,0.00005040,0.00003397,-0.00
 009306,-0.00012302,-0.00006578,0.00003407,0.00014015,0.00019344,0.0000
 7040,0.00036660,-0.00013907,-0.00025362,0.00101086,-0.00071913,-0.0191
 2646,-0.01751527,0.02866717,-0.16460280,-0.08624251,0.13712376,-0.0080
 9381,-0.00095291,-0.00114266,0.00001195,-0.00000861,-0.00000047,0.0000
 0162,0.00000348,-0.00000029,0.00000058,0.00000257,0.00000202,-0.000000
 03,-0.00000253,-0.00000298,-0.00000038,-0.00000227,0.00000058,0.000001
 71,0.00000059,0.00000184,0.00000475,0.00000232,-0.00000180,0.00000012,
 -0.00000653,-0.00000860,0.00000006,-0.00000537,0.00000070,-0.00000501,
 0.00000329,0.00000351,0.00000450,0.00001120,-0.00000661,0.00000653,-0.
 00002239,-0.00002747,0.00001538,-0.00007391,-0.00001714,0.00139872,-0.
 00048459,-0.00043842,0.00519308,0.00219687,-0.00662154,0.18567784,0.00
 000669,0.00001549,0.00000747,-0.00001725,-0.00002412,-0.00001242,0.000
 02490,0.00003938,0.00002078,-0.00004706,-0.00004006,-0.00004114,0.0000
 7307,0.00007086,0.00009244,-0.00003252,-0.00010738,-0.00021221,-0.0001
 1077,-0.00041321,0.00012821,0.00132587,-0.00039023,0.00063476,0.014827
 52,-0.00478495,-0.00130685,-0.12468747,-0.08179429,0.13328991,-0.00577
 709,-0.00040781,0.00003632,-0.00001225,0.00000970,0.00000058,-0.000001
 64,-0.00000374,0.00000009,-0.00000118,-0.00000282,-0.00000342,-0.00000
 045,0.00000221,0.00000145,0.00000033,0.00000314,0.00000019,-0.00000290
 ,-0.00000061,-0.00000391,-0.00000332,-0.00000167,-0.00000001,-0.000000
 33,0.00000307,0.00000552,-0.00000036,0.00000773,0.00000225,-0.00000310
 ,0.00000132,-0.00000774,-0.00000155,-0.00000934,-0.00000399,-0.0000026
 1,-0.00001148,0.00001142,-0.00000632,0.00006586,0.00002674,-0.00055124
 ,0.00042133,-0.00061341,0.01306241,0.00338701,-0.01872440,0.10172860,0
 .08411115,0.00000313,0.00000861,0.00000421,-0.00001187,-0.00001140,-0.
 00000594,0.00001402,0.00002629,0.00001333,-0.00003839,-0.00002584,-0.0
 0002163,0.00005032,0.00006753,0.00005683,-0.00000036,-0.00009827,-0.00
 006042,-0.00016698,0.00015648,0.00012953,-0.00053325,-0.00006525,-0.00
 004413,-0.00740641,-0.00201546,0.00591335,0.14724408,0.09859074,-0.243
 82681,-0.00286603,-0.00132431,0.00184174,-0.00000573,0.00000361,0.,-0.
 00000084,-0.00000150,0.00000010,-0.00000096,-0.00000119,-0.00000207,0.
 00000019,0.00000066,-0.00000035,0.00000057,0.00000147,0.00000043,-0.00
 000293,-0.00000069,-0.00000389,-0.00000221,-0.00000128,0.00000024,0.00
 000143,0.00000169,0.00000024,0.00000123,0.00000515,0.00000216,-0.00000
 533,-0.00000301,-0.00000795,-0.00000206,-0.00000753,-0.00000211,0.0000
 0450,0.00002984,0.00000461,0.00000664,0.00004189,0.00002944,-0.0006972
 5,-0.00064812,0.00087971,0.02130620,0.01832153,-0.02483410,-0.15609344
 ,-0.11302248,0.25989024,0.00000223,0.00000344,-0.00000451,-0.00000992,
 0.00000703,0.00000371,0.00001773,0.00003152,-0.00001333,-0.00007040,-0
 .00001290,0.00002038,0.00017159,0.00013890,-0.00007714,0.00005071,-0.0
 0002278,0.00011353,-0.00020601,-0.00002148,-0.00004983,0.00027217,-0.0
 0023495,-0.00171548,-0.00608158,0.00532379,0.02813705,-0.00028649,0.00
 031675,0.00005056,-0.02340952,-0.00567809,0.05502770,0.00000252,-0.000
 00729,-0.00000112,-0.00000545,-0.00000022,0.00000497,-0.00000014,0.000
 00297,-0.00000016,0.00000214,-0.00000063,-0.00000367,-0.00000207,-0.00
 001192,0.00000374,-0.00000196,0.00000174,-0.00000362,-0.00001996,-0.00
 000723,0.00001571,0.00000638,-0.00000074,-0.00001177,-0.00000148,-0.00
 004214,0.00000640,-0.00000879,-0.00000315,-0.00001007,-0.00008007,-0.0
 0001115,0.00006357,-0.00001257,0.00007141,0.00000527,-0.00003511,-0.00
 001438,-0.00000321,-0.00024454,-0.00186840,0.00029605,-0.00066703,-0.0
 0123683,0.00034250,-0.00030097,0.00021000,-0.00079825,0.03091859,0.000
 01569,0.00003809,0.00001363,-0.00004286,-0.00005442,-0.00002740,0.0000
 6316,0.00009031,0.00004063,-0.00009531,-0.00008900,-0.00006555,0.00019
 610,0.00011800,0.00013196,0.00018239,-0.00018797,-0.00021481,0.0004379
 2,-0.00119904,-0.00092991,-0.00026343,0.00331869,0.00200332,-0.0086823
 0,0.00236012,0.03710601,0.00046194,-0.00042122,-0.00037713,0.00916786,
 -0.07678268,-0.16410567,-0.00002718,0.00001935,0.00000058,-0.00000486,
 -0.00000897,0.00000166,-0.00000243,-0.00000542,-0.00000616,0.00000033,
 0.00000541,0.00000397,-0.00000042,0.00000554,0.00000075,-0.00000836,-0
 .00000100,-0.00000868,-0.00000964,-0.00000619,0.00000319,-0.00000273,0
 .00000716,0.00000700,-0.00000392,0.00001983,0.00000049,-0.00000637,-0.
 00000226,-0.00002269,0.00002881,-0.00001349,-0.00000937,-0.00012244,0.
 00006927,0.00008158,-0.00014107,0.00025273,0.00000783,-0.00365190,-0.0
 0322762,0.00329627,-0.00051871,0.00043859,-0.00050336,-0.00003698,-0.0
 0014655,-0.00002917,0.00306672,0.07540276,-0.00000786,-0.00002284,-0.0
 0000708,0.00002880,0.00003175,0.00002015,-0.00003543,-0.00006866,-0.00
 002045,0.00008168,0.00006135,0.00006726,-0.00012373,-0.00015474,-0.000
 13152,0.00010793,0.00026275,0.00004511,0.00003424,-0.00046403,-0.00012
 952,-0.00180523,-0.00061691,0.00252970,0.00172494,-0.00723322,-0.02290
 804,-0.00065103,0.00016048,0.00180355,0.07935023,-0.11824685,-0.455203
 54,0.00001516,-0.00001063,-0.00000019,0.00000361,0.00000550,-0.0000001
 1,0.00000034,0.00000328,0.00000078,-0.00000085,-0.00000600,-0.00000587
 ,0.00000016,-0.00000195,-0.00000138,0.00000135,0.00000292,-0.00000234,
 0.00000828,0.00000617,0.00000038,-0.00000156,-0.00001495,-0.00001694,0
 .00000139,-0.00001193,-0.00000528,-0.00000447,0.00001710,-0.00001046,0
 .00000413,0.00002259,0.00002333,0.00004969,-0.00012593,-0.00006002,0.0
 0004295,-0.00014513,-0.00004151,0.00285094,0.00382365,0.00007824,0.000
 45376,-0.00056864,0.00005924,-0.00073042,-0.00030616,0.00004324,-0.081
 39901,0.12360104,0.47387327\\-0.00000049,0.00000034,0.00000010,0.00000
 025,0.00000053,0.00000023,-0.00000005,-0.00000098,-0.00000025,0.000001
 48,-0.00000078,0.00000022,0.00000030,0.00000120,0.00000126,-0.00000519
 ,-0.00000029,0.00000278,0.00000211,0.00000009,-0.00000037,0.00000194,0
 .00000079,-0.00000124,-0.00000240,0.00000160,-0.00000006,0.00000205,-0
 .00000149,0.00000158,-0.00000280,-0.00000257,-0.00000097,-0.00000057,0
 .00000008,-0.00000029,0.,0.,-0.00000038,0.00000025,0.00000009,-0.00000
 018,-0.00000040,-0.00000017,-0.00000014,-0.00000007,-0.00000019,0.,0.0
 0000023,0.00000014,0.00000010,-0.00000012,0.00000022,-0.00000027,-0.00
 000044,-0.00000008,-0.00000025,0.00000001,0.00000023,0.00000001,0.0000
 0038,-0.00000016,-0.00000003,0.00000033,-0.00000014,-0.00000028,0.0000
 0109,0.00000125,-0.00000041,-0.00000008,-0.00000125,-0.00000122,0.0000
 0199,0.00000015,0.00000071,-0.00000051,0.00000018,-0.00000029,0.000001
 30,0.00000097,-0.00000033,-0.00000059,0.00000024,-0.00000004\\\@


 TIMES HAVE CHANGED. IN THE BIBLE WHEN AN ASS
 SPOKE IT WAS CONSIDERED A MIRACLE.
 Job cpu time:       0 days  3 hours 10 minutes  0.3 seconds.
 Elapsed time:       0 days  0 hours 47 minutes 30.6 seconds.
 File lengths (MBytes):  RWF=    314 Int=      0 D2E=      0 Chk=     14 Scr=      1
 Normal termination of Gaussian 16 at Tue Jun  1 04:46:02 2021.
### All Done ###
