### Starting Gaussian ###
 Entering Gaussian System, Link 0=g16
 Initial command:
 /cluster/software/gaussian/gaussian-16-A.03/avx2/g16/l1.exe "/local/scratch/cz9n3/Gau-31685.inp" -scrdir="/local/scratch/cz9n3/"
 Entering Link 1 = /cluster/software/gaussian/gaussian-16-A.03/avx2/g16/l1.exe PID=     31686.
  
 Copyright (c) 1988,1990,1992,1993,1995,1998,2003,2009,2016,
            Gaussian, Inc.  All Rights Reserved.
  
 This is part of the Gaussian(R) 16 program.  It is based on
 the Gaussian(R) 09 system (copyright 2009, Gaussian, Inc.),
 the Gaussian(R) 03 system (copyright 2003, Gaussian, Inc.),
 the Gaussian(R) 98 system (copyright 1998, Gaussian, Inc.),
 the Gaussian(R) 94 system (copyright 1995, Gaussian, Inc.),
 the Gaussian 92(TM) system (copyright 1992, Gaussian, Inc.),
 the Gaussian 90(TM) system (copyright 1990, Gaussian, Inc.),
 the Gaussian 88(TM) system (copyright 1988, Gaussian, Inc.),
 the Gaussian 86(TM) system (copyright 1986, Carnegie Mellon
 University), and the Gaussian 82(TM) system (copyright 1983,
 Carnegie Mellon University). Gaussian is a federally registered
 trademark of Gaussian, Inc.
  
 This software contains proprietary and confidential information,
 including trade secrets, belonging to Gaussian, Inc.
  
 This software is provided under written license and may be
 used, copied, transmitted, or stored only in accord with that
 written license.
  
 The following legend is applicable only to US Government
 contracts under FAR:
  
                    RESTRICTED RIGHTS LEGEND
  
 Use, reproduction and disclosure by the US Government is
 subject to restrictions as set forth in subparagraphs (a)
 and (c) of the Commercial Computer Software - Restricted
 Rights clause in FAR 52.227-19.
  
 Gaussian, Inc.
 340 Quinnipiac St., Bldg. 40, Wallingford CT 06492
  
  
 ---------------------------------------------------------------
 Warning -- This program may not be used in any manner that
 competes with the business of Gaussian, Inc. or will provide
 assistance to any competitor of Gaussian, Inc.  The licensee
 of this program is prohibited from giving any competitor of
 Gaussian, Inc. access to this program.  By using this program,
 the user acknowledges that Gaussian, Inc. is engaged in the
 business of creating and licensing software in the field of
 computational chemistry and represents and warrants to the
 licensee that it is not a competitor of Gaussian, Inc. and that
 it will not use this program in any manner prohibited above.
 ---------------------------------------------------------------
  

 Cite this work as:
 Gaussian 16, Revision A.03,
 M. J. Frisch, G. W. Trucks, H. B. Schlegel, G. E. Scuseria, 
 M. A. Robb, J. R. Cheeseman, G. Scalmani, V. Barone, 
 G. A. Petersson, H. Nakatsuji, X. Li, M. Caricato, A. V. Marenich, 
 J. Bloino, B. G. Janesko, R. Gomperts, B. Mennucci, H. P. Hratchian, 
 J. V. Ortiz, A. F. Izmaylov, J. L. Sonnenberg, D. Williams-Young, 
 F. Ding, F. Lipparini, F. Egidi, J. Goings, B. Peng, A. Petrone, 
 T. Henderson, D. Ranasinghe, V. G. Zakrzewski, J. Gao, N. Rega, 
 G. Zheng, W. Liang, M. Hada, M. Ehara, K. Toyota, R. Fukuda, 
 J. Hasegawa, M. Ishida, T. Nakajima, Y. Honda, O. Kitao, H. Nakai, 
 T. Vreven, K. Throssell, J. A. Montgomery, Jr., J. E. Peralta, 
 F. Ogliaro, M. J. Bearpark, J. J. Heyd, E. N. Brothers, K. N. Kudin, 
 V. N. Staroverov, T. A. Keith, R. Kobayashi, J. Normand, 
 K. Raghavachari, A. P. Rendell, J. C. Burant, S. S. Iyengar, 
 J. Tomasi, M. Cossi, J. M. Millam, M. Klene, C. Adamo, R. Cammi, 
 J. W. Ochterski, R. L. Martin, K. Morokuma, O. Farkas, 
 J. B. Foresman, and D. J. Fox, Gaussian, Inc., Wallingford CT, 2016.
 
 ******************************************
 Gaussian 16:  ES64L-G16RevA.03 25-Dec-2016
                 1-Jun-2021 
 ******************************************
 %chk=CCCCCNpCpCdNN.chk
 %NProcShared=20
 Will use up to   20 processors via shared memory.
 -----------------------------
 # opt freq b3lyp/6-31g(2df,p)
 -----------------------------
 1/18=20,19=15,26=3,38=1/1,3;
 2/9=110,12=2,17=6,18=5,40=1/2;
 3/5=1,6=6,7=104,11=2,25=1,30=1,71=1,74=-5/1,2,3;
 4//1;
 5/5=2,38=5/2;
 6/7=2,8=2,9=2,10=2,28=1/1;
 7//1,2,3,16;
 1/18=20,19=15,26=3/3(2);
 2/9=110/2;
 99//99;
 2/9=110/2;
 3/5=1,6=6,7=104,11=2,25=1,30=1,71=1,74=-5/1,2,3;
 4/5=5,16=3,69=1/1;
 5/5=2,38=5/2;
 7//1,2,3,16;
 1/18=20,19=15,26=3/3(-5);
 2/9=110/2;
 6/7=2,8=2,9=2,10=2,19=2,28=1/1;
 99/9=1/99;
 -------------------
 Title Card Required
 -------------------
 Symbolic Z-matrix:
 Charge =  0 Multiplicity = 1
 C                     0.8747   -0.0005    0.02008 
 C                     2.39031   0.00572   0.05346 
 C                     2.89976   0.27017   1.47244 
 C                     4.42044   0.27187   1.48157 
 C                     5.03302   0.52871   2.85972 
 N                     6.50052   0.52914   2.86201 
 C                     7.2648    0.30129   1.63943 
 C                     7.22308   0.74487   4.01953 
 N                     8.52298   0.75475   4.07258 
 N                     9.07876   0.97532   5.25613 
 H                     0.51517  -0.18975  -0.99538 
 H                     0.47864   0.96424   0.35169 
 H                     0.47864  -0.78102   0.67695 
 H                     2.76739   0.77434  -0.63273 
 H                     2.76739  -0.95848  -0.30979 
 H                     2.52488  -0.50348   2.15196 
 H                     2.52488   1.23666   1.82766 
 H                     4.76237   1.045     0.78164 
 H                     4.76237  -0.70147   1.10712 
 H                     4.67488  -0.23759   3.5589 
 H                     4.67488   1.49543   3.23592 
 H                     6.66958   0.13407   0.74215 
 H                     7.89584  -0.5856    1.75528 
 H                     7.89584   1.17038   1.42802 
 H                     6.58837   0.91066   4.90913 
 H                     10.0923   0.98393   5.30229 
 H                     8.55237   1.1334    6.10434 
 

 GradGradGradGradGradGradGradGradGradGradGradGradGradGradGradGradGradGrad
 Berny optimization.
 Initialization pass.
                           ----------------------------
                           !    Initial Parameters    !
                           ! (Angstroms and Degrees)  !
 --------------------------                            --------------------------
 ! Name  Definition              Value          Derivative Info.                !
 --------------------------------------------------------------------------------
 ! R1    R(1,2)                  1.516          estimate D2E/DX2                !
 ! R2    R(1,11)                 1.0937         estimate D2E/DX2                !
 ! R3    R(1,12)                 1.0943         estimate D2E/DX2                !
 ! R4    R(1,13)                 1.0943         estimate D2E/DX2                !
 ! R5    R(2,3)                  1.5307         estimate D2E/DX2                !
 ! R6    R(2,14)                 1.0972         estimate D2E/DX2                !
 ! R7    R(2,15)                 1.0972         estimate D2E/DX2                !
 ! R8    R(3,4)                  1.5207         estimate D2E/DX2                !
 ! R9    R(3,16)                 1.0958         estimate D2E/DX2                !
 ! R10   R(3,17)                 1.0958         estimate D2E/DX2                !
 ! R11   R(4,5)                  1.5299         estimate D2E/DX2                !
 ! R12   R(4,18)                 1.0975         estimate D2E/DX2                !
 ! R13   R(4,19)                 1.0975         estimate D2E/DX2                !
 ! R14   R(5,6)                  1.4675         estimate D2E/DX2                !
 ! R15   R(5,20)                 1.0974         estimate D2E/DX2                !
 ! R16   R(5,21)                 1.0974         estimate D2E/DX2                !
 ! R17   R(6,7)                  1.4597         estimate D2E/DX2                !
 ! R18   R(6,8)                  1.3815         estimate D2E/DX2                !
 ! R19   R(7,22)                 1.0897         estimate D2E/DX2                !
 ! R20   R(7,23)                 1.0946         estimate D2E/DX2                !
 ! R21   R(7,24)                 1.0946         estimate D2E/DX2                !
 ! R22   R(8,9)                  1.301          estimate D2E/DX2                !
 ! R23   R(8,25)                 1.1053         estimate D2E/DX2                !
 ! R24   R(9,10)                 1.326          estimate D2E/DX2                !
 ! R25   R(10,26)                1.0146         estimate D2E/DX2                !
 ! R26   R(10,27)                1.0107         estimate D2E/DX2                !
 ! A1    A(2,1,11)             110.4745         estimate D2E/DX2                !
 ! A2    A(2,1,12)             110.5816         estimate D2E/DX2                !
 ! A3    A(2,1,13)             110.5815         estimate D2E/DX2                !
 ! A4    A(11,1,12)            108.3556         estimate D2E/DX2                !
 ! A5    A(11,1,13)            108.3555         estimate D2E/DX2                !
 ! A6    A(12,1,13)            108.4153         estimate D2E/DX2                !
 ! A7    A(1,2,3)              110.7238         estimate D2E/DX2                !
 ! A8    A(1,2,14)             109.4325         estimate D2E/DX2                !
 ! A9    A(1,2,15)             109.4326         estimate D2E/DX2                !
 ! A10   A(3,2,14)             110.1424         estimate D2E/DX2                !
 ! A11   A(3,2,15)             110.1424         estimate D2E/DX2                !
 ! A12   A(14,2,15)            106.8852         estimate D2E/DX2                !
 ! A13   A(2,3,4)              109.7903         estimate D2E/DX2                !
 ! A14   A(2,3,16)             109.8171         estimate D2E/DX2                !
 ! A15   A(2,3,17)             109.8172         estimate D2E/DX2                !
 ! A16   A(4,3,16)             109.8257         estimate D2E/DX2                !
 ! A17   A(4,3,17)             109.8258         estimate D2E/DX2                !
 ! A18   A(16,3,17)            107.7362         estimate D2E/DX2                !
 ! A19   A(3,4,5)              113.9538         estimate D2E/DX2                !
 ! A20   A(3,4,18)             107.9689         estimate D2E/DX2                !
 ! A21   A(3,4,19)             107.9692         estimate D2E/DX2                !
 ! A22   A(5,4,18)             109.3587         estimate D2E/DX2                !
 ! A23   A(5,4,19)             109.359          estimate D2E/DX2                !
 ! A24   A(18,4,19)            108.0646         estimate D2E/DX2                !
 ! A25   A(4,5,6)              113.6949         estimate D2E/DX2                !
 ! A26   A(4,5,20)             109.0277         estimate D2E/DX2                !
 ! A27   A(4,5,21)             109.0274         estimate D2E/DX2                !
 ! A28   A(6,5,20)             108.9993         estimate D2E/DX2                !
 ! A29   A(6,5,21)             108.9991         estimate D2E/DX2                !
 ! A30   A(20,5,21)            106.8701         estimate D2E/DX2                !
 ! A31   A(5,6,7)              121.4821         estimate D2E/DX2                !
 ! A32   A(5,6,8)              121.6269         estimate D2E/DX2                !
 ! A33   A(7,6,8)              116.891          estimate D2E/DX2                !
 ! A34   A(6,7,22)             115.3173         estimate D2E/DX2                !
 ! A35   A(6,7,23)             109.8567         estimate D2E/DX2                !
 ! A36   A(6,7,24)             109.8566         estimate D2E/DX2                !
 ! A37   A(22,7,23)            106.1239         estimate D2E/DX2                !
 ! A38   A(22,7,24)            106.1234         estimate D2E/DX2                !
 ! A39   A(23,7,24)            109.3527         estimate D2E/DX2                !
 ! A40   A(6,8,9)              123.9131         estimate D2E/DX2                !
 ! A41   A(6,8,25)             113.4182         estimate D2E/DX2                !
 ! A42   A(9,8,25)             122.6687         estimate D2E/DX2                !
 ! A43   A(8,9,10)             117.157          estimate D2E/DX2                !
 ! A44   A(9,10,26)            117.4324         estimate D2E/DX2                !
 ! A45   A(9,10,27)            123.8334         estimate D2E/DX2                !
 ! A46   A(26,10,27)           118.7342         estimate D2E/DX2                !
 ! D1    D(11,1,2,3)          -179.9999         estimate D2E/DX2                !
 ! D2    D(11,1,2,14)           58.4063         estimate D2E/DX2                !
 ! D3    D(11,1,2,15)          -58.406          estimate D2E/DX2                !
 ! D4    D(12,1,2,3)            60.0482         estimate D2E/DX2                !
 ! D5    D(12,1,2,14)          -61.5457         estimate D2E/DX2                !
 ! D6    D(12,1,2,15)         -178.358          estimate D2E/DX2                !
 ! D7    D(13,1,2,3)           -60.0481         estimate D2E/DX2                !
 ! D8    D(13,1,2,14)          178.3581         estimate D2E/DX2                !
 ! D9    D(13,1,2,15)           61.5458         estimate D2E/DX2                !
 ! D10   D(1,2,3,4)            180.0            estimate D2E/DX2                !
 ! D11   D(1,2,3,16)            59.149          estimate D2E/DX2                !
 ! D12   D(1,2,3,17)           -59.1488         estimate D2E/DX2                !
 ! D13   D(14,2,3,4)           -58.8249         estimate D2E/DX2                !
 ! D14   D(14,2,3,16)         -179.6759         estimate D2E/DX2                !
 ! D15   D(14,2,3,17)           62.0263         estimate D2E/DX2                !
 ! D16   D(15,2,3,4)            58.8248         estimate D2E/DX2                !
 ! D17   D(15,2,3,16)          -62.0262         estimate D2E/DX2                !
 ! D18   D(15,2,3,17)          179.676          estimate D2E/DX2                !
 ! D19   D(2,3,4,5)           -180.0            estimate D2E/DX2                !
 ! D20   D(2,3,4,18)            58.3046         estimate D2E/DX2                !
 ! D21   D(2,3,4,19)           -58.3039         estimate D2E/DX2                !
 ! D22   D(16,3,4,5)           -59.1542         estimate D2E/DX2                !
 ! D23   D(16,3,4,18)          179.1504         estimate D2E/DX2                !
 ! D24   D(16,3,4,19)           62.5419         estimate D2E/DX2                !
 ! D25   D(17,3,4,5)            59.154          estimate D2E/DX2                !
 ! D26   D(17,3,4,18)          -62.5414         estimate D2E/DX2                !
 ! D27   D(17,3,4,19)         -179.1499         estimate D2E/DX2                !
 ! D28   D(3,4,5,6)           -179.9998         estimate D2E/DX2                !
 ! D29   D(3,4,5,20)            58.1684         estimate D2E/DX2                !
 ! D30   D(3,4,5,21)           -58.1686         estimate D2E/DX2                !
 ! D31   D(18,4,5,6)           -59.0762         estimate D2E/DX2                !
 ! D32   D(18,4,5,20)          179.092          estimate D2E/DX2                !
 ! D33   D(18,4,5,21)           62.755          estimate D2E/DX2                !
 ! D34   D(19,4,5,6)            59.0759         estimate D2E/DX2                !
 ! D35   D(19,4,5,20)          -62.7558         estimate D2E/DX2                !
 ! D36   D(19,4,5,21)         -179.0928         estimate D2E/DX2                !
 ! D37   D(4,5,6,7)             -0.0003         estimate D2E/DX2                !
 ! D38   D(4,5,6,8)            179.9996         estimate D2E/DX2                !
 ! D39   D(20,5,6,7)           121.8472         estimate D2E/DX2                !
 ! D40   D(20,5,6,8)           -58.1528         estimate D2E/DX2                !
 ! D41   D(21,5,6,7)          -121.8472         estimate D2E/DX2                !
 ! D42   D(21,5,6,8)            58.1527         estimate D2E/DX2                !
 ! D43   D(5,6,7,22)             0.0004         estimate D2E/DX2                !
 ! D44   D(5,6,7,23)          -119.8335         estimate D2E/DX2                !
 ! D45   D(5,6,7,24)           119.8335         estimate D2E/DX2                !
 ! D46   D(8,6,7,22)          -179.9995         estimate D2E/DX2                !
 ! D47   D(8,6,7,23)            60.1665         estimate D2E/DX2                !
 ! D48   D(8,6,7,24)           -60.1664         estimate D2E/DX2                !
 ! D49   D(5,6,8,9)            179.9995         estimate D2E/DX2                !
 ! D50   D(5,6,8,25)             0.0002         estimate D2E/DX2                !
 ! D51   D(7,6,8,9)             -0.0006         estimate D2E/DX2                !
 ! D52   D(7,6,8,25)          -179.9998         estimate D2E/DX2                !
 ! D53   D(6,8,9,10)          -179.9994         estimate D2E/DX2                !
 ! D54   D(25,8,9,10)           -0.0002         estimate D2E/DX2                !
 ! D55   D(8,9,10,26)         -179.9992         estimate D2E/DX2                !
 ! D56   D(8,9,10,27)            0.0            estimate D2E/DX2                !
 ! D57   D(9,10,26,27)         179.9992         estimate D2E/DX2                !
 --------------------------------------------------------------------------------
 Trust Radius=3.00D-01 FncErr=1.00D-07 GrdErr=1.00D-06 EigMax=2.50D+02 EigMin=1.00D-04
 Number of steps in this run=    139 maximum allowed number of steps=    162.
 GradGradGradGradGradGradGradGradGradGradGradGradGradGradGradGradGradGrad

                          Input orientation:                          
 ---------------------------------------------------------------------
 Center     Atomic      Atomic             Coordinates (Angstroms)
 Number     Number       Type             X           Y           Z
 ---------------------------------------------------------------------
      1          6           0        0.874700   -0.000500    0.020080
      2          6           0        2.390310    0.005720    0.053460
      3          6           0        2.899760    0.270170    1.472440
      4          6           0        4.420440    0.271870    1.481570
      5          6           0        5.033020    0.528710    2.859720
      6          7           0        6.500520    0.529140    2.862010
      7          6           0        7.264800    0.301290    1.639430
      8          6           0        7.223080    0.744870    4.019530
      9          7           0        8.522980    0.754750    4.072580
     10          7           0        9.078760    0.975320    5.256130
     11          1           0        0.515170   -0.189750   -0.995380
     12          1           0        0.478640    0.964240    0.351690
     13          1           0        0.478640   -0.781020    0.676950
     14          1           0        2.767390    0.774340   -0.632730
     15          1           0        2.767390   -0.958480   -0.309790
     16          1           0        2.524880   -0.503480    2.151960
     17          1           0        2.524880    1.236660    1.827660
     18          1           0        4.762370    1.045000    0.781640
     19          1           0        4.762370   -0.701470    1.107120
     20          1           0        4.674880   -0.237590    3.558900
     21          1           0        4.674880    1.495430    3.235920
     22          1           0        6.669580    0.134070    0.742150
     23          1           0        7.895840   -0.585600    1.755280
     24          1           0        7.895840    1.170380    1.428020
     25          1           0        6.588370    0.910660    4.909130
     26          1           0       10.092300    0.983930    5.302290
     27          1           0        8.552370    1.133400    6.104340
 ---------------------------------------------------------------------
                    Distance matrix (angstroms):
                    1          2          3          4          5
     1  C    0.000000
     2  C    1.515990   0.000000
     3  C    2.506687   1.530679   0.000000
     4  C    3.844790   2.496350   1.520708   0.000000
     5  C    5.063126   3.890055   2.557770   1.529875   0.000000
     6  N    6.325104   5.005572   3.868261   2.509688   1.467502
     7  C    6.598996   5.134522   4.368344   2.848889   2.553756
     8  C    7.540100   6.295373   5.040248   3.810480   2.487619
     9  N    8.688460   7.370483   6.214189   4.876201   3.701614
    10  N    9.781362   8.528966   7.279669   6.036728   4.723373
    11  H    1.093726   2.157411   3.462359   4.647527   5.982387
    12  H    1.094327   2.159209   2.756744   4.158581   5.217497
    13  H    1.094328   2.159209   2.756742   4.158579   5.217495
    14  H    2.146815   1.097189   2.168744   2.730442   4.170206
    15  H    2.146815   1.097188   2.168743   2.730441   4.170205
    16  H    2.742443   2.163584   1.095818   2.154933   2.803053
    17  H    2.742445   2.163587   1.095819   2.154935   2.803053
    18  H    4.097197   2.690171   2.132342   1.097519   2.158292
    19  H    4.097193   2.690165   2.132337   1.097506   2.158287
    20  H    5.198156   4.191249   2.786070   2.153971   1.097421
    21  H    5.198154   4.191247   2.786068   2.153969   1.097423
    22  H    5.841244   4.336233   3.842316   2.371574   2.705212
    23  H    7.256009   5.792815   5.076727   3.590066   3.264539
    24  H    7.256009   5.792815   5.076728   3.590069   3.264543
    25  H    7.574896   6.482296   5.082018   4.105623   2.600977
    26  H   10.669348   9.371647   8.179843   6.875676   5.636461
    27  H    9.861570   8.709523   7.358781   6.259799   4.824835
                    6          7          8          9         10
     6  N    0.000000
     7  C    1.459706   0.000000
     8  C    1.381479   2.421442   0.000000
     9  N    2.367852   2.776484   1.301020   0.000000
    10  N    3.546577   4.101864   2.241837   1.326022   0.000000
    11  H    7.156862   7.262290   8.427271   9.523724  10.666482
    12  H    6.538659   6.939002   7.680407   8.865682   9.900289
    13  H    6.538658   6.939001   7.680407   8.865681   9.900287
    14  H    5.119530   5.060947   6.441860   7.434187   8.634376
    15  H    5.119530   5.060946   6.441862   7.434187   8.634375
    16  H    4.168476   4.834996   5.207617   6.422548   7.401085
    17  H    4.168474   4.834996   5.207613   6.422547   7.401084
    18  H    2.759568   2.747920   4.077880   5.005669   6.217487
    19  H    2.759566   2.747915   4.077882   5.005669   6.217486
    20  H    2.099165   3.268401   2.769608   4.007054   4.872976
    21  H    2.099163   3.268400   2.769604   4.007054   4.872979
    22  H    2.162977   1.089661   3.379446   3.861619   5.185351
    23  H    2.101051   1.094626   2.711012   2.749495   4.011449
    24  H    2.101055   1.094634   2.711013   2.749500   4.011455
    25  H    2.084221   3.394087   1.105320   2.113490   2.515280
    26  H    4.366083   4.677317   3.151991   2.006857   1.014627
    27  H    3.884317   4.720770   2.502878   2.066951   1.010711
                   11         12         13         14         15
    11  H    0.000000
    12  H    1.774155   0.000000
    13  H    1.774154   1.775310   0.000000
    14  H    2.476586   2.498704   3.061500   0.000000
    15  H    2.476585   3.061500   2.498705   1.762656   0.000000
    16  H    3.747414   3.095525   2.537672   3.073456   2.515164
    17  H    3.747417   2.537676   3.095523   2.515168   3.073458
    18  H    4.766667   4.306010   4.657859   2.460416   3.030692
    19  H    4.766663   4.657854   4.306009   3.030683   2.460413
    20  H    6.168220   5.416551   5.119510   4.715112   4.373210
    21  H    6.168218   5.119509   5.416547   4.373207   4.715109
    22  H    6.403174   6.258545   6.258544   4.186565   4.186565
    23  H    7.886515   7.706291   7.497722   5.818335   5.541169
    24  H    7.886514   7.497722   7.706291   5.541168   5.818335
    25  H    8.541540   7.622462   7.622462   6.732807   6.732808
    26  H   11.522135  10.813477  10.813477   9.429883   9.429884
    27  H   10.805246   9.914974   9.914973   8.887240   8.887239
                   16         17         18         19         20
    16  H    0.000000
    17  H    1.770101   0.000000
    18  H    3.046626   2.477348   0.000000
    19  H    2.477348   3.046619   1.776540   0.000000
    20  H    2.583153   3.129394   3.060370   2.496811   0.000000
    21  H    3.129395   2.583149   2.496804   3.060362   1.762860
    22  H    4.424090   4.424090   2.113954   2.113949   3.471461
    23  H    5.386215   5.672132   3.664078   3.201901   3.707929
    24  H    5.672134   5.386215   3.201900   3.664073   4.110671
    25  H    5.110159   5.110155   4.515362   4.515365   2.608264
    26  H    8.330835   8.330833   6.989146   6.989147   5.820649
    27  H    7.391300   7.391298   6.534757   6.534758   4.836714
                   21         22         23         24         25
    21  H    0.000000
    22  H    3.471458   0.000000
    23  H    4.110665   1.745873   0.000000
    24  H    3.707930   1.745872   1.786215   0.000000
    25  H    2.608262   4.239506   3.727605   3.727608   0.000000
    26  H    5.820649   5.764733   4.457481   4.457485   3.526680
    27  H    4.836717   5.770324   4.722321   4.722327   2.309856
                   26         27
    26  H    0.000000
    27  H    1.742702   0.000000
 Stoichiometry    C7H17N3
 Framework group  C1[X(C7H17N3)]
 Deg. of freedom    75
 Full point group                 C1      NOp   1
 Largest Abelian subgroup         C1      NOp   1
 Largest concise Abelian subgroup C1      NOp   1
                         Standard orientation:                         
 ---------------------------------------------------------------------
 Center     Atomic      Atomic             Coordinates (Angstroms)
 Number     Number       Type             X           Y           Z
 ---------------------------------------------------------------------
      1          6           0       -5.043023   -0.356738    0.000001
      2          6           0       -3.736693    0.412500   -0.000000
      3          6           0       -2.543514   -0.546302   -0.000000
      4          6           0       -1.245863    0.246577   -0.000002
      5          6           0        0.013118   -0.622610   -0.000003
      6          7           0        1.261895    0.148179    0.000000
      7          6           0        1.256742    1.607876   -0.000002
      8          6           0        2.496191   -0.472304    0.000007
      9          7           0        3.629678    0.166335    0.000000
     10          7           0        4.736133   -0.564480   -0.000004
     11          1           0       -5.892604    0.332064   -0.000002
     12          1           0       -5.114979   -0.992696    0.887656
     13          1           0       -5.114978   -0.992698   -0.887654
     14          1           0       -3.697199    1.064822    0.881328
     15          1           0       -3.697199    1.064822   -0.881328
     16          1           0       -2.585075   -1.191108   -0.885051
     17          1           0       -2.585073   -1.191111    0.885050
     18          1           0       -1.242929    0.891170    0.888277
     19          1           0       -1.242931    0.891172   -0.888263
     20          1           0       -0.003326   -1.276176   -0.881430
     21          1           0       -0.003328   -1.276173    0.881430
     22          1           0        0.270101    2.070368    0.000001
     23          1           0        1.767610    1.981490   -0.893105
     24          1           0        1.767608    1.981494    0.893110
     25          1           0        2.433131   -1.575823    0.000006
     26          1           0        5.622490   -0.070679    0.000003
     27          1           0        4.742987   -1.575167   -0.000001
 ---------------------------------------------------------------------
 Rotational constants (GHZ):           5.5995426           0.3634837           0.3457626
 Standard basis: 6-31G(2df,p) (6D, 7F)
 There are   395 symmetry adapted cartesian basis functions of A   symmetry.
 There are   365 symmetry adapted basis functions of A   symmetry.
   365 basis functions,   559 primitive gaussians,   395 cartesian basis functions
    40 alpha electrons       40 beta electrons
       nuclear repulsion energy       532.0615323275 Hartrees.
 NAtoms=   27 NActive=   27 NUniq=   27 SFac= 1.00D+00 NAtFMM=   60 NAOKFM=F Big=F
 Integral buffers will be    131072 words long.
 Raffenetti 2 integral format.
 Two-electron integral symmetry is turned on.
 One-electron integrals computed using PRISM.
 PrsmSu:  requested number of processors reduced to:  13 ShMem   1 Linda.
 NBasis=   365 RedAO= T EigKep=  2.06D-04  NBF=   365
 NBsUse=   365 1.00D-06 EigRej= -1.00D+00 NBFU=   365
 ExpMin= 1.61D-01 ExpMax= 4.17D+03 ExpMxC= 6.27D+02 IAcc=3 IRadAn=         5 AccDes= 0.00D+00
 Harris functional with IExCor=  402 and IRadAn=       5 diagonalized for initial guess.
 HarFok:  IExCor=  402 AccDes= 0.00D+00 IRadAn=         5 IDoV= 1 UseB2=F ITyADJ=14
 ICtDFT=  3500011 ScaDFX=  1.000000  1.000000  1.000000  1.000000
 FoFCou: FMM=F IPFlag=           0 FMFlag=      100000 FMFlg1=           0
         NFxFlg=           0 DoJE=T BraDBF=F KetDBF=T FulRan=T
         wScrn=  0.000000 ICntrl=       500 IOpCl=  0 I1Cent=   200000004 NGrid=           0
         NMat0=    1 NMatS0=      1 NMatT0=    0 NMatD0=    1 NMtDS0=    0 NMtDT0=    0
 Petite list used in FoFCou.
 Requested convergence on RMS density matrix=1.00D-08 within 128 cycles.
 Requested convergence on MAX density matrix=1.00D-06.
 Requested convergence on             energy=1.00D-06.
 No special actions if energy rises.
 Integral accuracy reduced to 1.0D-05 until final iterations.
 Initial convergence to 1.0D-05 achieved.  Increase integral accuracy.
 SCF Done:  E(RB3LYP) =  -441.209596372     A.U. after   13 cycles
            NFock= 13  Conv=0.49D-08     -V/T= 2.0082

 **********************************************************************

            Population analysis using the SCF density.

 **********************************************************************

 Orbital symmetries:
       Occupied  (A) (A) (A) (A) (A) (A) (A) (A) (A) (A) (A) (A)
                 (A) (A) (A) (A) (A) (A) (A) (A) (A) (A) (A) (A)
                 (A) (A) (A) (A) (A) (A) (A) (A) (A) (A) (A) (A)
                 (A) (A) (A) (A)
       Virtual   (A) (A) (A) (A) (A) (A) (A) (A) (A) (A) (A) (A)
                 (A) (A) (A) (A) (A) (A) (A) (A) (A) (A) (A) (A)
                 (A) (A) (A) (A) (A) (A) (A) (A) (A) (A) (A) (A)
                 (A) (A) (A) (A) (A) (A) (A) (A) (A) (A) (A) (A)
                 (A) (A) (A) (A) (A) (A) (A) (A) (A) (A) (A) (A)
                 (A) (A) (A) (A) (A) (A) (A) (A) (A) (A) (A) (A)
                 (A) (A) (A) (A) (A) (A) (A) (A) (A) (A) (A) (A)
                 (A) (A) (A) (A) (A) (A) (A) (A) (A) (A) (A) (A)
                 (A) (A) (A) (A) (A) (A) (A) (A) (A) (A) (A) (A)
                 (A) (A) (A) (A) (A) (A) (A) (A) (A) (A) (A) (A)
                 (A) (A) (A) (A) (A) (A) (A) (A) (A) (A) (A) (A)
                 (A) (A) (A) (A) (A) (A) (A) (A) (A) (A) (A) (A)
                 (A) (A) (A) (A) (A) (A) (A) (A) (A) (A) (A) (A)
                 (A) (A) (A) (A) (A) (A) (A) (A) (A) (A) (A) (A)
                 (A) (A) (A) (A) (A) (A) (A) (A) (A) (A) (A) (A)
                 (A) (A) (A) (A) (A) (A) (A) (A) (A) (A) (A) (A)
                 (A) (A) (A) (A) (A) (A) (A) (A) (A) (A) (A) (A)
                 (A) (A) (A) (A) (A) (A) (A) (A) (A) (A) (A) (A)
                 (A) (A) (A) (A) (A) (A) (A) (A) (A) (A) (A) (A)
                 (A) (A) (A) (A) (A) (A) (A) (A) (A) (A) (A) (A)
                 (A) (A) (A) (A) (A) (A) (A) (A) (A) (A) (A) (A)
                 (A) (A) (A) (A) (A) (A) (A) (A) (A) (A) (A) (A)
                 (A) (A) (A) (A) (A) (A) (A) (A) (A) (A) (A) (A)
                 (A) (A) (A) (A) (A) (A) (A) (A) (A) (A) (A) (A)
                 (A) (A) (A) (A) (A) (A) (A) (A) (A) (A) (A) (A)
                 (A) (A) (A) (A) (A) (A) (A) (A) (A) (A) (A) (A)
                 (A) (A) (A) (A) (A) (A) (A) (A) (A) (A) (A) (A)
                 (A)
 The electronic state is 1-A.
 Alpha  occ. eigenvalues --  -14.32551 -14.32537 -14.31771 -10.21153 -10.21099
 Alpha  occ. eigenvalues --  -10.19012 -10.18290 -10.18002 -10.17940 -10.17127
 Alpha  occ. eigenvalues --   -0.97122  -0.91464  -0.80820  -0.76732  -0.73885
 Alpha  occ. eigenvalues --   -0.69658  -0.66113  -0.59832  -0.57981  -0.55778
 Alpha  occ. eigenvalues --   -0.51005  -0.50182  -0.48798  -0.45572  -0.45231
 Alpha  occ. eigenvalues --   -0.42319  -0.41555  -0.41225  -0.39402  -0.38376
 Alpha  occ. eigenvalues --   -0.36388  -0.36076  -0.35232  -0.34228  -0.33301
 Alpha  occ. eigenvalues --   -0.32922  -0.31904  -0.25264  -0.25244  -0.14458
 Alpha virt. eigenvalues --    0.05950   0.08265   0.09540   0.10439   0.11603
 Alpha virt. eigenvalues --    0.11626   0.13102   0.14434   0.15304   0.16161
 Alpha virt. eigenvalues --    0.16980   0.17013   0.18029   0.19121   0.19174
 Alpha virt. eigenvalues --    0.19520   0.19659   0.20215   0.20968   0.22107
 Alpha virt. eigenvalues --    0.23474   0.24682   0.28104   0.29295   0.30706
 Alpha virt. eigenvalues --    0.33273   0.38507   0.43458   0.45049   0.46802
 Alpha virt. eigenvalues --    0.48350   0.49731   0.51631   0.52017   0.52168
 Alpha virt. eigenvalues --    0.53351   0.54087   0.54831   0.56317   0.58267
 Alpha virt. eigenvalues --    0.59280   0.61005   0.61840   0.62253   0.63017
 Alpha virt. eigenvalues --    0.64505   0.66949   0.67037   0.68654   0.69796
 Alpha virt. eigenvalues --    0.71792   0.72262   0.72725   0.73290   0.73633
 Alpha virt. eigenvalues --    0.74334   0.75296   0.75634   0.76173   0.77535
 Alpha virt. eigenvalues --    0.77780   0.79147   0.79205   0.80123   0.81290
 Alpha virt. eigenvalues --    0.81339   0.81611   0.83395   0.84410   0.84734
 Alpha virt. eigenvalues --    0.86444   0.87529   0.87973   0.89632   0.89728
 Alpha virt. eigenvalues --    0.94699   0.95894   0.99328   1.01794   1.05451
 Alpha virt. eigenvalues --    1.05763   1.08448   1.12028   1.15880   1.17847
 Alpha virt. eigenvalues --    1.18196   1.18872   1.20868   1.21427   1.23988
 Alpha virt. eigenvalues --    1.24304   1.25345   1.27792   1.33478   1.34403
 Alpha virt. eigenvalues --    1.35691   1.35994   1.36654   1.39211   1.42701
 Alpha virt. eigenvalues --    1.44745   1.45018   1.48588   1.51517   1.51922
 Alpha virt. eigenvalues --    1.53818   1.54537   1.56074   1.59702   1.61600
 Alpha virt. eigenvalues --    1.61645   1.63889   1.66267   1.68485   1.69161
 Alpha virt. eigenvalues --    1.71017   1.73672   1.75935   1.79274   1.81099
 Alpha virt. eigenvalues --    1.83379   1.83972   1.87048   1.88883   1.89421
 Alpha virt. eigenvalues --    1.92651   1.93224   1.94605   1.95118   1.95917
 Alpha virt. eigenvalues --    1.96828   1.99568   2.01665   2.07755   2.13569
 Alpha virt. eigenvalues --    2.16625   2.19373   2.19895   2.20289   2.22569
 Alpha virt. eigenvalues --    2.25968   2.26052   2.33281   2.33432   2.34232
 Alpha virt. eigenvalues --    2.35946   2.38156   2.39803   2.43537   2.44200
 Alpha virt. eigenvalues --    2.50043   2.50582   2.54065   2.54566   2.55024
 Alpha virt. eigenvalues --    2.60089   2.63475   2.65570   2.69351   2.73245
 Alpha virt. eigenvalues --    2.73633   2.75020   2.75277   2.76280   2.79214
 Alpha virt. eigenvalues --    2.80000   2.82180   2.82455   2.83358   2.85630
 Alpha virt. eigenvalues --    2.87329   2.89919   2.90606   2.91264   2.91374
 Alpha virt. eigenvalues --    2.91488   2.92413   2.94238   2.97497   2.98225
 Alpha virt. eigenvalues --    2.99722   3.02147   3.03744   3.04148   3.06072
 Alpha virt. eigenvalues --    3.10296   3.11880   3.12194   3.13544   3.19079
 Alpha virt. eigenvalues --    3.19456   3.21341   3.23941   3.26080   3.28182
 Alpha virt. eigenvalues --    3.29685   3.30892   3.31472   3.35217   3.35964
 Alpha virt. eigenvalues --    3.37874   3.39919   3.42986   3.46711   3.47378
 Alpha virt. eigenvalues --    3.50749   3.51035   3.51649   3.52346   3.58050
 Alpha virt. eigenvalues --    3.58887   3.59536   3.60776   3.63006   3.63628
 Alpha virt. eigenvalues --    3.66908   3.70733   3.71793   3.73896   3.74799
 Alpha virt. eigenvalues --    3.75966   3.79769   3.79975   3.81212   3.82121
 Alpha virt. eigenvalues --    3.84535   3.87022   3.90236   3.91891   3.94372
 Alpha virt. eigenvalues --    3.96517   3.99039   4.00292   4.08927   4.10360
 Alpha virt. eigenvalues --    4.12135   4.14058   4.16189   4.18715   4.23543
 Alpha virt. eigenvalues --    4.24259   4.25525   4.29222   4.35977   4.36761
 Alpha virt. eigenvalues --    4.37768   4.39828   4.40621   4.41938   4.43859
 Alpha virt. eigenvalues --    4.46004   4.46843   4.47817   4.49771   4.50156
 Alpha virt. eigenvalues --    4.51934   4.52824   4.53507   4.54631   4.56381
 Alpha virt. eigenvalues --    4.59522   4.61143   4.61829   4.62801   4.64082
 Alpha virt. eigenvalues --    4.64852   4.65649   4.67038   4.67235   4.67924
 Alpha virt. eigenvalues --    4.70206   4.72101   4.73077   4.73988   4.74549
 Alpha virt. eigenvalues --    4.76483   4.76877   4.79486   4.79943   4.81687
 Alpha virt. eigenvalues --    4.84271   4.84883   4.85830   4.88927   4.90995
 Alpha virt. eigenvalues --    4.92288   4.92421   4.94747   4.96019   4.97783
 Alpha virt. eigenvalues --    5.00673   5.09518   5.09579   5.16611   5.19927
 Alpha virt. eigenvalues --    5.21336   5.24952   5.27002   5.28979   5.35560
 Alpha virt. eigenvalues --    5.38594   5.45669   5.46964   5.48969   5.50660
 Alpha virt. eigenvalues --    5.57348   5.62818   5.72246   5.82824   5.91763
 Alpha virt. eigenvalues --    5.94079   6.07501   7.23475  10.56904  11.04899
 Alpha virt. eigenvalues --   11.20652  11.34294  11.40404  11.49972  11.61395
 Alpha virt. eigenvalues --   11.91267  12.18021  12.37066  13.58884  21.12705
          Condensed to atoms (all electrons):
               1          2          3          4          5          6
     1  C    4.952801   0.406261  -0.038293   0.001949  -0.000157   0.000000
     2  C    0.406261   4.759422   0.434067  -0.030434   0.001906  -0.000057
     3  C   -0.038293   0.434067   4.813170   0.422208  -0.033327   0.001622
     4  C    0.001949  -0.030434   0.422208   4.787099   0.414598  -0.029931
     5  C   -0.000157   0.001906  -0.033327   0.414598   4.882231   0.404140
     6  N    0.000000  -0.000057   0.001622  -0.029931   0.404140   6.170082
     7  C    0.000000   0.000020   0.000539  -0.008135  -0.078191   0.405126
     8  C   -0.000000   0.000000  -0.000046   0.002948  -0.054929   0.366080
     9  N    0.000000  -0.000000   0.000001  -0.000070   0.001341  -0.013817
    10  N   -0.000000   0.000000  -0.000000  -0.000000  -0.000071   0.003114
    11  H    0.371803  -0.021845   0.003613  -0.000160   0.000001  -0.000000
    12  H    0.379283  -0.029086  -0.004742   0.000238   0.000005   0.000000
    13  H    0.379283  -0.029086  -0.004742   0.000238   0.000005   0.000000
    14  H   -0.035849   0.371622  -0.034142  -0.002118   0.000164   0.000003
    15  H   -0.035848   0.371622  -0.034142  -0.002118   0.000164   0.000003
    16  H   -0.002451  -0.034207   0.362212  -0.028192  -0.002558   0.000059
    17  H   -0.002451  -0.034207   0.362213  -0.028192  -0.002558   0.000059
    18  H    0.000159  -0.003966  -0.034588   0.368098  -0.030894  -0.000915
    19  H    0.000159  -0.003966  -0.034588   0.368100  -0.030895  -0.000915
    20  H    0.000008   0.000008  -0.004037  -0.024205   0.342988  -0.033867
    21  H    0.000008   0.000008  -0.004037  -0.024204   0.342987  -0.033867
    22  H    0.000000   0.000055   0.000215   0.004597  -0.013850  -0.015406
    23  H   -0.000000  -0.000000  -0.000026   0.000114   0.004258  -0.037037
    24  H   -0.000000  -0.000000  -0.000026   0.000114   0.004258  -0.037038
    25  H    0.000000   0.000000  -0.000005   0.000510  -0.004252  -0.067130
    26  H    0.000000  -0.000000   0.000000  -0.000000   0.000003   0.000020
    27  H    0.000000   0.000000  -0.000000   0.000001   0.000016  -0.001333
               7          8          9         10         11         12
     1  C    0.000000  -0.000000   0.000000  -0.000000   0.371803   0.379283
     2  C    0.000020   0.000000  -0.000000   0.000000  -0.021845  -0.029086
     3  C    0.000539  -0.000046   0.000001  -0.000000   0.003613  -0.004742
     4  C   -0.008135   0.002948  -0.000070  -0.000000  -0.000160   0.000238
     5  C   -0.078191  -0.054929   0.001341  -0.000071   0.000001   0.000005
     6  N    0.405126   0.366080  -0.013817   0.003114  -0.000000   0.000000
     7  C    4.936747  -0.045511  -0.011116   0.000039  -0.000000  -0.000000
     8  C   -0.045511   4.711347   0.672210  -0.113026   0.000000   0.000000
     9  N   -0.011116   0.672210   6.355919   0.343251  -0.000000  -0.000000
    10  N    0.000039  -0.113026   0.343251   6.511433   0.000000   0.000000
    11  H   -0.000000   0.000000  -0.000000   0.000000   0.607003  -0.031691
    12  H   -0.000000   0.000000  -0.000000   0.000000  -0.031691   0.600697
    13  H   -0.000000   0.000000  -0.000000   0.000000  -0.031691  -0.033162
    14  H   -0.000008   0.000000   0.000000  -0.000000  -0.002416  -0.004536
    15  H   -0.000008   0.000000   0.000000  -0.000000  -0.002416   0.005739
    16  H   -0.000005   0.000002  -0.000000  -0.000000  -0.000055  -0.000395
    17  H   -0.000005   0.000002  -0.000000  -0.000000  -0.000055   0.004913
    18  H   -0.001679   0.000111  -0.000004   0.000000   0.000003   0.000005
    19  H   -0.001679   0.000111  -0.000004   0.000000   0.000003   0.000011
    20  H    0.003691  -0.001238   0.000131  -0.000017   0.000000   0.000001
    21  H    0.003691  -0.001239   0.000131  -0.000017   0.000000  -0.000002
    22  H    0.373514   0.004071   0.000459  -0.000007   0.000000   0.000000
    23  H    0.367863  -0.000328   0.007526  -0.000157   0.000000   0.000000
    24  H    0.367862  -0.000328   0.007526  -0.000157   0.000000  -0.000000
    25  H    0.007934   0.375762  -0.075457  -0.006370  -0.000000   0.000000
    26  H    0.000012   0.003828  -0.032456   0.368471  -0.000000   0.000000
    27  H    0.000060  -0.001310  -0.043426   0.338782  -0.000000   0.000000
              13         14         15         16         17         18
     1  C    0.379283  -0.035849  -0.035848  -0.002451  -0.002451   0.000159
     2  C   -0.029086   0.371622   0.371622  -0.034207  -0.034207  -0.003966
     3  C   -0.004742  -0.034142  -0.034142   0.362212   0.362213  -0.034588
     4  C    0.000238  -0.002118  -0.002118  -0.028192  -0.028192   0.368098
     5  C    0.000005   0.000164   0.000164  -0.002558  -0.002558  -0.030894
     6  N    0.000000   0.000003   0.000003   0.000059   0.000059  -0.000915
     7  C   -0.000000  -0.000008  -0.000008  -0.000005  -0.000005  -0.001679
     8  C    0.000000   0.000000   0.000000   0.000002   0.000002   0.000111
     9  N   -0.000000   0.000000   0.000000  -0.000000  -0.000000  -0.000004
    10  N    0.000000  -0.000000  -0.000000  -0.000000  -0.000000   0.000000
    11  H   -0.031691  -0.002416  -0.002416  -0.000055  -0.000055   0.000003
    12  H   -0.033162  -0.004536   0.005739  -0.000395   0.004913   0.000005
    13  H    0.600698   0.005739  -0.004536   0.004913  -0.000395   0.000011
    14  H    0.005739   0.642121  -0.041537   0.006018  -0.005297   0.005444
    15  H   -0.004536  -0.041537   0.642121  -0.005297   0.006017  -0.000434
    16  H    0.004913   0.006018  -0.005297   0.641746  -0.041867   0.006388
    17  H   -0.000395  -0.005297   0.006017  -0.041867   0.641746  -0.006099
    18  H    0.000011   0.005444  -0.000434   0.006388  -0.006099   0.634155
    19  H    0.000005  -0.000434   0.005444  -0.006099   0.006388  -0.045286
    20  H   -0.000002   0.000005   0.000012   0.005133  -0.000673   0.006494
    21  H    0.000001   0.000012   0.000005  -0.000673   0.005133  -0.007427
    22  H    0.000000   0.000008   0.000008   0.000014   0.000014   0.002233
    23  H   -0.000000  -0.000000   0.000000   0.000002  -0.000000   0.000249
    24  H    0.000000   0.000000  -0.000000  -0.000000   0.000002  -0.000316
    25  H    0.000000   0.000000   0.000000   0.000000   0.000000   0.000011
    26  H    0.000000   0.000000   0.000000   0.000000   0.000000   0.000000
    27  H    0.000000  -0.000000  -0.000000  -0.000000  -0.000000  -0.000000
              19         20         21         22         23         24
     1  C    0.000159   0.000008   0.000008   0.000000  -0.000000  -0.000000
     2  C   -0.003966   0.000008   0.000008   0.000055  -0.000000  -0.000000
     3  C   -0.034588  -0.004037  -0.004037   0.000215  -0.000026  -0.000026
     4  C    0.368100  -0.024205  -0.024204   0.004597   0.000114   0.000114
     5  C   -0.030895   0.342988   0.342987  -0.013850   0.004258   0.004258
     6  N   -0.000915  -0.033867  -0.033867  -0.015406  -0.037037  -0.037038
     7  C   -0.001679   0.003691   0.003691   0.373514   0.367863   0.367862
     8  C    0.000111  -0.001238  -0.001239   0.004071  -0.000328  -0.000328
     9  N   -0.000004   0.000131   0.000131   0.000459   0.007526   0.007526
    10  N    0.000000  -0.000017  -0.000017  -0.000007  -0.000157  -0.000157
    11  H    0.000003   0.000000   0.000000   0.000000   0.000000   0.000000
    12  H    0.000011   0.000001  -0.000002   0.000000   0.000000  -0.000000
    13  H    0.000005  -0.000002   0.000001   0.000000  -0.000000   0.000000
    14  H   -0.000434   0.000005   0.000012   0.000008  -0.000000   0.000000
    15  H    0.005444   0.000012   0.000005   0.000008   0.000000  -0.000000
    16  H   -0.006099   0.005133  -0.000673   0.000014   0.000002  -0.000000
    17  H    0.006388  -0.000673   0.005133   0.000014  -0.000000   0.000002
    18  H   -0.045286   0.006494  -0.007427   0.002233   0.000249  -0.000316
    19  H    0.634152  -0.007427   0.006494   0.002233  -0.000316   0.000249
    20  H   -0.007427   0.676826  -0.064138   0.000301   0.000697  -0.000445
    21  H    0.006494  -0.064138   0.676827   0.000301  -0.000445   0.000697
    22  H    0.002233   0.000301   0.000301   0.591087  -0.035101  -0.035101
    23  H   -0.000316   0.000697  -0.000445  -0.035101   0.621314  -0.049187
    24  H    0.000249  -0.000445   0.000697  -0.035101  -0.049187   0.621317
    25  H    0.000011   0.003014   0.003014  -0.000093   0.000057   0.000057
    26  H    0.000000   0.000000   0.000000  -0.000001  -0.000001  -0.000001
    27  H   -0.000000   0.000000   0.000000   0.000001   0.000007   0.000007
              25         26         27
     1  C    0.000000   0.000000   0.000000
     2  C    0.000000  -0.000000   0.000000
     3  C   -0.000005   0.000000  -0.000000
     4  C    0.000510  -0.000000   0.000001
     5  C   -0.004252   0.000003   0.000016
     6  N   -0.067130   0.000020  -0.001333
     7  C    0.007934   0.000012   0.000060
     8  C    0.375762   0.003828  -0.001310
     9  N   -0.075457  -0.032456  -0.043426
    10  N   -0.006370   0.368471   0.338782
    11  H   -0.000000  -0.000000  -0.000000
    12  H    0.000000   0.000000   0.000000
    13  H    0.000000   0.000000   0.000000
    14  H    0.000000   0.000000  -0.000000
    15  H    0.000000   0.000000  -0.000000
    16  H    0.000000   0.000000  -0.000000
    17  H    0.000000   0.000000  -0.000000
    18  H    0.000011   0.000000  -0.000000
    19  H    0.000011   0.000000  -0.000000
    20  H    0.003014   0.000000   0.000000
    21  H    0.003014   0.000000   0.000000
    22  H   -0.000093  -0.000001   0.000001
    23  H    0.000057  -0.000001   0.000007
    24  H    0.000057  -0.000001   0.000007
    25  H    0.685437  -0.000264   0.018130
    26  H   -0.000264   0.447618  -0.041401
    27  H    0.018130  -0.041401   0.506041
 Mulliken charges:
               1
     1  C   -0.376666
     2  C   -0.158136
     3  C   -0.173121
     4  C   -0.193055
     5  C   -0.147386
     6  N   -0.078995
     7  C   -0.320757
     8  C    0.081482
     9  N   -0.212145
    10  N   -0.445268
    11  H    0.107904
    12  H    0.112722
    13  H    0.112722
    14  H    0.095200
    15  H    0.095200
    16  H    0.095312
    17  H    0.095312
    18  H    0.108247
    19  H    0.108249
    20  H    0.096742
    21  H    0.096742
    22  H    0.120446
    23  H    0.120509
    24  H    0.120508
    25  H    0.059635
    26  H    0.254173
    27  H    0.224425
 Sum of Mulliken charges =  -0.00000
 Mulliken charges with hydrogens summed into heavy atoms:
               1
     1  C   -0.043318
     2  C    0.032263
     3  C    0.017504
     4  C    0.023441
     5  C    0.046099
     6  N   -0.078995
     7  C    0.040706
     8  C    0.141116
     9  N   -0.212145
    10  N    0.033330
 Electronic spatial extent (au):  <R**2>=           3185.1574
 Charge=             -0.0000 electrons
 Dipole moment (field-independent basis, Debye):
    X=             -1.1288    Y=             -1.1558    Z=              0.0000  Tot=              1.6156
 Quadrupole moment (field-independent basis, Debye-Ang):
   XX=            -59.9543   YY=            -61.0915   ZZ=            -65.0160
   XY=             -6.0235   XZ=              0.0001   YZ=             -0.0000
 Traceless Quadrupole moment (field-independent basis, Debye-Ang):
   XX=              2.0663   YY=              0.9291   ZZ=             -2.9954
   XY=             -6.0235   XZ=              0.0001   YZ=             -0.0000
 Octapole moment (field-independent basis, Debye-Ang**2):
  XXX=             83.1923  YYY=             -4.3519  ZZZ=             -0.0000  XYY=             15.2149
  XXY=            -19.3691  XXZ=              0.0004  XZZ=             -2.8796  YZZ=              0.4029
  YYZ=             -0.0000  XYZ=             -0.0000
 Hexadecapole moment (field-independent basis, Debye-Ang**3):
 XXXX=          -3354.3827 YYYY=           -320.1425 ZZZZ=           -105.4675 XXXY=           -116.0755
 XXXZ=              0.0023 YYYX=            -31.0293 YYYZ=             -0.0001 ZZZX=              0.0000
 ZZZY=             -0.0000 XXYY=           -650.8572 XXZZ=           -675.5316 YYZZ=            -69.3834
 XXYZ=             -0.0003 YYXZ=             -0.0000 ZZXY=              4.0868
 N-N= 5.320615323275D+02 E-N=-2.088086575192D+03  KE= 4.376055294055D+02
 PrsmSu:  requested number of processors reduced to:  13 ShMem   1 Linda.
 Calling FoFJK, ICntrl=      2127 FMM=F ISym2X=0 I1Cent= 0 IOpClX= 0 NMat=1 NMatS=1 NMatT=0.
 ***** Axes restored to original set *****
 -------------------------------------------------------------------
 Center     Atomic                   Forces (Hartrees/Bohr)
 Number     Number              X              Y              Z
 -------------------------------------------------------------------
      1        6          -0.004606582   -0.001044851   -0.005603579
      2        6          -0.003767114    0.000859153    0.004607139
      3        6           0.006283295   -0.000783658   -0.004205852
      4        6           0.003950967    0.001011824    0.005392471
      5        6           0.009641056    0.000759269    0.004063418
      6        7           0.001515215   -0.003695213   -0.019827693
      7        6           0.004514804    0.000654191    0.003487500
      8        6           0.009011466    0.000441065    0.002372689
      9        7          -0.041667913   -0.005097073   -0.027352780
     10        7           0.031281768    0.005701070    0.030593022
     11        1          -0.003227307    0.000042108    0.000225381
     12        1          -0.002008894   -0.000174847    0.000098955
     13        1          -0.002008843    0.000199026    0.000029211
     14        1           0.001747870   -0.000225747    0.000580011
     15        1           0.001747868    0.000419213    0.000459630
     16        1          -0.002031720    0.000240777    0.001035229
     17        1          -0.002031387    0.000147627    0.001052081
     18        1           0.000975479   -0.002072442   -0.000118022
     19        1           0.000977702    0.001883770   -0.000859059
     20        1          -0.002992666   -0.001264398    0.001441490
     21        1          -0.002992492    0.001697210    0.000889005
     22        1          -0.005495305    0.001245747    0.006686628
     23        1           0.005746877    0.001318012    0.000793391
     24        1           0.005744488   -0.000947337    0.001216084
     25        1           0.004116371   -0.000625356   -0.003356854
     26        1          -0.013374984   -0.000313910   -0.001684892
     27        1          -0.001050020   -0.000375232   -0.002014601
 -------------------------------------------------------------------
 Cartesian Forces:  Max     0.041667913 RMS     0.008406780

 GradGradGradGradGradGradGradGradGradGradGradGradGradGradGradGradGradGrad
 Berny optimization.
 FormGI is forming the generalized inverse of G from B-inverse, IUseBI=4.
 Internal  Forces:  Max     0.031902883 RMS     0.005744981
 Search for a local minimum.
 Step number   1 out of a maximum of  139
 All quantities printed in internal units (Hartrees-Bohrs-Radians)
 Mixed Optimization -- RFO/linear search
 Second derivative matrix not updated -- first step.
 ITU=  0
     Eigenvalues ---    0.00360   0.00371   0.00492   0.00554   0.00799
     Eigenvalues ---    0.00902   0.01111   0.01350   0.01937   0.02273
     Eigenvalues ---    0.02333   0.03001   0.03529   0.03787   0.03883
     Eigenvalues ---    0.04051   0.04891   0.04941   0.04969   0.05448
     Eigenvalues ---    0.05724   0.05739   0.06921   0.07422   0.07869
     Eigenvalues ---    0.08068   0.08525   0.09578   0.11842   0.11989
     Eigenvalues ---    0.12330   0.12972   0.16000   0.16000   0.16000
     Eigenvalues ---    0.16000   0.16000   0.16000   0.16000   0.16000
     Eigenvalues ---    0.16000   0.21873   0.21884   0.21976   0.21999
     Eigenvalues ---    0.22000   0.25000   0.25000   0.25000   0.29361
     Eigenvalues ---    0.29435   0.30298   0.30756   0.33101   0.33958
     Eigenvalues ---    0.33959   0.33969   0.33969   0.33995   0.33995
     Eigenvalues ---    0.34149   0.34149   0.34283   0.34283   0.34317
     Eigenvalues ---    0.34317   0.34386   0.34852   0.36041   0.37001
     Eigenvalues ---    0.45206   0.45854   0.48833   0.60455   0.66911
 RFO step:  Lambda=-1.34415021D-02 EMin= 3.60126868D-03
 Linear search not attempted -- first point.
 Iteration  1 RMS(Cart)=  0.15357414 RMS(Int)=  0.00326445
 Iteration  2 RMS(Cart)=  0.00988813 RMS(Int)=  0.00018586
 Iteration  3 RMS(Cart)=  0.00003257 RMS(Int)=  0.00018567
 Iteration  4 RMS(Cart)=  0.00000000 RMS(Int)=  0.00018567
 Variable       Old X    -DE/DX   Delta X   Delta X   Delta X     New X
                                 (Linear)    (Quad)   (Total)
    R1        2.86481   0.01197   0.00000   0.03728   0.03728   2.90209
    R2        2.06684   0.00084   0.00000   0.00236   0.00236   2.06921
    R3        2.06798   0.00060   0.00000   0.00169   0.00169   2.06967
    R4        2.06798   0.00060   0.00000   0.00169   0.00169   2.06967
    R5        2.89256   0.00365   0.00000   0.01190   0.01190   2.90446
    R6        2.07339   0.00008   0.00000   0.00023   0.00023   2.07361
    R7        2.07338   0.00008   0.00000   0.00023   0.00023   2.07361
    R8        2.87372   0.00991   0.00000   0.03133   0.03133   2.90505
    R9        2.07080   0.00117   0.00000   0.00329   0.00329   2.07408
   R10        2.07080   0.00117   0.00000   0.00329   0.00329   2.07408
   R11        2.89105  -0.00091   0.00000  -0.00296  -0.00296   2.88809
   R12        2.07401  -0.00108   0.00000  -0.00306  -0.00306   2.07095
   R13        2.07399  -0.00107   0.00000  -0.00304  -0.00304   2.07095
   R14        2.77318   0.00033   0.00000   0.00088   0.00088   2.77405
   R15        2.07382   0.00278   0.00000   0.00787   0.00787   2.08169
   R16        2.07383   0.00278   0.00000   0.00786   0.00786   2.08169
   R17        2.75844  -0.00506   0.00000  -0.01318  -0.01318   2.74526
   R18        2.61062  -0.00736   0.00000  -0.01467  -0.01467   2.59594
   R19        2.05916  -0.00270   0.00000  -0.00745  -0.00745   2.05171
   R20        2.06854   0.00233   0.00000   0.00654   0.00654   2.07508
   R21        2.06856   0.00232   0.00000   0.00652   0.00652   2.07508
   R22        2.45857  -0.02481   0.00000  -0.03635  -0.03635   2.42222
   R23        2.08875  -0.00516   0.00000  -0.01498  -0.01498   2.07377
   R24        2.50582   0.03190   0.00000   0.05162   0.05162   2.55744
   R25        1.91737  -0.01344   0.00000  -0.02887  -0.02887   1.88850
   R26        1.90997  -0.00120   0.00000  -0.00255  -0.00255   1.90742
    A1        1.92814   0.00379   0.00000   0.02328   0.02314   1.95128
    A2        1.93001   0.00157   0.00000   0.00831   0.00824   1.93825
    A3        1.93001   0.00157   0.00000   0.00831   0.00824   1.93825
    A4        1.89116  -0.00257   0.00000  -0.01342  -0.01356   1.87761
    A5        1.89116  -0.00257   0.00000  -0.01342  -0.01356   1.87760
    A6        1.89220  -0.00205   0.00000  -0.01458  -0.01458   1.87762
    A7        1.93249   0.00939   0.00000   0.04518   0.04514   1.97763
    A8        1.90996  -0.00175   0.00000   0.00158   0.00176   1.91172
    A9        1.90996  -0.00175   0.00000   0.00157   0.00176   1.91172
   A10        1.92235  -0.00368   0.00000  -0.01996  -0.02038   1.90197
   A11        1.92235  -0.00368   0.00000  -0.01996  -0.02038   1.90197
   A12        1.86550   0.00114   0.00000  -0.01033  -0.01073   1.85477
   A13        1.91620   0.01070   0.00000   0.05305   0.05288   1.96908
   A14        1.91667  -0.00353   0.00000  -0.01538  -0.01581   1.90086
   A15        1.91667  -0.00353   0.00000  -0.01539  -0.01581   1.90086
   A16        1.91682  -0.00235   0.00000  -0.00234  -0.00232   1.91450
   A17        1.91682  -0.00235   0.00000  -0.00234  -0.00233   1.91450
   A18        1.88035   0.00079   0.00000  -0.01920  -0.01953   1.86082
   A19        1.98887  -0.00690   0.00000  -0.02839  -0.02831   1.96056
   A20        1.88441   0.00265   0.00000   0.01377   0.01376   1.89817
   A21        1.88442   0.00265   0.00000   0.01377   0.01376   1.89818
   A22        1.90867   0.00190   0.00000   0.00696   0.00704   1.91571
   A23        1.90867   0.00190   0.00000   0.00696   0.00704   1.91572
   A24        1.88608  -0.00206   0.00000  -0.01266  -0.01276   1.87332
   A25        1.98435   0.01369   0.00000   0.06519   0.06505   2.04940
   A26        1.90289  -0.00488   0.00000  -0.02447  -0.02509   1.87780
   A27        1.90289  -0.00488   0.00000  -0.02447  -0.02509   1.87780
   A28        1.90240  -0.00289   0.00000  -0.00182  -0.00166   1.90073
   A29        1.90239  -0.00289   0.00000  -0.00181  -0.00166   1.90073
   A30        1.86524   0.00118   0.00000  -0.01744  -0.01811   1.84712
   A31        2.12026   0.02413   0.00000   0.09160   0.09160   2.21186
   A32        2.12279  -0.01930   0.00000  -0.07325  -0.07325   2.04954
   A33        2.04013  -0.00483   0.00000  -0.01835  -0.01835   2.02179
   A34        2.01267  -0.01172   0.00000  -0.06362  -0.06333   1.94934
   A35        1.91736   0.00330   0.00000   0.01712   0.01727   1.93463
   A36        1.91736   0.00330   0.00000   0.01712   0.01727   1.93463
   A37        1.85221   0.00512   0.00000   0.03328   0.03355   1.88577
   A38        1.85220   0.00512   0.00000   0.03329   0.03356   1.88576
   A39        1.90856  -0.00514   0.00000  -0.03767  -0.03766   1.87091
   A40        2.16269  -0.00537   0.00000  -0.02300  -0.02300   2.13969
   A41        1.97952   0.00416   0.00000   0.01999   0.01999   1.99951
   A42        2.14097   0.00121   0.00000   0.00301   0.00301   2.14399
   A43        2.04478   0.00796   0.00000   0.03023   0.03023   2.07501
   A44        2.04958  -0.00015   0.00000  -0.00085  -0.00085   2.04873
   A45        2.16130  -0.00180   0.00000  -0.01039  -0.01039   2.15091
   A46        2.07230   0.00195   0.00000   0.01124   0.01124   2.08354
    D1       -3.14159  -0.00000   0.00000  -0.00000  -0.00000  -3.14159
    D2        1.01938  -0.00032   0.00000  -0.00533  -0.00546   1.01392
    D3       -1.01938   0.00032   0.00000   0.00533   0.00546  -1.01392
    D4        1.04804  -0.00026   0.00000  -0.00371  -0.00374   1.04429
    D5       -1.07418  -0.00058   0.00000  -0.00904  -0.00920  -1.08338
    D6       -3.11293   0.00006   0.00000   0.00162   0.00171  -3.11122
    D7       -1.04804   0.00026   0.00000   0.00371   0.00374  -1.04429
    D8        3.11294  -0.00006   0.00000  -0.00162  -0.00171   3.11122
    D9        1.07418   0.00058   0.00000   0.00904   0.00920   1.08338
   D10        3.14159   0.00000   0.00000   0.00000   0.00000  -3.14159
   D11        1.03234  -0.00165   0.00000  -0.02102  -0.02086   1.01148
   D12       -1.03234   0.00165   0.00000   0.02101   0.02086  -1.01148
   D13       -1.02669   0.00153   0.00000   0.01843   0.01820  -1.00849
   D14       -3.13594  -0.00012   0.00000  -0.00258  -0.00266  -3.13859
   D15        1.08256   0.00318   0.00000   0.03945   0.03906   1.12162
   D16        1.02669  -0.00153   0.00000  -0.01843  -0.01820   1.00849
   D17       -1.08256  -0.00318   0.00000  -0.03945  -0.03906  -1.12162
   D18        3.13594   0.00012   0.00000   0.00258   0.00266   3.13860
   D19       -3.14159   0.00000   0.00000   0.00000   0.00000  -3.14159
   D20        1.01761   0.00018   0.00000  -0.00021  -0.00016   1.01745
   D21       -1.01759  -0.00018   0.00000   0.00021   0.00015  -1.01744
   D22       -1.03244   0.00094   0.00000   0.01315   0.01326  -1.01918
   D23        3.12676   0.00112   0.00000   0.01294   0.01310   3.13987
   D24        1.09156   0.00075   0.00000   0.01336   0.01341   1.10497
   D25        1.03243  -0.00093   0.00000  -0.01315  -0.01325   1.01918
   D26       -1.09155  -0.00075   0.00000  -0.01336  -0.01341  -1.10496
   D27       -3.12676  -0.00112   0.00000  -0.01294  -0.01310  -3.13986
   D28       -3.14159  -0.00000   0.00000  -0.00000  -0.00000   3.14159
   D29        1.01523  -0.00201   0.00000  -0.02401  -0.02367   0.99156
   D30       -1.01523   0.00201   0.00000   0.02401   0.02367  -0.99156
   D31       -1.03107   0.00013   0.00000   0.00359   0.00359  -1.02749
   D32        3.12575  -0.00187   0.00000  -0.02042  -0.02008   3.10567
   D33        1.09528   0.00214   0.00000   0.02760   0.02726   1.12254
   D34        1.03107  -0.00013   0.00000  -0.00359  -0.00359   1.02748
   D35       -1.09530  -0.00214   0.00000  -0.02760  -0.02726  -1.12255
   D36       -3.12576   0.00187   0.00000   0.02043   0.02008  -3.10568
   D37       -0.00000   0.00000   0.00000   0.00000   0.00000  -0.00000
   D38        3.14159   0.00000   0.00000   0.00000   0.00000   3.14159
   D39        2.12664   0.00090   0.00000   0.01142   0.01168   2.13832
   D40       -1.01496   0.00090   0.00000   0.01142   0.01168  -1.00328
   D41       -2.12664  -0.00090   0.00000  -0.01142  -0.01169  -2.13832
   D42        1.01496  -0.00090   0.00000  -0.01142  -0.01168   1.00327
   D43        0.00001  -0.00000   0.00000  -0.00000  -0.00000   0.00000
   D44       -2.09149  -0.00109   0.00000  -0.01249  -0.01239  -2.10388
   D45        2.09149   0.00110   0.00000   0.01249   0.01239   2.10388
   D46       -3.14158  -0.00000   0.00000  -0.00000  -0.00000  -3.14159
   D47        1.05010  -0.00109   0.00000  -0.01249  -0.01239   1.03772
   D48       -1.05010   0.00110   0.00000   0.01249   0.01239  -1.03771
   D49        3.14158   0.00000   0.00000   0.00001   0.00001   3.14159
   D50        0.00000  -0.00000   0.00000  -0.00001  -0.00001  -0.00000
   D51       -0.00001   0.00000   0.00000   0.00001   0.00001  -0.00000
   D52       -3.14159  -0.00000   0.00000  -0.00000  -0.00000   3.14159
   D53       -3.14158  -0.00000   0.00000  -0.00001  -0.00001   3.14159
   D54       -0.00000   0.00000   0.00000   0.00000   0.00000  -0.00000
   D55       -3.14158   0.00000   0.00000   0.00000   0.00000  -3.14157
   D56       -0.00000  -0.00000   0.00000  -0.00000  -0.00000  -0.00001
   D57        3.14158  -0.00000   0.00000  -0.00001  -0.00001   3.14157
         Item               Value     Threshold  Converged?
 Maximum Force            0.031903     0.000450     NO 
 RMS     Force            0.005745     0.000300     NO 
 Maximum Displacement     0.567213     0.001800     NO 
 RMS     Displacement     0.157187     0.001200     NO 
 Predicted change in Energy=-7.103901D-03
 GradGradGradGradGradGradGradGradGradGradGradGradGradGradGradGradGradGrad

                          Input orientation:                          
 ---------------------------------------------------------------------
 Center     Atomic      Atomic             Coordinates (Angstroms)
 Number     Number       Type             X           Y           Z
 ---------------------------------------------------------------------
      1          6           0        0.733393    0.021865    0.140084
      2          6           0        2.267595    0.009360    0.072975
      3          6           0        2.937930    0.262757    1.432658
      4          6           0        4.473057    0.247832    1.352565
      5          6           0        5.127876    0.500829    2.710114
      6          7           0        6.594901    0.510460    2.761792
      7          6           0        7.504842    0.302981    1.648516
      8          6           0        7.183650    0.737856    3.981938
      9          7           0        8.455279    0.767359    4.140255
     10          7           0        8.955047    0.997784    5.376646
     11          1           0        0.281960   -0.160905   -0.840619
     12          1           0        0.363165    0.987806    0.499807
     13          1           0        0.363166   -0.749651    0.823608
     14          1           0        2.609826    0.769377   -0.640703
     15          1           0        2.609828   -0.956715   -0.319021
     16          1           0        2.597304   -0.499773    2.144806
     17          1           0        2.597302    1.230623    1.822324
     18          1           0        4.796057    1.012536    0.637098
     19          1           0        4.796060   -0.723255    0.960581
     20          1           0        4.751148   -0.262859    3.408929
     21          1           0        4.751148    1.464976    3.086922
     22          1           0        6.969736    0.129905    0.719810
     23          1           0        8.156131   -0.561836    1.832109
     24          1           0        8.156133    1.175873    1.508258
     25          1           0        6.477393    0.891743    4.807644
     26          1           0        9.949433    1.016022    5.474429
     27          1           0        8.374799    1.149109    6.188573
 ---------------------------------------------------------------------
                    Distance matrix (angstroms):
                    1          2          3          4          5
     1  C    0.000000
     2  C    1.535720   0.000000
     3  C    2.566858   1.536976   0.000000
     4  C    3.937799   2.560914   1.537287   0.000000
     5  C    5.113311   3.921384   2.546456   1.528311   0.000000
     6  N    6.439670   5.119220   3.898896   2.560687   1.467966
     7  C    6.943120   5.476978   4.572187   3.046695   2.610766
     8  C    7.541771   6.322839   4.975007   3.808024   2.428976
     9  N    8.728382   7.443437   6.166591   4.888682   3.631522
    10  N    9.796408   8.592318   7.231944   6.069917   4.690906
    11  H    1.094976   2.192348   3.521570   4.747885   6.043881
    12  H    1.095222   2.183208   2.832900   4.262156   5.274948
    13  H    1.095222   2.183208   2.832899   4.262155   5.274947
    14  H    2.165503   1.097308   2.159431   2.777905   4.200080
    15  H    2.165503   1.097308   2.159431   2.777905   4.200079
    16  H    2.786608   2.158798   1.097558   2.169103   2.779312
    17  H    2.786608   2.158799   1.097558   2.169103   2.779312
    18  H    4.211139   2.778077   2.155857   1.095899   2.160866
    19  H    4.211138   2.778075   2.155858   1.095898   2.160868
    20  H    5.187367   4.167821   2.733071   2.137001   1.101584
    21  H    5.187367   4.167820   2.733071   2.137000   1.101584
    22  H    6.264163   4.747953   4.096494   2.578312   2.737032
    23  H    7.635489   6.172169   5.298031   3.801389   3.327233
    24  H    7.635490   6.172169   5.298032   3.801389   3.327234
    25  H    7.452271   6.396725   4.930918   4.045931   2.524607
    26  H   10.694811   9.444560   8.128007   6.897143   5.581601
    27  H    9.810504   8.717655   7.277630   6.278763   4.802338
                    6          7          8          9         10
     6  N    0.000000
     7  C    1.452729   0.000000
     8  C    1.373715   2.395233   0.000000
     9  N    2.329627   2.706980   1.281785   0.000000
    10  N    3.556015   4.060148   2.269498   1.353339   0.000000
    11  H    7.299405   7.653823   8.467476   9.616336  10.734029
    12  H    6.646727   7.265815   7.662032   8.876022   9.879479
    13  H    6.646725   7.265813   7.662032   8.876021   9.879479
    14  H    5.246411   5.423949   6.503051   7.551614   8.747714
    15  H    5.246410   5.423947   6.503051   7.551614   8.747714
    16  H    4.169176   4.997464   5.093266   6.316907   7.287549
    17  H    4.169177   4.997467   5.093265   6.316907   7.287547
    18  H    2.828824   2.977239   4.118739   5.071699   6.305612
    19  H    2.828824   2.977233   4.118742   5.071700   6.305616
    20  H    2.101484   3.316935   2.691995   3.913665   4.809771
    21  H    2.101484   3.316937   2.691993   3.913664   4.809769
    22  H    2.110690   1.085720   3.325184   3.783204   5.136224
    23  H    2.109874   1.098086   2.693824   2.680259   3.954040
    24  H    2.109874   1.098087   2.693822   2.680258   3.954037
    25  H    2.084394   3.373779   1.097393   2.091151   2.544362
    26  H    4.343602   4.595875   3.155069   2.018502   0.999349
    27  H    3.913916   4.699455   2.541103   2.085142   1.009362
                   11         12         13         14         15
    11  H    0.000000
    12  H    1.767164   0.000000
    13  H    1.767164   1.767372   0.000000
    14  H    2.514826   2.529024   3.082067   0.000000
    15  H    2.514825   3.082067   2.529025   1.755811   0.000000
    16  H    3.793206   3.148061   2.607561   3.061039   2.505873
    17  H    3.793207   2.607562   3.148060   2.505874   3.061040
    18  H    4.892615   4.435086   4.773951   2.543915   3.093818
    19  H    4.892612   4.773950   4.435088   3.093813   2.543913
    20  H    6.167876   5.411243   5.116174   4.695774   4.354802
    21  H    6.167877   5.116176   5.411242   4.354802   4.695773
    22  H    6.873562   6.665672   6.665670   4.611804   4.611802
    23  H    8.325070   8.056472   7.860194   6.216786   5.961943
    24  H    8.325071   7.860198   8.056471   5.961946   6.216783
    25  H    8.449516   7.480005   7.480005   6.682629   6.682631
    26  H   11.607111  10.800195  10.800197   9.556438   9.556441
    27  H   10.799061   9.827226   9.827227   8.945285   8.945288
                   16         17         18         19         20
    16  H    0.000000
    17  H    1.760189   0.000000
    18  H    3.065090   2.507358   0.000000
    19  H    2.507362   3.065090   1.765676   0.000000
    20  H    2.508621   3.063798   3.051507   2.491665   0.000000
    21  H    3.063799   2.508621   2.491657   3.051508   1.757585
    22  H    4.641689   4.641692   2.347501   2.347493   3.508242
    23  H    5.567961   5.840684   3.898307   3.475010   3.764261
    24  H    5.840683   5.567966   3.475013   3.898299   4.156492
    25  H    4.907353   4.907350   4.498326   4.498333   2.503883
    26  H    8.212054   8.212050   7.068032   7.068038   5.737943
    27  H    7.242259   7.242255   6.606431   6.606438   4.780264
                   21         22         23         24         25
    21  H    0.000000
    22  H    3.508243   0.000000
    23  H    4.156493   1.767271   0.000000
    24  H    3.764265   1.767269   1.767629   0.000000
    25  H    2.503878   4.187265   3.712798   3.712796   0.000000
    26  H    5.737937   5.680687   4.355693   4.355685   3.537671
    27  H    4.780258   5.737626   4.685502   4.685497   2.360795
                   26         27
    26  H    0.000000
    27  H    1.734125   0.000000
 Stoichiometry    C7H17N3
 Framework group  C1[X(C7H17N3)]
 Deg. of freedom    75
 Full point group                 C1      NOp   1
 Largest Abelian subgroup         C1      NOp   1
 Largest concise Abelian subgroup C1      NOp   1
                         Standard orientation:                         
 ---------------------------------------------------------------------
 Center     Atomic      Atomic             Coordinates (Angstroms)
 Number     Number       Type             X           Y           Z
 ---------------------------------------------------------------------
      1          6           0       -5.099608   -0.503121   -0.000000
      2          6           0       -3.824964    0.353454    0.000003
      3          6           0       -2.532864   -0.478877   -0.000001
      4          6           0       -1.264303    0.389458    0.000002
      5          6           0        0.013417   -0.449092   -0.000003
      6          7           0        1.293565    0.269343   -0.000002
      7          6           0        1.481391    1.709879   -0.000001
      8          6           0        2.442139   -0.484227   -0.000000
      9          7           0        3.611866    0.039904   -0.000002
     10          7           0        4.693052   -0.774077    0.000001
     11          1           0       -6.004185    0.113899    0.000001
     12          1           0       -5.139686   -1.148882    0.883684
     13          1           0       -5.139685   -1.148877   -0.883688
     14          1           0       -3.825314    1.011756    0.877911
     15          1           0       -3.825315    1.011763   -0.877901
     16          1           0       -2.532166   -1.134667   -0.880099
     17          1           0       -2.532165   -1.134675    0.880091
     18          1           0       -1.281545    1.038523    0.882845
     19          1           0       -1.281547    1.038536   -0.882830
     20          1           0       -0.023645   -1.112292   -0.878797
     21          1           0       -0.023644   -1.112297    0.878788
     22          1           0        0.532881    2.238194    0.000003
     23          1           0        2.049041    2.029938   -0.883816
     24          1           0        2.049042    2.029937    0.883813
     25          1           0        2.276047   -1.568979    0.000001
     26          1           0        5.593984   -0.341619    0.000015
     27          1           0        4.627276   -1.781294    0.000007
 ---------------------------------------------------------------------
 Rotational constants (GHZ):           5.0846489           0.3592978           0.3398225
 Standard basis: 6-31G(2df,p) (6D, 7F)
 There are   395 symmetry adapted cartesian basis functions of A   symmetry.
 There are   365 symmetry adapted basis functions of A   symmetry.
   365 basis functions,   559 primitive gaussians,   395 cartesian basis functions
    40 alpha electrons       40 beta electrons
       nuclear repulsion energy       529.0805773766 Hartrees.
 NAtoms=   27 NActive=   27 NUniq=   27 SFac= 1.00D+00 NAtFMM=   60 NAOKFM=F Big=F
 Integral buffers will be    131072 words long.
 Raffenetti 2 integral format.
 Two-electron integral symmetry is turned on.
 One-electron integrals computed using PRISM.
 PrsmSu:  requested number of processors reduced to:  13 ShMem   1 Linda.
 NBasis=   365 RedAO= T EigKep=  1.99D-04  NBF=   365
 NBsUse=   365 1.00D-06 EigRej= -1.00D+00 NBFU=   365
 Initial guess from the checkpoint file:  "CCCCCNpCpCdNN.chk"
 B after Tr=    -0.000000   -0.000000    0.000000
         Rot=    0.999987   -0.000001   -0.000000    0.005004 Ang=  -0.57 deg.
 ExpMin= 1.61D-01 ExpMax= 4.17D+03 ExpMxC= 6.27D+02 IAcc=2 IRadAn=         4 AccDes= 0.00D+00
 Harris functional with IExCor=  402 and IRadAn=       4 diagonalized for initial guess.
 HarFok:  IExCor=  402 AccDes= 0.00D+00 IRadAn=         4 IDoV= 1 UseB2=F ITyADJ=14
 ICtDFT=  3500011 ScaDFX=  1.000000  1.000000  1.000000  1.000000
 FoFCou: FMM=F IPFlag=           0 FMFlag=      100000 FMFlg1=           0
         NFxFlg=           0 DoJE=T BraDBF=F KetDBF=T FulRan=T
         wScrn=  0.000000 ICntrl=       500 IOpCl=  0 I1Cent=   200000004 NGrid=           0
         NMat0=    1 NMatS0=      1 NMatT0=    0 NMatD0=    1 NMtDS0=    0 NMtDT0=    0
 Petite list used in FoFCou.
 Requested convergence on RMS density matrix=1.00D-08 within 128 cycles.
 Requested convergence on MAX density matrix=1.00D-06.
 Requested convergence on             energy=1.00D-06.
 No special actions if energy rises.
 Integral accuracy reduced to 1.0D-05 until final iterations.
 Initial convergence to 1.0D-05 achieved.  Increase integral accuracy.
 SCF Done:  E(RB3LYP) =  -441.215433349     A.U. after   11 cycles
            NFock= 11  Conv=0.47D-08     -V/T= 2.0084
 PrsmSu:  requested number of processors reduced to:  13 ShMem   1 Linda.
 Calling FoFJK, ICntrl=      2127 FMM=F ISym2X=0 I1Cent= 0 IOpClX= 0 NMat=1 NMatS=1 NMatT=0.
 ***** Axes restored to original set *****
 -------------------------------------------------------------------
 Center     Atomic                   Forces (Hartrees/Bohr)
 Number     Number              X              Y              Z
 -------------------------------------------------------------------
      1        6           0.002223956    0.000069061    0.000371180
      2        6          -0.000926298    0.000224891    0.001206222
      3        6           0.000390778   -0.000337384   -0.001809041
      4        6           0.002568728   -0.000116881   -0.000632224
      5        6           0.001984896    0.000709519    0.003807378
      6        7          -0.001528423   -0.001665737   -0.008938391
      7        6          -0.003046895   -0.000002934   -0.000019677
      8        6           0.002191128    0.001316985    0.007067145
      9        7          -0.003939476   -0.001426121   -0.007654856
     10        7           0.002088845    0.001815283    0.009745437
     11        1           0.000950184    0.000012057    0.000064425
     12        1          -0.000171541    0.000203218    0.000250927
     13        1          -0.000171493   -0.000099124    0.000307276
     14        1          -0.000014152   -0.000077768   -0.000572050
     15        1          -0.000014142   -0.000133555   -0.000561668
     16        1           0.000094999    0.000199037    0.001098432
     17        1           0.000094978    0.000210049    0.001096357
     18        1           0.000884094   -0.000301908   -0.001236684
     19        1           0.000884213   -0.000164534   -0.001262416
     20        1          -0.000134739   -0.000120309    0.000371642
     21        1          -0.000134556    0.000245909    0.000303382
     22        1          -0.004305317   -0.000189932   -0.001017820
     23        1           0.000589825    0.000783971    0.000864118
     24        1           0.000589639   -0.000420507    0.001088827
     25        1           0.000201009   -0.000033779   -0.000181557
     26        1          -0.000324268   -0.000387444   -0.002080164
     27        1          -0.001025971   -0.000312062   -0.001676201
 -------------------------------------------------------------------
 Cartesian Forces:  Max     0.009745437 RMS     0.002243332

 GradGradGradGradGradGradGradGradGradGradGradGradGradGradGradGradGradGrad
 Berny optimization.
 Using GEDIIS/GDIIS optimizer.
 FormGI is forming the generalized inverse of G from B-inverse, IUseBI=4.
 Internal  Forces:  Max     0.010402864 RMS     0.002073224
 Search for a local minimum.
 Step number   2 out of a maximum of  139
 All quantities printed in internal units (Hartrees-Bohrs-Radians)
[...]
 1,0.00002298,0.00000968,-0.00011603,-0.00006698,-0.00014932,0.00000297
 ,-0.00003169,-0.00000409,0.00057701,0.00041693,0.00005376,-0.00015122,
 0.00003121,0.00003709,-0.00056604,0.00136629,-0.00159391,0.00041623,0.
 00110831,0.00034785,0.05764309,0.18063224,-0.00002674,-0.00006415,0.00
 004835,-0.00015984,-0.00039182,0.00004641,0.00188181,0.00081624,0.0004
 7574,0.00720155,0.02317208,-0.02291068,0.04542785,0.10292111,-0.140955
 19,0.00271049,-0.00099056,0.00282276,0.00009725,0.00091276,0.00002969,
 -0.00004466,-0.00070900,-0.00001638,-0.00058391,-0.00099627,-0.0007996
 6,0.00052047,0.00048715,0.00118020,0.00000900,0.00000140,0.00000262,-0
 .00000526,0.00000174,-0.00000328,-0.00007454,-0.00001830,-0.00000239,0
 .00009794,-0.00011843,0.00036856,0.00002767,0.00001541,-0.00003444,-0.
 00116672,-0.00056150,0.00052757,-0.00019063,-0.00010293,0.00002305,-0.
 00267318,-0.00151359,-0.00514537,0.00077415,-0.00024229,0.00150898,-0.
 05110089,-0.11527971,0.15566803,0.00001624,0.00002988,0.00000098,0.000
 05187,-0.00025163,-0.00002066,0.00103503,-0.00089118,-0.00046911,0.003
 49971,-0.01118700,-0.00421862,-0.06525967,0.06191308,0.02349587,-0.031
 96263,0.02335408,0.01182285,-0.00107392,0.00445969,-0.00429418,0.00257
 465,0.00091540,0.00619218,-0.00134394,0.00055953,0.00008954,-0.0004166
 6,-0.00068682,-0.00114491,-0.00001117,0.00000085,-0.00001085,-0.000023
 13,0.00001222,0.00000971,-0.00000192,-0.00000338,0.00000545,0.00000557
 ,0.00002417,0.00002361,-0.00014309,0.00010165,-0.00000701,-0.00002203,
 -0.00008534,0.00000216,-0.00002725,0.00022939,-0.00020714,0.00021317,0
 .00051361,0.00048190,-0.00089570,-0.00052840,-0.00274163,0.00494014,-0
 .00664534,-0.00260145,0.09029006,-0.00003110,-0.00003500,-0.00005948,-
 0.00036910,0.00050972,0.00005048,0.00073996,-0.00030553,0.00031672,0.0
 0100082,-0.00580111,-0.00234084,0.06187876,-0.23813177,-0.06786958,0.0
 0549870,0.01037577,0.00150292,-0.00084406,-0.00115582,0.00118832,0.000
 25716,0.00055439,-0.00250791,-0.00049016,0.00032085,-0.00041211,0.0005
 5761,0.00012882,0.00118130,-0.00001751,0.00000731,0.00000957,-0.000037
 28,0.00002252,-0.00001931,0.00000021,-0.00000511,-0.00000436,0.0000071
 9,-0.00003589,0.00000469,0.00014353,0.00007946,0.00026095,0.00007240,0
 .00005230,-0.00004842,-0.00095854,0.00060187,-0.00008249,-0.00010950,0
 .00112484,-0.00019955,-0.00043485,0.00156562,-0.00099734,0.00526238,-0
 .02419457,-0.00779112,-0.07218074,0.25486505,-0.00001665,0.00009644,0.
 00004654,-0.00002885,0.00021302,-0.00012433,0.00173151,-0.00051462,0.0
 0066861,0.00733344,-0.02977830,-0.01305977,0.02480475,-0.06539964,-0.0
 7501049,0.00078241,-0.00192568,0.00185994,0.00043024,-0.00045507,-0.00
 007670,-0.00014705,0.00048859,0.00067817,-0.00043681,0.00056386,-0.001
 02523,0.00034267,-0.00008190,0.00091247,0.00001641,-0.00000322,-0.0000
 0059,-0.00006548,0.00000861,-0.00000199,-0.00000571,-0.00000105,-0.000
 00087,0.00002688,-0.00001488,-0.00003027,0.00004958,0.00023001,0.00022
 209,-0.00023231,0.00009167,0.00000194,-0.00088059,0.00053280,0.0003425
 9,0.00087209,0.00039063,0.00149244,-0.00269763,-0.00107763,-0.00534473
 ,-0.00482054,0.01980516,0.00692092,-0.02690834,0.07697816,0.08143463,-
 0.00000765,0.00001054,0.00005642,0.00008466,-0.00002035,-0.00010927,-0
 .00056867,0.00007088,0.00038048,-0.00346228,0.00020305,0.00108943,0.00
 059456,-0.00006511,-0.00034931,0.01390283,0.00429630,0.02305374,-0.133
 51112,-0.02430526,-0.13042264,-0.00471514,0.00038735,0.00207851,-0.000
 11742,-0.00034515,-0.00185230,0.00067498,0.00004015,0.00021578,0.00003
 919,0.00000260,0.00001396,0.00000156,-0.00000253,-0.00000524,0.0000015
 5,0.00000045,-0.00000578,-0.00000106,-0.00000557,0.00000137,-0.0000010
 6,0.00000567,-0.00000072,0.00004208,0.00003064,-0.00002063,0.00004207,
 -0.00003600,-0.00000820,-0.00160998,0.00025873,-0.00000878,-0.00161004
 ,-0.00024454,0.00008500,0.00008658,0.00000565,-0.00016242,0.00008662,-
 0.00006381,-0.00014949,0.14741664,0.00000433,-0.00002052,-0.00000399,0
 .00001465,0.00006443,0.00001129,0.00000397,-0.00043954,0.00020564,-0.0
 0024023,0.00152159,-0.00026184,-0.00056314,0.00028846,-0.00011354,-0.0
 0254943,-0.00312194,-0.00470596,-0.02183569,-0.05383879,-0.03435786,0.
 00092604,0.00018985,-0.00025941,0.00009360,0.00035473,0.00013413,-0.00
 006703,0.00015771,-0.00013099,-0.00000652,0.00000370,-0.00000429,0.000
 00594,-0.00000069,-0.00000137,-0.00000704,-0.00000086,0.00000459,0.000
 01154,-0.00001679,0.00002024,-0.00000887,-0.00002646,-0.00001374,-0.00
 015812,-0.00000664,0.00003150,0.00006638,-0.00000077,-0.00002417,0.000
 77114,-0.00053968,0.00034489,-0.00080458,-0.00036931,0.00003773,0.0000
 4921,0.00004233,0.00010928,0.00003636,-0.00000639,-0.00010802,0.024651
 52,0.05221074,0.00002328,-0.00000401,-0.00004120,0.00007857,0.00001129
 ,0.00012294,0.00002124,0.00020564,0.00062553,-0.00128902,-0.00026183,0
 .00016543,-0.00302190,-0.00011355,-0.00029966,-0.01367969,-0.00470589,
 -0.02749655,-0.11717117,-0.03435787,-0.23180115,0.00496909,-0.00025937
 ,-0.00115355,0.00050196,0.00013408,0.00104942,-0.00035934,-0.00013081,
 -0.00052072,-0.00003498,-0.00000430,-0.00001856,-0.00000414,0.00000503
 ,0.00000754,-0.00000172,-0.00000177,0.00000769,0.00000523,0.00001130,-
 0.00000962,0.00000903,-0.00000479,0.00000005,-0.00022526,-0.00003936,0
 .00001820,-0.00026710,0.00004667,0.00001233,-0.00023647,-0.00040338,0.
 00062156,0.00005717,0.00078600,0.00045126,0.00022844,0.00001817,-0.000
 00317,0.00023081,-0.00001690,0.00004557,0.13228091,0.03966854,0.257680
 34,0.00000692,-0.00001218,-0.00005395,-0.00004411,0.00001557,0.0000931
 7,0.00001830,-0.00003994,-0.00013809,-0.00014545,0.00041098,0.00050996
 ,0.00097199,0.00400505,0.00119498,-0.02065693,0.01470250,0.00851993,-0
 .12819407,0.11195254,-0.02761499,-0.00022905,-0.00103343,-0.00291249,-
 0.00022484,-0.00088493,-0.00079145,0.00082050,0.00038073,0.00141841,-0
 .00003326,-0.00000196,-0.00001396,0.00000536,-0.00000229,0.00000656,-0
 .00000228,0.00000159,0.00000878,0.00000065,0.00000208,-0.00001128,-0.0
 0000771,-0.00002633,-0.00003139,-0.00003124,0.00000717,0.00002267,0.00
 003521,-0.00004547,-0.00000453,-0.00002051,-0.00016609,0.00006620,-0.0
 0000275,-0.00011023,-0.00023868,-0.00001299,-0.00010626,0.00014337,-0.
 00174231,0.00012077,0.00018121,-0.00886270,0.01340462,-0.00327311,0.14
 812430,-0.00000301,0.00000307,0.00001454,0.00001982,-0.00000641,-0.000
 02343,-0.00001715,-0.00003940,0.00011988,-0.00002505,-0.00000471,-0.00
 017019,-0.00151682,-0.00164169,0.00005726,0.00603271,0.00446029,-0.010
 04792,0.11240697,-0.20541745,0.03839274,0.00188172,0.00068213,0.002317
 99,0.00014119,0.00017782,0.00211207,-0.00109671,-0.00004728,-0.0013061
 1,0.00001096,0.00000060,0.00000530,-0.00000338,0.00000120,-0.00000096,
 0.00000146,0.00000133,-0.00000396,0.00000248,-0.00000197,-0.00000047,0
 .00000346,0.00001050,0.00000846,-0.00002773,0.00000514,-0.00000502,-0.
 00002341,0.00002200,0.00000669,-0.00003528,-0.00006099,0.00006900,0.00
 002555,0.00008980,-0.00000692,0.00005520,-0.00003099,-0.00000290,0.000
 52671,-0.00011958,0.00015393,-0.00476198,0.00569285,-0.00053017,-0.128
 04415,0.22007584,0.00000472,-0.00000828,0.00000404,0.00003073,0.000043
 22,0.00000379,0.00004996,-0.00009146,0.00029528,-0.00036510,0.00062241
 ,-0.00044100,-0.00054288,-0.00347333,-0.00184255,0.02374761,-0.0221484
 8,-0.00454958,-0.03014332,0.03998169,-0.05673325,0.00453545,0.00043925
 ,0.00434878,-0.00271002,-0.00081944,0.00094403,-0.00000186,0.00053563,
 -0.00050666,-0.00000214,0.00000095,-0.00000454,-0.00000144,0.00000120,
 -0.00000054,-0.00000495,-0.00000071,0.00000271,0.00000915,-0.00001362,
 0.00001363,0.00000830,-0.00000113,0.00000627,-0.00010361,-0.00001560,0
 .00002920,-0.00009162,0.00003392,-0.00001672,-0.00006074,-0.00039752,0
 .00031366,0.00012839,0.00009998,0.00006880,-0.00024947,-0.00005259,0.0
 0007562,0.00155785,-0.00015529,-0.00002445,-0.01314218,0.02148331,-0.0
 0323203,0.02015376,-0.03868508,0.06101847,0.00000693,-0.00000801,-0.00
 005473,-0.00004419,0.00001906,0.00009260,0.00001831,-0.00001250,-0.000
 14319,-0.00014538,-0.00019972,0.00062380,0.00097189,-0.00330575,0.0025
 5745,-0.02065714,-0.01064624,0.01324397,-0.12819536,-0.11438505,0.0145
 6523,-0.00022892,-0.00008499,-0.00308923,-0.00022501,0.00054069,-0.001
 05717,0.00082069,0.00015483,0.00146065,-0.00003324,-0.00000321,-0.0000
 1376,-0.00000226,0.00000163,0.00000879,0.00000537,0.00000450,0.0000053
 4,-0.00000769,0.00001329,-0.00003880,0.00000067,-0.00000606,-0.0000097
 8,0.00003520,0.00004083,-0.00002067,-0.00003127,0.00000146,0.00002373,
 -0.00000276,0.00001688,-0.00026238,-0.00002052,0.00017875,0.00000191,-
 0.00174231,-0.00004741,0.00021254,-0.00001293,0.00015073,0.00009545,-0
 .00886278,-0.01368370,0.00177510,0.01049025,0.01448297,-0.00291511,0.1
 4812588,0.00000451,0.00000117,-0.00001342,-0.00000751,-0.00001173,0.00
 002949,0.00003401,-0.00000556,-0.00000369,-0.00010810,-0.00021330,0.00
 008225,0.00121943,-0.00051984,-0.00056807,0.00292655,0.01411040,0.0028
 4280,-0.11571965,-0.21246013,0.02173840,-0.00012161,0.00023144,-0.0007
 2815,-0.00110795,-0.00015690,-0.00168693,0.00102251,0.00015133,0.00105
 204,-0.00001098,-0.00000217,-0.00000622,-0.00000314,0.00000304,0.00000
 383,0.00000263,0.00000088,0.00000043,-0.00000020,0.00000754,-0.0000089
 8,0.00000100,0.00000473,0.00000387,-0.00001114,0.00000337,-0.00001451,
 -0.00001148,0.00001521,0.00001045,0.00002241,0.00005579,0.00001196,0.0
 0001100,0.00009800,0.00001426,0.00006979,-0.00010680,-0.00012211,-0.00
 014130,0.00000147,0.00003150,-0.00029159,-0.00250594,0.00024983,-0.014
 56103,-0.02366170,0.00183577,0.12670875,0.22543488,0.00000332,0.000009
 42,0.00000603,0.00003584,-0.00003722,0.00000910,0.00004042,0.00020764,
 0.00026139,-0.00034965,-0.00071037,-0.00023246,-0.00105276,0.00296257,
 -0.00296441,0.02432662,0.01494320,-0.01419929,0.01237034,0.02014953,-0
 .04968903,0.00490888,0.00115058,0.00479947,-0.00247735,0.00124446,0.00
 127924,-0.00039678,-0.00078948,-0.00070597,0.00000193,-0.00000186,-0.0
 0000177,-0.00000410,0.00000057,0.00000095,-0.00000257,-0.00000176,-0.0
 0000025,0.00000898,0.00000065,0.00000930,0.00000943,0.00001705,0.00000
 688,-0.00009389,-0.00004168,0.00000196,-0.00010662,0.00002100,0.000019
 14,0.00012895,-0.00009497,0.00010280,-0.00006939,0.00048082,0.00015468
 ,0.00164299,0.00018712,-0.00003726,-0.00021285,0.00008122,0.00004315,-
 0.01397540,-0.02176356,0.00496685,0.00249757,0.00742191,0.00031396,-0.
 02732196,-0.02480135,0.05565753,-0.00000339,0.00000313,0.00001650,0.00
 001437,-0.00000383,-0.00002066,-0.00001716,0.00001233,0.00006658,0.000
 26190,-0.00002445,-0.00013143,-0.00052590,-0.00039405,-0.00211439,0.00
 866089,-0.00173146,-0.00929140,-0.00105065,-0.00044573,-0.00239202,-0.
 15293238,0.02128496,0.11421559,-0.03377522,0.00458207,0.02458447,0.005
 83363,0.00113192,0.00607385,0.00000846,0.00000046,0.00000248,0.0000008
 7,-0.00000223,-0.00000173,0.00000085,0.00000141,-0.00000238,0.00000109
 ,0.00000003,0.00000277,0.00000109,0.00000096,0.00000260,-0.00000166,0.
 00000061,0.00000062,-0.00000169,-0.00000029,0.00000082,0.00000067,-0.0
 0001216,-0.00002957,0.00000069,0.00000066,-0.00003199,0.00024605,0.000
 08275,-0.00029849,0.00024611,-0.00018479,-0.00024868,0.00043392,-0.000
 11993,-0.00064352,-0.00018781,-0.00010425,0.00005936,-0.00018784,0.000
 11860,0.00001779,0.17272995,0.00000067,0.00000476,-0.00000398,-0.00000
 497,-0.00000456,0.00000414,-0.00000729,0.00002029,-0.00002278,-0.00012
 510,-0.00026634,0.00009785,0.00071081,0.00052355,-0.00017868,0.0036385
 3,0.00089193,-0.00535364,-0.00093019,0.00309924,-0.00098717,0.02019508
 ,-0.04740734,-0.02825475,0.00025204,0.02290184,-0.00379548,-0.00074125
 ,-0.00613044,0.00220422,-0.00000089,-0.00000039,0.00000055,0.00000140,
 -0.00000142,-0.00000069,-0.00000295,-0.00000311,0.00000170,0.00000118,
 -0.00000194,0.00000713,0.00000052,-0.00000106,-0.00000380,-0.00002430,
 -0.00001650,0.00000382,0.00000903,-0.00000683,-0.00000031,0.00003993,-
 0.00001086,0.00011454,0.00000485,0.00000630,-0.00002887,-0.00034621,-0
 .00047493,0.00030447,0.00001653,-0.00027571,-0.00012713,0.00021614,0.0
 0036089,-0.00030674,-0.00011830,-0.00010050,0.00056376,0.00018941,-0.0
 0026229,-0.00047999,-0.02355249,0.02913259,0.00000365,-0.00000399,-0.0
 0001583,-0.00002664,0.00000413,0.00001690,-0.00003913,-0.00002279,-0.0
 0009775,-0.00067130,0.00009782,0.00024034,0.00381404,-0.00017875,-0.00
 040211,0.01952351,-0.00535335,-0.02683671,-0.00499107,-0.00098710,-0.0
 0201388,0.10837059,-0.02825541,-0.19375838,0.00134870,-0.00379571,0.00
 324159,-0.00397527,0.00220414,0.00528283,-0.00000480,0.00000055,0.0000
 0245,-0.00000461,0.00000610,-0.00000047,-0.00000379,-0.00000507,0.0000
 0121,0.00000452,-0.00000611,0.00000758,0.00000464,0.00000945,0.0000066
 9,-0.00003780,-0.00002529,0.00000226,-0.00004402,0.00002882,-0.0000073
 8,0.00011677,-0.00007339,0.00022824,0.00012330,0.00015908,0.00021106,-
 0.00085068,-0.00064302,0.00018356,-0.00091830,0.00082037,-0.00001564,0
 .00115969,-0.00030673,-0.00122786,0.00021948,-0.00006106,-0.00004535,0
 .00016213,0.00014481,0.00011641,-0.12638247,0.03580614,0.21459532,-0.0
 0000576,0.00000358,0.00001951,0.00001184,-0.00000661,-0.00003510,-0.00
 001901,0.00000634,0.00003422,0.00001605,-0.00000888,-0.00004793,-0.000
 69579,0.00000790,0.00004184,0.00099079,0.00047576,0.00255189,0.0004702
 4,-0.00009206,-0.00049456,0.00114605,-0.00051406,-0.00275060,-0.006075
 05,-0.00068210,-0.00365528,-0.48838424,-0.00500477,-0.02632327,0.00001
 594,0.00000181,0.00000971,0.00000061,-0.00000170,-0.00000406,0.0000006
 3,0.00000018,-0.00000443,0.00000043,-0.00000144,0.00000526,0.00000041,
 0.00000330,0.00000441,0.00000132,-0.00000098,0.00000080,0.00000131,0.0
 0000123,0.00000040,0.00000113,-0.00000139,0.00000717,0.00000112,0.0000
 0385,0.00000618,0.00008678,0.00005701,-0.00010143,0.00008668,-0.000089
 70,-0.00007412,0.00000014,0.00000736,0.00003946,-0.00011736,0.00011089
 ,0.00002108,-0.00011736,-0.00009591,0.00005952,0.00026920,0.00000147,0
 .00001005,0.49999358,0.00000051,0.00000254,-0.00000459,-0.00000586,0.0
 0000075,0.00000643,0.00000326,-0.00000618,-0.00001716,-0.00003289,-0.0
 0000382,0.00002508,0.00009893,0.00053526,-0.00020520,-0.00044811,0.002
 47655,-0.00058181,-0.00008362,-0.00009517,0.00013526,-0.00013307,-0.00
 002401,-0.00115396,-0.00754809,-0.01288592,0.00096917,-0.00376447,0.02
 366039,-0.01680641,-0.00000234,0.00000059,-0.00000093,0.00000172,-0.00
 000219,-0.00000084,-0.00000195,-0.00000200,0.00000250,-0.00000089,-0.0
 0000213,0.00000405,0.00000100,-0.00000445,-0.00000392,-0.00000629,-0.0
 0000448,0.00000650,0.00000616,-0.00000550,-0.00000439,0.00000813,0.000
 00019,0.00001688,-0.00000615,-0.00000994,-0.00001685,-0.00000636,-0.00
 005473,0.00004254,-0.00002383,-0.00003846,-0.00000667,0.00000719,-0.00
 006613,0.00000422,-0.00001869,-0.00006716,-0.00015332,0.00005612,0.000
 03157,0.00014035,-0.00006739,-0.00031170,0.00007668,0.00715721,-0.0031
 7583,0.00000260,-0.00000460,-0.00002113,-0.00003144,0.00000636,0.00003
 382,0.00001742,-0.00001710,-0.00009465,-0.00017631,0.00002503,0.000125
 74,0.00052540,-0.00020486,-0.00052728,-0.00239832,-0.00057872,-0.00052
 272,-0.00044514,0.00013459,0.00060249,-0.00072407,-0.00115748,-0.00601
 403,-0.04054133,0.00095601,-0.00788807,-0.01950481,-0.01680170,-0.0632
 8853,-0.00001242,-0.00000090,-0.00000405,-0.00000095,0.00000200,0.0000
 0226,-0.00000026,-0.00000033,0.00000205,0.00000048,0.00000216,-0.00000
 421,0.00000012,-0.00000204,-0.00000186,0.00000080,-0.00000178,0.,-0.00
 000151,0.00000391,0.00000100,0.00000406,0.00000944,-0.00000985,0.00000
 673,-0.00000940,0.00000029,-0.00008190,-0.00004847,0.00005384,-0.00007
 871,0.00008413,0.00003773,0.00003858,0.00000429,-0.00004397,0.00010649
 ,-0.00011459,-0.00000195,0.00009252,0.00010169,-0.00010048,-0.00036136
 ,0.00007667,0.00008566,0.03782499,0.01429088,0.07077259,0.00000159,-0.
 00000123,-0.00000679,-0.00000944,0.00000173,0.00000938,-0.00000154,-0.
 00000475,-0.00002540,-0.00008476,0.00000693,0.00003713,0.00051669,-0.0
 0003947,-0.00021261,-0.00234650,-0.00023245,-0.00124559,-0.00028620,0.
 00006898,0.00037182,0.00958155,-0.00108845,-0.00583973,0.01050407,-0.0
 0176336,-0.00944243,-0.21972168,0.03257225,0.17458889,-0.00000322,-0.0
 0000004,-0.00000023,-0.00000052,0.00000123,0.00000032,-0.00000052,-0.0
 0000105,0.00000076,0.00000016,0.00000012,-0.00000002,0.00000014,-0.000
 00011,0.00000004,-0.00000314,-0.00000372,-0.00000100,-0.00000316,0.000
 00314,-0.00000224,0.00000614,-0.00000099,0.00002046,0.00000613,0.00000
 826,0.00001871,-0.00010951,-0.00009638,0.00008608,-0.00010950,0.000120
 92,0.00004563,-0.00007747,-0.00000237,-0.00001286,0.00004186,-0.000043
 16,0.00002808,0.00004179,0.00005038,0.00001073,-0.00002600,0.00057636,
 0.00308881,-0.00767968,0.00480977,0.02573832,0.20976272,0.00000053,0.0
 0000496,-0.00000303,-0.00000202,0.00000102,0.00000306,0.00000364,0.000
 00065,-0.00000512,-0.00001839,0.00003084,-0.00000201,0.00002718,0.0004
 5913,-0.00010065,-0.00019926,0.00003026,0.00005843,0.00008484,0.000600
 26,-0.00012817,0.00152525,-0.00122190,0.00094702,0.00192554,-0.0045018
 8,-0.00549487,0.03360062,0.01141088,-0.05810629,-0.00000134,0.00000004
 ,-0.00000059,0.00000255,-0.00000322,-0.00000101,-0.00000298,-0.0000028
 5,0.00000282,-0.00000013,-0.00000255,0.00000660,0.00000046,-0.00000440
 ,-0.00000549,-0.00001707,-0.00000953,0.00000580,0.00001379,-0.00000897
 ,-0.00000118,-0.00000985,-0.00001565,0.00002602,0.00001225,-0.00001563
 ,-0.00001680,0.00003480,-0.00006877,0.00012052,-0.00006818,-0.00010503
 ,-0.00009057,-0.00004499,0.00007318,-0.00000002,0.00016768,-0.00002275
 ,0.00037478,-0.00017726,-0.00024446,-0.00029583,-0.00057685,-0.0016654
 6,0.00035965,-0.00133829,-0.00994802,0.00324480,-0.03494253,0.00522986
 ,0.00000276,-0.00000294,-0.00001059,-0.00001077,0.00000307,0.00001670,
 0.00001945,-0.00000510,-0.00002548,-0.00009832,-0.00000209,0.00001990,
 0.00014014,-0.00010034,-0.00006163,-0.00106089,0.00006197,0.00034678,0
 .00045817,-0.00012859,-0.00006670,0.00819081,0.00094529,0.00367536,0.0
 1033586,-0.00551127,-0.03300739,0.18000228,-0.05808150,-0.28909022,-0.
 00000702,-0.00000057,-0.00000292,-0.00000168,0.00000185,0.00000178,-0.
 00000066,-0.00000011,0.00000144,0.00000099,-0.00000068,-0.00000157,0.0
 0000089,0.00000173,0.00000029,-0.00000583,-0.00000257,0.00000302,-0.00
 001159,0.00000723,0.00000250,0.00000841,-0.00001689,0.00000829,0.00000
 432,0.00002612,0.00000825,-0.00009831,0.00000380,-0.00002807,-0.000079
 17,0.00002586,0.00000829,-0.00024152,0.00000005,0.00007333,-0.00005863
 ,0.00027901,-0.00003962,0.00000559,-0.00019996,0.00018207,-0.00309332,
 0.00035901,0.00019925,-0.00714572,0.00323550,0.00680532,-0.18725625,0.
 05910211,0.31098160\\0.00001992,0.00000035,0.00000188,-0.00000866,0.00
 000688,0.00003689,-0.00000268,-0.00001098,-0.00005895,-0.00002934,0.00
 000256,0.00001394,0.00002168,0.00000167,0.00000796,-0.00000130,-0.0000
 0578,-0.00003247,-0.00006628,-0.00000008,-0.00000149,0.00003167,0.0000
 1475,0.00007962,0.00002924,0.00000702,0.00006877,-0.00004683,0.0000001
 9,-0.00010356,0.00000187,-0.00000008,-0.00000043,-0.00000016,-0.000001
 52,0.00000150,-0.00000016,0.00000196,0.00000085,0.00000152,-0.00000066
 ,-0.00000695,0.00000152,-0.00000189,-0.00000672,0.00000211,-0.00000209
 ,0.00001284,0.00000212,0.00000657,0.00001122,0.00000080,0.00000253,-0.
 00000717,0.00000082,-0.00000495,-0.00000578,0.00000107,0.00000127,-0.0
 0000344,0.00000106,-0.00000243,-0.00000282,0.00002096,0.00000189,0.000
 01034,0.00001464,-0.00000423,-0.00000236,0.00001462,0.00000306,-0.0000
 0375,-0.00001182,-0.00000268,-0.00001222,0.00000254,-0.00000708,-0.000
 00139,-0.00000092,-0.00000624,0.00000370\\\@


 GROWING OLD ISN'T SO BAD -- WHEN YOU CONSIDER THE ALTERNATIVE.

                     -- MAURICE CHEVALIER
 Job cpu time:       0 days  2 hours 47 minutes 45.2 seconds.
 Elapsed time:       0 days  0 hours 42 minutes 11.5 seconds.
 File lengths (MBytes):  RWF=    263 Int=      0 D2E=      0 Chk=     12 Scr=      1
 Normal termination of Gaussian 16 at Tue Jun  1 15:43:51 2021.
### All Done ###
