### Starting Gaussian ###
 Entering Gaussian System, Link 0=g16
 Initial command:
 /cluster/software/gaussian/gaussian-16-A.03/avx2/g16/l1.exe "/local/scratch/cz9n3/Gau-31876.inp" -scrdir="/local/scratch/cz9n3/"
 Entering Link 1 = /cluster/software/gaussian/gaussian-16-A.03/avx2/g16/l1.exe PID=     31877.
  
 Copyright (c) 1988,1990,1992,1993,1995,1998,2003,2009,2016,
            Gaussian, Inc.  All Rights Reserved.
  
 This is part of the Gaussian(R) 16 program.  It is based on
 the Gaussian(R) 09 system (copyright 2009, Gaussian, Inc.),
 the Gaussian(R) 03 system (copyright 2003, Gaussian, Inc.),
 the Gaussian(R) 98 system (copyright 1998, Gaussian, Inc.),
 the Gaussian(R) 94 system (copyright 1995, Gaussian, Inc.),
 the Gaussian 92(TM) system (copyright 1992, Gaussian, Inc.),
 the Gaussian 90(TM) system (copyright 1990, Gaussian, Inc.),
 the Gaussian 88(TM) system (copyright 1988, Gaussian, Inc.),
 the Gaussian 86(TM) system (copyright 1986, Carnegie Mellon
 University), and the Gaussian 82(TM) system (copyright 1983,
 Carnegie Mellon University). Gaussian is a federally registered
 trademark of Gaussian, Inc.
  
 This software contains proprietary and confidential information,
 including trade secrets, belonging to Gaussian, Inc.
  
 This software is provided under written license and may be
 used, copied, transmitted, or stored only in accord with that
 written license.
  
 The following legend is applicable only to US Government
 contracts under FAR:
  
                    RESTRICTED RIGHTS LEGEND
  
 Use, reproduction and disclosure by the US Government is
 subject to restrictions as set forth in subparagraphs (a)
 and (c) of the Commercial Computer Software - Restricted
 Rights clause in FAR 52.227-19.
  
 Gaussian, Inc.
 340 Quinnipiac St., Bldg. 40, Wallingford CT 06492
  
  
 ---------------------------------------------------------------
 Warning -- This program may not be used in any manner that
 competes with the business of Gaussian, Inc. or will provide
 assistance to any competitor of Gaussian, Inc.  The licensee
 of this program is prohibited from giving any competitor of
 Gaussian, Inc. access to this program.  By using this program,
 the user acknowledges that Gaussian, Inc. is engaged in the
 business of creating and licensing software in the field of
 computational chemistry and represents and warrants to the
 licensee that it is not a competitor of Gaussian, Inc. and that
 it will not use this program in any manner prohibited above.
 ---------------------------------------------------------------
  

 Cite this work as:
 Gaussian 16, Revision A.03,
 M. J. Frisch, G. W. Trucks, H. B. Schlegel, G. E. Scuseria, 
 M. A. Robb, J. R. Cheeseman, G. Scalmani, V. Barone, 
 G. A. Petersson, H. Nakatsuji, X. Li, M. Caricato, A. V. Marenich, 
 J. Bloino, B. G. Janesko, R. Gomperts, B. Mennucci, H. P. Hratchian, 
 J. V. Ortiz, A. F. Izmaylov, J. L. Sonnenberg, D. Williams-Young, 
 F. Ding, F. Lipparini, F. Egidi, J. Goings, B. Peng, A. Petrone, 
 T. Henderson, D. Ranasinghe, V. G. Zakrzewski, J. Gao, N. Rega, 
 G. Zheng, W. Liang, M. Hada, M. Ehara, K. Toyota, R. Fukuda, 
 J. Hasegawa, M. Ishida, T. Nakajima, Y. Honda, O. Kitao, H. Nakai, 
 T. Vreven, K. Throssell, J. A. Montgomery, Jr., J. E. Peralta, 
 F. Ogliaro, M. J. Bearpark, J. J. Heyd, E. N. Brothers, K. N. Kudin, 
 V. N. Staroverov, T. A. Keith, R. Kobayashi, J. Normand, 
 K. Raghavachari, A. P. Rendell, J. C. Burant, S. S. Iyengar, 
 J. Tomasi, M. Cossi, J. M. Millam, M. Klene, C. Adamo, R. Cammi, 
 J. W. Ochterski, R. L. Martin, K. Morokuma, O. Farkas, 
 J. B. Foresman, and D. J. Fox, Gaussian, Inc., Wallingford CT, 2016.
 
 ******************************************
 Gaussian 16:  ES64L-G16RevA.03 25-Dec-2016
                 1-Jun-2021 
 ******************************************
 %chk=CCCCNCNpCpCN.chk
 %NProcShared=20
 Will use up to   20 processors via shared memory.
 -----------------------------
 # opt freq b3lyp/6-31g(2df,p)
 -----------------------------
 1/18=20,19=15,26=3,38=1/1,3;
 2/9=110,12=2,17=6,18=5,40=1/2;
 3/5=1,6=6,7=104,11=2,25=1,30=1,71=1,74=-5/1,2,3;
 4//1;
 5/5=2,38=5/2;
 6/7=2,8=2,9=2,10=2,28=1/1;
 7//1,2,3,16;
 1/18=20,19=15,26=3/3(2);
 2/9=110/2;
 99//99;
 2/9=110/2;
 3/5=1,6=6,7=104,11=2,25=1,30=1,71=1,74=-5/1,2,3;
 4/5=5,16=3,69=1/1;
 5/5=2,38=5/2;
 7//1,2,3,16;
 1/18=20,19=15,26=3/3(-5);
 2/9=110/2;
 6/7=2,8=2,9=2,10=2,19=2,28=1/1;
 99/9=1/99;
 -------------------
 Title Card Required
 -------------------
 Symbolic Z-matrix:
 Charge =  0 Multiplicity = 1
 C                     1.01713   0.04777  -0.07713 
 C                     2.53617   0.058    -0.07753 
 C                     3.08206   1.43337   0.3021 
 C                     4.61166   1.43417   0.28576 
 N                     5.10045   2.76602   0.63622 
 C                     6.55286   2.78904   0.71963 
 N                     7.02757   4.11846   1.12626 
 C                     6.55822   4.4744    2.47189 
 C                     8.48898   4.10086   1.08734 
 N                     8.99065   5.41575   1.42274 
 H                     0.64496  -0.94273  -0.35574 
 H                     0.62169   0.77492  -0.79342 
 H                     0.62462   0.29349   0.91473 
 H                     2.89941  -0.22378  -1.07257 
 H                     2.9033   -0.69635   0.62823 
 H                     2.71678   1.70765   1.30053 
 H                     2.70073   2.18724  -0.39823 
 H                     4.96943   1.15265  -0.71059 
 H                     4.97799   0.69088   1.00474 
 H                     4.71601   3.01937   1.53896 
 H                     6.94869   2.55572  -0.2772 
 H                     6.91484   2.01906   1.41343 
 H                     5.46741   4.55662   2.5108 
 H                     6.9087    5.4669    2.77436 
 H                     6.88031   3.7461    3.22401 
 H                     8.84121   3.85269   0.07876 
 H                     8.90562   3.35947   1.77865 
 H                     8.60643   6.07012   0.74771 
 H                     10.00278   5.4318    1.31898 
 

 GradGradGradGradGradGradGradGradGradGradGradGradGradGradGradGradGradGrad
 Berny optimization.
 Initialization pass.
                           ----------------------------
                           !    Initial Parameters    !
                           ! (Angstroms and Degrees)  !
 --------------------------                            --------------------------
 ! Name  Definition              Value          Derivative Info.                !
 --------------------------------------------------------------------------------
 ! R1    R(1,2)                  1.5191         estimate D2E/DX2                !
 ! R2    R(1,11)                 1.0942         estimate D2E/DX2                !
 ! R3    R(1,12)                 1.0946         estimate D2E/DX2                !
 ! R4    R(1,13)                 1.0946         estimate D2E/DX2                !
 ! R5    R(2,3)                  1.5277         estimate D2E/DX2                !
 ! R6    R(2,14)                 1.0961         estimate D2E/DX2                !
 ! R7    R(2,15)                 1.0963         estimate D2E/DX2                !
 ! R8    R(3,4)                  1.5297         estimate D2E/DX2                !
 ! R9    R(3,16)                 1.098          estimate D2E/DX2                !
 ! R10   R(3,17)                 1.0974         estimate D2E/DX2                !
 ! R11   R(4,5)                  1.4614         estimate D2E/DX2                !
 ! R12   R(4,18)                 1.0954         estimate D2E/DX2                !
 ! R13   R(4,19)                 1.0971         estimate D2E/DX2                !
 ! R14   R(5,6)                  1.455          estimate D2E/DX2                !
 ! R15   R(5,20)                 1.0134         estimate D2E/DX2                !
 ! R16   R(6,7)                  1.469          estimate D2E/DX2                !
 ! R17   R(6,21)                 1.0976         estimate D2E/DX2                !
 ! R18   R(6,22)                 1.0978         estimate D2E/DX2                !
 ! R19   R(7,8)                  1.4689         estimate D2E/DX2                !
 ! R20   R(7,9)                  1.462          estimate D2E/DX2                !
 ! R21   R(8,23)                 1.0946         estimate D2E/DX2                !
 ! R22   R(8,24)                 1.0952         estimate D2E/DX2                !
 ! R23   R(8,25)                 1.0954         estimate D2E/DX2                !
 ! R24   R(9,10)                 1.4468         estimate D2E/DX2                !
 ! R25   R(9,26)                 1.0968         estimate D2E/DX2                !
 ! R26   R(9,27)                 1.096          estimate D2E/DX2                !
 ! R27   R(10,28)                1.0156         estimate D2E/DX2                !
 ! R28   R(10,29)                1.0176         estimate D2E/DX2                !
 ! A1    A(2,1,11)             110.2525         estimate D2E/DX2                !
 ! A2    A(2,1,12)             110.8918         estimate D2E/DX2                !
 ! A3    A(2,1,13)             110.9341         estimate D2E/DX2                !
 ! A4    A(11,1,12)            108.1708         estimate D2E/DX2                !
 ! A5    A(11,1,13)            108.1776         estimate D2E/DX2                !
 ! A6    A(12,1,13)            108.3172         estimate D2E/DX2                !
 ! A7    A(1,2,3)              111.3046         estimate D2E/DX2                !
 ! A8    A(1,2,14)             109.2622         estimate D2E/DX2                !
 ! A9    A(1,2,15)             109.2726         estimate D2E/DX2                !
 ! A10   A(3,2,14)             109.7927         estimate D2E/DX2                !
 ! A11   A(3,2,15)             109.8672         estimate D2E/DX2                !
 ! A12   A(14,2,15)            107.2496         estimate D2E/DX2                !
 ! A13   A(2,3,4)              110.8016         estimate D2E/DX2                !
 ! A14   A(2,3,16)             109.3902         estimate D2E/DX2                !
 ! A15   A(2,3,17)             109.6171         estimate D2E/DX2                !
 ! A16   A(4,3,16)             110.0142         estimate D2E/DX2                !
 ! A17   A(4,3,17)             109.8953         estimate D2E/DX2                !
 ! A18   A(16,3,17)            107.0448         estimate D2E/DX2                !
 ! A19   A(3,4,5)              109.4129         estimate D2E/DX2                !
 ! A20   A(3,4,18)             109.6434         estimate D2E/DX2                !
 ! A21   A(3,4,19)             109.0587         estimate D2E/DX2                !
 ! A22   A(5,4,18)             110.0662         estimate D2E/DX2                !
 ! A23   A(5,4,19)             110.4028         estimate D2E/DX2                !
 ! A24   A(18,4,19)            108.2343         estimate D2E/DX2                !
 ! A25   A(4,5,6)              111.2263         estimate D2E/DX2                !
 ! A26   A(4,5,20)             108.3366         estimate D2E/DX2                !
 ! A27   A(6,5,20)             108.8851         estimate D2E/DX2                !
 ! A28   A(5,6,7)              110.6562         estimate D2E/DX2                !
 ! A29   A(5,6,21)             107.7316         estimate D2E/DX2                !
 ! A30   A(5,6,22)             110.7486         estimate D2E/DX2                !
 ! A31   A(7,6,21)             109.0998         estimate D2E/DX2                !
 ! A32   A(7,6,22)             110.6848         estimate D2E/DX2                !
 ! A33   A(21,6,22)            107.8148         estimate D2E/DX2                !
 ! A34   A(6,7,8)              111.6912         estimate D2E/DX2                !
 ! A35   A(6,7,9)              107.7428         estimate D2E/DX2                !
 ! A36   A(8,7,9)              110.2849         estimate D2E/DX2                !
 ! A37   A(7,8,23)             111.6652         estimate D2E/DX2                !
 ! A38   A(7,8,24)             111.7374         estimate D2E/DX2                !
 ! A39   A(7,8,25)             111.9587         estimate D2E/DX2                !
 ! A40   A(23,8,24)            103.9472         estimate D2E/DX2                !
 ! A41   A(23,8,25)            108.576          estimate D2E/DX2                !
 ! A42   A(24,8,25)            108.5914         estimate D2E/DX2                !
 ! A43   A(7,9,10)             109.2381         estimate D2E/DX2                !
 ! A44   A(7,9,26)             110.3786         estimate D2E/DX2                !
 ! A45   A(7,9,27)             111.7986         estimate D2E/DX2                !
 ! A46   A(10,9,26)            107.9073         estimate D2E/DX2                !
 ! A47   A(10,9,27)            109.6795         estimate D2E/DX2                !
 ! A48   A(26,9,27)            107.7522         estimate D2E/DX2                !
 ! A49   A(9,10,28)            107.4764         estimate D2E/DX2                !
 ! A50   A(9,10,29)            109.609          estimate D2E/DX2                !
 ! A51   A(28,10,29)           107.3588         estimate D2E/DX2                !
 ! D1    D(11,1,2,3)           179.722          estimate D2E/DX2                !
 ! D2    D(11,1,2,14)           58.3034         estimate D2E/DX2                !
 ! D3    D(11,1,2,15)          -58.7589         estimate D2E/DX2                !
 ! D4    D(12,1,2,3)            59.9449         estimate D2E/DX2                !
 ! D5    D(12,1,2,14)          -61.4737         estimate D2E/DX2                !
 ! D6    D(12,1,2,15)         -178.536          estimate D2E/DX2                !
 ! D7    D(13,1,2,3)           -60.465          estimate D2E/DX2                !
 ! D8    D(13,1,2,14)          178.1163         estimate D2E/DX2                !
 ! D9    D(13,1,2,15)           61.054          estimate D2E/DX2                !
 ! D10   D(1,2,3,4)           -179.4862         estimate D2E/DX2                !
 ! D11   D(1,2,3,16)            59.058          estimate D2E/DX2                !
 ! D12   D(1,2,3,17)           -58.0288         estimate D2E/DX2                !
 ! D13   D(14,2,3,4)           -58.3774         estimate D2E/DX2                !
 ! D14   D(14,2,3,16)         -179.8332         estimate D2E/DX2                !
 ! D15   D(14,2,3,17)           63.08           estimate D2E/DX2                !
 ! D16   D(15,2,3,4)            59.3418         estimate D2E/DX2                !
 ! D17   D(15,2,3,16)          -62.1141         estimate D2E/DX2                !
 ! D18   D(15,2,3,17)         -179.2008         estimate D2E/DX2                !
 ! D19   D(2,3,4,5)            179.296          estimate D2E/DX2                !
 ! D20   D(2,3,4,18)            58.4951         estimate D2E/DX2                !
 ! D21   D(2,3,4,19)           -59.8524         estimate D2E/DX2                !
 ! D22   D(16,3,4,5)           -59.6161         estimate D2E/DX2                !
 ! D23   D(16,3,4,18)          179.5831         estimate D2E/DX2                !
 ! D24   D(16,3,4,19)           61.2355         estimate D2E/DX2                !
 ! D25   D(17,3,4,5)            58.0024         estimate D2E/DX2                !
 ! D26   D(17,3,4,18)          -62.7984         estimate D2E/DX2                !
 ! D27   D(17,3,4,19)          178.854          estimate D2E/DX2                !
 ! D28   D(3,4,5,6)            176.2026         estimate D2E/DX2                !
 ! D29   D(3,4,5,20)            56.5638         estimate D2E/DX2                !
 ! D30   D(18,4,5,6)           -63.254          estimate D2E/DX2                !
 ! D31   D(18,4,5,20)          177.1072         estimate D2E/DX2                !
 ! D32   D(19,4,5,6)            56.1713         estimate D2E/DX2                !
 ! D33   D(19,4,5,20)          -63.4674         estimate D2E/DX2                !
 ! D34   D(4,5,6,7)           -177.6732         estimate D2E/DX2                !
 ! D35   D(4,5,6,21)            63.1387         estimate D2E/DX2                !
 ! D36   D(4,5,6,22)           -54.5463         estimate D2E/DX2                !
 ! D37   D(20,5,6,7)           -58.3613         estimate D2E/DX2                !
 ! D38   D(20,5,6,21)         -177.5494         estimate D2E/DX2                !
 ! D39   D(20,5,6,22)           64.7656         estimate D2E/DX2                !
 ! D40   D(5,6,7,8)             63.1283         estimate D2E/DX2                !
 ! D41   D(5,6,7,9)           -175.6055         estimate D2E/DX2                !
 ! D42   D(21,6,7,8)          -178.5131         estimate D2E/DX2                !
 ! D43   D(21,6,7,9)           -57.2469         estimate D2E/DX2                !
 ! D44   D(22,6,7,8)           -60.0355         estimate D2E/DX2                !
 ! D45   D(22,6,7,9)            61.2307         estimate D2E/DX2                !
 ! D46   D(6,7,8,23)           -63.8442         estimate D2E/DX2                !
 ! D47   D(6,7,8,24)          -179.7942         estimate D2E/DX2                !
 ! D48   D(6,7,8,25)            58.1446         estimate D2E/DX2                !
 ! D49   D(9,7,8,23)           176.3755         estimate D2E/DX2                !
 ! D50   D(9,7,8,24)            60.4256         estimate D2E/DX2                !
 ! D51   D(9,7,8,25)           -61.6356         estimate D2E/DX2                !
 ! D52   D(6,7,9,10)           177.3564         estimate D2E/DX2                !
 ! D53   D(6,7,9,26)            58.8638         estimate D2E/DX2                !
 ! D54   D(6,7,9,27)           -61.0617         estimate D2E/DX2                !
 ! D55   D(8,7,9,10)           -60.5039         estimate D2E/DX2                !
 ! D56   D(8,7,9,26)          -178.9965         estimate D2E/DX2                !
 ! D57   D(8,7,9,27)            61.078          estimate D2E/DX2                !
 ! D58   D(7,9,10,28)          -58.7524         estimate D2E/DX2                !
 ! D59   D(7,9,10,29)         -175.1257         estimate D2E/DX2                !
 ! D60   D(26,9,10,28)          61.2716         estimate D2E/DX2                !
 ! D61   D(26,9,10,29)         -55.1017         estimate D2E/DX2                !
 ! D62   D(27,9,10,28)         178.3924         estimate D2E/DX2                !
 ! D63   D(27,9,10,29)          62.0191         estimate D2E/DX2                !
 --------------------------------------------------------------------------------
 Trust Radius=3.00D-01 FncErr=1.00D-07 GrdErr=1.00D-06 EigMax=2.50D+02 EigMin=1.00D-04
 Number of steps in this run=    152 maximum allowed number of steps=    174.
 GradGradGradGradGradGradGradGradGradGradGradGradGradGradGradGradGradGrad

                          Input orientation:                          
 ---------------------------------------------------------------------
 Center     Atomic      Atomic             Coordinates (Angstroms)
 Number     Number       Type             X           Y           Z
 ---------------------------------------------------------------------
      1          6           0        1.017130    0.047770   -0.077130
      2          6           0        2.536170    0.058000   -0.077530
      3          6           0        3.082060    1.433370    0.302100
      4          6           0        4.611660    1.434170    0.285760
      5          7           0        5.100450    2.766020    0.636220
      6          6           0        6.552860    2.789040    0.719630
      7          7           0        7.027570    4.118460    1.126260
      8          6           0        6.558220    4.474400    2.471890
      9          6           0        8.488980    4.100860    1.087340
     10          7           0        8.990650    5.415750    1.422740
     11          1           0        0.644960   -0.942730   -0.355740
     12          1           0        0.621690    0.774920   -0.793420
     13          1           0        0.624620    0.293490    0.914730
     14          1           0        2.899410   -0.223780   -1.072570
     15          1           0        2.903300   -0.696350    0.628230
     16          1           0        2.716780    1.707650    1.300530
     17          1           0        2.700730    2.187240   -0.398230
     18          1           0        4.969430    1.152650   -0.710590
     19          1           0        4.977990    0.690880    1.004740
     20          1           0        4.716010    3.019370    1.538960
     21          1           0        6.948690    2.555720   -0.277200
     22          1           0        6.914840    2.019060    1.413430
     23          1           0        5.467410    4.556620    2.510800
     24          1           0        6.908700    5.466900    2.774360
     25          1           0        6.880310    3.746100    3.224010
     26          1           0        8.841210    3.852690    0.078760
     27          1           0        8.905620    3.359470    1.778650
     28          1           0        8.606430    6.070120    0.747710
     29          1           0       10.002780    5.431800    1.318980
 ---------------------------------------------------------------------
                    Distance matrix (angstroms):
                    1          2          3          4          5
     1  C    0.000000
     2  C    1.519074   0.000000
     3  C    2.515480   1.527664   0.000000
     4  C    3.869682   2.516641   1.529687   0.000000
     5  N    4.956940   3.797149   2.441616   1.461356   0.000000
     6  C    6.228458   4.922179   3.749483   2.406693   1.454985
     7  N    7.358264   6.173258   4.843139   3.707893   2.404792
     8  C    7.536328   6.494691   5.102895   4.220339   2.900576
     9  C    8.579748   7.289553   6.080040   4.773613   3.669801
    10  N    9.728404   8.521538   7.212948   6.026712   4.772142
    11  H    1.094177   2.157669   3.466708   4.668606   5.881344
    12  H    1.094619   2.166035   2.772569   4.185582   5.105648
    13  H    1.094636   2.166578   2.777346   4.194430   5.120940
    14  H    2.146536   1.096106   2.160839   2.743293   4.086985
    15  H    2.146831   1.096324   2.161949   2.752253   4.100675
    16  H    2.746263   2.157085   1.097962   2.166822   2.691345
    17  H    2.741340   2.159535   1.097358   2.164858   2.676514
    18  H    4.152434   2.742221   2.160211   1.095430   2.105713
    19  H    4.156013   2.744873   2.153960   1.097092   2.111163
    20  H    5.012371   4.016772   2.591334   2.023427   1.013371
    21  H    6.443077   5.074328   4.067688   2.652642   2.072330
    22  H    6.394587   5.024089   4.033397   2.630280   2.110454
    23  H    6.843398   5.960638   4.508097   3.928461   2.618198
    24  H    8.497562   7.517213   6.084785   5.266159   3.890522
    25  H    7.678024   6.585879   5.320994   4.373226   3.290154
    26  H    8.701606   7.360545   6.250664   4.876595   3.935086
    27  H    8.754402   7.410466   6.309034   4.936962   4.017045
    28  H    9.723504   8.583395   7.226111   6.137069   4.818859
    29  H   10.567819   9.304742   8.057162   6.790638   5.621867
                    6          7          8          9         10
     6  C    0.000000
     7  N    1.469032   0.000000
     8  C    2.431231   1.468912   0.000000
     9  C    2.367413   1.462034   2.405067   0.000000
    10  N    3.651957   2.371612   2.811329   1.446756   0.000000
    11  H    7.070064   8.279473   8.503378   9.436574  10.641607
    12  H    6.443972   7.476612   7.719507   8.746050   9.822839
    13  H    6.435050   7.461428   7.423770   8.739223   9.822733
    14  H    5.063276   6.382132   6.929862   7.389927   8.667991
    15  H    5.047335   6.359248   6.595012   7.377251   8.662843
    16  H    4.027699   4.942194   4.876848   6.252295   7.288785
    17  H    4.055944   4.977472   5.324370   6.274767   7.300843
    18  H    2.688969   4.050430   4.866873   4.930692   6.236612
    19  H    2.638897   3.995479   4.354846   4.895083   6.212935
    20  H    2.024443   2.592611   2.526105   3.950808   4.901907
    21  H    1.097629   2.101923   3.375099   2.573309   3.903738
    22  H    1.097842   2.121946   2.697445   2.630236   3.980776
    23  H    2.740589   2.131440   1.094596   3.371030   3.786185
    24  H    3.394035   2.132757   1.095162   2.685030   2.482742
    25  H    2.700945   2.135625   1.095375   2.697968   3.238185
    26  H    2.603577   2.111203   3.365359   1.096762   2.066826
    27  H    2.642422   2.128086   2.689598   1.095973   2.088586
    28  H    3.870843   2.538715   3.116774   2.001781   1.015623
    29  H    4.386952   3.257895   3.756436   2.028953   1.017561
                   11         12         13         14         15
    11  H    0.000000
    12  H    1.772689   0.000000
    13  H    1.772780   1.774700   0.000000
    14  H    2.472505   2.502666   3.064572   0.000000
    15  H    2.475682   3.064550   2.500849   1.765236   0.000000
    16  H    3.749691   3.105481   2.554569   3.065188   2.503197
    17  H    3.744958   2.544254   3.101675   2.511419   3.067531
    18  H    4.818462   4.364904   4.717753   2.512085   3.078982
    19  H    4.826462   4.713575   4.372396   3.077713   2.523986
    20  H    5.988453   5.219292   4.955760   4.542923   4.233429
    21  H    7.209877   6.593077   6.821455   4.975430   5.268865
    22  H    7.156365   6.783938   6.541648   5.228212   4.907387
    23  H    7.855948   6.978548   6.646377   6.502875   6.141044
    24  H    9.492909   8.618017   8.349375   7.953434   7.657333
    25  H    8.583666   8.008619   7.509124   7.075882   6.503080
    26  H    9.505964   8.820084   8.993281   7.297133   7.500297
    27  H    9.555263   9.050908   8.872517   7.552728   7.334916
    28  H   10.666896   9.704138   9.854270   8.688882   8.850146
    29  H   11.445878  10.684269  10.701193   9.389513   9.403934
                   16         17         18         19         20
    16  H    0.000000
    17  H    1.765234   0.000000
    18  H    3.070352   2.512955   0.000000
    19  H    2.496875   3.064854   1.776418   0.000000
    20  H    2.402994   2.916590   2.934168   2.403308   0.000000
    21  H    4.595380   4.265629   2.464529   3.000776   2.915179
    22  H    4.211108   4.590111   3.007781   2.383795   2.418932
    23  H    4.140936   4.661645   4.712998   4.177523   1.967794
    24  H    5.820338   6.207134   5.875236   5.446977   3.510628
    25  H    5.018968   5.746265   5.085128   4.228280   2.837556
    26  H    6.603224   6.380183   4.785809   5.077298   4.454647
    27  H    6.423305   6.679341   5.153636   4.811090   4.210220
    28  H    7.350152   7.160114   6.287759   6.493679   5.006847
    29  H    8.182630   8.172877   6.911215   6.915460   5.815337
                   21         22         23         24         25
    21  H    0.000000
    22  H    1.774086   0.000000
    23  H    3.737745   3.120655   0.000000
    24  H    4.217652   3.706719   1.724932   0.000000
    25  H    3.698669   2.502411   1.778173   1.778804   0.000000
    26  H    2.321739   2.975642   4.218159   3.688703   3.707976
    27  H    2.949934   2.427610   3.713556   3.069265   2.518021
    28  H    4.018650   4.440242   3.905460   2.711729   3.809543
    29  H    4.488551   4.603378   4.770320   3.419458   4.027473
                   26         27         28         29
    26  H    0.000000
    27  H    1.771169   0.000000
    28  H    2.328006   2.915472   0.000000
    29  H    2.319694   2.389479   1.638168   0.000000
 Stoichiometry    C7H19N3
 Framework group  C1[X(C7H19N3)]
 Deg. of freedom    81
 Full point group                 C1      NOp   1
 Largest Abelian subgroup         C1      NOp   1
 Largest concise Abelian subgroup C1      NOp   1
                         Standard orientation:                         
 ---------------------------------------------------------------------
 Center     Atomic      Atomic             Coordinates (Angstroms)
 Number     Number       Type             X           Y           Z
 ---------------------------------------------------------------------
      1          6           0       -5.149743    0.361484   -0.187796
      2          6           0       -3.925205   -0.440746    0.217815
      3          6           0       -2.637053    0.249683   -0.226851
      4          6           0       -1.412426   -0.573688    0.176005
      5          7           0       -0.200277    0.104737   -0.277864
      6          6           0        0.994086   -0.599963    0.162453
      7          7           0        2.204326    0.121736   -0.252908
      8          6           0        2.286731    1.448440    0.372208
      9          6           0        3.359513   -0.690062    0.126658
     10          7           0        4.569525   -0.037427   -0.323942
     11          1           0       -6.061610   -0.150325    0.134344
     12          1           0       -5.193251    0.484733   -1.274584
     13          1           0       -5.135763    1.355305    0.270847
     14          1           0       -3.983663   -1.440247   -0.228312
     15          1           0       -3.921805   -0.570335    1.306447
     16          1           0       -2.583821    1.248526    0.225920
     17          1           0       -2.651078    0.390150   -1.315092
     18          1           0       -1.475377   -1.571008   -0.272722
     19          1           0       -1.400883   -0.688254    1.267037
     20          1           0       -0.192582    1.039484    0.113426
     21          1           0        0.988826   -1.592248   -0.306730
     22          1           0        0.982228   -0.743005    1.250872
     23          1           0        1.465427    2.097548    0.052430
     24          1           0        3.186896    1.988590    0.060245
     25          1           0        2.277600    1.387221    1.465833
     26          1           0        3.308624   -1.674811   -0.353517
     27          1           0        3.407195   -0.848628    1.210051
     28          1           0        4.501787    0.068468   -1.331756
     29          1           0        5.370821   -0.635371   -0.134682
 ---------------------------------------------------------------------
 Rotational constants (GHZ):           5.3912816           0.3521413           0.3402620
 Standard basis: 6-31G(2df,p) (6D, 7F)
 There are   405 symmetry adapted cartesian basis functions of A   symmetry.
 There are   375 symmetry adapted basis functions of A   symmetry.
   375 basis functions,   573 primitive gaussians,   405 cartesian basis functions
    41 alpha electrons       41 beta electrons
       nuclear repulsion energy       557.4721354301 Hartrees.
 NAtoms=   29 NActive=   29 NUniq=   29 SFac= 1.00D+00 NAtFMM=   60 NAOKFM=F Big=F
 Integral buffers will be    131072 words long.
 Raffenetti 2 integral format.
 Two-electron integral symmetry is turned on.
 One-electron integrals computed using PRISM.
 PrsmSu:  requested number of processors reduced to:  13 ShMem   1 Linda.
 NBasis=   375 RedAO= T EigKep=  2.67D-04  NBF=   375
 NBsUse=   375 1.00D-06 EigRej= -1.00D+00 NBFU=   375
 ExpMin= 1.61D-01 ExpMax= 4.17D+03 ExpMxC= 6.27D+02 IAcc=3 IRadAn=         5 AccDes= 0.00D+00
 Harris functional with IExCor=  402 and IRadAn=       5 diagonalized for initial guess.
 HarFok:  IExCor=  402 AccDes= 0.00D+00 IRadAn=         5 IDoV= 1 UseB2=F ITyADJ=14
 ICtDFT=  3500011 ScaDFX=  1.000000  1.000000  1.000000  1.000000
 FoFCou: FMM=F IPFlag=           0 FMFlag=      100000 FMFlg1=           0
         NFxFlg=           0 DoJE=T BraDBF=F KetDBF=T FulRan=T
         wScrn=  0.000000 ICntrl=       500 IOpCl=  0 I1Cent=   200000004 NGrid=           0
         NMat0=    1 NMatS0=      1 NMatT0=    0 NMatD0=    1 NMtDS0=    0 NMtDT0=    0
 Petite list used in FoFCou.
 Requested convergence on RMS density matrix=1.00D-08 within 128 cycles.
 Requested convergence on MAX density matrix=1.00D-06.
 Requested convergence on             energy=1.00D-06.
 No special actions if energy rises.
 Integral accuracy reduced to 1.0D-05 until final iterations.
 Initial convergence to 1.0D-05 achieved.  Increase integral accuracy.
 SCF Done:  E(RB3LYP) =  -442.445350268     A.U. after   12 cycles
            NFock= 12  Conv=0.38D-08     -V/T= 2.0080

 **********************************************************************

            Population analysis using the SCF density.

 **********************************************************************

 Orbital symmetries:
       Occupied  (A) (A) (A) (A) (A) (A) (A) (A) (A) (A) (A) (A)
                 (A) (A) (A) (A) (A) (A) (A) (A) (A) (A) (A) (A)
                 (A) (A) (A) (A) (A) (A) (A) (A) (A) (A) (A) (A)
                 (A) (A) (A) (A) (A)
       Virtual   (A) (A) (A) (A) (A) (A) (A) (A) (A) (A) (A) (A)
                 (A) (A) (A) (A) (A) (A) (A) (A) (A) (A) (A) (A)
                 (A) (A) (A) (A) (A) (A) (A) (A) (A) (A) (A) (A)
                 (A) (A) (A) (A) (A) (A) (A) (A) (A) (A) (A) (A)
                 (A) (A) (A) (A) (A) (A) (A) (A) (A) (A) (A) (A)
                 (A) (A) (A) (A) (A) (A) (A) (A) (A) (A) (A) (A)
                 (A) (A) (A) (A) (A) (A) (A) (A) (A) (A) (A) (A)
                 (A) (A) (A) (A) (A) (A) (A) (A) (A) (A) (A) (A)
                 (A) (A) (A) (A) (A) (A) (A) (A) (A) (A) (A) (A)
                 (A) (A) (A) (A) (A) (A) (A) (A) (A) (A) (A) (A)
                 (A) (A) (A) (A) (A) (A) (A) (A) (A) (A) (A) (A)
                 (A) (A) (A) (A) (A) (A) (A) (A) (A) (A) (A) (A)
                 (A) (A) (A) (A) (A) (A) (A) (A) (A) (A) (A) (A)
                 (A) (A) (A) (A) (A) (A) (A) (A) (A) (A) (A) (A)
                 (A) (A) (A) (A) (A) (A) (A) (A) (A) (A) (A) (A)
                 (A) (A) (A) (A) (A) (A) (A) (A) (A) (A) (A) (A)
                 (A) (A) (A) (A) (A) (A) (A) (A) (A) (A) (A) (A)
                 (A) (A) (A) (A) (A) (A) (A) (A) (A) (A) (A) (A)
                 (A) (A) (A) (A) (A) (A) (A) (A) (A) (A) (A) (A)
                 (A) (A) (A) (A) (A) (A) (A) (A) (A) (A) (A) (A)
                 (A) (A) (A) (A) (A) (A) (A) (A) (A) (A) (A) (A)
                 (A) (A) (A) (A) (A) (A) (A) (A) (A) (A) (A) (A)
                 (A) (A) (A) (A) (A) (A) (A) (A) (A) (A) (A) (A)
                 (A) (A) (A) (A) (A) (A) (A) (A) (A) (A) (A) (A)
                 (A) (A) (A) (A) (A) (A) (A) (A) (A) (A) (A) (A)
                 (A) (A) (A) (A) (A) (A) (A) (A) (A) (A) (A) (A)
                 (A) (A) (A) (A) (A) (A) (A) (A) (A) (A) (A) (A)
                 (A) (A) (A) (A) (A) (A) (A) (A) (A) (A)
 The electronic state is 1-A.
 Alpha  occ. eigenvalues --  -14.31592 -14.30251 -14.30180 -10.22174 -10.21942
 Alpha  occ. eigenvalues --  -10.19656 -10.18993 -10.17484 -10.17288 -10.16827
 Alpha  occ. eigenvalues --   -0.93852  -0.89247  -0.84653  -0.78654  -0.71308
 Alpha  occ. eigenvalues --   -0.69079  -0.64579  -0.60662  -0.58528  -0.57224
 Alpha  occ. eigenvalues --   -0.50538  -0.48266  -0.47945  -0.46210  -0.45317
 Alpha  occ. eigenvalues --   -0.42505  -0.42048  -0.41195  -0.39896  -0.39279
 Alpha  occ. eigenvalues --   -0.38445  -0.37524  -0.35559  -0.35361  -0.34868
 Alpha  occ. eigenvalues --   -0.33231  -0.32374  -0.31148  -0.23329  -0.22115
 Alpha  occ. eigenvalues --   -0.21224
 Alpha virt. eigenvalues --    0.08036   0.09132   0.09854   0.10712   0.11902
 Alpha virt. eigenvalues --    0.13283   0.14482   0.14814   0.15551   0.15789
 Alpha virt. eigenvalues --    0.16651   0.17584   0.18448   0.18737   0.18853
 Alpha virt. eigenvalues --    0.19621   0.20621   0.21177   0.21878   0.22621
 Alpha virt. eigenvalues --    0.22876   0.23013   0.23833   0.25261   0.26299
 Alpha virt. eigenvalues --    0.28041   0.30428   0.32992   0.40261   0.45348
 Alpha virt. eigenvalues --    0.46252   0.48057   0.49145   0.50506   0.51618
 Alpha virt. eigenvalues --    0.52112   0.52614   0.53423   0.55309   0.57109
 Alpha virt. eigenvalues --    0.58036   0.59383   0.59898   0.61909   0.62115
 Alpha virt. eigenvalues --    0.63166   0.64516   0.66208   0.68435   0.69204
 Alpha virt. eigenvalues --    0.69836   0.71156   0.71754   0.72048   0.72448
 Alpha virt. eigenvalues --    0.73552   0.74024   0.74381   0.75292   0.75906
 Alpha virt. eigenvalues --    0.76308   0.77898   0.78659   0.78720   0.79795
 Alpha virt. eigenvalues --    0.80673   0.81239   0.81447   0.83118   0.84325
 Alpha virt. eigenvalues --    0.84634   0.85649   0.86933   0.87606   0.87856
 Alpha virt. eigenvalues --    0.89307   0.90329   0.91068   0.92007   0.93371
 Alpha virt. eigenvalues --    0.96094   1.02415   1.07237   1.09117   1.13421
 Alpha virt. eigenvalues --    1.15074   1.17791   1.19387   1.20724   1.21238
 Alpha virt. eigenvalues --    1.22405   1.24207   1.25020   1.25946   1.30172
 Alpha virt. eigenvalues --    1.32268   1.33149   1.33862   1.35410   1.37510
 Alpha virt. eigenvalues --    1.37947   1.40469   1.42881   1.44452   1.46988
 Alpha virt. eigenvalues --    1.49565   1.52486   1.52970   1.54719   1.54981
 Alpha virt. eigenvalues --    1.57192   1.57783   1.60343   1.61562   1.63650
 Alpha virt. eigenvalues --    1.66074   1.67164   1.71332   1.72834   1.75266
 Alpha virt. eigenvalues --    1.76226   1.78514   1.82414   1.82886   1.83556
 Alpha virt. eigenvalues --    1.86691   1.88163   1.88217   1.90834   1.93142
 Alpha virt. eigenvalues --    1.93839   1.96785   1.98243   1.99994   2.02198
 Alpha virt. eigenvalues --    2.05204   2.07308   2.10449   2.13232   2.14920
 Alpha virt. eigenvalues --    2.19207   2.20192   2.22146   2.23944   2.24160
 Alpha virt. eigenvalues --    2.29548   2.30615   2.32242   2.34407   2.35158
 Alpha virt. eigenvalues --    2.36703   2.38005   2.42040   2.43602   2.46852
 Alpha virt. eigenvalues --    2.47906   2.49756   2.51577   2.57662   2.61011
 Alpha virt. eigenvalues --    2.63141   2.65663   2.66835   2.68336   2.73718
 Alpha virt. eigenvalues --    2.73991   2.75347   2.76506   2.77816   2.78099
 Alpha virt. eigenvalues --    2.78811   2.80985   2.81399   2.82928   2.84022
 Alpha virt. eigenvalues --    2.85696   2.87685   2.87898   2.88021   2.89519
 Alpha virt. eigenvalues --    2.91318   2.92226   2.92587   2.94266   2.95811
 Alpha virt. eigenvalues --    2.96341   2.96629   2.98073   3.00518   3.01612
 Alpha virt. eigenvalues --    3.02696   3.03979   3.06054   3.06555   3.09091
 Alpha virt. eigenvalues --    3.12738   3.15844   3.18620   3.20133   3.20812
 Alpha virt. eigenvalues --    3.26867   3.27369   3.30274   3.31479   3.31960
 Alpha virt. eigenvalues --    3.33017   3.36042   3.37726   3.40632   3.42022
 Alpha virt. eigenvalues --    3.44954   3.46542   3.50767   3.51083   3.53571
 Alpha virt. eigenvalues --    3.54504   3.55892   3.56636   3.57748   3.60269
 Alpha virt. eigenvalues --    3.61758   3.62082   3.63268   3.65488   3.65850
 Alpha virt. eigenvalues --    3.69937   3.70020   3.72847   3.74514   3.75374
 Alpha virt. eigenvalues --    3.79090   3.81419   3.83711   3.85883   3.88108
 Alpha virt. eigenvalues --    3.92737   3.95276   3.98636   4.03302   4.04568
 Alpha virt. eigenvalues --    4.07504   4.10516   4.15564   4.16749   4.18897
 Alpha virt. eigenvalues --    4.23165   4.28191   4.29947   4.32952   4.36508
 Alpha virt. eigenvalues --    4.37712   4.38629   4.39865   4.40745   4.42994
 Alpha virt. eigenvalues --    4.43733   4.44982   4.46767   4.48804   4.49152
 Alpha virt. eigenvalues --    4.50126   4.50978   4.52865   4.53819   4.55880
 Alpha virt. eigenvalues --    4.56724   4.58126   4.58368   4.60979   4.61434
 Alpha virt. eigenvalues --    4.62590   4.63445   4.64334   4.64941   4.65719
 Alpha virt. eigenvalues --    4.67683   4.68236   4.70437   4.71193   4.72687
 Alpha virt. eigenvalues --    4.73053   4.75071   4.76561   4.77434   4.81123
 Alpha virt. eigenvalues --    4.81502   4.84269   4.84557   4.84844   4.86996
 Alpha virt. eigenvalues --    4.89257   4.89817   4.91577   4.94130   4.95499
 Alpha virt. eigenvalues --    4.95664   4.96496   4.98102   4.99656   5.04572
 Alpha virt. eigenvalues --    5.06044   5.08434   5.15327   5.17994   5.22896
 Alpha virt. eigenvalues --    5.26270   5.27146   5.28637   5.32727   5.33454
 Alpha virt. eigenvalues --    5.37985   5.39823   5.40921   5.46622   5.48329
 Alpha virt. eigenvalues --    5.54467   5.55967   5.61240   5.69954   5.83013
 Alpha virt. eigenvalues --    5.93347   9.88442  10.99391  11.14180  11.27916
 Alpha virt. eigenvalues --   11.46850  11.52723  11.61278  11.76032  11.93540
 Alpha virt. eigenvalues --   12.06572  12.27976  14.61326  17.76012
          Condensed to atoms (all electrons):
               1          2          3          4          5          6
     1  C    4.947836   0.411289  -0.036026   0.001944  -0.000070   0.000000
     2  C    0.411289   4.777954   0.411272  -0.036587   0.002532  -0.000194
     3  C   -0.036026   0.411272   4.806295   0.435218  -0.036265   0.002280
     4  C    0.001944  -0.036587   0.435218   4.821576   0.375214  -0.064946
     5  N   -0.000070   0.002532  -0.036265   0.375214   6.408156   0.397477
     6  C    0.000000  -0.000194   0.002280  -0.064946   0.397477   4.860694
     7  N   -0.000000   0.000000  -0.000079   0.002541  -0.030129   0.391758
     8  C   -0.000000  -0.000000   0.000001   0.000304  -0.001135  -0.077362
     9  C    0.000000  -0.000000   0.000000  -0.000313   0.002386  -0.058447
    10  N   -0.000000   0.000000  -0.000000   0.000000  -0.000013   0.002431
    11  H    0.371891  -0.022596   0.003350  -0.000166   0.000001  -0.000000
    12  H    0.379185  -0.029003  -0.004039   0.000191   0.000001   0.000000
    13  H    0.378953  -0.028857  -0.004690   0.000190   0.000003   0.000000
    14  H   -0.036110   0.372623  -0.034404  -0.002790   0.000124   0.000011
    15  H   -0.036414   0.370496  -0.033455  -0.002194   0.000080   0.000012
    16  H   -0.002714  -0.034940   0.365015  -0.034118  -0.002423   0.000156
    17  H   -0.002851  -0.032735   0.362461  -0.028497   0.004956   0.000285
    18  H   -0.000028  -0.005783  -0.020352   0.355035  -0.022249  -0.003216
    19  H    0.000056   0.001646  -0.041229   0.351866  -0.045702  -0.002317
    20  H    0.000005  -0.000308  -0.000105  -0.048776   0.340175  -0.059519
    21  H   -0.000000  -0.000005   0.000189  -0.005076  -0.012341   0.337265
    22  H    0.000000   0.000054  -0.000011  -0.000165  -0.063637   0.348091
    23  H    0.000000   0.000000   0.000004  -0.000210  -0.000647  -0.003785
    24  H   -0.000000   0.000000  -0.000000  -0.000006   0.000231   0.004591
    25  H    0.000000   0.000000   0.000001   0.000080  -0.002102  -0.001402
    26  H    0.000000   0.000000   0.000000  -0.000001   0.000350  -0.002917
    27  H    0.000000   0.000000   0.000000   0.000042  -0.000367  -0.007050
    28  H    0.000000   0.000000   0.000000   0.000000  -0.000011  -0.000129
    29  H    0.000000  -0.000000   0.000000  -0.000000   0.000001  -0.000338
               7          8          9         10         11         12
     1  C   -0.000000  -0.000000   0.000000  -0.000000   0.371891   0.379185
     2  C    0.000000  -0.000000  -0.000000   0.000000  -0.022596  -0.029003
     3  C   -0.000079   0.000001   0.000000  -0.000000   0.003350  -0.004039
     4  C    0.002541   0.000304  -0.000313   0.000000  -0.000166   0.000191
     5  N   -0.030129  -0.001135   0.002386  -0.000013   0.000001   0.000001
     6  C    0.391758  -0.077362  -0.058447   0.002431  -0.000000   0.000000
     7  N    6.196418   0.395695   0.380877  -0.044026   0.000000   0.000000
     8  C    0.395695   4.995872  -0.075238  -0.010103  -0.000000   0.000000
     9  C    0.380877  -0.075238   4.846448   0.385593  -0.000000   0.000000
    10  N   -0.044026  -0.010103   0.385593   6.567798   0.000000   0.000000
    11  H    0.000000  -0.000000  -0.000000   0.000000   0.609605  -0.031961
    12  H    0.000000   0.000000   0.000000   0.000000  -0.031961   0.599694
    13  H    0.000000  -0.000000   0.000000   0.000000  -0.031992  -0.033361
    14  H    0.000000  -0.000000   0.000000  -0.000000  -0.002475  -0.004471
    15  H    0.000000  -0.000000   0.000000   0.000000  -0.002371   0.005719
    16  H    0.000009  -0.000018   0.000000  -0.000000  -0.000058  -0.000411
    17  H   -0.000000  -0.000002   0.000000   0.000000  -0.000033   0.004878
    18  H    0.000225   0.000004  -0.000017   0.000000   0.000004   0.000008
    19  H   -0.000140  -0.000095   0.000058   0.000000   0.000009   0.000005
    20  H   -0.000947   0.007253  -0.000051   0.000004   0.000000   0.000001
    21  H   -0.007136   0.006480  -0.007319   0.000126   0.000000   0.000000
    22  H   -0.057292  -0.009862  -0.003673  -0.000176   0.000000  -0.000000
    23  H   -0.023134   0.372124   0.005367   0.000502   0.000000  -0.000000
    24  H   -0.018669   0.378025  -0.003885   0.015244   0.000000   0.000000
    25  H   -0.044513   0.347530  -0.004807  -0.001078   0.000000  -0.000000
    26  H   -0.033740   0.007263   0.378375  -0.041125  -0.000000  -0.000000
    27  H   -0.035226  -0.008421   0.336123  -0.033213   0.000000  -0.000000
    28  H    0.008093   0.000739  -0.054673   0.334331   0.000000   0.000000
    29  H    0.004359   0.000252  -0.045027   0.337217  -0.000000   0.000000
              13         14         15         16         17         18
     1  C    0.378953  -0.036110  -0.036414  -0.002714  -0.002851  -0.000028
     2  C   -0.028857   0.372623   0.370496  -0.034940  -0.032735  -0.005783
     3  C   -0.004690  -0.034404  -0.033455   0.365015   0.362461  -0.020352
     4  C    0.000190  -0.002790  -0.002194  -0.034118  -0.028497   0.355035
     5  N    0.000003   0.000124   0.000080  -0.002423   0.004956  -0.022249
     6  C    0.000000   0.000011   0.000012   0.000156   0.000285  -0.003216
     7  N    0.000000   0.000000   0.000000   0.000009  -0.000000   0.000225
     8  C   -0.000000  -0.000000  -0.000000  -0.000018  -0.000002   0.000004
     9  C    0.000000   0.000000   0.000000   0.000000   0.000000  -0.000017
    10  N    0.000000  -0.000000   0.000000  -0.000000   0.000000   0.000000
    11  H   -0.031992  -0.002475  -0.002371  -0.000058  -0.000033   0.000004
    12  H   -0.033361  -0.004471   0.005719  -0.000411   0.004878   0.000008
    13  H    0.602654   0.005702  -0.004528   0.004926  -0.000368   0.000008
    14  H    0.005702   0.643665  -0.041599   0.006251  -0.005321   0.004897
    15  H   -0.004528  -0.041599   0.646246  -0.005741   0.006111  -0.000519
    16  H    0.004926   0.006251  -0.005741   0.654270  -0.042438   0.006014
    17  H   -0.000368  -0.005321   0.006111  -0.042438   0.627538  -0.006245
    18  H    0.000008   0.004897  -0.000519   0.006014  -0.006245   0.636966
    19  H    0.000009  -0.000459   0.005216  -0.006804   0.006873  -0.055551
    20  H   -0.000002   0.000021   0.000004   0.006363  -0.000630   0.006886
    21  H   -0.000000  -0.000003   0.000001   0.000007  -0.000020   0.005827
    22  H    0.000000   0.000001  -0.000002  -0.000019   0.000036  -0.001978
    23  H    0.000000  -0.000000   0.000000  -0.000020   0.000010  -0.000014
    24  H   -0.000000   0.000000   0.000000   0.000000  -0.000000   0.000000
    25  H   -0.000000   0.000000  -0.000000   0.000001  -0.000000   0.000000
    26  H    0.000000   0.000000   0.000000  -0.000000   0.000000  -0.000004
    27  H   -0.000000   0.000000  -0.000000   0.000000  -0.000000   0.000001
    28  H   -0.000000  -0.000000  -0.000000   0.000000  -0.000000   0.000000
    29  H    0.000000   0.000000  -0.000000   0.000000   0.000000   0.000000
              19         20         21         22         23         24
     1  C    0.000056   0.000005  -0.000000   0.000000   0.000000  -0.000000
     2  C    0.001646  -0.000308  -0.000005   0.000054   0.000000   0.000000
     3  C   -0.041229  -0.000105   0.000189  -0.000011   0.000004  -0.000000
     4  C    0.351866  -0.048776  -0.005076  -0.000165  -0.000210  -0.000006
     5  N   -0.045702   0.340175  -0.012341  -0.063637  -0.000647   0.000231
     6  C   -0.002317  -0.059519   0.337265   0.348091  -0.003785   0.004591
     7  N   -0.000140  -0.000947  -0.007136  -0.057292  -0.023134  -0.018669
     8  C   -0.000095   0.007253   0.006480  -0.009862   0.372124   0.378025
     9  C    0.000058  -0.000051  -0.007319  -0.003673   0.005367  -0.003885
    10  N    0.000000   0.000004   0.000126  -0.000176   0.000502   0.015244
    11  H    0.000009   0.000000   0.000000   0.000000   0.000000   0.000000
    12  H    0.000005   0.000001   0.000000  -0.000000  -0.000000   0.000000
    13  H    0.000009  -0.000002  -0.000000   0.000000   0.000000  -0.000000
    14  H   -0.000459   0.000021  -0.000003   0.000001  -0.000000   0.000000
    15  H    0.005216   0.000004   0.000001  -0.000002   0.000000   0.000000
    16  H   -0.006804   0.006363   0.000007  -0.000019  -0.000020   0.000000
    17  H    0.006873  -0.000630  -0.000020   0.000036   0.000010  -0.000000
    18  H   -0.055551   0.006886   0.005827  -0.001978  -0.000014   0.000000
    19  H    0.704981  -0.007008  -0.002046   0.016125   0.000102  -0.000001
    20  H   -0.007008   0.541709   0.007480  -0.006839   0.002570  -0.000377
    21  H   -0.002046   0.007480   0.634354  -0.063380  -0.000095  -0.000156
    22  H    0.016125  -0.006839  -0.063380   0.759529  -0.000011  -0.000327
    23  H    0.000102   0.002570  -0.000095  -0.000011   0.605688  -0.030279
    24  H   -0.000001  -0.000377  -0.000156  -0.000327  -0.030279   0.551484
    25  H    0.000055   0.000538  -0.000286   0.015503  -0.043855  -0.036949
    26  H    0.000000  -0.000003   0.006992  -0.001849  -0.000171   0.000521
    27  H    0.000002  -0.000006  -0.001800   0.014989  -0.000305  -0.001323
    28  H   -0.000000   0.000001  -0.000056   0.000078  -0.000160  -0.001178
    29  H    0.000000   0.000000  -0.000019   0.000032  -0.000003  -0.000410
              25         26         27         28         29
     1  C    0.000000   0.000000   0.000000   0.000000   0.000000
     2  C    0.000000   0.000000   0.000000   0.000000  -0.000000
     3  C    0.000001   0.000000   0.000000   0.000000   0.000000
     4  C    0.000080  -0.000001   0.000042   0.000000  -0.000000
     5  N   -0.002102   0.000350  -0.000367  -0.000011   0.000001
     6  C   -0.001402  -0.002917  -0.007050  -0.000129  -0.000338
     7  N   -0.044513  -0.033740  -0.035226   0.008093   0.004359
     8  C    0.347530   0.007263  -0.008421   0.000739   0.000252
     9  C   -0.004807   0.378375   0.336123  -0.054673  -0.045027
    10  N   -0.001078  -0.041125  -0.033213   0.334331   0.337217
    11  H    0.000000  -0.000000   0.000000   0.000000  -0.000000
    12  H   -0.000000  -0.000000  -0.000000   0.000000   0.000000
    13  H   -0.000000   0.000000  -0.000000  -0.000000   0.000000
    14  H    0.000000   0.000000   0.000000  -0.000000   0.000000
    15  H   -0.000000   0.000000  -0.000000  -0.000000  -0.000000
    16  H    0.000001  -0.000000   0.000000   0.000000   0.000000
    17  H   -0.000000   0.000000  -0.000000  -0.000000   0.000000
    18  H    0.000000  -0.000004   0.000001   0.000000   0.000000
    19  H    0.000055   0.000000   0.000002  -0.000000   0.000000
    20  H    0.000538  -0.000003  -0.000006   0.000001   0.000000
    21  H   -0.000286   0.006992  -0.001800  -0.000056  -0.000019
    22  H    0.015503  -0.001849   0.014989   0.000078   0.000032
    23  H   -0.043855  -0.000171  -0.000305  -0.000160  -0.000003
    24  H   -0.036949   0.000521  -0.001323  -0.001178  -0.000410
    25  H    0.668170  -0.000342   0.014256   0.000389   0.000043
    26  H   -0.000342   0.677172  -0.061428  -0.007227  -0.004610
    27  H    0.014256  -0.061428   0.694248   0.008607   0.000930
    28  H    0.000389  -0.007227   0.008607   0.510162  -0.027476
    29  H    0.000043  -0.004610   0.000930  -0.027476   0.511099
 Mulliken charges:
               1
     1  C   -0.376946
     2  C   -0.156859
     3  C   -0.175430
     4  C   -0.120358
     5  N   -0.314595
     6  C   -0.063432
     7  N   -0.084945
     8  C   -0.329305
     9  C   -0.081778
    10  N   -0.513513
    11  H    0.106793
    12  H    0.113564
    13  H    0.111353
    14  H    0.094339
    15  H    0.092940
    16  H    0.086692
    17  H    0.105995
    18  H    0.100081
    19  H    0.074350
    20  H    0.211562
    21  H    0.101018
    22  H    0.054784
    23  H    0.116322
    24  H    0.143464
    25  H    0.088769
    26  H    0.082741
    27  H    0.079940
    28  H    0.228508
    29  H    0.223949
 Sum of Mulliken charges =  -0.00000
 Mulliken charges with hydrogens summed into heavy atoms:
               1
     1  C   -0.045237
     2  C    0.030421
     3  C    0.017257
     4  C    0.054072
     5  N   -0.103033
     6  C    0.092370
     7  N   -0.084945
     8  C    0.019249
     9  C    0.080902
    10  N   -0.061056
 Electronic spatial extent (au):  <R**2>=           3315.3244
 Charge=             -0.0000 electrons
 Dipole moment (field-independent basis, Debye):
    X=              0.0864    Y=             -0.9296    Z=              0.7687  Tot=              1.2094
 Quadrupole moment (field-independent basis, Debye-Ang):
   XX=            -61.6707   YY=            -62.9594   ZZ=            -66.3694
   XY=             -5.0670   XZ=             -2.0257   YZ=              1.1244
 Traceless Quadrupole moment (field-independent basis, Debye-Ang):
   XX=              1.9958   YY=              0.7071   ZZ=             -2.7029
   XY=             -5.0670   XZ=             -2.0257   YZ=              1.1244
 Octapole moment (field-independent basis, Debye-Ang**2):
  XXX=             47.6698  YYY=              2.3073  ZZZ=             -3.6656  XYY=              7.3944
  XXY=            -31.1831  XXZ=            -14.2843  XZZ=              7.6904  YZZ=             -0.1952
  YYZ=             -2.1775  XYZ=             -1.6152
 Hexadecapole moment (field-independent basis, Debye-Ang**3):
 XXXX=          -3868.7853 YYYY=           -296.8949 ZZZZ=           -145.8135 XXXY=           -130.3442
 XXXZ=            -84.7836 YYYX=             -0.1111 YYYZ=              3.8923 ZZZX=            -13.4406
 ZZZY=              0.1253 XXYY=           -709.3362 XXZZ=           -664.0240 YYZZ=            -77.6180
 XXYZ=              0.3746 YYXZ=             -4.9905 ZZXY=             -1.1795
 N-N= 5.574721354301D+02 E-N=-2.141556822402D+03  KE= 4.389460448716D+02
 PrsmSu:  requested number of processors reduced to:  13 ShMem   1 Linda.
 Calling FoFJK, ICntrl=      2127 FMM=F ISym2X=0 I1Cent= 0 IOpClX= 0 NMat=1 NMatS=1 NMatT=0.
 ***** Axes restored to original set *****
 -------------------------------------------------------------------
 Center     Atomic                   Forces (Hartrees/Bohr)
 Number     Number              X              Y              Z
 -------------------------------------------------------------------
      1        6          -0.003787605   -0.005310723   -0.001571823
      2        6          -0.003572603    0.003517535    0.002053001
      3        6           0.005731116   -0.007744806   -0.005097735
      4        6          -0.009869340    0.013581271    0.007909215
      5        7           0.005263164   -0.002080871   -0.009059670
      6        6          -0.011853822    0.016460909   -0.001341111
      7        7           0.006054810   -0.007092445    0.000199379
      8        6          -0.005081252    0.007077801   -0.001997595
      9        6          -0.001274549    0.009796769   -0.008106566
     10        7           0.005392829    0.009508835    0.008898633
     11        1          -0.003077104    0.000355578    0.000171968
     12        1          -0.001326407    0.000179374    0.000288095
     13        1          -0.001366691    0.000299856   -0.000083625
     14        1           0.001778305   -0.000605131   -0.000081193
     15        1           0.001728831   -0.000773625   -0.000546516
     16        1           0.000452844    0.000700058    0.000408078
     17        1           0.001674551    0.000584327    0.001097882
     18        1           0.002105113    0.001110885   -0.000307393
     19        1           0.002011678   -0.008067629   -0.000104736
     20        1          -0.000993119   -0.001426395    0.000123368
     21        1           0.001424963    0.001440155    0.001287640
     22        1           0.006396791   -0.007747549    0.006425500
     23        1           0.000082526   -0.003485210   -0.003534326
     24        1           0.005773095   -0.004633128   -0.003980408
     25        1           0.001608365   -0.003627959    0.005556299
     26        1          -0.008416480   -0.011365073   -0.004363783
     27        1           0.004051858   -0.002686798    0.005579441
     28        1           0.001364916    0.001185378   -0.000632827
     29        1          -0.002276784    0.000848612    0.000810806
 -------------------------------------------------------------------
 Cartesian Forces:  Max     0.016460909 RMS     0.005110129

 GradGradGradGradGradGradGradGradGradGradGradGradGradGradGradGradGradGrad
 Berny optimization.
 FormGI is forming the generalized inverse of G from B-inverse, IUseBI=4.
 Internal  Forces:  Max     0.014149249 RMS     0.003646231
 Search for a local minimum.
 Step number   1 out of a maximum of  152
 All quantities printed in internal units (Hartrees-Bohrs-Radians)
 Mixed Optimization -- RFO/linear search
 Second derivative matrix not updated -- first step.
 ITU=  0
     Eigenvalues ---    0.00373   0.00400   0.00514   0.00779   0.00780
     Eigenvalues ---    0.00871   0.00880   0.00964   0.01073   0.03098
     Eigenvalues ---    0.03111   0.03731   0.03750   0.04551   0.04817
     Eigenvalues ---    0.04899   0.04944   0.05280   0.05517   0.05595
     Eigenvalues ---    0.05637   0.05718   0.06695   0.06748   0.06937
     Eigenvalues ---    0.07230   0.08034   0.08143   0.08899   0.09607
     Eigenvalues ---    0.09754   0.10761   0.11976   0.12048   0.12501
     Eigenvalues ---    0.13013   0.13135   0.16000   0.16000   0.16000
     Eigenvalues ---    0.16000   0.16000   0.16000   0.16000   0.16000
     Eigenvalues ---    0.16117   0.16885   0.21881   0.21903   0.21933
     Eigenvalues ---    0.21947   0.21983   0.23512   0.29452   0.29640
     Eigenvalues ---    0.30456   0.33908   0.33922   0.33946   0.33976
     Eigenvalues ---    0.34006   0.34043   0.34092   0.34116   0.34131
     Eigenvalues ---    0.34193   0.34199   0.34223   0.34282   0.34284
     Eigenvalues ---    0.34287   0.34334   0.35856   0.35871   0.36711
     Eigenvalues ---    0.36795   0.37599   0.38673   0.44729   0.45044
     Eigenvalues ---    0.45413
 RFO step:  Lambda=-1.14050521D-02 EMin= 3.73239041D-03
 Linear search not attempted -- first point.
 Iteration  1 RMS(Cart)=  0.10750032 RMS(Int)=  0.00361466
 Iteration  2 RMS(Cart)=  0.00494373 RMS(Int)=  0.00040393
 Iteration  3 RMS(Cart)=  0.00002078 RMS(Int)=  0.00040335
 Iteration  4 RMS(Cart)=  0.00000003 RMS(Int)=  0.00040335
 Variable       Old X    -DE/DX   Delta X   Delta X   Delta X     New X
                                 (Linear)    (Quad)   (Total)
    R1        2.87063   0.00959   0.00000   0.03034   0.03034   2.90098
    R2        2.06770   0.00068   0.00000   0.00192   0.00192   2.06962
    R3        2.06853   0.00041   0.00000   0.00116   0.00116   2.06969
    R4        2.06856   0.00048   0.00000   0.00136   0.00136   2.06992
    R5        2.88687   0.00549   0.00000   0.01782   0.01782   2.90469
    R6        2.07134   0.00082   0.00000   0.00232   0.00232   2.07366
    R7        2.07175   0.00076   0.00000   0.00215   0.00215   2.07391
    R8        2.89069   0.00173   0.00000   0.00566   0.00566   2.89636
    R9        2.07485   0.00040   0.00000   0.00113   0.00113   2.07598
   R10        2.07371  -0.00088   0.00000  -0.00251  -0.00251   2.07120
   R11        2.76156   0.00350   0.00000   0.00923   0.00923   2.77080
   R12        2.07006   0.00068   0.00000   0.00193   0.00193   2.07199
   R13        2.07320   0.00607   0.00000   0.01727   0.01727   2.09047
   R14        2.74952   0.00361   0.00000   0.00931   0.00931   2.75883
   R15        1.91499   0.00013   0.00000   0.00028   0.00028   1.91527
   R16        2.77607  -0.00213   0.00000  -0.00576  -0.00576   2.77031
   R17        2.07422  -0.00096   0.00000  -0.00274  -0.00274   2.07148
   R18        2.07462   0.01160   0.00000   0.03309   0.03309   2.10771
   R19        2.77584  -0.00552   0.00000  -0.01490  -0.01490   2.76094
   R20        2.76284  -0.00130   0.00000  -0.00345  -0.00345   2.75940
   R21        2.06849  -0.00047   0.00000  -0.00133  -0.00133   2.06716
   R22        2.06956  -0.00345   0.00000  -0.00976  -0.00976   2.05980
   R23        2.06996   0.00670   0.00000   0.01896   0.01896   2.08892
   R24        2.73397   0.01415   0.00000   0.03554   0.03554   2.76951
   R25        2.07258   0.00388   0.00000   0.01103   0.01103   2.08361
   R26        2.07109   0.00688   0.00000   0.01950   0.01950   2.09059
   R27        1.91925   0.00067   0.00000   0.00145   0.00145   1.92070
   R28        1.92291  -0.00233   0.00000  -0.00509  -0.00509   1.91782
    A1        1.92427   0.00401   0.00000   0.02577   0.02565   1.94992
    A2        1.93543   0.00075   0.00000   0.00326   0.00321   1.93863
    A3        1.93617   0.00076   0.00000   0.00314   0.00309   1.93925
    A4        1.88794  -0.00213   0.00000  -0.01000  -0.01012   1.87782
    A5        1.88806  -0.00218   0.00000  -0.01058  -0.01069   1.87737
    A6        1.89049  -0.00144   0.00000  -0.01288  -0.01287   1.87762
    A7        1.94263   0.00678   0.00000   0.03458   0.03449   1.97712
    A8        1.90699  -0.00118   0.00000   0.00147   0.00154   1.90852
    A9        1.90717  -0.00133   0.00000   0.00124   0.00124   1.90841
   A10        1.91624  -0.00255   0.00000  -0.01329  -0.01353   1.90271
   A11        1.91754  -0.00226   0.00000  -0.01012  -0.01039   1.90715
   A12        1.87186   0.00030   0.00000  -0.01567  -0.01585   1.85601
   A13        1.93385   0.00938   0.00000   0.04490   0.04487   1.97872
   A14        1.90922  -0.00253   0.00000  -0.00635  -0.00619   1.90303
   A15        1.91318  -0.00148   0.00000   0.00375   0.00388   1.91706
   A16        1.92011  -0.00314   0.00000  -0.01652  -0.01674   1.90337
   A17        1.91803  -0.00388   0.00000  -0.02002  -0.02046   1.89758
   A18        1.86828   0.00134   0.00000  -0.00763  -0.00795   1.86034
   A19        1.90961   0.00749   0.00000   0.03937   0.03870   1.94831
   A20        1.91364  -0.00072   0.00000  -0.00987  -0.00950   1.90414
   A21        1.90343  -0.00277   0.00000  -0.00018  -0.00172   1.90172
   A22        1.92102  -0.00518   0.00000  -0.04193  -0.04148   1.87953
   A23        1.92689   0.00158   0.00000   0.03730   0.03651   1.96340
   A24        1.88904  -0.00051   0.00000  -0.02531  -0.02505   1.86400
   A25        1.94127   0.00594   0.00000   0.02537   0.02533   1.96660
   A26        1.89083  -0.00236   0.00000  -0.00932  -0.00945   1.88138
   A27        1.90040  -0.00087   0.00000   0.00304   0.00305   1.90346
   A28        1.93131   0.01053   0.00000   0.05076   0.05023   1.98155
   A29        1.88027  -0.00258   0.00000  -0.01616  -0.01537   1.86490
   A30        1.93293  -0.00020   0.00000   0.02414   0.02333   1.95626
   A31        1.90415  -0.00541   0.00000  -0.04341  -0.04325   1.86090
   A32        1.93181  -0.00326   0.00000  -0.00419  -0.00582   1.92600
   A33        1.88172   0.00055   0.00000  -0.01451  -0.01483   1.86689
   A34        1.94938  -0.00023   0.00000   0.01006   0.00963   1.95901
   A35        1.88047   0.00306   0.00000   0.02886   0.02862   1.90909
   A36        1.92484  -0.00097   0.00000   0.00627   0.00576   1.93060
   A37        1.94893  -0.00441   0.00000  -0.02105  -0.02110   1.92782
   A38        1.95019  -0.00768   0.00000  -0.04588  -0.04603   1.90416
   A39        1.95405   0.00348   0.00000   0.01668   0.01668   1.97073
   A40        1.81422   0.00760   0.00000   0.05142   0.05121   1.86543
   A41        1.89501   0.00086   0.00000   0.00692   0.00699   1.90200
   A42        1.89528   0.00062   0.00000  -0.00481  -0.00488   1.89039
   A43        1.90656   0.00321   0.00000   0.01768   0.01763   1.92420
   A44        1.92647  -0.01030   0.00000  -0.07040  -0.07178   1.85469
   A45        1.95125   0.00129   0.00000  -0.00478  -0.00521   1.94604
   A46        1.88334   0.01113   0.00000   0.10119   0.10194   1.98528
   A47        1.91427  -0.00481   0.00000  -0.02938  -0.02910   1.88517
   A48        1.88063  -0.00023   0.00000  -0.01083  -0.01187   1.86876
   A49        1.87582   0.00180   0.00000   0.01097   0.01094   1.88676
   A50        1.91304   0.00136   0.00000   0.00834   0.00831   1.92135
   A51        1.87376  -0.00132   0.00000  -0.00676  -0.00682   1.86694
    D1        3.13674  -0.00006   0.00000  -0.00045  -0.00045   3.13629
    D2        1.01759  -0.00047   0.00000  -0.00717  -0.00725   1.01034
    D3       -1.02554   0.00061   0.00000   0.01014   0.01022  -1.01532
    D4        1.04624  -0.00050   0.00000  -0.00682  -0.00686   1.03938
    D5       -1.07292  -0.00090   0.00000  -0.01355  -0.01366  -1.08658
    D6       -3.11604   0.00018   0.00000   0.00377   0.00381  -3.11223
    D7       -1.05531   0.00032   0.00000   0.00515   0.00519  -1.05013
    D8        3.10872  -0.00009   0.00000  -0.00157  -0.00162   3.10710
    D9        1.06559   0.00099   0.00000   0.01575   0.01585   1.08144
   D10       -3.13262   0.00003   0.00000  -0.00303  -0.00309  -3.13572
   D11        1.03076  -0.00043   0.00000  -0.00716  -0.00720   1.02355
   D12       -1.01279   0.00028   0.00000   0.00359   0.00374  -1.00905
   D13       -1.01888   0.00127   0.00000   0.01255   0.01236  -1.00651
   D14       -3.13868   0.00082   0.00000   0.00842   0.00825  -3.13043
   D15        1.10095   0.00153   0.00000   0.01917   0.01920   1.12015
   D16        1.03571  -0.00123   0.00000  -0.02053  -0.02052   1.01519
   D17       -1.08410  -0.00169   0.00000  -0.02466  -0.02463  -1.10872
   D18       -3.12764  -0.00098   0.00000  -0.01391  -0.01368  -3.14132
   D19        3.12931  -0.00202   0.00000  -0.02917  -0.02927   3.10003
   D20        1.02093   0.00012   0.00000   0.00397   0.00397   1.02491
   D21       -1.04462   0.00280   0.00000   0.04053   0.04050  -1.00412
   D22       -1.04050  -0.00114   0.00000  -0.01871  -0.01893  -1.05943
   D23        3.13432   0.00100   0.00000   0.01443   0.01431  -3.13456
   D24        1.06876   0.00368   0.00000   0.05099   0.05084   1.11961
   D25        1.01233  -0.00372   0.00000  -0.04995  -0.04981   0.96253
   D26       -1.09604  -0.00158   0.00000  -0.01681  -0.01656  -1.11260
   D27        3.12159   0.00110   0.00000   0.01975   0.01997   3.14156
   D28        3.07531   0.00098   0.00000   0.02249   0.02315   3.09846
   D29        0.98722  -0.00003   0.00000   0.00939   0.01011   0.99733
   D30       -1.10399   0.00158   0.00000   0.00900   0.00897  -1.09503
   D31        3.09110   0.00058   0.00000  -0.00410  -0.00408   3.08703
   D32        0.98037  -0.00133   0.00000  -0.02543  -0.02614   0.95424
   D33       -1.10772  -0.00233   0.00000  -0.03853  -0.03918  -1.14690
   D34       -3.10098  -0.00238   0.00000  -0.05803  -0.05860   3.12360
   D35        1.10198  -0.00031   0.00000  -0.02472  -0.02483   1.07715
   D36       -0.95201   0.00067   0.00000  -0.01109  -0.01056  -0.96257
   D37       -1.01860  -0.00223   0.00000  -0.05211  -0.05258  -1.07118
   D38       -3.09882  -0.00016   0.00000  -0.01880  -0.01881  -3.11763
   D39        1.13037   0.00083   0.00000  -0.00517  -0.00454   1.12584
   D40        1.10180   0.00209   0.00000   0.04945   0.04963   1.15143
   D41       -3.06489   0.00277   0.00000   0.08246   0.08286  -2.98203
   D42       -3.11564   0.00189   0.00000   0.03326   0.03266  -3.08298
   D43       -0.99915   0.00257   0.00000   0.06627   0.06590  -0.93325
   D44       -1.04782  -0.00273   0.00000  -0.01383  -0.01375  -1.06156
   D45        1.06868  -0.00205   0.00000   0.01918   0.01949   1.08816
   D46       -1.11429   0.00127   0.00000  -0.00859  -0.00852  -1.12281
   D47       -3.13800  -0.00055   0.00000  -0.03031  -0.03041   3.11478
   D48        1.01482   0.00170   0.00000  -0.00284  -0.00294   1.01187
   D49        3.07833  -0.00179   0.00000  -0.05570  -0.05555   3.02279
   D50        1.05462  -0.00360   0.00000  -0.07742  -0.07744   0.97719
   D51       -1.07574  -0.00136   0.00000  -0.04995  -0.04997  -1.12571
   D52        3.09545   0.00233   0.00000  -0.04045  -0.04106   3.05439
   D53        1.02737  -0.00708   0.00000  -0.13290  -0.13186   0.89551
   D54       -1.06573  -0.00069   0.00000  -0.06854  -0.06920  -1.13493
   D55       -1.05599   0.00341   0.00000  -0.00587  -0.00633  -1.06232
   D56       -3.12408  -0.00601   0.00000  -0.09832  -0.09712   3.06198
   D57        1.06601   0.00039   0.00000  -0.03396  -0.03446   1.03155
   D58       -1.02542   0.00112   0.00000  -0.01995  -0.02055  -1.04597
   D59       -3.05652   0.00097   0.00000  -0.02241  -0.02305  -3.07957
   D60        1.06939  -0.00288   0.00000  -0.03494  -0.03424   1.03515
   D61       -0.96171  -0.00302   0.00000  -0.03741  -0.03674  -0.99845
   D62        3.11353   0.00053   0.00000  -0.00652  -0.00657   3.10697
   D63        1.08244   0.00039   0.00000  -0.00898  -0.00907   1.07337
         Item               Value     Threshold  Converged?
 Maximum Force            0.014149     0.000450     NO 
 RMS     Force            0.003646     0.000300     NO 
 Maximum Displacement     0.346214     0.001800     NO 
 RMS     Displacement     0.106424     0.001200     NO 
 Predicted change in Energy=-6.460083D-03
 GradGradGradGradGradGradGradGradGradGradGradGradGradGradGradGradGradGrad

                          Input orientation:                          
 ---------------------------------------------------------------------
 Center     Atomic      Atomic             Coordinates (Angstroms)
 Number     Number       Type             X           Y           Z
 ---------------------------------------------------------------------
      1          6           0        0.956218   -0.003818   -0.186395
      2          6           0        2.490151    0.031294   -0.136927
      3          6           0        3.052509    1.388739    0.314469
      4          6           0        4.584090    1.428678    0.356744
      5          7           0        5.079864    2.755066    0.737233
      6          6           0        6.535297    2.803597    0.840672
      7          7           0        7.052977    4.128050    1.196962
      8          6           0        6.658854    4.531694    2.544677
      9          6           0        8.507087    4.131936    1.063684
     10          7           0        9.034511    5.478696    1.300188
     11          1           0        0.583520   -0.979561   -0.515743
     12          1           0        0.567148    0.750110   -0.879033
     13          1           0        0.524939    0.199065    0.799831
     14          1           0        2.891552   -0.209890   -1.129324
     15          1           0        2.850058   -0.753317    0.540773
     16          1           0        2.659870    1.625117    1.312864
     17          1           0        2.698323    2.179772   -0.356427
     18          1           0        4.976619    1.199927   -0.641153
     19          1           0        4.945897    0.631558    1.033085
     20          1           0        4.676109    2.990404    1.636576
     21          1           0        6.932539    2.568734   -0.153635
     22          1           0        6.931979    2.030957    1.540449
     23          1           0        5.572633    4.644684    2.607629
     24          1           0        7.091909    5.507227    2.765799
     25          1           0        6.991830    3.819657    3.321890
     26          1           0        8.725961    3.739859    0.056660
     27          1           0        8.982628    3.445940    1.789736
     28          1           0        8.623512    6.104110    0.612451
     29          1           0       10.038077    5.491374    1.149685
 ---------------------------------------------------------------------
                    Distance matrix (angstroms):
                    1          2          3          4          5
     1  C    0.000000
     2  C    1.535131   0.000000
     3  C    2.566031   1.537095   0.000000
     4  C    3.938083   2.565341   1.532685   0.000000
     5  N    5.046680   3.858718   2.481078   1.466243   0.000000
     6  C    6.329500   5.000457   3.795856   2.435528   1.459912
     7  N    7.493762   6.275512   4.928119   3.753395   2.447368
     8  C    7.781367   6.694974   5.278041   4.326708   2.986046
     9  C    8.699585   7.379719   6.151332   4.816355   3.707857
    10  N    9.875561   8.635284   7.313257   6.090893   4.834699
    11  H    1.095193   2.191020   3.520512   4.750306   5.977833
    12  H    1.095232   2.182970   2.830073   4.257162   5.195842
    13  H    1.095355   2.183511   2.835403   4.264386   5.223447
    14  H    2.162660   1.097335   2.160106   2.785316   4.130824
    15  H    2.162672   1.097464   2.163471   2.793177   4.161656
    16  H    2.793498   2.161242   1.098559   2.157633   2.732125
    17  H    2.798554   2.169671   1.096030   2.151482   2.683057
    18  H    4.221306   2.793290   2.156632   1.096451   2.080641
    19  H    4.219996   2.785666   2.162094   1.106229   2.148200
    20  H    5.111377   4.084122   2.636166   2.021243   1.013518
    21  H    6.506574   5.116023   4.082418   2.659967   2.064163
    22  H    6.544617   5.151901   4.118951   2.697495   2.144719
    23  H    7.122248   6.190125   4.712832   4.048011   2.704045
    24  H    8.759781   7.719316   6.267991   5.359782   3.967089
    25  H    7.959625   6.824970   5.520162   4.506227   3.386653
    26  H    8.628041   7.257841   6.146730   4.752547   3.837580
    27  H    8.957074   7.584465   6.447853   5.046776   4.100810
    28  H    9.835260   8.663648   7.304766   6.184010   4.877409
    29  H   10.698711   9.404204   8.144162   6.846914   5.678150
                    6          7          8          9         10
     6  C    0.000000
     7  N    1.465984   0.000000
     8  C    2.430065   1.461026   0.000000
     9  C    2.387923   1.460211   2.401898   0.000000
    10  N    3.689631   2.400287   2.844171   1.465562   0.000000
    11  H    7.181629   8.418724   8.754986   9.560591  10.790085
    12  H    6.541636   7.601724   7.945505   8.846103   9.940059
    13  H    6.550546   7.629542   7.709803   8.902347  10.026847
    14  H    5.122388   6.445679   7.083322   7.429332   8.717710
    15  H    5.130552   6.474786   6.815710   7.492738   8.812613
    16  H    4.078078   5.057420   5.094843   6.366804   7.448911
    17  H    4.067503   5.017152   5.443689   6.290422   7.333113
    18  H    2.682731   4.032844   4.907148   4.895647   6.208314
    19  H    2.698327   4.085597   4.519978   4.993562   6.346878
    20  H    2.030995   2.671517   2.670487   4.038279   5.029953
    21  H    1.096179   2.066418   3.347985   2.530745   3.872953
    22  H    1.115355   2.128479   2.708645   2.668779   4.045401
    23  H    2.727354   2.109102   1.093894   3.355249   3.793359
    24  H    3.365345   2.089234   1.089999   2.606022   2.433625
    25  H    2.719787   2.148061   1.105409   2.737337   3.318468
    26  H    2.508041   2.061518   3.330189   1.102600   2.159888
    27  H    2.702361   2.130777   2.673710   1.106291   2.091517
    28  H    3.912303   2.590956   3.172676   2.026484   1.016388
    29  H    4.425958   3.282029   3.779701   2.049244   1.014869
                   11         12         13         14         15
    11  H    0.000000
    12  H    1.767487   0.000000
    13  H    1.767293   1.767489   0.000000
    14  H    2.509160   2.527272   3.080542   0.000000
    15  H    2.510898   3.080232   2.525930   1.756775   0.000000
    16  H    3.799918   3.154289   2.618159   3.063528   2.507837
    17  H    3.805148   2.618961   3.159704   2.518966   3.070994
    18  H    4.905630   4.438734   4.784936   2.563863   3.119995
    19  H    4.901520   4.779508   4.448182   3.099093   2.559841
    20  H    6.094455   5.313263   5.071876   4.590939   4.307052
    21  H    7.282276   6.659715   6.897953   5.000229   5.308943
    22  H    7.320797   6.928603   6.704812   5.336115   5.041192
    23  H    8.141181   7.237361   6.964975   6.687293   6.389266
    24  H    9.757359   8.859316   8.669874   8.093232   7.882795
    25  H    8.878420   8.267189   7.828802   7.270683   6.767642
    26  H    9.428675   8.739585   8.963609   7.144746   7.412775
    27  H    9.769611   9.230934   9.113431   7.680313   7.536716
    28  H   10.774632   9.787485  10.024548   8.703778   8.964498
    29  H   11.577362  10.783960  10.891774   9.421842   9.541204
                   16         17         18         19         20
    16  H    0.000000
    17  H    1.759447   0.000000
    18  H    3.060441   2.496357   0.000000
    19  H    2.508258   3.062564   1.768349   0.000000
    20  H    2.456424   2.922469   2.912759   2.449723   0.000000
    21  H    4.614838   4.256877   2.436582   3.017897   2.911037
    22  H    4.297374   4.641566   3.045231   2.481987   2.453310
    23  H    4.390716   4.808646   4.772439   4.356279   2.117390
    24  H    6.068342   6.334339   5.885118   5.601770   3.666829
    25  H    5.255290   5.886717   5.160404   4.425884   2.981695
    26  H    6.545811   6.239947   4.582114   4.990374   4.411249
    27  H    6.596975   6.760303   5.196336   4.978802   4.333253
    28  H    7.491128   7.172658   6.238780   6.606862   5.130886
    29  H    8.331418   8.191891   6.873281   7.040008   5.936550
                   21         22         23         24         25
    21  H    0.000000
    22  H    1.777392   0.000000
    23  H    3.712612   3.133411   0.000000
    24  H    4.145267   3.689379   1.754194   0.000000
    25  H    3.694265   2.525186   1.790239   1.779648   0.000000
    26  H    2.152237   2.887966   4.155674   3.623969   3.698013
    27  H    2.957879   2.503894   3.705942   2.962503   2.539772
    28  H    3.993140   4.506999   3.926643   2.709056   3.901560
    29  H    4.459242   4.666373   4.773121   3.360355   4.097895
                   26         27         28         29
    26  H    0.000000
    27  H    1.776462   0.000000
    28  H    2.430861   2.929306   0.000000
    29  H    2.446254   2.389025   1.632501   0.000000
 Stoichiometry    C7H19N3
 Framework group  C1[X(C7H19N3)]
 Deg. of freedom    81
 Full point group                 C1      NOp   1
 Largest Abelian subgroup         C1      NOp   1
 Largest concise Abelian subgroup C1      NOp   1
                         Standard orientation:                         
 ---------------------------------------------------------------------
 Center     Atomic      Atomic             Coordinates (Angstroms)
 Number     Number       Type             X           Y           Z
 ---------------------------------------------------------------------
      1          6           0       -5.250707    0.299370   -0.264332
      2          6           0       -3.993612   -0.453995    0.192592
      3          6           0       -2.685804    0.246154   -0.210012
      4          6           0       -1.429252   -0.508464    0.238041
      5          7           0       -0.206144    0.162365   -0.213471
      6          6           0        1.006246   -0.506057    0.249848
      7          7           0        2.241078    0.135723   -0.211043
      8          6           0        2.416904    1.469665    0.358414
      9          6           0        3.381019   -0.716703    0.114718
     10          7           0        4.612988   -0.150808   -0.441957
     11          1           0       -6.166489   -0.223793    0.030784
     12          1           0       -5.269249    0.410198   -1.353784
     13          1           0       -5.288837    1.303744    0.171079
     14          1           0       -4.002317   -1.466275   -0.230914
     15          1           0       -4.018719   -0.575258    1.283047
     16          1           0       -2.671645    1.255515    0.223374
[...]
 6,-0.00000029,0.00000754,-0.00007659,-0.00021645,-0.00013529,-0.000002
 52,-0.00006484,0.00003565,0.00068689,-0.00003561,-0.00101825,0.0000134
 7,0.00011925,0.00001007,0.00028404,0.00021577,-0.00007263,0.33057896,-
 0.00001359,0.00002967,0.00000939,0.00001887,-0.00005177,-0.00001193,-0
 .00003067,0.00007630,-0.00002740,-0.00040765,-0.00032033,-0.00012911,-
 0.00041584,0.00003884,0.00001341,0.00186351,0.00029636,0.00062615,0.01
 266444,-0.00135795,-0.00310836,0.03791384,-0.05383595,0.00188315,-0.00
 061433,-0.00228101,-0.00171472,-0.00047754,0.00056636,0.00077265,0.000
 02273,0.00001205,0.00000623,0.00000380,-0.00000729,0.00000120,0.000000
 43,-0.00000511,-0.00000354,0.00000106,0.00001154,0.00000989,0.00000107
 ,0.00000372,-0.00000058,-0.00002460,-0.00001915,0.00002101,-0.00000578
 ,-0.00001359,0.00000086,0.00002681,0.00014039,0.00007119,0.00003805,0.
 00022127,0.00000024,-0.00085040,-0.00238037,-0.00063802,-0.00014644,0.
 00020506,-0.00001596,-0.00010135,0.00004524,-0.00002295,-0.04389024,0.
 05542268,-0.00000699,0.00000927,0.00001259,0.00000309,-0.00001098,-0.0
 0002894,-0.00003584,-0.00000777,0.00004751,-0.00034011,-0.00007468,-0.
 00043236,-0.00079379,0.00011123,0.00065634,0.00135214,0.00094700,0.001
 19230,0.03645724,-0.00371325,-0.00522349,-0.01544009,0.00250959,-0.046
 96278,0.00028724,-0.00481302,-0.00451009,-0.00037446,0.00032758,0.0006
 7165,0.00001045,0.00000659,0.00000133,0.00000013,-0.00000234,-0.000002
 27,0.00000289,-0.00000157,-0.00000374,0.00000032,-0.00000090,0.0000015
 1,0.00000095,0.00000768,0.00000294,0.00000817,-0.00000138,-0.00000843,
 -0.00002039,-0.00000225,-0.00001941,0.00002381,0.00001490,0.00001893,0
 .00006067,0.00029021,0.00004134,-0.00013872,-0.00113930,0.00010499,0.0
 0002718,0.00018476,0.00000315,-0.00024241,-0.00043240,-0.00017767,0.00
 374898,0.00119443,0.05560574,0.00000621,-0.00000992,-0.00000341,-0.000
 00629,0.00001898,0.00000138,0.00002182,-0.00001502,0.00000802,0.000270
 02,0.00013794,-0.00014041,-0.00005181,-0.00065046,0.00003981,-0.001814
 60,0.00097441,0.00232856,0.00549896,0.01068386,0.00288166,-0.10706761,
 -0.11363645,-0.02504100,0.00043607,0.00190345,0.00028616,-0.00182235,0
 .00027248,0.00162075,-0.00000804,-0.00000358,-0.00000197,-0.00000131,0
 .00000212,-0.00000075,-0.00000184,0.00000145,0.00000270,-0.00000113,-0
 .00000355,0.00000005,-0.00000023,-0.00000272,-0.00000106,0.00000676,0.
 00000975,-0.00000489,0.00000364,0.00000421,0.00000300,-0.00003498,-0.0
 0012112,-0.00006739,-0.00002671,-0.00009076,-0.00000506,0.00037070,0.0
 0057168,-0.00029926,0.00028356,0.00056167,0.00054333,0.00005976,-0.000
 31927,0.00002956,-0.01330283,-0.02763761,-0.00472406,0.11245931,0.0000
 0561,-0.00001239,-0.00000579,-0.00001453,0.00001763,0.00001091,0.00001
 688,-0.00004125,-0.00000619,-0.00011066,0.00008255,0.00008629,0.000214
 59,0.00041086,0.00009845,0.00176525,0.00057665,-0.00257209,-0.00337178
 ,-0.01187391,-0.00617379,-0.10720156,-0.25266877,-0.04085260,-0.002021
 63,-0.00145640,-0.00053569,-0.00131939,0.00040977,0.00224976,-0.000009
 84,-0.00000474,-0.00000217,-0.00000200,0.00000280,-0.00000143,-0.00000
 118,0.00000074,0.00000258,0.00000049,-0.00000029,-0.00000038,0.0000001
 1,0.00000165,-0.00000064,-0.00001114,-0.00000497,0.00000672,-0.0000070
 9,0.00000383,-0.00000834,-0.00000401,0.00003269,0.00004701,0.00001140,
 0.00001495,0.00001024,-0.00003868,-0.00029422,0.00016820,-0.00052829,-
 0.00057813,-0.00030213,-0.00003884,0.00042133,0.00006682,0.00308496,0.
 00671889,0.00200404,0.11882290,0.27500233,0.00000641,-0.00001905,-0.00
 000917,-0.00002327,0.00002729,0.00001481,0.00002342,-0.00005075,-0.000
 01020,-0.00008101,0.00012145,0.00008441,0.00033693,0.00016598,0.000125
 79,0.00366313,-0.00007193,-0.00505160,-0.01525605,-0.03173110,-0.01072
 776,-0.01821716,-0.03216439,-0.05380618,-0.00151747,-0.00209579,0.0011
 6115,-0.00028197,0.00068701,-0.00101070,-0.00001278,-0.00000579,-0.000
 00242,-0.00000165,0.00000328,0.00000024,-0.00000253,0.00000214,0.00000
 284,0.00000254,-0.00000096,0.00000037,0.00000092,-0.00000375,-0.000001
 36,-0.00002765,0.00000131,0.00000894,-0.00000737,0.00000509,0.00000233
 ,-0.00001683,0.00000081,0.00006928,0.00001950,-0.00005373,-0.00000803,
 -0.00023942,0.00009058,-0.00006589,-0.00041065,-0.00171889,-0.00042582
 ,0.00010609,-0.00047382,0.00014308,-0.00121707,-0.00074376,-0.00043095
 ,0.02196075,0.04727600,0.06498491,-0.00000200,0.00000514,-0.00000342,0
 .00000568,-0.00000811,0.00000393,-0.00001432,0.00001246,-0.00002856,0.
 00004514,0.00009098,0.00006125,0.00003566,-0.00013301,-0.00017629,-0.0
 0008237,-0.00060531,-0.00067005,0.00290928,-0.00714545,0.01044735,-0.0
 6464097,0.03496975,-0.03630800,0.00396567,-0.00162463,0.00216381,-0.00
 076648,0.00006523,-0.00027008,0.00000216,-0.00000050,0.00000051,0.0000
 0361,-0.00000248,0.00000483,-0.00000194,0.00000143,0.00000028,-0.00000
 027,0.00000114,0.00000235,0.00000034,-0.00001255,-0.00000154,-0.000010
 39,0.00000772,0.00000344,0.00001998,-0.00000754,0.00002727,0.00001049,
 0.00001632,0.00001317,0.00003907,-0.00008938,0.00001785,-0.00035372,0.
 00032687,-0.00028459,-0.00004469,-0.00009053,-0.00000776,-0.00019964,-
 0.00007306,-0.00041407,-0.00619362,0.02196607,-0.02227422,0.00436333,-
 0.00949044,0.01107525,0.06070573,-0.00000546,0.00001212,0.00001193,0.0
 0001625,-0.00002182,-0.00001289,-0.00001625,0.00002141,0.00004250,-0.0
 0005739,-0.00019984,-0.00008027,0.00028468,0.00001628,0.00025896,-0.00
 125683,0.00432494,-0.00274352,-0.00325087,0.00986163,-0.00851122,0.035
 35088,-0.14895652,0.10198528,-0.00078516,0.00011841,-0.00066832,-0.000
 86502,0.00008469,0.00024075,0.00001082,0.00000641,0.00000245,-0.000001
 64,-0.00000048,-0.00000358,0.00000429,-0.00000308,-0.00000476,0.,-0.00
 000060,-0.00000316,-0.00000199,0.00001205,0.00000091,0.00001811,-0.000
 00571,-0.00001133,-0.00000611,0.00000395,-0.00001453,0.00000477,0.0000
 1633,-0.00001031,-0.00003021,0.00007546,0.00000053,0.00015824,-0.00019
 191,0.00020863,0.00002257,0.00008646,0.00022129,0.00069841,0.00117476,
 0.00221399,0.00013360,-0.00377133,0.00276777,0.00936698,-0.01650431,0.
 01972456,-0.03895049,0.15384240,0.00000572,-0.00001952,-0.00001642,-0.
 00004202,0.00002775,0.00001311,0.00003360,-0.00008165,-0.00007629,-0.0
 0022011,0.00011803,0.00019687,-0.00028012,-0.00073311,-0.00008977,0.00
 203573,0.00664688,0.00136054,0.00138360,0.01084594,-0.04278803,-0.0372
 8733,0.10385526,-0.15695150,-0.00692567,-0.00007269,-0.00018512,0.0005
 1169,0.00037340,0.00042087,-0.00001267,-0.00000436,-0.00000133,0.00000
 143,0.00000049,0.00000160,-0.00000649,0.00000167,0.00000746,0.00000121
 ,0.00000521,0.00000896,0.00000300,-0.00001010,-0.00000124,-0.00003146,
 -0.00000002,0.00003057,0.00000704,0.00000017,0.00001076,0.00002685,0.0
 0005593,0.00004441,0.00002197,-0.00008805,-0.00000821,-0.00049625,0.00
 004184,-0.00028515,0.00039849,-0.00045902,0.00063035,-0.00011293,-0.00
 269153,0.00119302,-0.00130251,0.00199136,-0.00002769,0.00136793,-0.002
 24332,0.00439468,0.03838021,-0.11668255,0.19040963,-0.00000219,0.00000
 186,0.00000170,0.00000244,-0.00000306,0.00000279,-0.00000537,0.0000082
 3,-0.00001214,0.00000584,-0.00005478,0.00004510,0.00030977,-0.00010207
 ,-0.00041027,-0.00061564,0.00266573,0.00338605,-0.01706802,0.01612775,
 0.03332988,-0.00638370,-0.00142301,-0.00123752,-0.06157133,0.02304886,
 0.03468738,0.00460827,-0.01043347,-0.00840257,0.00000153,-0.00000039,-
 0.00000011,-0.00000013,0.00000041,0.00000102,0.00000263,0.00000074,-0.
 00000282,-0.00000060,-0.00000381,-0.00000626,-0.00000047,0.00000059,-0
 .00000037,0.00001866,0.00000627,-0.00001017,-0.00000284,0.00000167,0.0
 0000534,-0.00002662,-0.00004251,-0.00005650,0.00000036,-0.00000469,-0.
 00000675,0.00022801,0.00024016,-0.00001730,-0.00044579,-0.00100625,-0.
 00094923,0.00001948,-0.00049701,-0.00031219,-0.00065842,0.00060447,0.0
 0188776,0.00010273,0.00005336,-0.00014466,-0.00009569,-0.00011243,0.00
 044907,0.07616406,0.00000407,-0.00000238,-0.00000064,0.00000399,0.0000
 0472,-0.00000675,0.00000402,0.00000124,0.00000447,0.00004953,0.0000318
 0,-0.00003468,-0.00012519,0.00028757,0.00065709,-0.00238929,-0.0002266
 2,0.00093871,0.00335728,0.00011846,-0.00242958,-0.00098731,0.00094683,
 0.00048529,0.02757562,-0.09862759,-0.08966374,0.00031593,-0.03208392,-
 0.02617080,-0.00000238,-0.00000119,-0.00000084,-0.00000059,0.00000116,
 -0.00000164,-0.00000252,0.00000026,0.00000360,-0.00000106,0.00000057,0
 .00000509,-0.00000026,-0.00000011,-0.00000025,-0.00000372,-0.00000009,
 0.00000480,0.00000096,-0.00000028,-0.00000436,0.00001211,0.00000901,0.
 00001420,-0.00000632,0.00000144,0.00000265,-0.00025768,-0.00010744,0.0
 0007646,-0.00067142,0.00038637,0.00039357,0.00001969,0.00014057,-0.000
 11007,-0.00025081,0.00017157,0.00003369,-0.00052536,-0.00023939,0.0003
 8668,0.00013414,0.00008449,-0.00041942,-0.02409422,0.11907585,0.000006
 55,-0.00000322,-0.00000106,0.00000642,0.00000303,-0.00000624,0.0000125
 6,0.00001440,0.00001736,0.00012105,0.00004385,-0.00008819,-0.00027466,
 0.00075092,0.00096688,-0.00136629,-0.00167753,-0.00044345,0.00359832,-
 0.00279865,-0.00543075,0.00181016,0.00010597,0.00160875,0.04493516,-0.
 08883168,-0.22137106,-0.00206343,-0.00245099,0.00768811,-0.00000321,-0
 .00000125,-0.00000082,-0.00000229,0.00000196,-0.00000236,-0.00000488,0
 .00000014,0.00000532,0.00000019,0.00000097,0.00001062,0.00000071,0.000
 00208,-0.00000359,-0.00002034,-0.00000163,0.00001058,-0.00000685,0.000
 00240,-0.00000641,0.00002583,0.00001355,0.00006324,0.00000271,0.000022
 69,-0.00000364,-0.00040691,-0.00022158,0.00002715,0.00023054,0.0006576
 2,0.00102209,0.00011004,0.00027300,-0.00032042,0.00020715,-0.00041306,
 -0.00047739,-0.00023016,0.00018692,0.00021071,-0.00023870,0.00014698,0
 .00042506,-0.04946374,0.10581207,0.23519057,0.00001199,-0.00003546,-0.
 00001998,-0.00005375,0.00005901,0.00002453,0.00005059,-0.00011477,-0.0
 0005057,-0.00008339,0.00009163,0.00046331,-0.00064453,-0.00160459,0.00
 000277,0.00144809,0.00775882,-0.00022801,-0.03780435,0.01142787,-0.023
 71356,0.00304454,-0.00185658,-0.00538417,-0.09619181,0.04480078,-0.077
 63343,0.00616880,-0.00496234,0.00682647,-0.00002783,-0.00001526,-0.000
 00650,-0.00000208,0.00000666,0.00000132,-0.00000181,0.00000542,0.00000
 494,0.00000001,-0.00000495,-0.00000888,0.00000135,-0.00000621,0.000001
 24,-0.00000309,0.00000179,0.00000351,0.00000179,0.00001211,0.00000465,
 0.00000886,0.00000112,-0.00004410,-0.00006234,-0.00018277,-0.00003835,
 -0.00000160,0.00006015,-0.00001790,-0.00008453,-0.00037649,-0.00015298
 ,0.00037636,-0.00204463,0.00107795,0.00017367,-0.00033572,0.00050944,-
 0.00015090,0.00036662,0.00035914,0.00035350,-0.00087792,0.00215710,0.0
 0504017,-0.00217970,0.00431747,0.11700064,-0.00000055,0.00000368,0.000
 00366,0.00000869,-0.00000813,-0.00000507,0.00000335,0.00001913,0.00002
 240,0.00005281,-0.00006023,-0.00000734,-0.00030412,-0.00014930,0.00026
 296,0.00012294,0.00194142,-0.00109580,0.00088198,0.00362913,-0.0021540
 6,0.00001550,0.00030062,-0.00019290,0.03839075,-0.08760618,0.06313306,
 0.01597562,-0.02450846,0.02875883,0.00000293,0.00000133,0.00000063,-0.
 00000103,0.00000050,-0.00000101,0.00000061,-0.00000058,-0.00000101,0.0
 0000024,-0.00000061,0.00000010,-0.00000133,0.00000373,-0.00000094,0.00
 000092,-0.00000110,-0.00000385,0.00000096,0.00000333,-0.00000297,0.000
 00528,-0.00000292,0.00000192,-0.00002065,-0.00002022,-0.00000973,-0.00
 001641,-0.00004496,0.00003657,-0.00000649,0.00014017,0.00006086,0.0009
 7654,0.00049230,0.00060386,-0.00009582,-0.00004523,-0.00017508,0.00001
 361,-0.00019271,0.00029165,0.00056062,-0.00016931,-0.00027574,-0.00626
 681,0.00756948,-0.01092120,-0.04791246,0.10459067,0.00000610,-0.000016
 18,-0.00000751,-0.00001793,0.00003530,0.00000396,0.00001022,-0.0000442
 3,-0.00001040,-0.00003665,0.00021348,-0.00003684,0.00015222,-0.0003186
 1,0.00041886,0.00016006,0.00075829,0.00007993,-0.00326390,-0.00235603,
 0.00677686,0.00103943,-0.00234709,0.00292074,-0.07530168,0.07047636,-0
 .18607777,-0.00025538,0.00223858,0.00006437,-0.00001389,-0.00000869,-0
 .00000446,0.00000205,0.00000146,0.00000209,-0.00000195,0.00000374,0.00
 000348,-0.00000091,-0.00000105,-0.00000133,0.00000110,-0.00001084,0.00
 000426,-0.00000676,0.00000324,0.00000188,0.00000670,-0.00000250,0.0000
 0315,0.00000417,-0.00000575,0.00000635,-0.00000358,-0.00004648,0.00002
 737,-0.00007107,0.00002943,-0.00000619,0.00030926,0.00025910,-0.000093
 54,-0.00064116,-0.00107092,-0.00000141,-0.00019351,-0.00001587,0.00005
 589,0.00008433,0.00020170,-0.00001350,-0.00151390,0.00087319,0.0012843
 0,-0.01300164,0.01000057,-0.02185218,0.09159412,-0.07967304,0.19478587
 ,-0.00000169,0.00000350,0.00000433,0.00000083,-0.00001188,-0.00000887,
 -0.00000045,-0.00000566,0.00001266,-0.00003136,-0.00005119,-0.00006465
 ,-0.00003126,0.00016846,-0.00003488,-0.00043385,-0.00078064,-0.0003637
 3,0.00168345,0.00104672,-0.00024281,-0.00066923,0.00015225,0.00078724,
 0.00539022,-0.00232537,0.00992473,-0.09227289,0.03367343,-0.10051341,0
 .00000606,0.00000601,0.00000208,-0.00000179,-0.00000098,-0.00000260,-0
 .00000049,-0.00000203,-0.00000029,0.00000076,0.00000078,0.00000490,0.0
 0000016,0.00000693,-0.00000161,-0.00000158,0.00000033,0.00000165,-0.00
 000848,0.00000250,-0.00000713,0.00000479,-0.00000190,0.00001413,0.0000
 0482,0.00003950,-0.00000253,-0.00001703,-0.00004413,0.00000830,-0.0000
 0542,0.00007145,0.00016585,-0.00003643,0.00044552,-0.00010089,-0.00008
 632,-0.00008075,0.00002274,0.00036174,-0.00022613,0.00007305,-0.000053
 86,0.00013605,-0.00025724,-0.00016006,-0.00070828,-0.00061376,0.000508
 21,-0.00228511,0.00068348,0.09899584,-0.00000617,0.00001049,0.00000278
 ,0.00000790,-0.00001548,-0.00000266,-0.00001539,0.00001877,0.00000319,
 -0.00000964,-0.00006091,-0.00000744,0.00003046,0.00008702,-0.00014009,
 -0.00010026,-0.00021371,0.00003161,0.00038073,0.00251397,-0.00145745,0
 .00026256,0.00006496,0.00019673,0.01468186,-0.02340587,0.03667669,0.03
 399075,-0.09900544,0.12091034,0.00000786,0.00000420,0.00000211,0.00000
 147,-0.00000315,0.00000189,0.00000222,-0.00000108,-0.00000331,0.000000
 04,-0.00000001,-0.00000261,0.00000029,0.00000039,0.00000053,0.00000799
 ,0.00000044,-0.00000644,0.00000105,-0.00000221,0.00000414,-0.00000372,
 -0.00000669,-0.00001429,0.00000372,0.00001531,-0.00000574,0.00003199,0
 .00001814,-0.00000684,0.00003263,-0.00013463,-0.00012255,0.00010594,0.
 00038285,-0.00017528,0.00007857,0.00009238,-0.00003550,-0.00029184,0.0
 0012003,-0.00009935,0.00010635,-0.00005177,-0.00030072,0.00106513,0.00
 217112,-0.00017933,-0.00277746,-0.00689860,0.00007703,-0.04699938,0.12
 351536,-0.00000154,0.00000033,-0.00000029,0.00000018,0.00000083,0.0000
 0469,-0.00000535,0.00000283,-0.00000386,0.00000885,0.00000625,0.000049
 68,0.00004621,-0.00003462,-0.00006606,0.00026309,-0.00001059,0.0003170
 4,0.00101129,-0.00065122,-0.00006602,0.00049564,0.00026780,-0.00042766
 ,-0.00062528,-0.00654802,-0.00328063,-0.13458069,0.16109884,-0.3093680
 8,0.00000028,-0.00000068,0.00000005,0.00000057,-0.00000003,0.00000164,
 0.00000161,0.00000071,-0.00000234,0.00000021,-0.00000160,-0.00000464,0
 .00000018,-0.00000194,0.00000035,0.00000430,0.00000141,-0.00000577,0.0
 0000117,-0.00000071,0.00000555,-0.00000063,-0.00000453,-0.00001356,0.0
 0000411,-0.00001169,-0.00000196,0.00001585,0.00005247,-0.00000794,-0.0
 0000959,-0.00009112,-0.00008204,-0.00014760,-0.00023566,-0.00004878,0.
 00011840,0.00018081,0.00001479,-0.00030329,0.00027349,-0.00031835,-0.0
 0006652,-0.00021568,0.00003567,0.00046274,-0.00036995,0.00246659,0.000
 15408,0.00085657,0.00192279,0.12648949,-0.15132349,0.31164177,0.000004
 42,-0.00001153,-0.00000498,-0.00001535,0.00001876,0.00001034,0.0000142
 0,-0.00003213,-0.00002140,-0.00002706,0.00010806,0.00006888,-0.0000490
 5,-0.00018989,-0.00011535,0.00013490,0.00037850,0.00127391,-0.00144905
 ,-0.00389261,-0.00026915,0.00024185,-0.00028682,-0.00076233,-0.0093426
 9,0.00783141,0.00296385,-0.42509957,-0.03649074,-0.02201459,-0.0000083
 9,-0.00000451,-0.00000182,-0.00000101,0.00000248,-0.00000004,-0.000000
 40,0.00000144,0.00000106,0.00000017,-0.00000172,-0.00000259,0.00000029
 ,-0.00000125,-0.00000040,-0.00000121,0.00000074,0.00000123,-0.00000370
 ,0.00000268,-0.00000009,-0.00000104,-0.00000808,-0.00001107,0.00000406
 ,-0.00001576,0.00000083,0.00002968,0.00001442,0.00000013,0.00005206,0.
 00000375,-0.00012769,-0.00009704,-0.00046917,-0.00000548,-0.00001937,-
 0.00009266,-0.00001212,0.00004601,0.00005501,-0.00016960,0.00000033,0.
 00001214,0.00019015,0.00053292,0.00072877,-0.00068966,0.00092346,-0.00
 010255,0.00027066,-0.01314468,-0.00059567,0.00666225,0.44727526,-0.000
 00129,-0.00000764,-0.00000311,-0.00002289,0.00001029,0.00000399,0.0000
 0153,-0.00005823,-0.00002944,-0.00016710,0.00006764,0.00006781,-0.0000
 7955,-0.00050773,-0.00019064,-0.00158552,0.00035676,0.00079501,-0.0012
 5514,-0.00724738,-0.00109354,0.00037283,-0.00007001,-0.00038462,-0.040
 25981,-0.00305254,-0.00112435,-0.00864802,-0.04716282,0.02211686,-0.00
 000248,0.00000093,0.00000052,0.,-0.00000034,0.00000004,0.00000082,-0.0
 0000018,-0.00000109,0.00000074,-0.00000035,-0.00000298,0.00000080,0.00
 000004,0.00000141,0.00000322,0.,0.00000004,-0.00000215,0.00000198,-0.0
 0000155,0.00000558,0.00000018,-0.00001150,0.00000341,-0.00000484,0.000
 00541,-0.00000376,-0.00002423,0.00002213,-0.00006863,0.00005412,-0.000
 06487,0.00003964,-0.00017093,0.00008145,0.00001484,0.00003676,0.000001
 72,-0.00003784,0.00005476,0.00044921,-0.00003074,0.00013490,0.00011787
 ,0.00021927,0.00028649,-0.00053844,0.00069532,0.00101307,0.00074582,0.
 01776999,0.00078412,-0.00324080,0.03303693,0.05550516,-0.00000800,0.00
 001929,0.00000907,0.00002601,-0.00003036,-0.00001086,-0.00002154,0.000
 06233,0.00002541,0.00005237,-0.00014362,-0.00006614,0.00025481,0.00040
 466,0.00022638,0.00051203,-0.00062536,-0.00013018,0.00148610,0.0018723
 2,0.00000180,0.00040794,0.00035045,0.00059935,-0.00027032,-0.00854838,
 -0.00329859,0.02157225,0.02707062,-0.02635644,0.00001442,0.00000768,0.
 00000378,0.00000157,-0.00000382,0.00000057,0.00000256,-0.00000270,-0.0
 0000465,0.00000006,0.00000163,-0.00000032,-0.00000083,0.00000270,0.000
 00036,0.00000721,-0.00000215,-0.00000641,0.00000280,-0.00000432,0.0000
 0175,-0.00000384,0.00001152,0.00000329,-0.00000151,0.00004277,-0.00000
 345,-0.00003456,-0.00003050,0.00001423,-0.00015537,0.00001106,0.000030
 79,0.00000636,0.00005904,-0.00001204,0.00007193,0.00006326,-0.00012578
 ,-0.00033529,0.00001542,0.00067840,0.00005619,0.00026234,-0.00003711,-
 0.00022461,0.00039376,0.00029453,-0.00020359,0.00048666,-0.00025701,-0
 .03598022,-0.00402393,-0.00276263,0.01276506,-0.01772236,0.03118191\\-
 0.00000147,-0.00000054,0.00000043,0.00000031,-0.00000098,0.00000069,-0
 .00000464,0.00000153,0.00000045,0.00000664,0.00001508,0.00000060,0.000
 00789,-0.00001692,0.00000591,-0.00001148,-0.00000106,-0.00000210,0.000
 00472,0.00001040,-0.00000290,0.00000874,-0.00001481,0.00000173,-0.0000
 0082,-0.00000626,0.00000599,-0.00000455,0.00000381,-0.00000384,-0.0000
 0157,-0.00000035,0.00000046,0.00000024,-0.00000027,0.00000058,0.000000
 33,0.00000004,0.00000043,-0.00000097,0.00000037,0.00000061,-0.00000126
 ,-0.00000006,0.00000050,-0.00000007,0.00000016,0.00000007,0.,-0.000000
 82,0.00000058,0.00000094,-0.00000007,0.00000065,-0.00000137,-0.0000001
 8,0.00000143,-0.00000073,0.00000527,-0.00000230,0.00000471,0.00000388,
 -0.00000065,0.00000563,-0.00000003,0.00000040,-0.00000266,0.00000344,-
 0.00000168,0.00000081,0.00000064,-0.00000592,-0.00000218,0.00000249,-0
 .00000279,-0.00000325,-0.00000197,-0.00000011,-0.00000032,-0.00000122,
 -0.00000181,-0.00000008,0.00000162,0.00000123,-0.00000353,-0.00000321,
 0.00000135\\\@


 GETTING A SIMPLE ANSWER FROM A PROFESSOR IS LIKE
 GETTING A THIMBLE OF WATER FROM A FIRE HYDRANT.
     -- PROF. LEN SHAPIRO, NDSU
 Job cpu time:       0 days  2 hours 59 minutes 28.1 seconds.
 Elapsed time:       0 days  0 hours 44 minutes 56.7 seconds.
 File lengths (MBytes):  RWF=    295 Int=      0 D2E=      0 Chk=     13 Scr=      1
 Normal termination of Gaussian 16 at Tue Jun  1 04:13:01 2021.
### All Done ###
