### Starting Gaussian ###
 Entering Gaussian System, Link 0=g16
 Initial command:
 /cluster/software/gaussian/gaussian-16-A.03/avx2/g16/l1.exe "/local/scratch/cz9n3/Gau-10513.inp" -scrdir="/local/scratch/cz9n3/"
 Entering Link 1 = /cluster/software/gaussian/gaussian-16-A.03/avx2/g16/l1.exe PID=     10514.
  
 Copyright (c) 1988,1990,1992,1993,1995,1998,2003,2009,2016,
            Gaussian, Inc.  All Rights Reserved.
  
 This is part of the Gaussian(R) 16 program.  It is based on
 the Gaussian(R) 09 system (copyright 2009, Gaussian, Inc.),
 the Gaussian(R) 03 system (copyright 2003, Gaussian, Inc.),
 the Gaussian(R) 98 system (copyright 1998, Gaussian, Inc.),
 the Gaussian(R) 94 system (copyright 1995, Gaussian, Inc.),
 the Gaussian 92(TM) system (copyright 1992, Gaussian, Inc.),
 the Gaussian 90(TM) system (copyright 1990, Gaussian, Inc.),
 the Gaussian 88(TM) system (copyright 1988, Gaussian, Inc.),
 the Gaussian 86(TM) system (copyright 1986, Carnegie Mellon
 University), and the Gaussian 82(TM) system (copyright 1983,
 Carnegie Mellon University). Gaussian is a federally registered
 trademark of Gaussian, Inc.
  
 This software contains proprietary and confidential information,
 including trade secrets, belonging to Gaussian, Inc.
  
 This software is provided under written license and may be
 used, copied, transmitted, or stored only in accord with that
 written license.
  
 The following legend is applicable only to US Government
 contracts under FAR:
  
                    RESTRICTED RIGHTS LEGEND
  
 Use, reproduction and disclosure by the US Government is
 subject to restrictions as set forth in subparagraphs (a)
 and (c) of the Commercial Computer Software - Restricted
 Rights clause in FAR 52.227-19.
  
 Gaussian, Inc.
 340 Quinnipiac St., Bldg. 40, Wallingford CT 06492
  
  
 ---------------------------------------------------------------
 Warning -- This program may not be used in any manner that
 competes with the business of Gaussian, Inc. or will provide
 assistance to any competitor of Gaussian, Inc.  The licensee
 of this program is prohibited from giving any competitor of
 Gaussian, Inc. access to this program.  By using this program,
 the user acknowledges that Gaussian, Inc. is engaged in the
 business of creating and licensing software in the field of
 computational chemistry and represents and warrants to the
 licensee that it is not a competitor of Gaussian, Inc. and that
 it will not use this program in any manner prohibited above.
 ---------------------------------------------------------------
  

 Cite this work as:
 Gaussian 16, Revision A.03,
 M. J. Frisch, G. W. Trucks, H. B. Schlegel, G. E. Scuseria, 
 M. A. Robb, J. R. Cheeseman, G. Scalmani, V. Barone, 
 G. A. Petersson, H. Nakatsuji, X. Li, M. Caricato, A. V. Marenich, 
 J. Bloino, B. G. Janesko, R. Gomperts, B. Mennucci, H. P. Hratchian, 
 J. V. Ortiz, A. F. Izmaylov, J. L. Sonnenberg, D. Williams-Young, 
 F. Ding, F. Lipparini, F. Egidi, J. Goings, B. Peng, A. Petrone, 
 T. Henderson, D. Ranasinghe, V. G. Zakrzewski, J. Gao, N. Rega, 
 G. Zheng, W. Liang, M. Hada, M. Ehara, K. Toyota, R. Fukuda, 
 J. Hasegawa, M. Ishida, T. Nakajima, Y. Honda, O. Kitao, H. Nakai, 
 T. Vreven, K. Throssell, J. A. Montgomery, Jr., J. E. Peralta, 
 F. Ogliaro, M. J. Bearpark, J. J. Heyd, E. N. Brothers, K. N. Kudin, 
 V. N. Staroverov, T. A. Keith, R. Kobayashi, J. Normand, 
 K. Raghavachari, A. P. Rendell, J. C. Burant, S. S. Iyengar, 
 J. Tomasi, M. Cossi, J. M. Millam, M. Klene, C. Adamo, R. Cammi, 
 J. W. Ochterski, R. L. Martin, K. Morokuma, O. Farkas, 
 J. B. Foresman, and D. J. Fox, Gaussian, Inc., Wallingford CT, 2016.
 
 ******************************************
 Gaussian 16:  ES64L-G16RevA.03 25-Dec-2016
                 1-Jun-2021 
 ******************************************
 %chk=CCCCNCN1CN1C.chk
 %NProcShared=20
 Will use up to   20 processors via shared memory.
 -----------------------------
 # opt freq b3lyp/6-31g(2df,p)
 -----------------------------
 1/18=20,19=15,26=3,38=1/1,3;
 2/9=110,12=2,17=6,18=5,40=1/2;
 3/5=1,6=6,7=104,11=2,25=1,30=1,71=1,74=-5/1,2,3;
 4//1;
 5/5=2,38=5/2;
 6/7=2,8=2,9=2,10=2,28=1/1;
 7//1,2,3,16;
 1/18=20,19=15,26=3/3(2);
 2/9=110/2;
 99//99;
 2/9=110/2;
 3/5=1,6=6,7=104,11=2,25=1,30=1,71=1,74=-5/1,2,3;
 4/5=5,16=3,69=1/1;
 5/5=2,38=5/2;
 7//1,2,3,16;
 1/18=20,19=15,26=3/3(-5);
 2/9=110/2;
 6/7=2,8=2,9=2,10=2,19=2,28=1/1;
 99/9=1/99;
 -------------------
 Title Card Required
 -------------------
 Symbolic Z-matrix:
 Charge =  0 Multiplicity = 1
 C                     0.93128   0.06861  -0.03056 
 C                     2.45235   0.04802  -0.01702 
 C                     2.98654  -1.1746    0.73524 
 C                     4.51782  -1.19828   0.75019 
 N                     5.00701  -2.37859   1.47301 
 C                     6.47044  -2.42672   1.42528 
 N                     6.9886   -3.57757   2.17896 
 C                     6.74961  -4.88694   1.58833 
 N                     8.00826  -4.19447   1.36855 
 C                     9.098    -4.63046   2.23712 
 H                     0.56573   0.94736  -0.57132 
 H                     0.53139   0.10613   0.98776 
 H                     0.53212  -0.82347  -0.52377 
 H                     2.81993   0.96779   0.4529 
 H                     2.82011   0.04297  -1.04993 
 H                     2.60501  -2.08614   0.25866 
 H                     2.60602  -1.16243   1.76407 
 H                     4.88769  -0.28654   1.23306 
 H                     4.88522  -1.2067   -0.28352 
 H                     4.64802  -3.21701   1.03074 
 H                     6.86938  -1.52903   1.91206 
 H                     6.81297  -2.40585   0.38131 
 H                     6.0903   -4.96734   0.73463 
 H                     6.7147   -5.7185    2.28196 
 H                     9.83881  -5.15433   1.62199 
 H                     8.80793  -5.31472   3.04331 
 H                     9.60852  -3.7674    2.67962 
 

 GradGradGradGradGradGradGradGradGradGradGradGradGradGradGradGradGradGrad
 Berny optimization.
 Initialization pass.
                           ----------------------------
                           !    Initial Parameters    !
                           ! (Angstroms and Degrees)  !
 --------------------------                            --------------------------
 ! Name  Definition              Value          Derivative Info.                !
 --------------------------------------------------------------------------------
 ! R1    R(1,2)                  1.5213         estimate D2E/DX2                !
 ! R2    R(1,11)                 1.0946         estimate D2E/DX2                !
 ! R3    R(1,12)                 1.0947         estimate D2E/DX2                !
 ! R4    R(1,13)                 1.0947         estimate D2E/DX2                !
 ! R5    R(2,3)                  1.5317         estimate D2E/DX2                !
 ! R6    R(2,14)                 1.0963         estimate D2E/DX2                !
 ! R7    R(2,15)                 1.0964         estimate D2E/DX2                !
 ! R8    R(3,4)                  1.5315         estimate D2E/DX2                !
 ! R9    R(3,16)                 1.0971         estimate D2E/DX2                !
 ! R10   R(3,17)                 1.097          estimate D2E/DX2                !
 ! R11   R(4,5)                  1.468          estimate D2E/DX2                !
 ! R12   R(4,18)                 1.096          estimate D2E/DX2                !
 ! R13   R(4,19)                 1.0971         estimate D2E/DX2                !
 ! R14   R(5,6)                  1.465          estimate D2E/DX2                !
 ! R15   R(5,20)                 1.0136         estimate D2E/DX2                !
 ! R16   R(6,7)                  1.47           estimate D2E/DX2                !
 ! R17   R(6,21)                 1.0963         estimate D2E/DX2                !
 ! R18   R(6,22)                 1.0989         estimate D2E/DX2                !
 ! R19   R(7,8)                  1.4562         estimate D2E/DX2                !
 ! R20   R(7,9)                  1.4412         estimate D2E/DX2                !
 ! R21   R(8,9)                  1.4533         estimate D2E/DX2                !
 ! R22   R(8,23)                 1.0816         estimate D2E/DX2                !
 ! R23   R(8,24)                 1.0834         estimate D2E/DX2                !
 ! R24   R(9,10)                 1.4601         estimate D2E/DX2                !
 ! R25   R(10,25)                1.0962         estimate D2E/DX2                !
 ! R26   R(10,26)                1.0965         estimate D2E/DX2                !
 ! R27   R(10,27)                1.096          estimate D2E/DX2                !
 ! A1    A(2,1,11)             110.4361         estimate D2E/DX2                !
 ! A2    A(2,1,12)             110.9433         estimate D2E/DX2                !
 ! A3    A(2,1,13)             110.9503         estimate D2E/DX2                !
 ! A4    A(11,1,12)            108.0618         estimate D2E/DX2                !
 ! A5    A(11,1,13)            108.0499         estimate D2E/DX2                !
 ! A6    A(12,1,13)            108.2912         estimate D2E/DX2                !
 ! A7    A(1,2,3)              111.3392         estimate D2E/DX2                !
 ! A8    A(1,2,14)             109.1293         estimate D2E/DX2                !
 ! A9    A(1,2,15)             109.0896         estimate D2E/DX2                !
 ! A10   A(3,2,14)             110.0125         estimate D2E/DX2                !
 ! A11   A(3,2,15)             110.0001         estimate D2E/DX2                !
 ! A12   A(14,2,15)            107.1698         estimate D2E/DX2                !
 ! A13   A(2,3,4)              111.4591         estimate D2E/DX2                !
 ! A14   A(2,3,16)             109.1827         estimate D2E/DX2                !
 ! A15   A(2,3,17)             109.316          estimate D2E/DX2                !
 ! A16   A(4,3,16)             109.8222         estimate D2E/DX2                !
 ! A17   A(4,3,17)             109.7446         estimate D2E/DX2                !
 ! A18   A(16,3,17)            107.2171         estimate D2E/DX2                !
 ! A19   A(3,4,5)              110.5135         estimate D2E/DX2                !
 ! A20   A(3,4,18)             109.1991         estimate D2E/DX2                !
 ! A21   A(3,4,19)             109.0111         estimate D2E/DX2                !
 ! A22   A(5,4,18)             109.8445         estimate D2E/DX2                !
 ! A23   A(5,4,19)             110.2539         estimate D2E/DX2                !
 ! A24   A(18,4,19)            107.9682         estimate D2E/DX2                !
 ! A25   A(4,5,6)              110.0757         estimate D2E/DX2                !
 ! A26   A(4,5,20)             109.4024         estimate D2E/DX2                !
 ! A27   A(6,5,20)             108.2037         estimate D2E/DX2                !
 ! A28   A(5,6,7)              111.1691         estimate D2E/DX2                !
 ! A29   A(5,6,21)             108.7917         estimate D2E/DX2                !
 ! A30   A(5,6,22)             109.9798         estimate D2E/DX2                !
 ! A31   A(7,6,21)             106.5661         estimate D2E/DX2                !
 ! A32   A(7,6,22)             113.0827         estimate D2E/DX2                !
 ! A33   A(21,6,22)            107.0275         estimate D2E/DX2                !
 ! A34   A(6,7,8)              115.986          estimate D2E/DX2                !
 ! A35   A(6,7,9)              107.2292         estimate D2E/DX2                !
 ! A36   A(7,8,23)             119.1441         estimate D2E/DX2                !
 ! A37   A(7,8,24)             115.8338         estimate D2E/DX2                !
 ! A38   A(9,8,23)             116.3574         estimate D2E/DX2                !
 ! A39   A(9,8,24)             119.3696         estimate D2E/DX2                !
 ! A40   A(23,8,24)            115.379          estimate D2E/DX2                !
 ! A41   A(7,9,10)             108.7444         estimate D2E/DX2                !
 ! A42   A(8,9,10)             114.4649         estimate D2E/DX2                !
 ! A43   A(9,10,25)            108.2561         estimate D2E/DX2                !
 ! A44   A(9,10,26)            115.2305         estimate D2E/DX2                !
 ! A45   A(9,10,27)            110.6501         estimate D2E/DX2                !
 ! A46   A(25,10,26)           107.0457         estimate D2E/DX2                !
 ! A47   A(25,10,27)           106.7435         estimate D2E/DX2                !
 ! A48   A(26,10,27)           108.5285         estimate D2E/DX2                !
 ! D1    D(11,1,2,3)          -179.9958         estimate D2E/DX2                !
 ! D2    D(11,1,2,14)           58.3767         estimate D2E/DX2                !
 ! D3    D(11,1,2,15)          -58.4105         estimate D2E/DX2                !
 ! D4    D(12,1,2,3)            60.2103         estimate D2E/DX2                !
 ! D5    D(12,1,2,14)          -61.4172         estimate D2E/DX2                !
 ! D6    D(12,1,2,15)         -178.2045         estimate D2E/DX2                !
 ! D7    D(13,1,2,3)           -60.2122         estimate D2E/DX2                !
 ! D8    D(13,1,2,14)          178.1603         estimate D2E/DX2                !
 ! D9    D(13,1,2,15)           61.3731         estimate D2E/DX2                !
 ! D10   D(1,2,3,4)            179.983          estimate D2E/DX2                !
 ! D11   D(1,2,3,16)            58.4806         estimate D2E/DX2                !
 ! D12   D(1,2,3,17)           -58.522          estimate D2E/DX2                !
 ! D13   D(14,2,3,4)           -58.9045         estimate D2E/DX2                !
 ! D14   D(14,2,3,16)          179.5931         estimate D2E/DX2                !
 ! D15   D(14,2,3,17)           62.5905         estimate D2E/DX2                !
 ! D16   D(15,2,3,4)            58.9289         estimate D2E/DX2                !
 ! D17   D(15,2,3,16)          -62.5735         estimate D2E/DX2                !
 ! D18   D(15,2,3,17)         -179.5761         estimate D2E/DX2                !
 ! D19   D(2,3,4,5)           -179.8793         estimate D2E/DX2                !
 ! D20   D(2,3,4,18)            59.1844         estimate D2E/DX2                !
 ! D21   D(2,3,4,19)           -58.5569         estimate D2E/DX2                !
 ! D22   D(16,3,4,5)           -58.7491         estimate D2E/DX2                !
 ! D23   D(16,3,4,18)         -179.6854         estimate D2E/DX2                !
 ! D24   D(16,3,4,19)           62.5733         estimate D2E/DX2                !
 ! D25   D(17,3,4,5)            58.8751         estimate D2E/DX2                !
 ! D26   D(17,3,4,18)          -62.0613         estimate D2E/DX2                !
 ! D27   D(17,3,4,19)         -179.8025         estimate D2E/DX2                !
 ! D28   D(3,4,5,6)            177.2421         estimate D2E/DX2                !
 ! D29   D(3,4,5,20)            58.4685         estimate D2E/DX2                !
 ! D30   D(18,4,5,6)           -62.2063         estimate D2E/DX2                !
 ! D31   D(18,4,5,20)          179.0201         estimate D2E/DX2                !
 ! D32   D(19,4,5,6)            56.6589         estimate D2E/DX2                !
 ! D33   D(19,4,5,20)          -62.1147         estimate D2E/DX2                !
 ! D34   D(4,5,6,7)            178.198          estimate D2E/DX2                !
 ! D35   D(4,5,6,21)            61.1498         estimate D2E/DX2                !
 ! D36   D(4,5,6,22)           -55.7761         estimate D2E/DX2                !
 ! D37   D(20,5,6,7)           -62.2962         estimate D2E/DX2                !
 ! D38   D(20,5,6,21)         -179.3444         estimate D2E/DX2                !
 ! D39   D(20,5,6,22)           63.7297         estimate D2E/DX2                !
 ! D40   D(5,6,7,8)             70.5285         estimate D2E/DX2                !
 ! D41   D(5,6,7,9)            135.2162         estimate D2E/DX2                !
 ! D42   D(21,6,7,8)          -171.0734         estimate D2E/DX2                !
 ! D43   D(21,6,7,9)          -106.3856         estimate D2E/DX2                !
 ! D44   D(22,6,7,8)           -53.7588         estimate D2E/DX2                !
 ! D45   D(22,6,7,9)            10.9289         estimate D2E/DX2                !
 ! D46   D(6,7,8,23)            -9.3365         estimate D2E/DX2                !
 ! D47   D(6,7,8,24)          -153.9417         estimate D2E/DX2                !
 ! D48   D(6,7,9,10)           141.376          estimate D2E/DX2                !
 ! D49   D(23,8,9,10)         -151.7355         estimate D2E/DX2                !
 ! D50   D(24,8,9,10)           -5.8708         estimate D2E/DX2                !
 ! D51   D(7,9,10,25)          176.4665         estimate D2E/DX2                !
 ! D52   D(7,9,10,26)           56.6871         estimate D2E/DX2                !
 ! D53   D(7,9,10,27)          -66.8858         estimate D2E/DX2                !
 ! D54   D(8,9,10,25)          111.209          estimate D2E/DX2                !
 ! D55   D(8,9,10,26)           -8.5704         estimate D2E/DX2                !
 ! D56   D(8,9,10,27)         -132.1433         estimate D2E/DX2                !
 --------------------------------------------------------------------------------
 Trust Radius=3.00D-01 FncErr=1.00D-07 GrdErr=1.00D-06 EigMax=2.50D+02 EigMin=1.00D-04
 Number of steps in this run=    141 maximum allowed number of steps=    162.
 GradGradGradGradGradGradGradGradGradGradGradGradGradGradGradGradGradGrad

                          Input orientation:                          
 ---------------------------------------------------------------------
 Center     Atomic      Atomic             Coordinates (Angstroms)
 Number     Number       Type             X           Y           Z
 ---------------------------------------------------------------------
      1          6           0        0.931280    0.068610   -0.030560
      2          6           0        2.452350    0.048020   -0.017020
      3          6           0        2.986540   -1.174600    0.735240
      4          6           0        4.517820   -1.198280    0.750190
      5          7           0        5.007010   -2.378590    1.473010
      6          6           0        6.470440   -2.426720    1.425280
      7          7           0        6.988600   -3.577570    2.178960
      8          6           0        6.749610   -4.886940    1.588330
      9          7           0        8.008260   -4.194470    1.368550
     10          6           0        9.098000   -4.630460    2.237120
     11          1           0        0.565730    0.947360   -0.571320
     12          1           0        0.531390    0.106130    0.987760
     13          1           0        0.532120   -0.823470   -0.523770
     14          1           0        2.819930    0.967790    0.452900
     15          1           0        2.820110    0.042970   -1.049930
     16          1           0        2.605010   -2.086140    0.258660
     17          1           0        2.606020   -1.162430    1.764070
     18          1           0        4.887690   -0.286540    1.233060
     19          1           0        4.885220   -1.206700   -0.283520
     20          1           0        4.648020   -3.217010    1.030740
     21          1           0        6.869380   -1.529030    1.912060
     22          1           0        6.812970   -2.405850    0.381310
     23          1           0        6.090300   -4.967340    0.734630
     24          1           0        6.714700   -5.718500    2.281960
     25          1           0        9.838810   -5.154330    1.621990
     26          1           0        8.807930   -5.314720    3.043310
     27          1           0        9.608520   -3.767400    2.679620
 ---------------------------------------------------------------------
                    Distance matrix (angstroms):
                    1          2          3          4          5
     1  C    0.000000
     2  C    1.521270   0.000000
     3  C    2.521134   1.531683   0.000000
     4  C    3.883021   2.531411   1.531536   0.000000
     5  N    4.986089   3.825561   2.464994   1.467960   0.000000
     6  C    6.247274   4.934533   3.765836   2.403651   1.464999
     7  N    7.407276   6.208445   4.886213   3.715798   2.421284
     8  C    7.812250   6.737761   5.354431   4.391990   3.056431
     9  N    8.379439   7.126476   5.893926   4.641411   3.509392
    10  C    9.691179   8.434097   7.179732   5.913448   4.731911
    11  H    1.094646   2.162266   3.474210   4.687129   5.913222
    12  H    1.094667   2.168651   2.780611   4.201137   5.142030
    13  H    1.094711   2.168772   2.780751   4.201102   5.141028
    14  H    2.146918   1.096320   2.167328   2.768225   4.125797
    15  H    2.146497   1.096438   2.167258   2.768276   4.124526
    16  H    2.743714   2.157300   1.097087   2.165350   2.707356
    17  H    2.746072   2.158955   1.097012   2.164305   2.707123
    18  H    4.168459   2.757809   2.156582   1.096010   2.109144
    19  H    4.162216   2.750309   2.154968   1.097092   2.115078
    20  H    5.073048   4.071755   2.649391   2.042286   1.013620
    21  H    6.448818   5.071350   4.072711   2.643704   2.093547
    22  H    6.394284   5.019477   4.035196   2.619544   2.110460
    23  H    7.249951   6.241273   4.900837   4.083962   2.901784
    24  H    8.502137   7.530318   6.077709   5.254045   3.837395
    25  H   10.457252   9.182080   7.973593   6.687548   5.574336
    26  H   10.023499   8.861038   7.507087   6.372482   5.053088
    27  H    9.866841   8.546348   7.372506   6.019826   4.955663
                    6          7          8          9         10
     6  C    0.000000
     7  N    1.470027   0.000000
     8  C    2.481371   1.456163   0.000000
     9  N    2.343725   1.441193   1.453278   0.000000
    10  C    3.524149   2.358289   2.449826   1.460149   0.000000
    11  H    7.087766   8.324199   8.771745   9.251636  10.573507
    12  H    6.471404   7.528889   7.997355   8.633872   9.868282
    13  H    6.452352   7.521699   7.722042   8.416483   9.771898
    14  H    5.078823   6.404482   7.142090   7.376050   8.598721
    15  H    5.054794   6.396120   6.834135   7.121927   8.488672
    16  H    4.051981   5.012761   5.175926   5.905254   7.248916
    17  H    4.080067   5.021159   5.574244   6.207568   7.375419
    18  H    2.668786   4.017391   4.975605   5.002822   6.132250
    19  H    2.630849   4.013607   4.530335   4.627038   5.985255
    20  H    2.025200   2.631868   2.741579   3.515787   4.822397
    21  H    1.096337   2.069291   3.375604   2.949071   3.832920
    22  H    1.098925   2.152979   2.759840   2.366965   3.689754
    23  H    2.660123   2.196473   1.081646   2.162811   3.378938
    24  H    3.410188   2.160836   1.083436   2.197790   2.620298
    25  H    4.338717   3.304555   3.100933   2.082421   1.096186
    26  H    4.052459   2.659841   2.556686   2.167776   1.096492
    27  H    3.635703   2.674075   3.258474   2.112374   1.096043
                   11         12         13         14         15
    11  H    0.000000
    12  H    1.771885   0.000000
    13  H    1.771787   1.774508   0.000000
    14  H    2.476058   2.503188   3.065383   0.000000
    15  H    2.475726   3.065030   2.502491   1.764593   0.000000
    16  H    3.748287   3.104438   2.550177   3.067639   2.508343
    17  H    3.750739   2.552644   3.106472   2.510530   3.068781
    18  H    4.843308   4.380835   4.727128   2.541186   3.097662
    19  H    4.835369   4.721812   4.376536   3.088065   2.532536
    20  H    6.047617   5.290723   5.008609   4.603082   4.277606
    21  H    7.213577   6.610461   6.825829   4.976073   5.257486
    22  H    7.153987   6.792354   6.540044   5.227900   4.897765
    23  H    8.198174   7.530316   7.046176   6.782364   6.243557
    24  H    9.507088   8.592706   8.370050   7.951174   7.711281
    25  H   11.315089  10.709937  10.486902   9.386789   9.133085
    26  H   10.964172  10.105049  10.068983   9.057389   9.017397
    27  H   10.703720  10.013037  10.065260   8.571188   8.631974
                   16         17         18         19         20
    16  H    0.000000
    17  H    1.766211   0.000000
    18  H    3.065721   2.501034   0.000000
    19  H    2.503344   3.064203   1.773898   0.000000
    20  H    2.459444   2.988116   2.947207   2.413481   0.000000
    21  H    4.607489   4.281651   2.435553   2.976803   2.925823
    22  H    4.221870   4.599625   2.987249   2.365625   2.401405
    23  H    4.546989   5.260921   4.858456   4.078144   2.287249
    24  H    5.846138   6.156885   5.826178   5.503183   3.477667
    25  H    7.974981   8.262488   6.954152   6.614590   5.571991
    26  H    7.526900   7.572427   6.627811   6.582650   5.075005
    27  H    7.598476   7.527224   6.041122   6.135711   5.256262
                   21         22         23         24         25
    21  H    0.000000
    22  H    1.764990   0.000000
    23  H    3.716892   2.684831   0.000000
    24  H    4.208612   3.820442   1.829849   0.000000
    25  H    4.695152   4.271901   3.856644   3.242516   0.000000
    26  H    4.401040   4.419008   3.582763   2.263693   1.763119
    27  H    3.619715   3.866671   4.195320   3.512708   1.759315
                   26         27
    26  H    0.000000
    27  H    1.779723   0.000000
 Stoichiometry    C7H17N3
 Framework group  C1[X(C7H17N3)]
 Deg. of freedom    75
 Full point group                 C1      NOp   1
 Largest Abelian subgroup         C1      NOp   1
 Largest concise Abelian subgroup C1      NOp   1
                         Standard orientation:                         
 ---------------------------------------------------------------------
 Center     Atomic      Atomic             Coordinates (Angstroms)
 Number     Number       Type             X           Y           Z
 ---------------------------------------------------------------------
      1          6           0       -5.102026    0.416464   -0.003739
      2          6           0       -3.867555   -0.432767    0.259220
      3          6           0       -2.591766    0.282532   -0.195494
      4          6           0       -1.347078   -0.569948    0.068385
      5          7           0       -0.137495    0.135632   -0.372039
      6          6           0        1.051699   -0.659359   -0.055763
      7          7           0        2.275458    0.006127   -0.525360
      8          6           0        2.667517    1.206365    0.199987
      9          7           0        3.244949   -0.083938    0.537189
     10          6           0        4.560331   -0.329122   -0.047353
     11          1           0       -6.004255   -0.108132    0.326461
     12          1           0       -5.207329    0.633704   -1.071454
     13          1           0       -5.045525    1.367002    0.536332
     14          1           0       -3.970026   -1.388533   -0.267970
     15          1           0       -3.809277   -0.658676    1.330548
     16          1           0       -2.506558    1.239348    0.334450
     17          1           0       -2.665143    0.509777   -1.266199
     18          1           0       -1.440290   -1.520162   -0.469799
     19          1           0       -1.287419   -0.792899    1.140925
     20          1           0       -0.066499    1.020212    0.117759
     21          1           0        0.990442   -1.614509   -0.590451
     22          1           0        1.072910   -0.892415    1.017955
     23          1           0        1.985037    1.630971    0.923789
     24          1           0        3.258017    1.923339   -0.357768
     25          1           0        5.300236   -0.332902    0.761442
     26          1           0        4.891198    0.414404   -0.782194
     27          1           0        4.597363   -1.320258   -0.513818
 ---------------------------------------------------------------------
 Rotational constants (GHZ):           6.4678443           0.3579498           0.3496126
 Standard basis: 6-31G(2df,p) (6D, 7F)
 There are   395 symmetry adapted cartesian basis functions of A   symmetry.
 There are   365 symmetry adapted basis functions of A   symmetry.
   365 basis functions,   559 primitive gaussians,   395 cartesian basis functions
    40 alpha electrons       40 beta electrons
       nuclear repulsion energy       536.9761511428 Hartrees.
 NAtoms=   27 NActive=   27 NUniq=   27 SFac= 1.00D+00 NAtFMM=   60 NAOKFM=F Big=F
 Integral buffers will be    131072 words long.
 Raffenetti 2 integral format.
 Two-electron integral symmetry is turned on.
 One-electron integrals computed using PRISM.
 PrsmSu:  requested number of processors reduced to:  13 ShMem   1 Linda.
 NBasis=   365 RedAO= T EigKep=  3.05D-04  NBF=   365
 NBsUse=   365 1.00D-06 EigRej= -1.00D+00 NBFU=   365
 ExpMin= 1.61D-01 ExpMax= 4.17D+03 ExpMxC= 6.27D+02 IAcc=3 IRadAn=         5 AccDes= 0.00D+00
 Harris functional with IExCor=  402 and IRadAn=       5 diagonalized for initial guess.
 HarFok:  IExCor=  402 AccDes= 0.00D+00 IRadAn=         5 IDoV= 1 UseB2=F ITyADJ=14
 ICtDFT=  3500011 ScaDFX=  1.000000  1.000000  1.000000  1.000000
 FoFCou: FMM=F IPFlag=           0 FMFlag=      100000 FMFlg1=           0
         NFxFlg=           0 DoJE=T BraDBF=F KetDBF=T FulRan=T
         wScrn=  0.000000 ICntrl=       500 IOpCl=  0 I1Cent=   200000004 NGrid=           0
         NMat0=    1 NMatS0=      1 NMatT0=    0 NMatD0=    1 NMtDS0=    0 NMtDT0=    0
 Petite list used in FoFCou.
 Requested convergence on RMS density matrix=1.00D-08 within 128 cycles.
 Requested convergence on MAX density matrix=1.00D-06.
 Requested convergence on             energy=1.00D-06.
 No special actions if energy rises.
 Integral accuracy reduced to 1.0D-05 until final iterations.
 Initial convergence to 1.0D-05 achieved.  Increase integral accuracy.
 SCF Done:  E(RB3LYP) =  -441.177773961     A.U. after   12 cycles
            NFock= 12  Conv=0.48D-08     -V/T= 2.0079

 **********************************************************************

            Population analysis using the SCF density.

 **********************************************************************

 Orbital symmetries:
       Occupied  (A) (A) (A) (A) (A) (A) (A) (A) (A) (A) (A) (A)
                 (A) (A) (A) (A) (A) (A) (A) (A) (A) (A) (A) (A)
                 (A) (A) (A) (A) (A) (A) (A) (A) (A) (A) (A) (A)
                 (A) (A) (A) (A)
       Virtual   (A) (A) (A) (A) (A) (A) (A) (A) (A) (A) (A) (A)
                 (A) (A) (A) (A) (A) (A) (A) (A) (A) (A) (A) (A)
                 (A) (A) (A) (A) (A) (A) (A) (A) (A) (A) (A) (A)
                 (A) (A) (A) (A) (A) (A) (A) (A) (A) (A) (A) (A)
                 (A) (A) (A) (A) (A) (A) (A) (A) (A) (A) (A) (A)
                 (A) (A) (A) (A) (A) (A) (A) (A) (A) (A) (A) (A)
                 (A) (A) (A) (A) (A) (A) (A) (A) (A) (A) (A) (A)
                 (A) (A) (A) (A) (A) (A) (A) (A) (A) (A) (A) (A)
                 (A) (A) (A) (A) (A) (A) (A) (A) (A) (A) (A) (A)
                 (A) (A) (A) (A) (A) (A) (A) (A) (A) (A) (A) (A)
                 (A) (A) (A) (A) (A) (A) (A) (A) (A) (A) (A) (A)
                 (A) (A) (A) (A) (A) (A) (A) (A) (A) (A) (A) (A)
                 (A) (A) (A) (A) (A) (A) (A) (A) (A) (A) (A) (A)
                 (A) (A) (A) (A) (A) (A) (A) (A) (A) (A) (A) (A)
                 (A) (A) (A) (A) (A) (A) (A) (A) (A) (A) (A) (A)
                 (A) (A) (A) (A) (A) (A) (A) (A) (A) (A) (A) (A)
                 (A) (A) (A) (A) (A) (A) (A) (A) (A) (A) (A) (A)
                 (A) (A) (A) (A) (A) (A) (A) (A) (A) (A) (A) (A)
                 (A) (A) (A) (A) (A) (A) (A) (A) (A) (A) (A) (A)
                 (A) (A) (A) (A) (A) (A) (A) (A) (A) (A) (A) (A)
                 (A) (A) (A) (A) (A) (A) (A) (A) (A) (A) (A) (A)
                 (A) (A) (A) (A) (A) (A) (A) (A) (A) (A) (A) (A)
                 (A) (A) (A) (A) (A) (A) (A) (A) (A) (A) (A) (A)
                 (A) (A) (A) (A) (A) (A) (A) (A) (A) (A) (A) (A)
                 (A) (A) (A) (A) (A) (A) (A) (A) (A) (A) (A) (A)
                 (A) (A) (A) (A) (A) (A) (A) (A) (A) (A) (A) (A)
                 (A) (A) (A) (A) (A) (A) (A) (A) (A) (A) (A) (A)
                 (A)
 The electronic state is 1-A.
 Alpha  occ. eigenvalues --  -14.35378 -14.34885 -14.30803 -10.23685 -10.22072
 Alpha  occ. eigenvalues --  -10.20023 -10.19852 -10.17702 -10.17529 -10.16985
 Alpha  occ. eigenvalues --   -1.04207  -0.90095  -0.79616  -0.77558  -0.71881
 Alpha  occ. eigenvalues --   -0.68825  -0.62536  -0.60686  -0.59427  -0.57459
 Alpha  occ. eigenvalues --   -0.50936  -0.48364  -0.47851  -0.45432  -0.44905
 Alpha  occ. eigenvalues --   -0.43559  -0.41370  -0.40971  -0.40240  -0.38818
 Alpha  occ. eigenvalues --   -0.36859  -0.35983  -0.35206  -0.33917  -0.33301
 Alpha  occ. eigenvalues --   -0.32561  -0.31067  -0.26776  -0.23682  -0.21875
 Alpha virt. eigenvalues --    0.07750   0.08862   0.09374   0.10870   0.11743
 Alpha virt. eigenvalues --    0.12980   0.13487   0.14580   0.14829   0.15542
 Alpha virt. eigenvalues --    0.15750   0.17140   0.17516   0.17829   0.18280
 Alpha virt. eigenvalues --    0.19171   0.19340   0.20358   0.20837   0.21436
 Alpha virt. eigenvalues --    0.22634   0.24432   0.25518   0.27249   0.27914
 Alpha virt. eigenvalues --    0.28476   0.32023   0.40601   0.43017   0.45687
 Alpha virt. eigenvalues --    0.46559   0.47429   0.49273   0.50695   0.51918
 Alpha virt. eigenvalues --    0.52273   0.52828   0.53070   0.53964   0.56423
 Alpha virt. eigenvalues --    0.57373   0.58088   0.59528   0.61334   0.62563
 Alpha virt. eigenvalues --    0.64035   0.65714   0.66772   0.67462   0.68655
 Alpha virt. eigenvalues --    0.69649   0.70688   0.71242   0.73030   0.73474
 Alpha virt. eigenvalues --    0.73597   0.74079   0.74161   0.75168   0.75844
 Alpha virt. eigenvalues --    0.77210   0.77959   0.79382   0.79732   0.80535
 Alpha virt. eigenvalues --    0.81091   0.81892   0.83276   0.83532   0.84598
 Alpha virt. eigenvalues --    0.85619   0.86777   0.87488   0.88228   0.89242
 Alpha virt. eigenvalues --    0.90550   0.91484   0.97951   1.04918   1.07951
 Alpha virt. eigenvalues --    1.10411   1.12475   1.15943   1.18425   1.19132
 Alpha virt. eigenvalues --    1.20412   1.20596   1.20769   1.21650   1.22644
 Alpha virt. eigenvalues --    1.26099   1.27038   1.28927   1.31576   1.33260
 Alpha virt. eigenvalues --    1.34003   1.36006   1.37152   1.40306   1.41071
 Alpha virt. eigenvalues --    1.43542   1.45940   1.47566   1.50658   1.52230
 Alpha virt. eigenvalues --    1.54066   1.54466   1.55797   1.56734   1.57395
 Alpha virt. eigenvalues --    1.60774   1.62764   1.64529   1.67485   1.69127
 Alpha virt. eigenvalues --    1.72549   1.73650   1.74311   1.76820   1.78238
 Alpha virt. eigenvalues --    1.78818   1.82159   1.82702   1.85589   1.86023
 Alpha virt. eigenvalues --    1.86907   1.90838   1.92611   1.93822   1.94014
 Alpha virt. eigenvalues --    1.96841   1.97862   2.02140   2.06126   2.10314
 Alpha virt. eigenvalues --    2.14467   2.18831   2.20042   2.23690   2.24598
 Alpha virt. eigenvalues --    2.25403   2.29105   2.30222   2.30918   2.33119
 Alpha virt. eigenvalues --    2.34082   2.37534   2.38707   2.42386   2.46835
 Alpha virt. eigenvalues --    2.47353   2.48253   2.52152   2.52400   2.55277
 Alpha virt. eigenvalues --    2.58705   2.61662   2.65797   2.68734   2.72220
 Alpha virt. eigenvalues --    2.73354   2.74504   2.75787   2.76601   2.77780
 Alpha virt. eigenvalues --    2.80485   2.81117   2.81811   2.82657   2.82896
 Alpha virt. eigenvalues --    2.85434   2.86154   2.88672   2.89174   2.89777
 Alpha virt. eigenvalues --    2.91253   2.92263   2.93793   2.94794   2.95069
 Alpha virt. eigenvalues --    2.96671   2.98956   2.99448   3.01438   3.03037
 Alpha virt. eigenvalues --    3.04676   3.07695   3.08452   3.11491   3.14829
 Alpha virt. eigenvalues --    3.17504   3.18648   3.19483   3.23347   3.27705
 Alpha virt. eigenvalues --    3.29492   3.30638   3.32947   3.35302   3.36307
 Alpha virt. eigenvalues --    3.37901   3.39282   3.39751   3.42422   3.44192
 Alpha virt. eigenvalues --    3.46444   3.48224   3.49716   3.51301   3.54350
 Alpha virt. eigenvalues --    3.56702   3.56786   3.57549   3.61095   3.61435
 Alpha virt. eigenvalues --    3.63781   3.64465   3.66194   3.68032   3.69633
 Alpha virt. eigenvalues --    3.70540   3.72157   3.73643   3.75264   3.78227
 Alpha virt. eigenvalues --    3.81293   3.84275   3.86433   3.87938   3.91280
 Alpha virt. eigenvalues --    3.93995   3.97458   4.00187   4.04435   4.08120
 Alpha virt. eigenvalues --    4.12541   4.15775   4.19153   4.25233   4.28835
 Alpha virt. eigenvalues --    4.30052   4.32009   4.36113   4.38369   4.40091
 Alpha virt. eigenvalues --    4.40691   4.44014   4.45015   4.45241   4.47210
 Alpha virt. eigenvalues --    4.47538   4.49430   4.50029   4.52503   4.52629
 Alpha virt. eigenvalues --    4.53851   4.56366   4.56616   4.58950   4.60490
 Alpha virt. eigenvalues --    4.61135   4.63372   4.63659   4.64731   4.65341
 Alpha virt. eigenvalues --    4.67240   4.67867   4.69560   4.70382   4.71557
 Alpha virt. eigenvalues --    4.73096   4.73523   4.74479   4.75208   4.77696
 Alpha virt. eigenvalues --    4.79394   4.80543   4.82522   4.83605   4.84197
 Alpha virt. eigenvalues --    4.85968   4.87011   4.88996   4.89008   4.91680
 Alpha virt. eigenvalues --    4.93897   4.94551   4.96093   4.99033   5.01110
 Alpha virt. eigenvalues --    5.05081   5.06702   5.09597   5.13172   5.19373
 Alpha virt. eigenvalues --    5.20306   5.24952   5.26219   5.28301   5.33061
 Alpha virt. eigenvalues --    5.35191   5.37774   5.45151   5.47439   5.50273
 Alpha virt. eigenvalues --    5.51116   5.57545   5.58184   5.61009   5.68929
 Alpha virt. eigenvalues --    5.76577   5.80615  10.56688  10.89361  11.23706
 Alpha virt. eigenvalues --   11.26465  11.50570  11.52353  11.56537  11.73159
 Alpha virt. eigenvalues --   12.04082  12.26764  14.04326  14.76567  15.75379
          Condensed to atoms (all electrons):
               1          2          3          4          5          6
     1  C    4.946158   0.410616  -0.035321   0.001824  -0.000069   0.000000
     2  C    0.410616   4.779087   0.410680  -0.035012   0.002328  -0.000172
     3  C   -0.035321   0.410680   4.810693   0.432209  -0.035000   0.002117
     4  C    0.001824  -0.035012   0.432209   4.808807   0.381939  -0.061892
     5  N   -0.000069   0.002328  -0.035000   0.381939   6.412203   0.377136
     6  C    0.000000  -0.000172   0.002117  -0.061892   0.377136   4.837438
     7  N   -0.000000   0.000000  -0.000105   0.001866  -0.035226   0.395494
     8  C   -0.000000   0.000000   0.000006   0.000226  -0.003210  -0.068617
     9  N    0.000000   0.000000   0.000001  -0.000085   0.003351  -0.052061
    10  C   -0.000000   0.000000  -0.000000   0.000002  -0.000131   0.002108
    11  H    0.372424  -0.022429   0.003294  -0.000155   0.000001  -0.000000
    12  H    0.379308  -0.028992  -0.003987   0.000184   0.000001   0.000000
    13  H    0.379040  -0.029005  -0.004774   0.000183   0.000003   0.000000
    14  H   -0.036041   0.372840  -0.034250  -0.002566   0.000105   0.000009
    15  H   -0.036280   0.370717  -0.033609  -0.002313   0.000060   0.000009
    16  H   -0.002861  -0.035131   0.364751  -0.034287  -0.002310   0.000138
    17  H   -0.002651  -0.032657   0.362682  -0.028094   0.004041   0.000163
    18  H   -0.000042  -0.005412  -0.021227   0.356472  -0.021127  -0.003573
    19  H    0.000068   0.001787  -0.041854   0.353844  -0.046831  -0.002832
    20  H    0.000004  -0.000253  -0.000464  -0.050008   0.342280  -0.058025
    21  H   -0.000000  -0.000006   0.000187  -0.005012  -0.016970   0.342228
    22  H    0.000000   0.000049   0.000079  -0.000357  -0.049688   0.352885
    23  H    0.000000  -0.000000   0.000004  -0.000087  -0.000596  -0.000908
    24  H   -0.000000  -0.000000   0.000000   0.000001   0.000317   0.002301
    25  H    0.000000  -0.000000   0.000000  -0.000000   0.000002  -0.000223
    26  H    0.000000  -0.000000   0.000000   0.000000   0.000014   0.000058
    27  H    0.000000   0.000000   0.000000   0.000001  -0.000010   0.001004
               7          8          9         10         11         12
     1  C   -0.000000  -0.000000   0.000000  -0.000000   0.372424   0.379308
     2  C    0.000000   0.000000   0.000000   0.000000  -0.022429  -0.028992
     3  C   -0.000105   0.000006   0.000001  -0.000000   0.003294  -0.003987
     4  C    0.001866   0.000226  -0.000085   0.000002  -0.000155   0.000184
     5  N   -0.035226  -0.003210   0.003351  -0.000131   0.000001   0.000001
     6  C    0.395494  -0.068617  -0.052061   0.002108  -0.000000   0.000000
     7  N    6.454876   0.289389   0.157314  -0.061061   0.000000   0.000000
     8  C    0.289389   4.988061   0.296116  -0.059746   0.000000  -0.000000
     9  N    0.157314   0.296116   6.400347   0.377410  -0.000000  -0.000000
    10  C   -0.061061  -0.059746   0.377410   4.934132   0.000000  -0.000000
    11  H    0.000000   0.000000  -0.000000   0.000000   0.607798  -0.031994
    12  H    0.000000  -0.000000  -0.000000  -0.000000  -0.031994   0.598984
    13  H    0.000000   0.000000   0.000000   0.000000  -0.032041  -0.033291
    14  H    0.000000  -0.000000   0.000000   0.000000  -0.002375  -0.004451
    15  H    0.000000   0.000000   0.000000  -0.000000  -0.002400   0.005684
    16  H    0.000005  -0.000009   0.000000   0.000000  -0.000054  -0.000398
    17  H    0.000002   0.000001   0.000000   0.000000  -0.000037   0.004798
    18  H    0.000246   0.000009  -0.000004  -0.000000   0.000004   0.000007
    19  H   -0.000153   0.000012   0.000032   0.000001   0.000008   0.000006
    20  H    0.000994   0.005458  -0.000233   0.000015   0.000000   0.000001
    21  H   -0.013723   0.004939   0.001430  -0.000012   0.000000   0.000000
    22  H   -0.046695   0.003279   0.013111   0.000012   0.000000  -0.000000
    23  H   -0.022109   0.370304  -0.017175   0.003239  -0.000000   0.000000
    24  H   -0.014574   0.374842  -0.020325  -0.008245  -0.000000   0.000000
    25  H    0.004695   0.001002  -0.026312   0.369475  -0.000000  -0.000000
    26  H    0.004244  -0.009319  -0.028514   0.361439  -0.000000   0.000000
    27  H   -0.001596   0.006461  -0.020986   0.373307   0.000000   0.000000
              13         14         15         16         17         18
     1  C    0.379040  -0.036041  -0.036280  -0.002861  -0.002651  -0.000042
     2  C   -0.029005   0.372840   0.370717  -0.035131  -0.032657  -0.005412
     3  C   -0.004774  -0.034250  -0.033609   0.364751   0.362682  -0.021227
     4  C    0.000183  -0.002566  -0.002313  -0.034287  -0.028094   0.356472
     5  N    0.000003   0.000105   0.000060  -0.002310   0.004041  -0.021127
     6  C    0.000000   0.000009   0.000009   0.000138   0.000163  -0.003573
     7  N    0.000000   0.000000   0.000000   0.000005   0.000002   0.000246
     8  C    0.000000  -0.000000   0.000000  -0.000009   0.000001   0.000009
     9  N    0.000000   0.000000   0.000000   0.000000   0.000000  -0.000004
    10  C    0.000000   0.000000  -0.000000   0.000000   0.000000  -0.000000
    11  H   -0.032041  -0.002375  -0.002400  -0.000054  -0.000037   0.000004
    12  H   -0.033291  -0.004451   0.005684  -0.000398   0.004798   0.000007
    13  H    0.602497   0.005665  -0.004443   0.004980  -0.000361   0.000009
    14  H    0.005665   0.641683  -0.041438   0.006200  -0.005315   0.004706
    15  H   -0.004443  -0.041438   0.644851  -0.005530   0.006053  -0.000501
    16  H    0.004980   0.006200  -0.005530   0.655024  -0.041984   0.006014
    17  H   -0.000361  -0.005315   0.006053  -0.041984   0.626534  -0.006310
    18  H    0.000009   0.004706  -0.000501   0.006014  -0.006310   0.628783
    19  H    0.000009  -0.000447   0.005270  -0.006550   0.006829  -0.054311
    20  H   -0.000001   0.000016   0.000006   0.005771  -0.000443   0.006683
    21  H   -0.000000  -0.000003   0.000001   0.000007  -0.000018   0.006128
    22  H    0.000000   0.000001  -0.000002  -0.000020   0.000032  -0.002027
    23  H    0.000000  -0.000000  -0.000000   0.000001  -0.000001   0.000002
    24  H   -0.000000  -0.000000   0.000000   0.000000  -0.000000   0.000000
    25  H    0.000000   0.000000  -0.000000   0.000000   0.000000  -0.000000
    26  H   -0.000000  -0.000000   0.000000  -0.000000  -0.000000   0.000000
    27  H   -0.000000   0.000000  -0.000000   0.000000  -0.000000   0.000000
              19         20         21         22         23         24
     1  C    0.000068   0.000004  -0.000000   0.000000   0.000000  -0.000000
     2  C    0.001787  -0.000253  -0.000006   0.000049  -0.000000  -0.000000
     3  C   -0.041854  -0.000464   0.000187   0.000079   0.000004   0.000000
     4  C    0.353844  -0.050008  -0.005012  -0.000357  -0.000087   0.000001
     5  N   -0.046831   0.342280  -0.016970  -0.049688  -0.000596   0.000317
     6  C   -0.002832  -0.058025   0.342228   0.352885  -0.000908   0.002301
     7  N   -0.000153   0.000994  -0.013723  -0.046695  -0.022109  -0.014574
     8  C    0.000012   0.005458   0.004939   0.003279   0.370304   0.374842
     9  N    0.000032  -0.000233   0.001430   0.013111  -0.017175  -0.020325
    10  C    0.000001   0.000015  -0.000012   0.000012   0.003239  -0.008245
    11  H    0.000008   0.000000   0.000000   0.000000  -0.000000  -0.000000
    12  H    0.000006   0.000001   0.000000  -0.000000   0.000000   0.000000
    13  H    0.000009  -0.000001  -0.000000   0.000000   0.000000  -0.000000
    14  H   -0.000447   0.000016  -0.000003   0.000001  -0.000000  -0.000000
    15  H    0.005270   0.000006   0.000001  -0.000002  -0.000000   0.000000
    16  H   -0.006550   0.005771   0.000007  -0.000020   0.000001   0.000000
    17  H    0.006829  -0.000443  -0.000018   0.000032  -0.000001  -0.000000
    18  H   -0.054311   0.006683   0.006128  -0.002027   0.000002   0.000000
    19  H    0.702098  -0.006213  -0.002181   0.014893  -0.000027  -0.000002
    20  H   -0.006213   0.543281   0.007302  -0.007358   0.003392  -0.000160
    21  H   -0.002181   0.007302   0.623668  -0.056585  -0.000038  -0.000085
    22  H    0.014893  -0.007358  -0.056585   0.690256   0.002100  -0.000190
    23  H   -0.000027   0.003392  -0.000038   0.002100   0.599866  -0.051563
    24  H   -0.000002  -0.000160  -0.000085  -0.000190  -0.051563   0.583371
    25  H    0.000000  -0.000000  -0.000014   0.000058   0.000168  -0.000022
    26  H   -0.000000   0.000002   0.000043   0.000062  -0.000116   0.010388
    27  H   -0.000000  -0.000002  -0.000083   0.000167  -0.000157  -0.000005
              25         26         27
     1  C    0.000000   0.000000   0.000000
     2  C   -0.000000  -0.000000   0.000000
     3  C    0.000000   0.000000   0.000000
     4  C   -0.000000   0.000000   0.000001
     5  N    0.000002   0.000014  -0.000010
     6  C   -0.000223   0.000058   0.001004
     7  N    0.004695   0.004244  -0.001596
     8  C    0.001002  -0.009319   0.006461
     9  N   -0.026312  -0.028514  -0.020986
    10  C    0.369475   0.361439   0.373307
    11  H   -0.000000  -0.000000   0.000000
    12  H   -0.000000   0.000000   0.000000
    13  H    0.000000  -0.000000  -0.000000
    14  H    0.000000  -0.000000   0.000000
    15  H   -0.000000   0.000000  -0.000000
    16  H    0.000000  -0.000000   0.000000
    17  H    0.000000  -0.000000  -0.000000
    18  H   -0.000000   0.000000   0.000000
    19  H    0.000000  -0.000000  -0.000000
    20  H   -0.000000   0.000002  -0.000002
    21  H   -0.000014   0.000043  -0.000083
    22  H    0.000058   0.000062   0.000167
    23  H    0.000168  -0.000116  -0.000157
    24  H   -0.000022   0.010388  -0.000005
    25  H    0.603212  -0.037131  -0.031276
    26  H   -0.037131   0.622328  -0.033890
    27  H   -0.031276  -0.033890   0.577465
 Mulliken charges:
               1
     1  C   -0.376178
     2  C   -0.159036
     3  C   -0.176111
     4  C   -0.117688
     5  N   -0.312612
     6  C   -0.064783
     7  N   -0.113882
     8  C   -0.199204
     9  N   -0.083419
    10  C   -0.291946
    11  H    0.107955
    12  H    0.114142
    13  H    0.111531
    14  H    0.095661
    15  H    0.093867
    16  H    0.086242
    17  H    0.106739
    18  H    0.105471
    19  H    0.076544
    20  H    0.207955
    21  H    0.108799
    22  H    0.085940
    23  H    0.113701
    24  H    0.123952
    25  H    0.116367
    26  H    0.110393
    27  H    0.129601
 Sum of Mulliken charges =  -0.00000
 Mulliken charges with hydrogens summed into heavy atoms:
               1
     1  C   -0.042550
     2  C    0.030491
     3  C    0.016870
     4  C    0.064327
     5  N   -0.104658
     6  C    0.129955
     7  N   -0.113882
     8  C    0.038449
     9  N   -0.083419
    10  C    0.064416
 Electronic spatial extent (au):  <R**2>=           3219.3982
 Charge=             -0.0000 electrons
 Dipole moment (field-independent basis, Debye):
    X=             -0.1314    Y=              0.7248    Z=              0.9955  Tot=              1.2384
 Quadrupole moment (field-independent basis, Debye-Ang):
   XX=            -59.6756   YY=            -60.4501   ZZ=            -67.5250
   XY=              2.8844   XZ=             -0.6942   YZ=              2.0352
 Traceless Quadrupole moment (field-independent basis, Debye-Ang):
   XX=              2.8746   YY=              2.1001   ZZ=             -4.9748
   XY=              2.8844   XZ=             -0.6942   YZ=              2.0352
 Octapole moment (field-independent basis, Debye-Ang**2):
  XXX=             42.7194  YYY=              2.8181  ZZZ=              0.9376  XYY=             10.0728
  XXY=              2.8323  XXZ=             -5.4805  XZZ=             -5.2217  YZZ=              0.5867
  YYZ=             -1.3703  XYZ=              0.2634
 Hexadecapole moment (field-independent basis, Debye-Ang**3):
 XXXX=          -3865.5410 YYYY=           -239.0695 ZZZZ=           -143.9517 XXXY=             33.3445
 XXXZ=            -15.9543 YYYX=              5.6910 YYYZ=              6.0035 ZZZX=              3.8529
 ZZZY=              1.2675 XXYY=           -686.6432 XXZZ=           -700.5555 YYZZ=            -63.5333
 XXYZ=              3.3999 YYXZ=             -4.7654 ZZXY=              1.5751
 N-N= 5.369761511428D+02 E-N=-2.097621662873D+03  KE= 4.377048632007D+02
 PrsmSu:  requested number of processors reduced to:  13 ShMem   1 Linda.
 Calling FoFJK, ICntrl=      2127 FMM=F ISym2X=0 I1Cent= 0 IOpClX= 0 NMat=1 NMatS=1 NMatT=0.
 ***** Axes restored to original set *****
 -------------------------------------------------------------------
 Center     Atomic                   Forces (Hartrees/Bohr)
 Number     Number              X              Y              Z
 -------------------------------------------------------------------
      1        6          -0.003192339    0.004293333   -0.002472228
      2        6          -0.002731862   -0.004206124    0.001275574
      3        6           0.005753162    0.007956374   -0.001737126
      4        6          -0.010359046   -0.014271061    0.004299940
      5        7           0.009884466    0.011120760    0.009197785
      6        6          -0.018632025    0.001096851    0.003584140
      7        7          -0.012919421    0.007793625    0.000136525
      8        6           0.005698222    0.014278817   -0.002695606
      9        7           0.012933655   -0.015626266    0.003261597
     10        6           0.014539835   -0.006607155   -0.004118682
     11        1          -0.002395314   -0.000457363    0.000262859
     12        1          -0.001206749   -0.000407452   -0.000037000
     13        1          -0.001239821   -0.000180784    0.000327533
     14        1           0.002011028    0.000093556   -0.000212966
     15        1           0.001939532    0.000635028   -0.000051172
     16        1          -0.000097934   -0.001240383    0.000250469
     17        1           0.001345955   -0.001686970   -0.000166445
     18        1           0.002420683   -0.001587557    0.001146143
     19        1           0.002117959    0.005033236   -0.005627306
     20        1          -0.002148468   -0.000093573   -0.001796950
     21        1          -0.001439555    0.000418530    0.000498648
     22        1           0.007354738   -0.006005496   -0.002154829
     23        1          -0.000415233   -0.001394843   -0.005650973
     24        1          -0.000432630   -0.000914774    0.003160644
     25        1          -0.000677296   -0.000766138   -0.001009390
     26        1          -0.003966386    0.001961153    0.002008532
     27        1          -0.004145155    0.000764678   -0.001679713
 -------------------------------------------------------------------
 Cartesian Forces:  Max     0.018632025 RMS     0.005681385

 GradGradGradGradGradGradGradGradGradGradGradGradGradGradGradGradGradGrad
 Berny optimization.
 FormGI is forming the generalized inverse of G from B-inverse, IUseBI=4.
 Internal  Forces:  Max     0.024658557 RMS     0.004050018
 Search for a local minimum.
 Step number   1 out of a maximum of  141
 All quantities printed in internal units (Hartrees-Bohrs-Radians)
 Mixed Optimization -- RFO/linear search
 Second derivative matrix not updated -- first step.
 ITU=  0
     Eigenvalues ---    0.00347   0.00349   0.00485   0.00765   0.00793
     Eigenvalues ---    0.00832   0.00896   0.03103   0.03264   0.03649
     Eigenvalues ---    0.03711   0.04396   0.04863   0.04896   0.04908
     Eigenvalues ---    0.05075   0.05106   0.05547   0.05608   0.05678
     Eigenvalues ---    0.06662   0.06793   0.07624   0.07892   0.08112
     Eigenvalues ---    0.08133   0.09030   0.09825   0.10550   0.12040
     Eigenvalues ---    0.12044   0.12611   0.13016   0.13203   0.16000
     Eigenvalues ---    0.16000   0.16000   0.16000   0.16000   0.16000
     Eigenvalues ---    0.16203   0.18347   0.20448   0.21900   0.21904
     Eigenvalues ---    0.21949   0.21959   0.23512   0.28390   0.29269
     Eigenvalues ---    0.29282   0.30245   0.32266   0.33801   0.34006
     Eigenvalues ---    0.34006   0.34015   0.34073   0.34079   0.34090
     Eigenvalues ---    0.34092   0.34107   0.34124   0.34127   0.34274
     Eigenvalues ---    0.34279   0.34281   0.35582   0.35737   0.35796
     Eigenvalues ---    0.35985   0.36346   0.36946   0.38311   0.45372
 RFO step:  Lambda=-1.27414613D-02 EMin= 3.46838222D-03
 Linear search not attempted -- first point.
 Iteration  1 RMS(Cart)=  0.14301367 RMS(Int)=  0.00651708
 Iteration  2 RMS(Cart)=  0.01168962 RMS(Int)=  0.00077486
 Iteration  3 RMS(Cart)=  0.00008384 RMS(Int)=  0.00077383
 Iteration  4 RMS(Cart)=  0.00000026 RMS(Int)=  0.00077383
 Variable       Old X    -DE/DX   Delta X   Delta X   Delta X     New X
                                 (Linear)    (Quad)   (Total)
    R1        2.87478   0.00809   0.00000   0.02568   0.02568   2.90046
    R2        2.06858   0.00030   0.00000   0.00085   0.00085   2.06943
    R3        2.06862   0.00039   0.00000   0.00110   0.00110   2.06972
    R4        2.06870   0.00045   0.00000   0.00127   0.00127   2.06997
    R5        2.89446   0.00264   0.00000   0.00864   0.00864   2.90310
    R6        2.07174   0.00066   0.00000   0.00187   0.00187   2.07361
    R7        2.07197   0.00070   0.00000   0.00197   0.00197   2.07394
    R8        2.89418  -0.00009   0.00000  -0.00028  -0.00028   2.89390
    R9        2.07319   0.00096   0.00000   0.00271   0.00271   2.07590
   R10        2.07305  -0.00064   0.00000  -0.00182  -0.00182   2.07123
   R11        2.77404  -0.00162   0.00000  -0.00434  -0.00434   2.76970
   R12        2.07116   0.00000   0.00000   0.00000   0.00000   2.07116
   R13        2.07320   0.00597   0.00000   0.01693   0.01693   2.09013
   R14        2.76845  -0.00178   0.00000  -0.00474  -0.00474   2.76371
   R15        1.91546   0.00162   0.00000   0.00348   0.00348   1.91894
   R16        2.77795   0.00076   0.00000   0.00207   0.00207   2.78001
   R17        2.07178   0.00004   0.00000   0.00011   0.00011   2.07189
   R18        2.07667   0.00423   0.00000   0.01205   0.01205   2.08871
   R19        2.75175  -0.00449   0.00000  -0.01611  -0.01746   2.73429
   R20        2.72346   0.02466   0.00000   0.06591   0.06388   2.78734
   R21        2.74630  -0.00686   0.00000  -0.01854  -0.01512   2.73118
   R22        2.04401   0.00482   0.00000   0.01299   0.01299   2.05701
   R23        2.04740   0.00274   0.00000   0.00743   0.00743   2.05483
   R24        2.75928   0.00283   0.00000   0.00739   0.00739   2.76667
   R25        2.07149   0.00047   0.00000   0.00134   0.00134   2.07283
   R26        2.07207   0.00130   0.00000   0.00368   0.00368   2.07575
   R27        2.07122  -0.00201   0.00000  -0.00567  -0.00567   2.06555
    A1        1.92747   0.00320   0.00000   0.02064   0.02055   1.94803
    A2        1.93633   0.00073   0.00000   0.00316   0.00313   1.93945
    A3        1.93645   0.00074   0.00000   0.00318   0.00314   1.93959
    A4        1.88603  -0.00174   0.00000  -0.00801  -0.00809   1.87794
    A5        1.88583  -0.00177   0.00000  -0.00826  -0.00834   1.87749
    A6        1.89004  -0.00136   0.00000  -0.01188  -0.01187   1.87817
    A7        1.94324   0.00589   0.00000   0.03000   0.02994   1.97317
    A8        1.90467  -0.00073   0.00000   0.00408   0.00420   1.90887
    A9        1.90397  -0.00086   0.00000   0.00477   0.00481   1.90878
   A10        1.92008  -0.00257   0.00000  -0.01554  -0.01578   1.90430
   A11        1.91986  -0.00217   0.00000  -0.01094  -0.01124   1.90862
   A12        1.87047   0.00024   0.00000  -0.01381  -0.01402   1.85645
   A13        1.94533   0.00602   0.00000   0.02955   0.02952   1.97485
   A14        1.90560  -0.00160   0.00000  -0.00307  -0.00299   1.90261
   A15        1.90792  -0.00038   0.00000   0.00778   0.00787   1.91580
   A16        1.91676  -0.00193   0.00000  -0.01050  -0.01064   1.90612
   A17        1.91540  -0.00289   0.00000  -0.01595  -0.01623   1.89918
   A18        1.87129   0.00056   0.00000  -0.00922  -0.00939   1.86190
   A19        1.92882   0.00354   0.00000   0.02000   0.01953   1.94835
   A20        1.90588   0.00111   0.00000   0.00090   0.00102   1.90690
   A21        1.90260  -0.00181   0.00000   0.00323   0.00233   1.90493
   A22        1.91715  -0.00458   0.00000  -0.04201  -0.04176   1.87539
   A23        1.92429   0.00252   0.00000   0.03681   0.03639   1.96068
   A24        1.88440  -0.00087   0.00000  -0.01980  -0.01947   1.86493
   A25        1.92118   0.00925   0.00000   0.03848   0.03846   1.95964
   A26        1.90943  -0.00393   0.00000  -0.01895  -0.01916   1.89027
   A27        1.88851  -0.00137   0.00000   0.00328   0.00342   1.89194
   A28        1.94027   0.00005   0.00000  -0.00127  -0.00127   1.93900
   A29        1.89877  -0.00390   0.00000  -0.02938  -0.02940   1.86938
   A30        1.91951   0.00847   0.00000   0.06816   0.06843   1.98794
   A31        1.85993   0.00178   0.00000   0.00007  -0.00022   1.85971
   A32        1.97367  -0.00766   0.00000  -0.05176  -0.05188   1.92178
   A33        1.86798   0.00104   0.00000   0.01198   0.01181   1.87979
   A34        2.02434  -0.00226   0.00000  -0.04422  -0.04166   1.98267
   A35        1.87150   0.01426   0.00000   0.09842   0.10025   1.97175
   A36        2.07946  -0.00197   0.00000   0.01369   0.01401   2.09346
   A37        2.02168  -0.00210   0.00000  -0.01149  -0.01125   2.01043
   A38        2.03082   0.00314   0.00000  -0.01077  -0.01078   2.02004
   A39        2.08339  -0.00868   0.00000  -0.01343  -0.01371   2.06968
   A40        2.01374   0.00113   0.00000   0.00120   0.00092   2.01466
   A41        1.89795   0.00906   0.00000   0.03775   0.03819   1.93614
   A42        1.99779   0.00895   0.00000   0.01753   0.01794   2.01573
   A43        1.88942   0.00102   0.00000   0.01397   0.01409   1.90352
   A44        2.01115  -0.00374   0.00000  -0.02475  -0.02525   1.98590
   A45        1.93121  -0.00508   0.00000  -0.03462  -0.03516   1.89605
   A46        1.86830   0.00304   0.00000   0.02644   0.02654   1.89484
   A47        1.86303   0.00313   0.00000   0.02431   0.02444   1.88747
   A48        1.89418   0.00242   0.00000   0.00070  -0.00038   1.89380
    D1       -3.14152  -0.00013   0.00000  -0.00218  -0.00218   3.13948
    D2        1.01887  -0.00023   0.00000  -0.00487  -0.00495   1.01392
    D3       -1.01946   0.00038   0.00000   0.00671   0.00679  -1.01266
    D4        1.05087  -0.00051   0.00000  -0.00770  -0.00773   1.04313
    D5       -1.07193  -0.00061   0.00000  -0.01039  -0.01050  -1.08243
    D6       -3.11025  -0.00001   0.00000   0.00118   0.00124  -3.10901
    D7       -1.05090   0.00023   0.00000   0.00305   0.00307  -1.04784
    D8        3.10948   0.00013   0.00000   0.00036   0.00030   3.10979
    D9        1.07116   0.00074   0.00000   0.01193   0.01204   1.08320
   D10        3.14130   0.00015   0.00000   0.00050   0.00046  -3.14142
   D11        1.02068  -0.00026   0.00000  -0.00343  -0.00345   1.01723
   D12       -1.02140   0.00019   0.00000   0.00499   0.00510  -1.01630
   D13       -1.02808   0.00138   0.00000   0.01497   0.01478  -1.01330
   D14        3.13449   0.00097   0.00000   0.01104   0.01087  -3.13783
   D15        1.09241   0.00142   0.00000   0.01945   0.01942   1.11183
   D16        1.02850  -0.00119   0.00000  -0.01793  -0.01787   1.01063
   D17       -1.09211  -0.00160   0.00000  -0.02186  -0.02178  -1.11390
   D18       -3.13419  -0.00115   0.00000  -0.01344  -0.01323   3.13576
   D19       -3.13949  -0.00202   0.00000  -0.03064  -0.03071   3.11299
   D20        1.03296   0.00071   0.00000   0.00827   0.00824   1.04120
   D21       -1.02201   0.00216   0.00000   0.02973   0.02972  -0.99229
   D22       -1.02537  -0.00137   0.00000  -0.02215  -0.02227  -1.04763
   D23       -3.13610   0.00136   0.00000   0.01675   0.01667  -3.11943
   D24        1.09211   0.00281   0.00000   0.03822   0.03816   1.13027
   D25        1.02756  -0.00356   0.00000  -0.04909  -0.04900   0.97857
   D26       -1.08317  -0.00083   0.00000  -0.01019  -0.01006  -1.09323
   D27       -3.13815   0.00062   0.00000   0.01128   0.01143  -3.12671
   D28        3.09346   0.00088   0.00000   0.01652   0.01679   3.11025
   D29        1.02047  -0.00061   0.00000   0.00089   0.00135   1.02182
   D30       -1.08570   0.00157   0.00000   0.00324   0.00324  -1.08247
   D31        3.12449   0.00007   0.00000  -0.01240  -0.01220   3.11229
   D32        0.98889  -0.00079   0.00000  -0.02454  -0.02510   0.96379
   D33       -1.08411  -0.00229   0.00000  -0.04017  -0.04054  -1.12464
   D34        3.11014   0.00099   0.00000  -0.01290  -0.01301   3.09713
   D35        1.06727   0.00117   0.00000   0.00564   0.00541   1.07268
   D36       -0.97348  -0.00261   0.00000  -0.03034  -0.03033  -1.00381
   D37       -1.08727   0.00080   0.00000  -0.01142  -0.01132  -1.09859
   D38       -3.13015   0.00097   0.00000   0.00711   0.00710  -3.12305
   D39        1.11229  -0.00281   0.00000  -0.02887  -0.02864   1.08365
   D40        1.23095   0.00602   0.00000   0.10626   0.10881   1.33976
   D41        2.35997   0.00345   0.00000   0.11966   0.11686   2.47683
   D42       -2.98579   0.00242   0.00000   0.07022   0.07278  -2.91302
   D43       -1.85678  -0.00015   0.00000   0.08363   0.08083  -1.77595
   D44       -0.93827   0.00057   0.00000   0.05617   0.05909  -0.87918
   D45        0.19075  -0.00200   0.00000   0.06958   0.06715   0.25789
   D46       -0.16295   0.00560   0.00000   0.14166   0.14197  -0.02098
   D47       -2.68679   0.00999   0.00000   0.13599   0.13596  -2.55083
   D48        2.46748   0.00547   0.00000   0.10291   0.10315   2.57063
   D49       -2.64828   0.00453   0.00000   0.06279   0.06227  -2.58602
   D50       -0.10246  -0.00256   0.00000   0.02357   0.02392  -0.07854
   D51        3.07992  -0.00151   0.00000  -0.04030  -0.04062   3.03930
   D52        0.98938  -0.00372   0.00000  -0.06835  -0.06823   0.92114
   D53       -1.16738   0.00003   0.00000  -0.02211  -0.02293  -1.19031
   D54        1.94096   0.00013   0.00000  -0.03766  -0.03730   1.90367
   D55       -0.14958  -0.00209   0.00000  -0.06571  -0.06491  -0.21449
   D56       -2.30634   0.00166   0.00000  -0.01947  -0.01961  -2.32594
         Item               Value     Threshold  Converged?
 Maximum Force            0.024659     0.000450     NO 
 RMS     Force            0.004050     0.000300     NO 
 Maximum Displacement     0.585938     0.001800     NO 
 RMS     Displacement     0.147774     0.001200     NO 
 Predicted change in Energy=-7.454787D-03
 GradGradGradGradGradGradGradGradGradGradGradGradGradGradGradGradGradGrad

                          Input orientation:                          
 ---------------------------------------------------------------------
 Center     Atomic      Atomic             Coordinates (Angstroms)
 Number     Number       Type             X           Y           Z
 ---------------------------------------------------------------------
      1          6           0        0.841535    0.092987    0.066296
      2          6           0        2.374253    0.054998   -0.005281
      3          6           0        2.980676   -1.154740    0.721954
      4          6           0        4.509946   -1.194687    0.652111
      5          7           0        5.054726   -2.339140    1.388054
      6          6           0        6.512327   -2.414823    1.295601
      7          7           0        7.035919   -3.535651    2.091712
      8          6           0        6.854061   -4.826645    1.464138
      9          7           0        8.167456   -4.223863    1.442404
     10          6           0        9.111210   -4.733436    2.438966
     11          1           0        0.434761    0.964690   -0.457065
     12          1           0        0.495925    0.139078    1.104565
     13          1           0        0.402650   -0.801051   -0.389708
     14          1           0        2.781829    0.976582    0.429061
     15          1           0        2.689282    0.042898   -1.056504
     16          1           0        2.574575   -2.076408    0.283368
     17          1           0        2.675000   -1.145973    1.774479
     18          1           0        4.916580   -0.285717    1.110001
     19          1           0        4.824930   -1.188153   -0.408120
     20          1           0        4.663886   -3.188464    0.991755
     21          1           0        6.912057   -1.498434    1.745641
     22          1           0        6.892845   -2.474152    0.259564
     23          1           0        6.350172   -4.896882    0.501826
     24          1           0        6.671742   -5.652114    2.148047
     25          1           0        9.881571   -5.327376    1.932055
     26          1           0        8.643817   -5.355489    3.214316
     27          1           0        9.600030   -3.884245    2.923397
 ---------------------------------------------------------------------
                    Distance matrix (angstroms):
                    1          2          3          4          5
     1  C    0.000000
     2  C    1.534859   0.000000
     3  C    2.561764   1.536257   0.000000
     4  C    3.931734   2.560286   1.531385   0.000000
     5  N    5.041157   3.854635   2.479551   1.465664   0.000000
     6  C    6.321249   4.991590   3.793342   2.431530   1.462490
     7  N    7.459203   6.246700   4.897955   3.732706   2.419070
     8  C    7.893491   6.786627   5.388583   4.398338   3.071006
     9  N    8.613825   7.346131   6.069699   4.814337   3.639261
    10  C    9.864656   8.619166   7.303331   6.073485   4.826192
    11  H    1.095097   2.189355   3.516213   4.743450   5.971920
    12  H    1.095251   2.183333   2.827427   4.253941   5.196594
    13  H    1.095383   2.183534   2.829683   4.255610   5.212290
    14  H    2.162656   1.097310   2.160523   2.783982   4.132765
    15  H    2.162720   1.097479   2.163830   2.786719   4.152746
    16  H    2.785108   2.160171   1.098520   2.158486   2.727729
    17  H    2.795444   2.168023   1.096049   2.151537   2.689993
    18  H    4.223592   2.797028   2.157198   1.096012   2.076763
    19  H    4.211155   2.777322   2.163205   1.106050   2.145652
    20  H    5.121988   4.093476   2.653680   2.028349   1.015460
    21  H    6.496465   5.105932   4.076986   2.656728   2.069863
    22  H    6.576162   5.185018   4.154481   2.733007   2.161111
    23  H    7.445372   6.370730   5.040395   4.137059   3.000937
    24  H    8.445780   7.461660   5.990333   5.174924   3.764057
    25  H   10.704376   9.438382   8.154606   6.897226   5.702976
    26  H   10.023549   8.885191   7.478592   6.400473   5.031419
    27  H   10.034572   8.735367   7.490821   6.188813   5.040279
                    6          7          8          9         10
     6  C    0.000000
     7  N    1.471120   0.000000
     8  C    2.441735   1.446923   0.000000
     9  N    2.456344   1.474996   1.445277   0.000000
    10  C    3.665711   2.421179   2.460427   1.464060   0.000000
    11  H    7.171455   8.385977   8.856522   9.503874  10.776660
    12  H    6.538807   7.566347   8.075493   8.831861   9.987249
    13  H    6.540083   7.591820   7.827058   8.681272   9.965142
    14  H    5.115578   6.420431   7.164628   7.554897   8.758144
    15  H    5.117467   6.450622   6.885598   7.379714   8.733432
    16  H    4.079832   5.030217   5.222262   6.102068   7.377940
    17  H    4.069936   4.982851   5.577472   6.304819   7.398393
    18  H    2.667199   4.002178   4.949674   5.117390   6.256458
    19  H    2.693455   4.080243   4.567423   4.879801   6.248770
    20  H    2.026716   2.637609   2.775545   3.681051   4.925449
    21  H    1.096398   2.070111   3.340597   3.015948   3.972683
    22  H    1.105299   2.122266   2.643241   2.466826   3.843865
    23  H    2.610936   2.202484   1.088522   2.154104   3.376767
    24  H    3.351437   2.148305   1.087369   2.185176   2.622900
    25  H    4.498872   3.366528   3.104110   2.096591   1.096896
    26  H    4.107583   2.675330   2.558521   2.155730   1.098442
    27  H    3.787192   2.718066   3.249292   2.088288   1.093043
                   11         12         13         14         15
    11  H    0.000000
    12  H    1.767503   0.000000
    13  H    1.767317   1.767879   0.000000
    14  H    2.508803   2.526475   3.080724   0.000000
    15  H    2.508364   3.080631   2.526965   1.757053   0.000000
    16  H    3.791480   3.146987   2.607072   3.063483   2.509954
    17  H    3.801758   2.616966   3.156937   2.515314   3.070519
    18  H    4.909777   4.441021   4.784376   2.571816   3.124514
    19  H    4.889858   4.773891   4.439228   3.092120   2.548897
    20  H    6.101906   5.334525   5.076052   4.605038   4.305360
    21  H    7.271469   6.652756   6.886104   4.991780   5.297127
    22  H    7.351601   6.961579   6.733754   5.369986   5.073216
    23  H    8.382695   7.745734   7.276240   6.872841   6.342865
    24  H    9.458786   8.530385   8.323132   7.875656   7.652601
    25  H   11.599147  10.892989  10.757702   9.612764   9.460463
    26  H   10.991466  10.051342  10.082100   9.067287   9.101592
    27  H   10.906046  10.118300  10.250587   8.737117   8.889348
                   16         17         18         19         20
    16  H    0.000000
    17  H    1.760456   0.000000
    18  H    3.061843   2.491235   0.000000
    19  H    2.516197   3.063938   1.768469   0.000000
    20  H    2.470567   2.956364   2.916123   2.446800   0.000000
    21  H    4.613680   4.251789   2.420052   3.015139   2.911840
    22  H    4.336614   4.674316   3.068894   2.525048   2.452468
    23  H    4.717831   5.403318   4.867022   4.112060   2.449956
    24  H    5.748868   6.034799   5.740762   5.465497   3.382022
    25  H    8.165731   8.333284   7.123570   6.941125   5.716936
    26  H    7.495234   7.444457   6.634986   6.713617   5.047339
    27  H    7.719782   7.534864   6.178391   6.416347   5.346108
                   21         22         23         24         25
    21  H    0.000000
    22  H    1.777869   0.000000
    23  H    3.662272   2.494555   0.000000
    24  H    4.180040   3.703336   1.839517   0.000000
    25  H    4.849079   4.457645   3.834275   3.233436   0.000000
    26  H    4.475810   4.483143   3.581722   2.261415   1.782420
    27  H    3.782116   4.051323   4.177441   3.507334   1.773316
                   26         27
    26  H    0.000000
    27  H    1.778633   0.000000
 Stoichiometry    C7H17N3
 Framework group  C1[X(C7H17N3)]
 Deg. of freedom    75
 Full point group                 C1      NOp   1
 Largest Abelian subgroup         C1      NOp   1
 Largest concise Abelian subgroup C1      NOp   1
                         Standard orientation:                         
 ---------------------------------------------------------------------
 Center     Atomic      Atomic             Coordinates (Angstroms)
 Number     Number       Type             X           Y           Z
 ---------------------------------------------------------------------
      1          6           0       -5.176192    0.438613   -0.119093
      2          6           0       -3.937587   -0.397918    0.229997
      3          6           0       -2.621020    0.270798   -0.193745
      4          6           0       -1.383723   -0.562136    0.153325
      5          7           0       -0.150492    0.087759   -0.299385
      6          6           0        1.043442   -0.675623    0.062067
      7          7           0        2.260500   -0.032079   -0.456408
      8          6           0        2.675877    1.123311    0.309178
      9          7           0        3.398983   -0.116684    0.477567
     10          6           0        4.666194   -0.210894   -0.249602
     11          1           0       -6.100402   -0.060303    0.190995
     12          1           0       -5.241493    0.615889   -1.197927
     13          1           0       -5.145450    1.415249    0.375985
     14          1           0       -4.013570   -1.379985   -0.253593
     15          1           0       -3.918467   -0.586184    1.311038
     16          1           0       -2.544777    1.252019    0.294251
     17          1           0       -2.630487    0.456551   -1.273898
     18          1           0       -1.448167   -1.532817   -0.351518
     19          1           0       -1.376895   -0.765917    1.240419
     20          1           0       -0.091809    1.001504    0.139689
     21          1           0        0.967582   -1.648669   -0.437447
     22          1           0        1.144603   -0.861674    1.146888
     23          1           0        2.087727    1.447648    1.165779
     24          1           0        3.137265    1.920208   -0.269136
     25          1           0        5.494962   -0.166328    0.467572
     26          1           0        4.807788    0.581170   -0.997371
     27          1           0        4.706705   -1.178231   -0.756909
 ---------------------------------------------------------------------
 Rotational constants (GHZ):           6.8024787           0.3455866           0.3387707
 Standard basis: 6-31G(2df,p) (6D, 7F)
 There are   395 symmetry adapted cartesian basis functions of A   symmetry.
 There are   365 symmetry adapted basis functions of A   symmetry.
   365 basis functions,   559 primitive gaussians,   395 cartesian basis functions
    40 alpha electrons       40 beta electrons
       nuclear repulsion energy       532.6732449270 Hartrees.
 NAtoms=   27 NActive=   27 NUniq=   27 SFac= 1.00D+00 NAtFMM=   60 NAOKFM=F Big=F
 Integral buffers will be    131072 words long.
 Raffenetti 2 integral format.
 Two-electron integral symmetry is turned on.
 One-electron integrals computed using PRISM.
 PrsmSu:  requested number of processors reduced to:  13 ShMem   1 Linda.
 NBasis=   365 RedAO= T EigKep=  3.02D-04  NBF=   365
 NBsUse=   365 1.00D-06 EigRej= -1.00D+00 NBFU=   365
 Initial guess from the checkpoint file:  "CCCCNCN1CN1C.chk"
 B after Tr=     0.000000   -0.000000    0.000000
         Rot=    0.999999   -0.001202   -0.000613   -0.000538 Ang=  -0.17 deg.
 ExpMin= 1.61D-01 ExpMax= 4.17D+03 ExpMxC= 6.27D+02 IAcc=2 IRadAn=         4 AccDes= 0.00D+00
 Harris functional with IExCor=  402 and IRadAn=       4 diagonalized for initial guess.
 HarFok:  IExCor=  402 AccDes= 0.00D+00 IRadAn=         4 IDoV= 1 UseB2=F ITyADJ=14
 ICtDFT=  3500011 ScaDFX=  1.000000  1.000000  1.000000  1.000000
 FoFCou: FMM=F IPFlag=           0 FMFlag=      100000 FMFlg1=           0
         NFxFlg=           0 DoJE=T BraDBF=F KetDBF=T FulRan=T
         wScrn=  0.000000 ICntrl=       500 IOpCl=  0 I1Cent=   200000004 NGrid=           0
         NMat0=    1 NMatS0=      1 NMatT0=    0 NMatD0=    1 NMtDS0=    0 NMtDT0=    0
 Petite list used in FoFCou.
 Requested convergence on RMS density matrix=1.00D-08 within 128 cycles.
 Requested convergence on MAX density matrix=1.00D-06.
 Requested convergence on             energy=1.00D-06.
 No special actions if energy rises.
 Integral accuracy reduced to 1.0D-05 until final iterations.
 Initial convergence to 1.0D-05 achieved.  Increase integral accuracy.
 SCF Done:  E(RB3LYP) =  -441.183127609     A.U. after   12 cycles
            NFock= 12  Conv=0.34D-08     -V/T= 2.0083
 PrsmSu:  requested number of processors reduced to:  13 ShMem   1 Linda.
 Calling FoFJK, ICntrl=      2127 FMM=F ISym2X=0 I1Cent= 0 IOpClX= 0 NMat=1 NMatS=1 NMatT=0.
 ***** Axes restored to original set *****
 -------------------------------------------------------------------
 Center     Atomic                   Forces (Hartrees/Bohr)
 Number     Number              X              Y              Z
 -------------------------------------------------------------------
      1        6           0.001519887    0.000019992   -0.000090500
      2        6          -0.000937825   -0.001417652    0.000766118
      3        6           0.000598095    0.001501692   -0.000402164
      4        6          -0.000827960   -0.001751911    0.001603734
      5        7           0.005717893   -0.002479218   -0.000224145
      6        6           0.002866014    0.005024443    0.001082253
      7        7          -0.011633265   -0.004818410    0.005846747
      8        6           0.005313212    0.000980439    0.001994870
      9        7          -0.001135660    0.001547330   -0.006762795
     10        6           0.000961457    0.001654384    0.002012976
     11        1           0.000674970   -0.000179756    0.000058399
     12        1          -0.000049246   -0.000215724    0.000184928
     13        1          -0.000089891   -0.000275808    0.000097735
     14        1           0.000262163    0.000368417   -0.000285328
     15        1           0.000314834    0.000394488   -0.000134403
     16        1          -0.000371734   -0.000805399    0.000262361
     17        1           0.000019939   -0.000752327    0.000335079
     18        1           0.000740692    0.001332639   -0.000419564
     19        1           0.000712637    0.001024260   -0.000335729
     20        1          -0.001159141   -0.001455726    0.000215808
     21        1           0.000843072    0.000785847   -0.001796947
     22        1          -0.000133590   -0.001015735   -0.001914389
     23        1           0.000054210    0.000044588   -0.001250585
     24        1          -0.001277644   -0.001354521   -0.000049035
     25        1          -0.002663650    0.000661283   -0.001323123
     26        1          -0.000743373    0.001220846    0.000659769
     27        1           0.000423902   -0.000038461   -0.000132073
 -------------------------------------------------------------------
 Cartesian Forces:  Max     0.011633265 RMS     0.002244793

 GradGradGradGradGradGradGradGradGradGradGradGradGradGradGradGradGradGrad
 Berny optimization.
[...]
 05154,0.00001117,-0.00000427,-0.00000278,-0.00000898,0.00000629,0.0000
 5534,-0.00002275,0.00001051,-0.00014613,0.00041248,-0.00008113,-0.0000
 1651,-0.00002102,-0.00001752,0.00144323,0.00039340,0.00026398,0.000103
 01,-0.00002012,0.00003378,0.00264220,-0.00396586,0.00400159,-0.0005772
 9,0.00163811,0.00012442,0.13650547,0.32261162,-0.00001386,-0.00007503,
 0.00001071,0.00031081,0.00000717,-0.00012670,0.00046791,-0.00020526,0.
 00084322,0.00656820,0.02265896,0.00003560,-0.08174593,-0.13034629,-0.0
 6747334,0.00830101,0.00285639,-0.00287301,-0.00026258,-0.00121631,-0.0
 0016878,-0.00030148,0.00086604,0.00130557,0.00049266,0.00041529,-0.000
 54319,-0.00003250,0.00002732,-0.00011084,0.00002873,0.00000646,-0.0000
 0942,0.00002646,-0.00002585,-0.00002847,-0.00000856,0.00000259,0.00002
 429,-0.00003175,0.00001455,-0.00006598,-0.00001222,0.00014327,-0.00014
 482,-0.00015470,-0.00031279,0.00017245,0.00013552,-0.00040656,-0.00030
 808,-0.00099975,0.00147636,-0.00020114,0.00061886,0.00055260,0.0011607
 5,0.06791621,0.10288513,0.06623986,0.00001376,0.00000631,0.00000261,0.
 00002609,0.00006390,0.00006101,-0.00012235,0.00017014,0.00007400,0.001
 04546,-0.00308625,0.00018699,-0.02487297,-0.03063248,-0.01112982,-0.09
 160442,-0.08459147,-0.03794829,0.00476850,0.01123226,0.00378619,0.0005
 0713,0.00366804,-0.00129535,0.00143043,-0.00170481,0.00011087,0.000146
 85,-0.00010906,-0.00016036,-0.00000720,0.00000279,-0.00000249,-0.00000
 416,-0.00000399,0.00000229,0.00001019,-0.00000309,0.00000588,-0.000027
 45,0.00008155,-0.00001791,-0.00000284,0.00000004,0.00000090,0.00027593
 ,0.00020670,0.00009028,0.00001557,-0.00003848,0.00000405,0.00013806,0.
 00126865,0.00008073,-0.00013416,0.00045450,-0.00017268,-0.00673603,0.0
 0124683,-0.00100561,0.11020713,-0.00000357,0.00001370,-0.00001189,-0.0
 0009124,-0.00001380,-0.00003300,0.00019634,0.00066350,0.00017246,0.000
 94667,0.00090605,0.00059934,-0.00166848,0.00372000,0.00224029,-0.08651
 737,-0.21718872,-0.07893837,-0.00715877,-0.02894512,-0.00640815,-0.001
 12235,-0.00255872,0.00446667,0.00067488,0.00213023,-0.00002125,-0.0002
 7291,-0.00006940,-0.00031600,-0.00000907,-0.00000134,-0.00000118,-0.00
 000157,-0.00000163,0.00000214,-0.00000064,0.00000297,0.00000057,-0.000
 00831,-0.00000593,0.00000925,-0.00000532,0.00000043,0.00000021,0.00024
 606,-0.00015121,-0.00001154,0.00000951,-0.00003175,-0.00001171,-0.0005
 0112,0.00048783,-0.00036488,0.00001873,-0.00015674,-0.00031914,0.00158
 487,0.00104729,-0.00033384,0.09515350,0.24318873,-0.00000154,0.0000209
 1,-0.00000400,-0.00007258,-0.00003940,-0.00001976,0.00000355,0.0003194
 7,-0.00005052,-0.00012615,-0.00074756,0.00040852,0.00194985,0.00450560
 ,0.00304641,-0.04269626,-0.08575570,-0.09137925,0.00755704,0.02070870,
 0.00729963,-0.00019782,0.00321854,-0.00161415,0.00060644,-0.00124899,0
 .00041550,0.00014755,-0.00026801,0.00006112,-0.00000763,-0.00000042,0.
 00000025,0.00000272,-0.00000006,-0.00000080,0.00000681,0.00000157,-0.0
 0000160,-0.00000535,0.00001599,0.00001620,-0.00000291,-0.00000352,-0.0
 0000290,0.00009140,0.00000639,-0.00002647,0.00004357,0.00000201,-0.000
 01148,-0.00024885,0.00028887,0.00017466,-0.00001121,-0.00024518,-0.000
 20420,0.00090331,0.00084663,0.00114080,0.04364908,0.08235622,0.0918585
 9,0.00003988,0.00008480,-0.00005835,-0.00014596,-0.00016813,-0.0001011
 8,-0.00011939,0.00038077,-0.00046869,0.00228463,-0.00514072,0.00445041
 ,-0.02808075,0.00899425,0.03339415,-0.06484240,0.00527566,0.05698791,0
 .00107875,0.00405606,-0.00996345,0.00094520,-0.00032554,-0.00004899,0.
 00205472,-0.00071898,-0.00171934,-0.00003938,-0.00003811,-0.00012630,-
 0.00006548,0.00002884,-0.00000742,0.00000098,-0.00001531,0.00001295,-0
 .00000797,-0.00001674,0.00000460,-0.00000018,0.00002538,0.00000967,-0.
 00004002,0.00007444,-0.00005928,0.00002872,-0.00003417,0.00002713,0.00
 034252,-0.00006923,-0.00022847,-0.00013058,0.00041316,-0.00029482,0.00
 057037,0.00070066,-0.00241533,0.00160626,0.00090138,-0.00013403,0.0054
 4610,-0.00262059,-0.01144753,0.07963720,-0.00001070,-0.00001586,0.0000
 1949,0.00003424,0.00001734,-0.00003827,0.00012047,0.00000184,0.0001922
 4,-0.00043558,0.00169659,-0.00208121,0.00480867,0.00259245,-0.00123192
 ,0.00570031,-0.05969879,-0.03651536,-0.00078798,-0.00924743,0.03171789
 ,-0.00115726,0.00317689,0.00582435,-0.00229489,0.00173045,-0.00038962,
 0.00003387,0.00003851,-0.00023126,0.00001760,-0.00000926,0.00000144,-0
 .00000643,0.00000266,-0.00000200,0.00000148,0.00000512,-0.00000111,0.0
 0000191,-0.00000450,0.00000166,0.00001442,-0.00001341,0.00003307,-0.00
 000678,-0.00001901,-0.00000228,-0.00007718,-0.00004989,0.00010260,-0.0
 0013811,0.00002333,-0.00014168,-0.00050840,-0.00000597,0.00067357,0.00
 018634,0.00029522,0.00105227,0.00608203,-0.00241200,-0.02526750,-0.011
 32117,0.06176598,-0.00000574,-0.00004737,0.00002940,0.00010373,0.00003
 851,-0.00006233,-0.00009683,-0.00017258,0.00050225,-0.00040210,0.00039
 468,0.00187928,0.00839727,0.00124890,0.00085673,0.05230846,-0.03083531
 ,-0.24047330,0.00133561,0.00874208,-0.02767667,0.00050593,-0.00281965,
 0.00085234,0.00119395,-0.00133772,0.00232640,-0.00031709,-0.00015611,0
 .00062723,0.00003172,-0.00001503,0.00000359,-0.00000631,0.00000594,0.0
 0000512,0.00000246,0.00000906,-0.00000519,0.00000581,-0.00001529,-0.00
 000175,0.00001785,-0.00001267,0.00003107,-0.00000834,-0.00000002,-0.00
 002640,-0.00030315,0.00010841,-0.00004409,-0.00017657,-0.00014657,-0.0
 0023053,0.00145893,-0.00167936,0.00032969,0.00043087,0.00013546,0.0014
 3098,0.00360472,-0.00299652,-0.01209511,-0.06827802,0.02808085,0.27005
 097,0.00000077,-0.00000195,0.00000500,0.00000492,0.00000317,-0.0000135
 0,0.00001544,-0.00000043,0.00004212,-0.00000687,-0.00005069,-0.0001550
 6,-0.00009640,-0.00028440,0.00047928,0.00127359,-0.00174332,-0.0008133
 0,0.00282802,0.00004312,0.01620583,-0.06255162,-0.00068307,-0.07190201
 ,-0.01189302,-0.00111006,-0.03035000,-0.00106462,-0.00569701,-0.002415
 95,0.00000284,-0.00000249,0.00000022,-0.00000048,0.00000046,-0.0000001
 0,-0.00000177,0.00000006,-0.00000171,0.00000033,-0.00000531,0.00000027
 ,0.00000057,0.00000160,0.00000315,-0.00001332,-0.00000694,-0.00000896,
 -0.00000454,-0.00000341,-0.00000279,0.00001852,-0.00004342,0.00001870,
 0.00002213,0.00000872,0.00002746,-0.00024906,0.00018032,-0.00001257,0.
 00010985,-0.00033442,0.00003834,-0.00034703,-0.00036247,-0.00046532,0.
 06991380,0.00000463,0.00000388,-0.00000181,0.00000677,-0.00001042,0.00
 000142,0.00001176,-0.00002147,0.00001999,0.00020099,-0.00004658,0.0000
 5721,-0.00023634,-0.00022782,0.00045160,0.00070384,0.00320711,-0.00436
 650,-0.01152616,-0.00615701,-0.02475943,-0.00122789,-0.05200747,0.0020
 2360,-0.00587290,-0.00499045,-0.00736304,0.00138924,-0.00031172,0.0002
 9588,-0.00000481,0.00000336,-0.00000164,-0.00000169,-0.00000119,0.0000
 0156,-0.00000055,-0.00000149,0.00000057,-0.00000071,0.00000339,-0.0000
 0064,0.00000022,0.00000040,0.00000145,0.00000554,0.00000288,0.00000310
 ,-0.00001019,0.00000074,0.00000272,-0.00002647,0.00004797,-0.00001062,
 0.00001217,-0.00001679,0.00001614,0.00032335,-0.00003983,-0.00016939,-
 0.00024717,0.00029995,0.00056618,-0.00049272,0.00005672,0.00153942,0.0
 0986083,0.05572531,0.00000025,-0.00000974,-0.00000146,0.00002183,0.000
 00340,0.00000112,-0.00001968,-0.00007993,-0.00001580,0.00025369,0.0001
 2331,0.00014085,0.00046246,-0.00025672,0.00024690,-0.00111464,0.003404
 48,0.00132384,-0.00623452,-0.00541574,-0.01397526,-0.07693241,-0.00126
 218,-0.29598564,-0.00022496,-0.00481221,0.00386866,0.00156262,0.000313
 29,0.00083357,0.00000048,0.00000297,-0.00000083,-0.00000152,-0.0000000
 6,0.00000221,0.00000472,0.00000287,0.00000253,-0.00000077,0.00001130,-
 0.00000085,-0.00000193,-0.00000338,0.00000281,0.00002665,0.00001900,0.
 00001563,-0.00000107,0.00000590,0.00000682,-0.00003629,0.00009154,-0.0
 0003443,-0.00002223,-0.00004090,0.00000898,0.00056236,-0.00024509,-0.0
 0014661,-0.00017231,0.00030058,0.00025395,0.00036955,-0.00106843,0.000
 99572,0.08550228,0.01090710,0.31376407,0.00000239,0.00000367,-0.000003
 36,-0.00000395,-0.00000605,0.00000211,0.00000750,-0.00001064,-0.000013
 68,-0.00000613,0.00002385,0.00003175,0.00029371,-0.00025830,0.00023121
 ,0.00171506,0.00408324,0.00123782,-0.00031450,0.00944511,-0.01228182,-
 0.05161502,-0.03602089,0.01916906,-0.00828097,-0.03125758,0.01555483,0
 .00326447,0.00021081,0.00382923,-0.00000274,0.00000006,0.00000025,-0.0
 0000148,0.00000122,0.00000252,-0.00000080,-0.00000045,-0.00000158,0.00
 000076,-0.00000178,0.00000016,0.00000017,-0.00000189,0.00000369,-0.000
 01225,-0.00000101,-0.00000661,-0.00000747,0.00000696,0.00000902,-0.000
 00792,-0.00003602,-0.00000916,0.00000644,-0.00002297,0.00002261,0.0000
 5028,-0.00002081,-0.00017503,-0.00060091,0.00123587,-0.00026048,0.0000
 4726,-0.00019041,0.00054973,0.00347588,0.00722577,-0.00434409,0.051420
 81,-0.00001079,-0.00002447,0.00001601,0.00003410,0.00003255,-0.0000236
 7,-0.00003872,-0.00006087,0.00005211,0.00003718,0.00021181,-0.00010364
 ,0.00011726,0.00006340,-0.00009727,-0.00413397,-0.00145465,-0.00182698
 ,-0.00471382,-0.02217542,0.00928843,-0.03474271,-0.21729326,0.12635863
 ,-0.00154246,-0.00887555,-0.00080366,0.00059959,0.00079839,0.00143148,
 0.00001764,-0.00000687,0.00000220,0.00000284,0.00000065,-0.00000587,0.
 00000486,0.00000593,0.00000171,-0.00000104,0.00000347,0.00000162,-0.00
 000129,-0.00000142,-0.00000144,0.00002759,0.00001026,0.00000930,0.0000
 0852,-0.00000304,-0.00001142,-0.00000942,0.00004522,0.00001587,-0.0000
 0427,-0.00002660,0.00003297,0.00011053,-0.00000437,0.00011055,0.000742
 96,-0.00093052,0.00066506,0.00000045,-0.00010431,0.00012914,-0.0003907
 5,0.00390982,-0.00218235,0.04435459,0.24554809,0.00000333,0.00000230,-
 0.00000044,0.00000055,-0.00000483,-0.00000321,0.00001135,0.00000968,0.
 00001369,0.00004600,-0.00002792,-0.00004119,-0.00009332,0.00021960,0.0
 0007390,-0.00184790,-0.00209500,-0.00121933,-0.00113020,-0.01609072,0.
 01007448,0.02036148,0.13214070,-0.14515114,0.00091303,-0.00116130,-0.0
 0074427,-0.00199720,-0.00203018,0.00232034,-0.00000260,0.00000123,-0.0
 0000081,-0.00000136,0.00000047,0.00000262,-0.00000028,-0.00000107,-0.0
 0000135,-0.00000164,0.00000019,0.00000090,-0.00000022,-0.00000185,0.00
 000455,0.00001043,-0.00000048,-0.00000637,-0.00000293,0.00000390,0.000
 00552,-0.00001295,0.00003784,0.00001630,-0.00000754,-0.00001177,0.0000
 2406,0.00023299,-0.00001758,-0.00019407,0.00025679,-0.00070574,0.00073
 499,-0.00006454,-0.00052132,0.00050666,0.00490987,0.02180258,-0.011712
 28,-0.02222383,-0.13138351,0.14530874,0.00000791,0.00002535,-0.0000155
 4,-0.00004079,-0.00003724,0.00002757,0.00002395,0.00009847,-0.00005842
 ,-0.00012858,-0.00025294,0.00011282,-0.00030979,0.00077038,-0.00037496
 ,-0.00132854,-0.00143281,0.00020838,-0.00068642,0.00367071,-0.00449329
 ,0.00013125,-0.00016368,0.00112427,-0.01594263,0.01447422,0.00566605,-
 0.15777665,0.11011916,0.06090744,-0.00001828,0.00000879,-0.00000337,-0
 .00000127,-0.00000263,0.00000388,-0.00000182,-0.00000494,0.00000066,0.
 00000063,0.00000465,0.00000006,0.00000081,0.00000188,-0.00000345,-0.00
 000427,-0.00000515,-0.00000100,-0.00000149,-0.00000303,0.00000516,0.00
 000806,0.00002110,-0.00000082,-0.00000373,0.00003200,-0.00005237,0.000
 05457,-0.00001044,0.00002049,0.00003203,0.00003166,0.00007205,-0.00003
 027,0.00016110,-0.00021595,0.00015371,-0.00010509,-0.00005665,-0.00035
 748,-0.00028512,0.00006712,0.17457184,-0.00000593,-0.00001590,0.000010
 82,0.00002316,0.00002503,-0.00001956,-0.00001432,-0.00005164,0.0000373
 8,0.00003366,0.00016409,-0.00009475,0.00017876,-0.00036998,0.00018509,
 0.00030949,0.00067917,-0.00047134,-0.00140265,0.00005627,0.00228679,0.
 00055109,0.00045658,0.00038348,0.00840403,-0.00709579,-0.00258777,0.11
 216746,-0.16242618,-0.06158486,0.00001313,-0.00000727,0.00000277,0.000
 00064,0.00000195,-0.00000285,0.00000123,0.00000364,-0.00000073,-0.0000
 0028,-0.00000320,-0.00000014,-0.00000019,-0.00000121,0.00000323,0.0000
 0364,0.00000234,0.00000008,-0.00000040,0.00000108,-0.00000286,-0.00000
 397,-0.00001139,0.00000285,0.00000584,-0.00002139,0.00004004,-0.000034
 63,0.00001230,-0.00000348,-0.00002945,-0.00001688,-0.00002091,0.000023
 81,-0.00000139,0.00009453,0.00013356,0.00016037,0.00006070,0.00018487,
 0.00019256,0.00015103,-0.12789530,0.17423489,0.00000400,0.00001880,-0.
 00001217,-0.00004050,-0.00002553,0.00002096,0.00001473,0.00009203,-0.0
 0006661,-0.00017418,-0.00018102,0.00005795,-0.00031892,0.00089726,-0.0
 0039755,-0.00159770,-0.00103680,0.00103278,-0.00324698,0.00370211,-0.0
 0341063,0.00098976,0.00001327,0.00161554,-0.01940407,0.01890127,0.0087
 5660,0.06597509,-0.06663045,-0.08563991,-0.00001217,0.00000424,-0.0000
 0119,-0.00000162,-0.00000108,0.00000258,-0.00000065,-0.00000196,0.0000
 0044,0.00000136,0.00000400,0.00000009,0.00000097,-0.00000023,-0.000000
 45,-0.00000060,-0.00000294,0.00000014,-0.00000208,-0.00000170,0.000006
 69,0.00000800,0.00002172,0.00000107,-0.00000888,0.00002937,-0.00004025
 ,0.00006340,-0.00001554,0.00002142,0.00002034,0.00008753,-0.00000113,0
 .00003592,-0.00001815,-0.00006579,0.00031848,0.00006855,-0.00006766,0.
 00003579,-0.00035431,-0.00006104,-0.06373187,0.06641557,0.08889812,-0.
 00000209,-0.00000235,0.00000215,0.00000261,0.00000310,-0.00000301,-0.0
 0000495,-0.00000571,0.00000538,0.00000240,-0.00000611,0.00000729,-0.00
 007564,-0.00002521,0.00012487,-0.00012260,0.00033431,-0.00017993,0.004
 05761,-0.00022495,-0.00061266,0.00418059,0.00211434,-0.00239670,0.0050
 6066,0.00953333,-0.01941022,-0.13095196,-0.06014365,0.10348676,0.00000
 224,-0.00000110,0.00000046,0.00000082,0.,-0.00000140,0.00000071,0.0000
 0083,0.00000031,0.00000005,0.00000050,0.00000101,-0.00000006,-0.000000
 14,-0.00000159,0.00000177,0.00000106,0.00000019,0.00000176,0.00000032,
 -0.00000309,0.00000031,-0.00000226,0.00000532,0.00001096,-0.00000957,0
 .00000026,-0.00002095,0.00001502,-0.00002835,-0.00000633,0.00002120,0.
 00006068,-0.00021858,0.00006339,0.00028737,-0.00016190,-0.00026132,0.0
 0020487,0.00039673,-0.00041079,0.00061938,-0.01021408,-0.00977963,0.01
 306316,0.13600627,-0.00000246,-0.00000312,0.00000424,0.00000794,0.0000
 0558,-0.00000366,-0.00000397,-0.00001003,0.00002138,-0.00000192,0.0000
 4725,-0.00001833,0.00018325,-0.00008864,-0.00009105,0.00005566,-0.0002
 1777,-0.00016556,-0.00213122,0.00075125,0.00008436,-0.00041115,0.00144
 780,-0.00205591,-0.00049147,-0.00590759,0.01353103,-0.05793725,-0.0905
 7229,0.07098238,0.00000336,-0.00000141,0.00000029,0.00000200,-0.000000
 16,-0.00000229,-0.00000002,-0.00000006,-0.00000017,-0.00000059,-0.0000
 0188,0.00000128,-0.00000012,0.00000076,-0.00000361,-0.00000118,-0.0000
 0124,-0.00000175,0.00000481,-0.00000101,-0.00000567,-0.00000193,-0.000
 00818,0.00000512,-0.00000157,-0.00000220,-0.00000231,-0.00001864,0.000
 00671,0.00002453,0.00000488,-0.00000044,0.00005120,0.00001359,0.000145
 37,-0.00028971,-0.00010750,0.00012024,0.00011465,0.00074396,0.00000210
 ,-0.00031086,0.01163387,0.00997220,-0.01593088,0.06338256,0.09386075,0
 .00000879,0.00001655,-0.00001039,-0.00002209,-0.00002710,0.00001498,0.
 00002073,0.00004608,-0.00003763,0.00003286,-0.00021108,0.00003631,-0.0
 0038265,0.00033585,0.00007488,0.00035437,-0.00038173,0.00053557,0.0010
 9560,-0.00260354,0.00295950,0.00384908,0.00256376,0.00017920,0.0042470
 7,0.01543342,-0.03100431,0.09839576,0.07160284,-0.17503415,-0.00001414
 ,0.00000708,-0.00000284,-0.00000276,-0.00000135,0.00000437,-0.00000175
 ,-0.00000345,-0.00000020,0.00000042,0.00000343,-0.00000117,0.00000029,
 0.00000116,0.00000173,-0.00000380,-0.00000247,-0.00000129,-0.00000292,
 -0.00000119,0.00000720,0.00000694,0.00001491,-0.00000244,-0.00000513,0
 .00003694,-0.00003688,0.00002895,0.00000176,-0.00001720,0.00001777,0.0
 0006272,-0.00000697,0.00013147,-0.00020186,0.00032694,-0.00009052,-0.0
 0083820,0.00015194,-0.00127069,-0.00104825,0.00017434,0.00605722,0.004
 46184,-0.00675301,-0.10652411,-0.08450209,0.19910643,0.00000129,0.0000
 0309,-0.00000326,-0.00000381,-0.00000889,0.00000282,0.00000268,0.00000
 314,-0.00001088,0.00003583,-0.00005877,0.00000044,-0.00002686,0.000079
 77,0.00003006,0.00022324,-0.00032310,-0.00017964,0.00147121,-0.0003066
 1,0.00139305,-0.00105303,0.00033054,-0.00465999,-0.01407886,-0.0141946
 3,-0.01217079,-0.10917498,-0.10088306,-0.04246624,-0.00000320,0.000001
 92,-0.00000093,-0.00000140,-0.00000099,0.00000149,0.00000161,0.0000006
 5,0.00000134,0.00000072,0.00000610,-0.00000006,-0.00000005,-0.00000042
 ,0.00000163,0.00000705,0.00000505,0.00000519,-0.00000437,-0.00000189,0
 .00000319,-0.00000267,0.00002869,-0.00000393,-0.00000312,0.00000890,-0
 .00000325,0.00009350,-0.00002836,0.00003206,-0.00005428,0.00019644,-0.
 00005408,-0.00001461,0.00007152,0.00004099,-0.00142975,0.00026885,0.00
 019133,0.00053016,0.00022701,-0.00004580,0.01186134,0.01713239,0.00800
 923,-0.00794636,-0.01492490,-0.00592674,0.11956870,0.00000255,0.000008
 06,-0.00000521,-0.00001147,-0.00001336,0.00000808,0.00000649,0.0000243
 4,-0.00002004,-0.00002686,-0.00008469,0.00002294,-0.00011676,0.0001630
 2,-0.00005659,-0.00022259,-0.00018457,0.00023017,-0.00164538,0.0012646
 6,-0.00060788,0.00310158,0.00105786,0.00245210,0.00702800,0.01096051,0
 .00534852,-0.10596611,-0.22017423,-0.07648588,-0.00000627,0.00000331,-
 0.00000148,-0.00000093,-0.00000127,0.00000166,-0.00000008,-0.00000122,
 0.00000064,0.00000079,0.00000330,-0.00000006,0.00000015,0.00000048,-0.
 00000061,-0.00000071,0.00000062,0.00000095,-0.00000146,-0.00000152,0.0
 0000208,0.00000485,0.00000535,0.00000067,-0.00000285,0.00001262,-0.000
 01511,-0.00001230,0.00001718,-0.00000465,0.00006117,0.00002350,0.00002
 390,-0.00001184,0.00003334,-0.00000306,0.00059579,0.00029013,0.0000156
 4,0.00030881,0.00013706,-0.00000538,-0.01085496,-0.01594027,-0.0060551
 2,-0.00459718,-0.00954401,-0.00476602,0.11236756,0.23193980,0.00000330
 ,0.00000829,-0.00000545,-0.00000955,-0.00001618,0.00001031,0.00000788,
 0.00001658,-0.00001845,0.00002599,-0.00010910,0.00002481,-0.00008330,0
 .00016815,-0.00009084,0.00017525,-0.00046672,0.00036998,0.00067478,0.0
 0075648,0.00133618,-0.00047709,0.00174011,-0.00412888,-0.01847929,-0.0
 2102269,-0.01443350,-0.04228577,-0.06990397,-0.07911720,-0.00000794,0.
 00000487,-0.00000208,-0.00000050,-0.00000147,0.00000154,0.00000071,-0.
 00000127,0.00000100,0.00000009,0.00000547,0.00000089,-0.00000041,0.000
 00006,-0.00000188,0.00000389,0.00000269,0.00000249,0.00000036,-0.00000
 120,0.00000185,-0.00000283,0.00002359,0.00000051,-0.00000916,0.0000173
 4,-0.00002889,0.00009104,-0.00002446,0.00002598,-0.00004967,0.00017523
 ,0.00000772,-0.00000802,0.00001256,-0.00007321,-0.00131922,-0.00024782
 ,0.00032123,-0.00008945,-0.00027270,-0.00012556,-0.00526548,-0.0093469
 6,-0.00389699,0.01129163,0.01856339,0.00933509,0.05581277,0.07991973,0
 .09048335\\0.00000453,0.00000045,-0.00000079,-0.00000428,-0.00000633,0
 .00000435,0.00000350,0.00000819,-0.00000533,-0.00000169,-0.00000810,0.
 00000825,0.00000636,0.00000196,-0.00001246,-0.00001359,-0.00000258,-0.
 00000059,0.00000337,0.00000099,0.00000068,0.00001347,0.00000390,0.0000
 1979,-0.00000726,0.00000239,-0.00000476,-0.00000114,-0.00000157,-0.000
 00038,-0.00000002,-0.00000011,0.00000008,-0.00000103,-0.00000049,0.000
 00003,-0.00000079,-0.00000018,-0.00000005,0.00000068,0.00000142,-0.000
 00055,0.00000133,0.00000148,-0.00000096,-0.00000078,-0.00000179,0.0000
 0016,0.00000004,-0.00000168,0.00000120,0.00000020,0.00000192,-0.000000
 69,0.00000061,0.00000164,-0.00000029,0.00000195,0.00000211,0.00000346,
 -0.00000075,0.00000127,0.00000094,0.00000240,0.00000160,0.00000057,-0.
 00000133,-0.00000072,-0.00000289,-0.00000597,-0.00000479,-0.00000955,-
 0.00000022,-0.00000106,0.00000049,-0.00000039,0.00000060,-0.00000033,0
 .00000079,-0.00000053,-0.00000039\\\@


 IF YOU GIVE EVERYONE A PIECE OF YOUR MIND,
 PRETTY SOON IT WILL BE ALL GONE.
 Job cpu time:       0 days  2 hours 52 minutes 35.3 seconds.
 Elapsed time:       0 days  0 hours 43 minutes 13.3 seconds.
 File lengths (MBytes):  RWF=    263 Int=      0 D2E=      0 Chk=     12 Scr=      1
 Normal termination of Gaussian 16 at Tue Jun  1 20:47:37 2021.
### All Done ###
