### Starting Gaussian ###
 Entering Gaussian System, Link 0=g16
 Initial command:
 /cluster/software/gaussian/gaussian-16-A.03/avx2/g16/l1.exe "/local/scratch/cz9n3/Gau-10043.inp" -scrdir="/local/scratch/cz9n3/"
 Entering Link 1 = /cluster/software/gaussian/gaussian-16-A.03/avx2/g16/l1.exe PID=     10044.
  
 Copyright (c) 1988,1990,1992,1993,1995,1998,2003,2009,2016,
            Gaussian, Inc.  All Rights Reserved.
  
 This is part of the Gaussian(R) 16 program.  It is based on
 the Gaussian(R) 09 system (copyright 2009, Gaussian, Inc.),
 the Gaussian(R) 03 system (copyright 2003, Gaussian, Inc.),
 the Gaussian(R) 98 system (copyright 1998, Gaussian, Inc.),
 the Gaussian(R) 94 system (copyright 1995, Gaussian, Inc.),
 the Gaussian 92(TM) system (copyright 1992, Gaussian, Inc.),
 the Gaussian 90(TM) system (copyright 1990, Gaussian, Inc.),
 the Gaussian 88(TM) system (copyright 1988, Gaussian, Inc.),
 the Gaussian 86(TM) system (copyright 1986, Carnegie Mellon
 University), and the Gaussian 82(TM) system (copyright 1983,
 Carnegie Mellon University). Gaussian is a federally registered
 trademark of Gaussian, Inc.
  
 This software contains proprietary and confidential information,
 including trade secrets, belonging to Gaussian, Inc.
  
 This software is provided under written license and may be
 used, copied, transmitted, or stored only in accord with that
 written license.
  
 The following legend is applicable only to US Government
 contracts under FAR:
  
                    RESTRICTED RIGHTS LEGEND
  
 Use, reproduction and disclosure by the US Government is
 subject to restrictions as set forth in subparagraphs (a)
 and (c) of the Commercial Computer Software - Restricted
 Rights clause in FAR 52.227-19.
  
 Gaussian, Inc.
 340 Quinnipiac St., Bldg. 40, Wallingford CT 06492
  
  
 ---------------------------------------------------------------
 Warning -- This program may not be used in any manner that
 competes with the business of Gaussian, Inc. or will provide
 assistance to any competitor of Gaussian, Inc.  The licensee
 of this program is prohibited from giving any competitor of
 Gaussian, Inc. access to this program.  By using this program,
 the user acknowledges that Gaussian, Inc. is engaged in the
 business of creating and licensing software in the field of
 computational chemistry and represents and warrants to the
 licensee that it is not a competitor of Gaussian, Inc. and that
 it will not use this program in any manner prohibited above.
 ---------------------------------------------------------------
  

 Cite this work as:
 Gaussian 16, Revision A.03,
 M. J. Frisch, G. W. Trucks, H. B. Schlegel, G. E. Scuseria, 
 M. A. Robb, J. R. Cheeseman, G. Scalmani, V. Barone, 
 G. A. Petersson, H. Nakatsuji, X. Li, M. Caricato, A. V. Marenich, 
 J. Bloino, B. G. Janesko, R. Gomperts, B. Mennucci, H. P. Hratchian, 
 J. V. Ortiz, A. F. Izmaylov, J. L. Sonnenberg, D. Williams-Young, 
 F. Ding, F. Lipparini, F. Egidi, J. Goings, B. Peng, A. Petrone, 
 T. Henderson, D. Ranasinghe, V. G. Zakrzewski, J. Gao, N. Rega, 
 G. Zheng, W. Liang, M. Hada, M. Ehara, K. Toyota, R. Fukuda, 
 J. Hasegawa, M. Ishida, T. Nakajima, Y. Honda, O. Kitao, H. Nakai, 
 T. Vreven, K. Throssell, J. A. Montgomery, Jr., J. E. Peralta, 
 F. Ogliaro, M. J. Bearpark, J. J. Heyd, E. N. Brothers, K. N. Kudin, 
 V. N. Staroverov, T. A. Keith, R. Kobayashi, J. Normand, 
 K. Raghavachari, A. P. Rendell, J. C. Burant, S. S. Iyengar, 
 J. Tomasi, M. Cossi, J. M. Millam, M. Klene, C. Adamo, R. Cammi, 
 J. W. Ochterski, R. L. Martin, K. Morokuma, O. Farkas, 
 J. B. Foresman, and D. J. Fox, Gaussian, Inc., Wallingford CT, 2016.
 
 ******************************************
 Gaussian 16:  ES64L-G16RevA.03 25-Dec-2016
                 1-Jun-2021 
 ******************************************
 %chk=CCCCNpCpNpCpC.chk
 %NProcShared=20
 Will use up to   20 processors via shared memory.
 -----------------------------
 # opt freq b3lyp/6-31g(2df,p)
 -----------------------------
 1/18=20,19=15,26=3,38=1/1,3;
 2/9=110,12=2,17=6,18=5,40=1/2;
 3/5=1,6=6,7=104,11=2,25=1,30=1,71=1,74=-5/1,2,3;
 4//1;
 5/5=2,38=5/2;
 6/7=2,8=2,9=2,10=2,28=1/1;
 7//1,2,3,16;
 1/18=20,19=15,26=3/3(2);
 2/9=110/2;
 99//99;
 2/9=110/2;
 3/5=1,6=6,7=104,11=2,25=1,30=1,71=1,74=-5/1,2,3;
 4/5=5,16=3,69=1/1;
 5/5=2,38=5/2;
 7//1,2,3,16;
 1/18=20,19=15,26=3/3(-5);
 2/9=110/2;
 6/7=2,8=2,9=2,10=2,19=2,28=1/1;
 99/9=1/99;
 -------------------
 Title Card Required
 -------------------
 Symbolic Z-matrix:
 Charge =  0 Multiplicity = 1
 C                     1.03455  -0.06055   0.00885 
 C                     2.55363  -0.04321   0.00917 
 C                     3.05088   1.24355   0.66001 
 C                     4.58157   1.29128   0.71394 
 N                     5.10139   2.55892   1.29863 
 C                     4.629     2.65517   2.69817 
 N                     6.60935   2.53342   1.28699 
 C                     7.11075   2.46234  -0.10188 
 C                     7.13184   3.79883   1.84554 
 H                     0.66141  -0.98584  -0.4376 
 H                     0.63982   0.78553  -0.56355 
 H                     0.6462    0.00987   1.02986 
 H                     2.92896  -0.12467  -1.01539 
 H                     2.92831  -0.90971   0.56828 
 H                     2.61845   1.28904   1.6615 
 H                     2.68024   2.11142   0.09839 
 H                     4.90906   1.19341  -0.32455 
 H                     4.96968   0.4214    1.26202 
 H                     3.53779   2.6957    2.75453 
 H                     4.93153   3.59173   3.1732 
 H                     4.98022   1.81555   3.31011 
 H                     6.8866    1.50112  -0.57408 
 H                     8.20496   2.5271   -0.11406 
 H                     6.71012   3.26771  -0.72967 
 H                     6.91779   3.89518   2.91336 
 H                     6.732     4.67593   1.32299 
 H                     8.22564   3.82188   1.77775 
 

 GradGradGradGradGradGradGradGradGradGradGradGradGradGradGradGradGradGrad
 Berny optimization.
 Initialization pass.
                           ----------------------------
                           !    Initial Parameters    !
                           ! (Angstroms and Degrees)  !
 --------------------------                            --------------------------
 ! Name  Definition              Value          Derivative Info.                !
 --------------------------------------------------------------------------------
 ! R1    R(1,2)                  1.5192         estimate D2E/DX2                !
 ! R2    R(1,10)                 1.093          estimate D2E/DX2                !
 ! R3    R(1,11)                 1.0951         estimate D2E/DX2                !
 ! R4    R(1,12)                 1.0946         estimate D2E/DX2                !
 ! R5    R(2,3)                  1.5253         estimate D2E/DX2                !
 ! R6    R(2,13)                 1.0942         estimate D2E/DX2                !
 ! R7    R(2,14)                 1.0972         estimate D2E/DX2                !
 ! R8    R(3,4)                  1.5324         estimate D2E/DX2                !
 ! R9    R(3,15)                 1.0918         estimate D2E/DX2                !
 ! R10   R(3,16)                 1.0982         estimate D2E/DX2                !
 ! R11   R(4,5)                  1.4896         estimate D2E/DX2                !
 ! R12   R(4,17)                 1.0933         estimate D2E/DX2                !
 ! R13   R(4,18)                 1.099          estimate D2E/DX2                !
 ! R14   R(5,6)                  1.4802         estimate D2E/DX2                !
 ! R15   R(5,7)                  1.5082         estimate D2E/DX2                !
 ! R16   R(6,19)                 1.0934         estimate D2E/DX2                !
 ! R17   R(6,20)                 1.0929         estimate D2E/DX2                !
 ! R18   R(6,21)                 1.0967         estimate D2E/DX2                !
 ! R19   R(7,8)                  1.4783         estimate D2E/DX2                !
 ! R20   R(7,9)                  1.4786         estimate D2E/DX2                !
 ! R21   R(8,22)                 1.0941         estimate D2E/DX2                !
 ! R22   R(8,23)                 1.0962         estimate D2E/DX2                !
 ! R23   R(8,24)                 1.0969         estimate D2E/DX2                !
 ! R24   R(9,25)                 1.0933         estimate D2E/DX2                !
 ! R25   R(9,26)                 1.0965         estimate D2E/DX2                !
 ! R26   R(9,27)                 1.0961         estimate D2E/DX2                !
 ! A1    A(2,1,10)             110.5551         estimate D2E/DX2                !
 ! A2    A(2,1,11)             110.592          estimate D2E/DX2                !
 ! A3    A(2,1,12)             110.7212         estimate D2E/DX2                !
 ! A4    A(10,1,11)            108.5109         estimate D2E/DX2                !
 ! A5    A(10,1,12)            108.32           estimate D2E/DX2                !
 ! A6    A(11,1,12)            108.0559         estimate D2E/DX2                !
 ! A7    A(1,2,3)              109.6148         estimate D2E/DX2                !
 ! A8    A(1,2,13)             109.996          estimate D2E/DX2                !
 ! A9    A(1,2,14)             109.4244         estimate D2E/DX2                !
 ! A10   A(3,2,13)             110.5192         estimate D2E/DX2                !
 ! A11   A(3,2,14)             109.7229         estimate D2E/DX2                !
 ! A12   A(13,2,14)            107.5313         estimate D2E/DX2                !
 ! A13   A(2,3,4)              111.5264         estimate D2E/DX2                !
 ! A14   A(2,3,15)             107.303          estimate D2E/DX2                !
 ! A15   A(2,3,16)             109.782          estimate D2E/DX2                !
 ! A16   A(4,3,15)             111.2261         estimate D2E/DX2                !
 ! A17   A(4,3,16)             109.3001         estimate D2E/DX2                !
 ! A18   A(15,3,16)            107.6081         estimate D2E/DX2                !
 ! A19   A(3,4,5)              112.8857         estimate D2E/DX2                !
 ! A20   A(3,4,17)             105.2479         estimate D2E/DX2                !
 ! A21   A(3,4,18)             110.2226         estimate D2E/DX2                !
 ! A22   A(5,4,17)             110.1502         estimate D2E/DX2                !
 ! A23   A(5,4,18)             110.7688         estimate D2E/DX2                !
 ! A24   A(17,4,18)            107.2824         estimate D2E/DX2                !
 ! A25   A(4,5,6)              108.3655         estimate D2E/DX2                !
 ! A26   A(4,5,7)              109.3588         estimate D2E/DX2                !
 ! A27   A(6,5,7)              109.1153         estimate D2E/DX2                !
 ! A28   A(5,6,19)             111.6928         estimate D2E/DX2                !
 ! A29   A(5,6,20)             112.2316         estimate D2E/DX2                !
 ! A30   A(5,6,21)             112.0597         estimate D2E/DX2                !
 ! A31   A(19,6,20)            102.8322         estimate D2E/DX2                !
 ! A32   A(19,6,21)            108.6156         estimate D2E/DX2                !
 ! A33   A(20,6,21)            108.9596         estimate D2E/DX2                !
 ! A34   A(5,7,8)              110.3146         estimate D2E/DX2                !
 ! A35   A(5,7,9)              109.6287         estimate D2E/DX2                !
 ! A36   A(8,7,9)              106.0335         estimate D2E/DX2                !
 ! A37   A(7,8,22)             112.2231         estimate D2E/DX2                !
 ! A38   A(7,8,23)             110.2523         estimate D2E/DX2                !
 ! A39   A(7,8,24)             112.2416         estimate D2E/DX2                !
 ! A40   A(22,8,23)            104.572          estimate D2E/DX2                !
 ! A41   A(22,8,24)            108.856          estimate D2E/DX2                !
 ! A42   A(23,8,24)            108.3509         estimate D2E/DX2                !
 ! A43   A(7,9,25)             112.0358         estimate D2E/DX2                !
 ! A44   A(7,9,26)             112.0681         estimate D2E/DX2                !
 ! A45   A(7,9,27)             110.3192         estimate D2E/DX2                !
 ! A46   A(25,9,26)            108.8792         estimate D2E/DX2                !
 ! A47   A(25,9,27)            104.7091         estimate D2E/DX2                !
 ! A48   A(26,9,27)            108.5172         estimate D2E/DX2                !
 ! D1    D(10,1,2,3)          -178.9282         estimate D2E/DX2                !
 ! D2    D(10,1,2,13)           59.3586         estimate D2E/DX2                !
 ! D3    D(10,1,2,14)          -58.5601         estimate D2E/DX2                !
 ! D4    D(11,1,2,3)            60.8665         estimate D2E/DX2                !
 ! D5    D(11,1,2,13)          -60.8467         estimate D2E/DX2                !
 ! D6    D(11,1,2,14)         -178.7654         estimate D2E/DX2                !
 ! D7    D(12,1,2,3)           -58.8776         estimate D2E/DX2                !
 ! D8    D(12,1,2,13)          179.4092         estimate D2E/DX2                !
 ! D9    D(12,1,2,14)           61.4905         estimate D2E/DX2                !
 ! D10   D(1,2,3,4)            178.6296         estimate D2E/DX2                !
 ! D11   D(1,2,3,15)            56.5889         estimate D2E/DX2                !
 ! D12   D(1,2,3,16)           -60.0751         estimate D2E/DX2                !
 ! D13   D(13,2,3,4)           -59.9716         estimate D2E/DX2                !
 ! D14   D(13,2,3,15)          177.9876         estimate D2E/DX2                !
 ! D15   D(13,2,3,16)           61.3236         estimate D2E/DX2                !
 ! D16   D(14,2,3,4)            58.4433         estimate D2E/DX2                !
 ! D17   D(14,2,3,15)          -63.5975         estimate D2E/DX2                !
 ! D18   D(14,2,3,16)          179.7385         estimate D2E/DX2                !
 ! D19   D(2,3,4,5)            177.8672         estimate D2E/DX2                !
 ! D20   D(2,3,4,17)            57.6933         estimate D2E/DX2                !
 ! D21   D(2,3,4,18)           -57.6832         estimate D2E/DX2                !
 ! D22   D(15,3,4,5)           -62.3841         estimate D2E/DX2                !
 ! D23   D(15,3,4,17)          177.442          estimate D2E/DX2                !
 ! D24   D(15,3,4,18)           62.0654         estimate D2E/DX2                !
 ! D25   D(16,3,4,5)            56.2921         estimate D2E/DX2                !
 ! D26   D(16,3,4,17)          -63.8818         estimate D2E/DX2                !
 ! D27   D(16,3,4,18)         -179.2583         estimate D2E/DX2                !
 ! D28   D(3,4,5,6)             62.3318         estimate D2E/DX2                !
 ! D29   D(3,4,5,7)           -178.8282         estimate D2E/DX2                !
 ! D30   D(17,4,5,6)           179.6527         estimate D2E/DX2                !
 ! D31   D(17,4,5,7)           -61.5073         estimate D2E/DX2                !
 ! D32   D(18,4,5,6)           -61.8184         estimate D2E/DX2                !
 ! D33   D(18,4,5,7)            57.0216         estimate D2E/DX2                !
 ! D34   D(4,5,6,19)           -62.0781         estimate D2E/DX2                !
 ! D35   D(4,5,6,20)          -176.9643         estimate D2E/DX2                !
 ! D36   D(4,5,6,21)            60.0552         estimate D2E/DX2                !
 ! D37   D(7,5,6,19)           178.9281         estimate D2E/DX2                !
 ! D38   D(7,5,6,20)            64.0419         estimate D2E/DX2                !
 ! D39   D(7,5,6,21)           -58.9386         estimate D2E/DX2                !
 ! D40   D(4,5,7,8)             62.6564         estimate D2E/DX2                !
 ! D41   D(4,5,7,9)            179.0618         estimate D2E/DX2                !
 ! D42   D(6,5,7,8)           -178.9701         estimate D2E/DX2                !
 ! D43   D(6,5,7,9)            -62.5647         estimate D2E/DX2                !
 ! D44   D(5,7,8,22)           -68.5159         estimate D2E/DX2                !
 ! D45   D(5,7,8,23)           175.3521         estimate D2E/DX2                !
 ! D46   D(5,7,8,24)            54.4587         estimate D2E/DX2                !
 ! D47   D(9,7,8,22)           172.8581         estimate D2E/DX2                !
 ! D48   D(9,7,8,23)            56.7261         estimate D2E/DX2                !
 ! D49   D(9,7,8,24)           -64.1673         estimate D2E/DX2                !
 ! D50   D(5,7,9,25)            67.7347         estimate D2E/DX2                !
 ! D51   D(5,7,9,26)           -55.0008         estimate D2E/DX2                !
 ! D52   D(5,7,9,27)          -176.0354         estimate D2E/DX2                !
 ! D53   D(8,7,9,25)          -173.1869         estimate D2E/DX2                !
 ! D54   D(8,7,9,26)            64.0776         estimate D2E/DX2                !
 ! D55   D(8,7,9,27)           -56.957          estimate D2E/DX2                !
 --------------------------------------------------------------------------------
 Trust Radius=3.00D-01 FncErr=1.00D-07 GrdErr=1.00D-06 EigMax=2.50D+02 EigMin=1.00D-04
 Number of steps in this run=    139 maximum allowed number of steps=    162.
 GradGradGradGradGradGradGradGradGradGradGradGradGradGradGradGradGradGrad

                          Input orientation:                          
 ---------------------------------------------------------------------
 Center     Atomic      Atomic             Coordinates (Angstroms)
 Number     Number       Type             X           Y           Z
 ---------------------------------------------------------------------
      1          6           0        1.034550   -0.060550    0.008850
      2          6           0        2.553630   -0.043210    0.009170
      3          6           0        3.050880    1.243550    0.660010
      4          6           0        4.581570    1.291280    0.713940
      5          7           0        5.101390    2.558920    1.298630
      6          6           0        4.629000    2.655170    2.698170
      7          7           0        6.609350    2.533420    1.286990
      8          6           0        7.110750    2.462340   -0.101880
      9          6           0        7.131840    3.798830    1.845540
     10          1           0        0.661410   -0.985840   -0.437600
     11          1           0        0.639820    0.785530   -0.563550
     12          1           0        0.646200    0.009870    1.029860
     13          1           0        2.928960   -0.124670   -1.015390
     14          1           0        2.928310   -0.909710    0.568280
     15          1           0        2.618450    1.289040    1.661500
     16          1           0        2.680240    2.111420    0.098390
     17          1           0        4.909060    1.193410   -0.324550
     18          1           0        4.969680    0.421400    1.262020
     19          1           0        3.537790    2.695700    2.754530
     20          1           0        4.931530    3.591730    3.173200
     21          1           0        4.980220    1.815550    3.310110
     22          1           0        6.886600    1.501120   -0.574080
     23          1           0        8.204960    2.527100   -0.114060
     24          1           0        6.710120    3.267710   -0.729670
     25          1           0        6.917790    3.895180    2.913360
     26          1           0        6.732000    4.675930    1.322990
     27          1           0        8.225640    3.821880    1.777750
 ---------------------------------------------------------------------
                    Distance matrix (angstroms):
                    1          2          3          4          5
     1  C    0.000000
     2  C    1.519179   0.000000
     3  C    2.488026   1.525320   0.000000
     4  C    3.860822   2.527866   1.532383   0.000000
     5  N    5.006430   3.863272   2.518457   1.489626   0.000000
     6  C    5.246680   4.338103   2.938916   2.408239   1.480246
     7  N    6.280184   4.971993   3.836610   2.446056   1.508221
     8  C    6.580079   5.201678   4.306793   2.904083   2.451180
     9  C    7.446153   6.252482   4.958747   3.751293   2.441150
    10  H    1.093029   2.160706   3.447390   4.677497   5.940811
    11  H    1.095128   2.162750   2.742279   4.174345   5.149586
    12  H    1.094640   2.164004   2.727864   4.150778   5.139904
    13  H    2.154523   1.094181   2.166531   2.779679   4.156416
    14  H    2.149503   1.097183   2.158696   2.756600   4.157774
    15  H    2.657327   2.123508   1.091809   2.179843   2.812341
    16  H    2.726493   2.160190   1.098175   2.160229   2.739124
    17  H    4.086000   2.681166   2.103498   1.093293   2.129864
    18  H    4.157879   2.760941   2.172588   1.098960   2.141887
    19  H    4.626217   4.000900   2.594771   2.688100   2.140841
    20  H    6.207956   5.373852   3.920066   3.385632   2.146989
    21  H    5.475982   4.498837   3.327547   2.678410   2.147867
    22  H    6.084826   4.636784   4.037582   2.648809   2.795167
    23  H    7.624029   6.209606   5.367609   3.916860   3.410110
    24  H    6.620787   5.365117   4.406639   3.243611   2.684101
    25  H    7.661364   6.556762   5.202088   4.132271   2.773491
    26  H    7.524769   6.438570   5.076556   4.056001   2.672305
    27  H    8.361462   7.087912   5.888571   4.562332   3.403757
                    6          7          8          9         10
     6  C    0.000000
     7  N    2.434756   0.000000
     8  C    3.746538   1.478315   0.000000
     9  C    2.880824   1.478593   2.362011   0.000000
    10  H    6.231515   7.123018   7.320973   8.364942   0.000000
    11  H    5.481599   6.489600   6.700580   7.551822   1.775973
    12  H    5.063948   6.480245   7.006130   7.555467   1.773445
    13  H    4.940463   5.090350   5.001449   6.422069   2.493439
    14  H    4.487443   5.091340   5.414115   6.439830   2.481215
    15  H    2.642595   4.197145   4.966578   5.167553   3.662145
    16  H    3.294266   4.126592   4.448896   5.071156   3.735770
    17  H    3.369275   2.698828   2.550922   4.054412   4.775400
    18  H    2.677371   2.673905   3.257275   4.052464   4.840478
    19  H    1.093416   3.408004   4.580347   3.867862   5.658356
    20  H    1.092851   2.737314   4.092758   2.578165   7.226752
    21  H    1.096717   2.694887   4.074208   3.272283   6.367514
    22  H    4.139590   2.146181   1.094148   3.345770   6.704967
    23  H    4.551102   2.123429   1.096192   2.570781   8.327699
    24  H    4.056643   2.148547   1.096925   2.663014   7.400330
    25  H    2.611990   2.143503   3.343940   1.093316   8.613686
    26  H    3.224469   2.146320   2.659640   1.096465   8.485716
    27  H    3.891556   2.124469   2.573779   1.096141   9.232525
                   11         12         13         14         15
    11  H    0.000000
    12  H    1.772186   0.000000
    13  H    2.504553   3.067921   0.000000
    14  H    3.064647   2.503340   1.767569   0.000000
    15  H    3.019826   2.434135   3.043145   2.475004   0.000000
    16  H    2.521798   3.069441   2.510471   3.067501   1.767326
    17  H    4.295334   4.626788   2.476972   3.023844   3.033222
    18  H    4.713065   4.349222   3.106337   2.533835   2.537847
    19  H    4.801732   4.306909   4.747363   4.260298   2.004643
    20  H    6.344827   5.982281   5.946949   5.573281   3.596937
    21  H    5.908067   5.219555   5.165469   4.376644   2.927983
    22  H    6.287642   6.613550   4.301263   4.773379   4.822852
    23  H    7.776018   8.048593   5.973312   6.334058   5.991202
    24  H    6.560286   7.104970   5.087932   5.782525   5.135620
    25  H    7.821236   7.614200   6.892390   6.671006   5.181066
    26  H    7.470536   7.674308   6.555677   6.799781   5.339186
    27  H    8.499751   8.516964   7.171590   7.205031   6.153810
                   16         17         18         19         20
    16  H    0.000000
    17  H    2.447296   0.000000
    18  H    3.074368   1.765468   0.000000
    19  H    2.851641   3.690256   3.074140   0.000000
    20  H    4.088286   4.241073   3.702034   1.708995   0.000000
    21  H    3.961388   3.688208   2.477587   1.778746   1.782114
    22  H    4.303272   2.016833   2.865596   4.870441   4.715406
    23  H    5.544408   3.561740   4.098122   5.480849   4.759712
    24  H    4.273479   2.776807   3.885543   4.746633   4.301252
    25  H    5.390982   4.671040   4.311520   3.590039   2.026037
    26  H    4.949052   4.262094   4.605487   4.021641   2.800082
    27  H    6.041307   4.725275   4.736087   4.919179   3.584886
                   21         22         23         24         25
    21  H    0.000000
    22  H    4.338212   0.000000
    23  H    4.757120   1.732722   0.000000
    24  H    4.628298   1.782188   1.778209   0.000000
    25  H    2.869921   4.230217   3.562825   3.702501   0.000000
    26  H    3.898609   3.701648   2.975264   2.489372   1.781394
    27  H    4.111720   3.565117   2.292559   2.981788   1.733625
                   26         27
    26  H    0.000000
    27  H    1.779654   0.000000
 Stoichiometry    C7H18N2
 Framework group  C1[X(C7H18N2)]
 Deg. of freedom    75
 Full point group                 C1      NOp   1
 Largest Abelian subgroup         C1      NOp   1
 Largest concise Abelian subgroup C1      NOp   1
                         Standard orientation:                         
 ---------------------------------------------------------------------
 Center     Atomic      Atomic             Coordinates (Angstroms)
 Number     Number       Type             X           Y           Z
 ---------------------------------------------------------------------
      1          6           0        4.158476    0.031376    0.249290
      2          6           0        2.873825   -0.576000   -0.287992
      3          6           0        1.676721    0.207705    0.240544
      4          6           0        0.356256   -0.348546   -0.302737
      5          7           0       -0.836916    0.363322    0.234450
      6          6           0       -0.768873    1.778017   -0.195828
      7          7           0       -2.088219   -0.264073   -0.327104
      8          6           0       -2.195461   -1.672980    0.107517
      9          6           0       -3.277276    0.423713    0.220007
     10          1           0        5.028060   -0.507527   -0.135572
     11          1           0        4.177712   -0.013698    1.343321
     12          1           0        4.244737    1.081167   -0.048592
     13          1           0        2.804779   -1.627248    0.007545
     14          1           0        2.884390   -0.540974   -1.384565
     15          1           0        1.816490    1.250339   -0.051736
     16          1           0        1.662574    0.169369    1.337959
     17          1           0        0.338457   -1.397824    0.003838
     18          1           0        0.359455   -0.329466   -1.401527
     19          1           0        0.115878    2.280223    0.204875
     20          1           0       -1.590561    2.373539    0.209764
     21          1           0       -0.762741    1.876491   -1.288097
     22          1           0       -1.427728   -2.305991   -0.347501
     23          1           0       -3.144696   -2.103567   -0.231872
     24          1           0       -2.139643   -1.776451    1.198124
     25          1           0       -3.359857    1.451647   -0.143133
     26          1           0       -3.279376    0.433523    1.316426
     27          1           0       -4.193992   -0.068011   -0.125486
 ---------------------------------------------------------------------
 Rotational constants (GHZ):           3.6088635           0.6565033           0.5805966
 Standard basis: 6-31G(2df,p) (6D, 7F)
 There are   369 symmetry adapted cartesian basis functions of A   symmetry.
 There are   342 symmetry adapted basis functions of A   symmetry.
   342 basis functions,   522 primitive gaussians,   369 cartesian basis functions
    37 alpha electrons       37 beta electrons
       nuclear repulsion energy       491.5668111413 Hartrees.
 NAtoms=   27 NActive=   27 NUniq=   27 SFac= 1.00D+00 NAtFMM=   60 NAOKFM=F Big=F
 Integral buffers will be    131072 words long.
 Raffenetti 2 integral format.
 Two-electron integral symmetry is turned on.
 One-electron integrals computed using PRISM.
 PrsmSu:  requested number of processors reduced to:  13 ShMem   1 Linda.
 NBasis=   342 RedAO= T EigKep=  3.13D-04  NBF=   342
 NBsUse=   342 1.00D-06 EigRej= -1.00D+00 NBFU=   342
 ExpMin= 1.61D-01 ExpMax= 4.17D+03 ExpMxC= 6.27D+02 IAcc=3 IRadAn=         5 AccDes= 0.00D+00
 Harris functional with IExCor=  402 and IRadAn=       5 diagonalized for initial guess.
 HarFok:  IExCor=  402 AccDes= 0.00D+00 IRadAn=         5 IDoV= 1 UseB2=F ITyADJ=14
 ICtDFT=  3500011 ScaDFX=  1.000000  1.000000  1.000000  1.000000
 FoFCou: FMM=F IPFlag=           0 FMFlag=      100000 FMFlg1=           0
         NFxFlg=           0 DoJE=T BraDBF=F KetDBF=T FulRan=T
         wScrn=  0.000000 ICntrl=       500 IOpCl=  0 I1Cent=   200000004 NGrid=           0
         NMat0=    1 NMatS0=      1 NMatT0=    0 NMatD0=    1 NMtDS0=    0 NMtDT0=    0
 Petite list used in FoFCou.
 Requested convergence on RMS density matrix=1.00D-08 within 128 cycles.
 Requested convergence on MAX density matrix=1.00D-06.
 Requested convergence on             energy=1.00D-06.
 No special actions if energy rises.
 Integral accuracy reduced to 1.0D-05 until final iterations.
 Initial convergence to 1.0D-05 achieved.  Increase integral accuracy.
 SCF Done:  E(RB3LYP) =  -387.055871104     A.U. after   12 cycles
            NFock= 12  Conv=0.50D-08     -V/T= 2.0088

 **********************************************************************

            Population analysis using the SCF density.

 **********************************************************************

 Orbital symmetries:
       Occupied  (A) (A) (A) (A) (A) (A) (A) (A) (A) (A) (A) (A)
                 (A) (A) (A) (A) (A) (A) (A) (A) (A) (A) (A) (A)
                 (A) (A) (A) (A) (A) (A) (A) (A) (A) (A) (A) (A)
                 (A)
       Virtual   (A) (A) (A) (A) (A) (A) (A) (A) (A) (A) (A) (A)
                 (A) (A) (A) (A) (A) (A) (A) (A) (A) (A) (A) (A)
                 (A) (A) (A) (A) (A) (A) (A) (A) (A) (A) (A) (A)
                 (A) (A) (A) (A) (A) (A) (A) (A) (A) (A) (A) (A)
                 (A) (A) (A) (A) (A) (A) (A) (A) (A) (A) (A) (A)
                 (A) (A) (A) (A) (A) (A) (A) (A) (A) (A) (A) (A)
                 (A) (A) (A) (A) (A) (A) (A) (A) (A) (A) (A) (A)
                 (A) (A) (A) (A) (A) (A) (A) (A) (A) (A) (A) (A)
                 (A) (A) (A) (A) (A) (A) (A) (A) (A) (A) (A) (A)
                 (A) (A) (A) (A) (A) (A) (A) (A) (A) (A) (A) (A)
                 (A) (A) (A) (A) (A) (A) (A) (A) (A) (A) (A) (A)
                 (A) (A) (A) (A) (A) (A) (A) (A) (A) (A) (A) (A)
                 (A) (A) (A) (A) (A) (A) (A) (A) (A) (A) (A) (A)
                 (A) (A) (A) (A) (A) (A) (A) (A) (A) (A) (A) (A)
                 (A) (A) (A) (A) (A) (A) (A) (A) (A) (A) (A) (A)
                 (A) (A) (A) (A) (A) (A) (A) (A) (A) (A) (A) (A)
                 (A) (A) (A) (A) (A) (A) (A) (A) (A) (A) (A) (A)
                 (A) (A) (A) (A) (A) (A) (A) (A) (A) (A) (A) (A)
                 (A) (A) (A) (A) (A) (A) (A) (A) (A) (A) (A) (A)
                 (A) (A) (A) (A) (A) (A) (A) (A) (A) (A) (A) (A)
                 (A) (A) (A) (A) (A) (A) (A) (A) (A) (A) (A) (A)
                 (A) (A) (A) (A) (A) (A) (A) (A) (A) (A) (A) (A)
                 (A) (A) (A) (A) (A) (A) (A) (A) (A) (A) (A) (A)
                 (A) (A) (A) (A) (A) (A) (A) (A) (A) (A) (A) (A)
                 (A) (A) (A) (A) (A) (A) (A) (A) (A) (A) (A) (A)
                 (A) (A) (A) (A) (A)
 The electronic state is 1-A.
 Alpha  occ. eigenvalues --  -14.33998 -14.33912 -10.19566 -10.19379 -10.19300
 Alpha  occ. eigenvalues --  -10.19215 -10.17636 -10.17383 -10.16960  -0.94783
 Alpha  occ. eigenvalues --   -0.83143  -0.78659  -0.71810  -0.69153  -0.66409
 Alpha  occ. eigenvalues --   -0.62193  -0.57963  -0.56020  -0.48809  -0.47417
 Alpha  occ. eigenvalues --   -0.45635  -0.45168  -0.42882  -0.41677  -0.40470
 Alpha  occ. eigenvalues --   -0.39622  -0.38076  -0.37938  -0.37073  -0.36444
 Alpha  occ. eigenvalues --   -0.35189  -0.33612  -0.32775  -0.32161  -0.31761
 Alpha  occ. eigenvalues --   -0.27039  -0.17867
 Alpha virt. eigenvalues --    0.08825   0.09701   0.10742   0.11741   0.12100
 Alpha virt. eigenvalues --    0.13502   0.13940   0.15486   0.15707   0.16837
 Alpha virt. eigenvalues --    0.17660   0.17824   0.18260   0.19096   0.19441
 Alpha virt. eigenvalues --    0.19651   0.20453   0.20791   0.21470   0.21964
 Alpha virt. eigenvalues --    0.23811   0.24347   0.25777   0.26295   0.28568
 Alpha virt. eigenvalues --    0.29105   0.43073   0.44026   0.45069   0.46683
 Alpha virt. eigenvalues --    0.49144   0.49477   0.50243   0.51970   0.52380
 Alpha virt. eigenvalues --    0.53748   0.56304   0.56829   0.58649   0.59274
 Alpha virt. eigenvalues --    0.61443   0.62108   0.63096   0.64453   0.67606
 Alpha virt. eigenvalues --    0.68709   0.69894   0.71430   0.72175   0.72486
 Alpha virt. eigenvalues --    0.73598   0.73991   0.74337   0.74532   0.75086
 Alpha virt. eigenvalues --    0.75407   0.75919   0.76780   0.77553   0.78306
 Alpha virt. eigenvalues --    0.79440   0.80296   0.80703   0.81076   0.82611
 Alpha virt. eigenvalues --    0.85046   0.85276   0.87152   0.87571   0.88999
 Alpha virt. eigenvalues --    0.90691   0.91588   0.94311   0.94979   0.97518
 Alpha virt. eigenvalues --    1.03190   1.06787   1.12525   1.14374   1.16703
 Alpha virt. eigenvalues --    1.17314   1.20642   1.21058   1.24094   1.26005
 Alpha virt. eigenvalues --    1.28179   1.28896   1.30265   1.33643   1.35639
 Alpha virt. eigenvalues --    1.36670   1.39412   1.41371   1.44740   1.46511
 Alpha virt. eigenvalues --    1.46771   1.49163   1.49963   1.53582   1.54887
 Alpha virt. eigenvalues --    1.55786   1.57618   1.58643   1.59573   1.60814
 Alpha virt. eigenvalues --    1.62391   1.65802   1.67929   1.70627   1.72506
 Alpha virt. eigenvalues --    1.75252   1.76763   1.79258   1.80607   1.84433
 Alpha virt. eigenvalues --    1.85576   1.87911   1.89157   1.91665   1.92297
 Alpha virt. eigenvalues --    1.94565   1.96613   1.97509   1.98711   1.99223
 Alpha virt. eigenvalues --    2.00835   2.05023   2.10013   2.11940   2.16075
 Alpha virt. eigenvalues --    2.19791   2.20999   2.24446   2.26754   2.28347
 Alpha virt. eigenvalues --    2.30861   2.33393   2.34037   2.34472   2.36856
 Alpha virt. eigenvalues --    2.39027   2.41488   2.45073   2.45659   2.47262
 Alpha virt. eigenvalues --    2.49154   2.52680   2.57440   2.63966   2.65499
 Alpha virt. eigenvalues --    2.67843   2.71059   2.72218   2.74078   2.75356
 Alpha virt. eigenvalues --    2.77584   2.79346   2.79890   2.81658   2.83375
 Alpha virt. eigenvalues --    2.84179   2.84559   2.85013   2.87267   2.88934
 Alpha virt. eigenvalues --    2.91005   2.91456   2.92826   2.93230   2.94413
 Alpha virt. eigenvalues --    2.94927   2.96015   2.97296   2.97511   2.99233
 Alpha virt. eigenvalues --    3.00304   3.02190   3.03660   3.06268   3.09366
 Alpha virt. eigenvalues --    3.12156   3.16753   3.17939   3.22588   3.23140
 Alpha virt. eigenvalues --    3.23463   3.26830   3.29330   3.30882   3.35237
 Alpha virt. eigenvalues --    3.35989   3.36753   3.41519   3.44062   3.44740
 Alpha virt. eigenvalues --    3.46544   3.47373   3.49018   3.51686   3.53447
 Alpha virt. eigenvalues --    3.55430   3.55717   3.59438   3.59869   3.62187
 Alpha virt. eigenvalues --    3.62970   3.63486   3.64445   3.67614   3.68265
 Alpha virt. eigenvalues --    3.69611   3.72847   3.75653   3.79651   3.80933
 Alpha virt. eigenvalues --    3.81380   3.83190   3.85665   3.86518   3.89800
 Alpha virt. eigenvalues --    3.94565   3.95592   3.99439   4.06301   4.07341
 Alpha virt. eigenvalues --    4.13654   4.14779   4.19300   4.24535   4.25434
 Alpha virt. eigenvalues --    4.32717   4.36501   4.37207   4.40181   4.40887
 Alpha virt. eigenvalues --    4.42322   4.44839   4.45428   4.47961   4.48689
 Alpha virt. eigenvalues --    4.49503   4.51037   4.52402   4.53568   4.54524
 Alpha virt. eigenvalues --    4.55227   4.56906   4.58821   4.60133   4.61113
 Alpha virt. eigenvalues --    4.64248   4.65965   4.66958   4.68217   4.70324
 Alpha virt. eigenvalues --    4.72805   4.74013   4.74955   4.75105   4.76190
 Alpha virt. eigenvalues --    4.76729   4.79102   4.80297   4.81805   4.84021
 Alpha virt. eigenvalues --    4.85105   4.87179   4.88060   4.88523   4.89723
 Alpha virt. eigenvalues --    4.94378   4.94906   4.98063   5.00258   5.03389
 Alpha virt. eigenvalues --    5.04438   5.10013   5.11058   5.18428   5.23928
 Alpha virt. eigenvalues --    5.25966   5.28452   5.32617   5.38846   5.39735
 Alpha virt. eigenvalues --    5.42944   5.45150   5.49254   5.49841   5.52396
 Alpha virt. eigenvalues --    5.59513   5.66720   5.71796   6.00007  10.99761
 Alpha virt. eigenvalues --   11.18701  11.29810  11.53149  11.57595  11.65355
 Alpha virt. eigenvalues --   11.78112  12.10741  12.29453  13.63795  16.02743
          Condensed to atoms (all electrons):
               1          2          3          4          5          6
     1  C    4.943606   0.411729  -0.038336   0.001865  -0.000069   0.000016
     2  C    0.411729   4.782228   0.417184  -0.036033   0.001723   0.000110
     3  C   -0.038336   0.417184   4.834674   0.417306  -0.036180  -0.003321
     4  C    0.001865  -0.036033   0.417306   4.834434   0.381419  -0.072339
     5  N   -0.000069   0.001723  -0.036180   0.381419   6.372259   0.378211
     6  C    0.000016   0.000110  -0.003321  -0.072339   0.378211   4.956562
     7  N    0.000000  -0.000042   0.002063  -0.040376   0.242370  -0.047169
     8  C   -0.000000   0.000017   0.000118  -0.008260  -0.047700   0.003809
     9  C   -0.000000   0.000001  -0.000206   0.003021  -0.049900  -0.009442
    10  H    0.372440  -0.023087   0.003406  -0.000159   0.000000  -0.000000
    11  H    0.378951  -0.029623  -0.003620   0.000232   0.000001   0.000000
    12  H    0.379594  -0.029423  -0.005671   0.000189   0.000003  -0.000011
    13  H   -0.034755   0.370458  -0.033298  -0.002665   0.000077  -0.000004
    14  H   -0.035469   0.370616  -0.033031  -0.001428   0.000061   0.000015
    15  H   -0.003593  -0.033763   0.366154  -0.033349  -0.001870  -0.001074
    16  H   -0.002616  -0.033656   0.357830  -0.025857   0.003957  -0.000017
    17  H    0.000025  -0.004591  -0.023695   0.355867  -0.019553   0.005335
    18  H    0.000083   0.000777  -0.042970   0.340460  -0.043242  -0.008860
    19  H    0.000007   0.000006  -0.000880  -0.004044  -0.021789   0.380263
    20  H   -0.000000  -0.000013   0.000229   0.004682  -0.023230   0.377612
    21  H    0.000003   0.000110  -0.000618  -0.006031  -0.041415   0.348854
    22  H   -0.000000  -0.000013  -0.000097  -0.001960  -0.001195   0.000020
    23  H    0.000000  -0.000000  -0.000009   0.000048   0.002765  -0.000198
    24  H    0.000000   0.000012   0.000023   0.001090   0.007128   0.000273
    25  H   -0.000000  -0.000000  -0.000003   0.000028  -0.001707  -0.001264
    26  H    0.000000   0.000000   0.000024   0.000338   0.007640   0.000893
    27  H    0.000000  -0.000000   0.000001  -0.000168   0.002832   0.000098
               7          8          9         10         11         12
     1  C    0.000000  -0.000000  -0.000000   0.372440   0.378951   0.379594
     2  C   -0.000042   0.000017   0.000001  -0.023087  -0.029623  -0.029423
     3  C    0.002063   0.000118  -0.000206   0.003406  -0.003620  -0.005671
     4  C   -0.040376  -0.008260   0.003021  -0.000159   0.000232   0.000189
     5  N    0.242370  -0.047700  -0.049900   0.000000   0.000001   0.000003
     6  C   -0.047169   0.003809  -0.009442  -0.000000   0.000000  -0.000011
     7  N    6.330508   0.382157   0.380680  -0.000000   0.000000   0.000000
     8  C    0.382157   4.943036  -0.074685   0.000000   0.000000  -0.000000
     9  C    0.380680  -0.074685   4.949936   0.000000   0.000000   0.000000
    10  H   -0.000000   0.000000   0.000000   0.608113  -0.031634  -0.031748
    11  H    0.000000   0.000000   0.000000  -0.031634   0.599932  -0.033395
    12  H    0.000000  -0.000000   0.000000  -0.031748  -0.033395   0.600712
    13  H    0.000002  -0.000010   0.000000  -0.001989  -0.004499   0.005639
    14  H    0.000002   0.000001   0.000000  -0.002415   0.005662  -0.004388
    15  H   -0.000000  -0.000003   0.000002  -0.000003  -0.000500   0.006034
    16  H    0.000033  -0.000002   0.000002  -0.000039   0.004850  -0.000364
    17  H   -0.003721   0.000474   0.000169   0.000007   0.000004   0.000013
    18  H    0.007627   0.000692   0.000250   0.000007   0.000004   0.000009
    19  H    0.002633  -0.000197   0.000074  -0.000000   0.000003  -0.000011
    20  H   -0.002515   0.000131  -0.000071  -0.000000   0.000000   0.000000
    21  H    0.006908   0.000258   0.000643   0.000000  -0.000000   0.000001
    22  H   -0.023509   0.378909   0.005495   0.000000   0.000000  -0.000000
    23  H   -0.023130   0.378322  -0.004015  -0.000000   0.000000  -0.000000
    24  H   -0.040967   0.348508  -0.007403   0.000000  -0.000000   0.000000
    25  H   -0.023621   0.005434   0.379375   0.000000   0.000000  -0.000000
    26  H   -0.040891  -0.007474   0.348418   0.000000  -0.000000   0.000000
    27  H   -0.022851  -0.003735   0.378226  -0.000000  -0.000000   0.000000
              13         14         15         16         17         18
     1  C   -0.034755  -0.035469  -0.003593  -0.002616   0.000025   0.000083
     2  C    0.370458   0.370616  -0.033763  -0.033656  -0.004591   0.000777
     3  C   -0.033298  -0.033031   0.366154   0.357830  -0.023695  -0.042970
     4  C   -0.002665  -0.001428  -0.033349  -0.025857   0.355867   0.340460
     5  N    0.000077   0.000061  -0.001870   0.003957  -0.019553  -0.043242
     6  C   -0.000004   0.000015  -0.001074  -0.000017   0.005335  -0.008860
     7  N    0.000002   0.000002  -0.000000   0.000033  -0.003721   0.007627
     8  C   -0.000010   0.000001  -0.000003  -0.000002   0.000474   0.000692
     9  C    0.000000   0.000000   0.000002   0.000002   0.000169   0.000250
    10  H   -0.001989  -0.002415  -0.000003  -0.000039   0.000007   0.000007
    11  H   -0.004499   0.005662  -0.000500   0.004850   0.000004   0.000004
    12  H    0.005639  -0.004388   0.006034  -0.000364   0.000013   0.000009
    13  H    0.642902  -0.041551   0.006347  -0.005639   0.005331  -0.000389
    14  H   -0.041551   0.640904  -0.005971   0.006132  -0.000608   0.005195
    15  H    0.006347  -0.005971   0.644276  -0.043633   0.006310  -0.005443
    16  H   -0.005639   0.006132  -0.043633   0.635448  -0.006858   0.006992
    17  H    0.005331  -0.000608   0.006310  -0.006858   0.637392  -0.052914
    18  H   -0.000389   0.005195  -0.005443   0.006992  -0.052914   0.693371
    19  H    0.000001   0.000028   0.002664   0.000983   0.000072  -0.000333
    20  H    0.000000  -0.000000  -0.000208  -0.000082  -0.000201  -0.000309
    21  H    0.000001   0.000015   0.000828   0.000297  -0.000268   0.016061
    22  H   -0.000007   0.000003  -0.000002   0.000014   0.001983   0.000066
    23  H    0.000000   0.000000   0.000000  -0.000000  -0.000125  -0.000030
    24  H    0.000001  -0.000000   0.000000   0.000074   0.000032   0.000688
    25  H    0.000000   0.000000   0.000001  -0.000001   0.000001  -0.000058
    26  H    0.000000  -0.000000   0.000000   0.000009  -0.000063   0.000106
    27  H    0.000000   0.000000   0.000000   0.000000  -0.000003   0.000008
              19         20         21         22         23         24
     1  C    0.000007  -0.000000   0.000003  -0.000000   0.000000   0.000000
     2  C    0.000006  -0.000013   0.000110  -0.000013  -0.000000   0.000012
     3  C   -0.000880   0.000229  -0.000618  -0.000097  -0.000009   0.000023
     4  C   -0.004044   0.004682  -0.006031  -0.001960   0.000048   0.001090
     5  N   -0.021789  -0.023230  -0.041415  -0.001195   0.002765   0.007128
     6  C    0.380263   0.377612   0.348854   0.000020  -0.000198   0.000273
     7  N    0.002633  -0.002515   0.006908  -0.023509  -0.023130  -0.040967
     8  C   -0.000197   0.000131   0.000258   0.378909   0.378322   0.348508
     9  C    0.000074  -0.000071   0.000643   0.005495  -0.004015  -0.007403
    10  H   -0.000000  -0.000000   0.000000   0.000000  -0.000000   0.000000
    11  H    0.000003   0.000000  -0.000000   0.000000   0.000000  -0.000000
    12  H   -0.000011   0.000000   0.000001  -0.000000  -0.000000   0.000000
    13  H    0.000001   0.000000   0.000001  -0.000007   0.000000   0.000001
    14  H    0.000028  -0.000000   0.000015   0.000003   0.000000  -0.000000
    15  H    0.002664  -0.000208   0.000828  -0.000002   0.000000   0.000000
    16  H    0.000983  -0.000082   0.000297   0.000014  -0.000000   0.000074
    17  H    0.000072  -0.000201  -0.000268   0.001983  -0.000125   0.000032
    18  H   -0.000333  -0.000309   0.016061   0.000066  -0.000030   0.000688
    19  H    0.583080  -0.030541  -0.039675  -0.000003   0.000003   0.000005
    20  H   -0.030541   0.598156  -0.043796   0.000002  -0.000004  -0.000060
    21  H   -0.039675  -0.043796   0.658030  -0.000052   0.000006   0.000104
    22  H   -0.000003   0.000002  -0.000052   0.596531  -0.030816  -0.045021
    23  H    0.000003  -0.000004   0.000006  -0.030816   0.590621  -0.036930
    24  H    0.000005  -0.000060   0.000104  -0.045021  -0.036930   0.657407
    25  H   -0.000116   0.001900  -0.000031  -0.000246   0.000170  -0.000337
    26  H   -0.000027  -0.000089   0.000675  -0.000348  -0.000448   0.015222
    27  H   -0.000004  -0.000116  -0.000018   0.000178   0.002951  -0.000434
              25         26         27
     1  C   -0.000000   0.000000   0.000000
     2  C   -0.000000   0.000000  -0.000000
     3  C   -0.000003   0.000024   0.000001
     4  C    0.000028   0.000338  -0.000168
     5  N   -0.001707   0.007640   0.002832
     6  C   -0.001264   0.000893   0.000098
     7  N   -0.023621  -0.040891  -0.022851
     8  C    0.005434  -0.007474  -0.003735
     9  C    0.379375   0.348418   0.378226
    10  H    0.000000   0.000000  -0.000000
    11  H    0.000000  -0.000000  -0.000000
    12  H   -0.000000   0.000000   0.000000
    13  H    0.000000   0.000000   0.000000
    14  H    0.000000  -0.000000   0.000000
    15  H    0.000001   0.000000   0.000000
    16  H   -0.000001   0.000009   0.000000
    17  H    0.000001  -0.000063  -0.000003
    18  H   -0.000058   0.000106   0.000008
    19  H   -0.000116  -0.000027  -0.000004
    20  H    0.001900  -0.000089  -0.000116
    21  H   -0.000031   0.000675  -0.000018
    22  H   -0.000246  -0.000348   0.000178
    23  H    0.000170  -0.000448   0.002951
    24  H   -0.000337   0.015222  -0.000434
    25  H    0.597583  -0.044609  -0.031093
    26  H   -0.044609   0.656387  -0.036698
    27  H   -0.031093  -0.036698   0.590622
 Mulliken charges:
               1
     1  C   -0.373481
     2  C   -0.164725
     3  C   -0.177077
     4  C   -0.108312
     5  N   -0.112597
     6  C   -0.308372
     7  N   -0.086193
     8  C   -0.299798
     9  C   -0.300571
    10  H    0.107102
    11  H    0.113630
    12  H    0.112817
    13  H    0.094046
    14  H    0.096228
    15  H    0.096792
    16  H    0.102141
    17  H    0.099586
    18  H    0.082151
    19  H    0.127800
    20  H    0.118521
    21  H    0.099110
    22  H    0.120067
    23  H    0.120817
    24  H    0.100587
    25  H    0.118593
    26  H    0.100932
    27  H    0.120202
 Sum of Mulliken charges =  -0.00000
 Mulliken charges with hydrogens summed into heavy atoms:
               1
     1  C   -0.039932
     2  C    0.025549
     3  C    0.021856
     4  C    0.073426
     5  N   -0.112597
     6  C    0.037059
     7  N   -0.086193
     8  C    0.041674
     9  C    0.039157
 Electronic spatial extent (au):  <R**2>=           2061.2404
 Charge=             -0.0000 electrons
 Dipole moment (field-independent basis, Debye):
    X=              0.1289    Y=             -0.0288    Z=              0.0452  Tot=              0.1396
 Quadrupole moment (field-independent basis, Debye-Ang):
   XX=            -56.8613   YY=            -56.3857   ZZ=            -62.0382
   XY=              0.1462   XZ=             -1.0269   YZ=             -0.3980
 Traceless Quadrupole moment (field-independent basis, Debye-Ang):
   XX=              1.5671   YY=              2.0427   ZZ=             -3.6098
   XY=              0.1462   XZ=             -1.0269   YZ=             -0.3980
 Octapole moment (field-independent basis, Debye-Ang**2):
  XXX=            -25.4552  YYY=              1.3420  ZZZ=              0.9657  XYY=             -5.8654
  XXY=             -2.3780  XXZ=              0.4671  XZZ=              3.0902  YZZ=             -0.1531
  YYZ=             -0.3013  XYZ=             -0.6144
 Hexadecapole moment (field-independent basis, Debye-Ang**3):
 XXXX=          -2208.3529 YYYY=           -430.1353 ZZZZ=           -136.2936 XXXY=             -0.5715
 XXXZ=             -6.5355 YYYX=              1.8103 YYYZ=              3.5682 ZZZX=             -0.4493
 ZZZY=             -1.2493 XXYY=           -432.5258 XXZZ=           -404.0075 YYZZ=            -98.8295
 XXYZ=              0.3981 YYXZ=              2.0252 ZZXY=             -0.6423
 N-N= 4.915668111413D+02 E-N=-1.879875328356D+03  KE= 3.836856967304D+02
 PrsmSu:  requested number of processors reduced to:  13 ShMem   1 Linda.
 Calling FoFJK, ICntrl=      2127 FMM=F ISym2X=0 I1Cent= 0 IOpClX= 0 NMat=1 NMatS=1 NMatT=0.
 ***** Axes restored to original set *****
 -------------------------------------------------------------------
 Center     Atomic                   Forces (Hartrees/Bohr)
 Number     Number              X              Y              Z
 -------------------------------------------------------------------
      1        6          -0.003732826   -0.004650650   -0.003472152
      2        6          -0.001579181    0.002785842    0.002918364
      3        6           0.007313247   -0.000355557    0.000194896
      4        6           0.000642273    0.009884265    0.002416606
      5        7          -0.001669845    0.001385375   -0.002425676
      6        6           0.004299602    0.004746025   -0.002712551
      7        7           0.005543589    0.000563693    0.001259556
      8        6          -0.004392179   -0.005948044    0.002358562
      9        6          -0.003347916   -0.004890468    0.004351495
     10        1          -0.003287931   -0.000003633   -0.000256788
     11        1          -0.001593688   -0.000550813    0.000091700
     12        1          -0.001298721   -0.000216207   -0.000096353
     13        1           0.001538112   -0.001051824   -0.001400183
     14        1           0.001497147   -0.000244434   -0.001268855
     15        1          -0.000833622    0.001452777    0.001100162
     16        1           0.000496088    0.000067208    0.001731800
     17        1           0.004093694    0.002633241    0.001854692
     18        1           0.001422217   -0.002605645    0.002020579
     19        1           0.001821821   -0.003594141   -0.006873181
     20        1           0.005004573   -0.001320501   -0.003014307
     21        1           0.001693277   -0.002213286    0.003096866
     22        1          -0.002895809    0.001297026    0.002189074
     23        1          -0.002249650    0.002627507    0.005923228
     24        1          -0.001829112    0.002243989   -0.002698469
     25        1          -0.002699925   -0.001350504   -0.001648978
     26        1          -0.001676364    0.003624061   -0.001151255
     27        1          -0.002278869   -0.004315300   -0.004488832
 -------------------------------------------------------------------
 Cartesian Forces:  Max     0.009884265 RMS     0.003081877

 GradGradGradGradGradGradGradGradGradGradGradGradGradGradGradGradGradGrad
 Berny optimization.
 FormGI is forming the generalized inverse of G from B-inverse, IUseBI=4.
 Internal  Forces:  Max     0.015768373 RMS     0.003937279
 Search for a local minimum.
 Step number   1 out of a maximum of  139
 All quantities printed in internal units (Hartrees-Bohrs-Radians)
 Mixed Optimization -- RFO/linear search
 Second derivative matrix not updated -- first step.
 ITU=  0
     Eigenvalues ---    0.00230   0.00338   0.00431   0.00506   0.00512
     Eigenvalues ---    0.00630   0.00652   0.00656   0.03382   0.03545
     Eigenvalues ---    0.03687   0.03922   0.04012   0.04885   0.05001
     Eigenvalues ---    0.05517   0.05686   0.05694   0.06769   0.06836
     Eigenvalues ---    0.06872   0.07132   0.07264   0.07265   0.07874
     Eigenvalues ---    0.08133   0.09247   0.11840   0.12041   0.12843
     Eigenvalues ---    0.15383   0.15852   0.16000   0.16000   0.16000
     Eigenvalues ---    0.16000   0.16000   0.16000   0.16000   0.16000
     Eigenvalues ---    0.16000   0.16000   0.16000   0.16000   0.17542
     Eigenvalues ---    0.17723   0.21872   0.21916   0.21974   0.29204
     Eigenvalues ---    0.29860   0.30446   0.31530   0.33490   0.33797
     Eigenvalues ---    0.33885   0.33996   0.34024   0.34048   0.34076
     Eigenvalues ---    0.34107   0.34112   0.34227   0.34282   0.34334
     Eigenvalues ---    0.34338   0.34421   0.34432   0.34435   0.34465
     Eigenvalues ---    0.34485   0.34541   0.34604   0.34731   0.34763
 RFO step:  Lambda=-9.94945732D-03 EMin= 2.30000000D-03
 Linear search not attempted -- first point.
 Iteration  1 RMS(Cart)=  0.10097834 RMS(Int)=  0.00198619
 Iteration  2 RMS(Cart)=  0.00373499 RMS(Int)=  0.00024249
 Iteration  3 RMS(Cart)=  0.00000254 RMS(Int)=  0.00024248
 Iteration  4 RMS(Cart)=  0.00000000 RMS(Int)=  0.00024248
 Variable       Old X    -DE/DX   Delta X   Delta X   Delta X     New X
                                 (Linear)    (Quad)   (Total)
    R1        2.87083   0.00997   0.00000   0.03173   0.03173   2.90256
    R2        2.06553   0.00123   0.00000   0.00347   0.00347   2.06900
    R3        2.06949   0.00010   0.00000   0.00029   0.00029   2.06978
    R4        2.06857   0.00036   0.00000   0.00101   0.00101   2.06958
    R5        2.88244   0.00756   0.00000   0.02451   0.02451   2.90694
    R6        2.06770   0.00192   0.00000   0.00543   0.00543   2.07313
    R7        2.07338   0.00006   0.00000   0.00017   0.00017   2.07354
    R8        2.89578   0.00158   0.00000   0.00524   0.00524   2.90102
    R9        2.06322   0.00140   0.00000   0.00393   0.00393   2.06715
   R10        2.07525  -0.00100   0.00000  -0.00287  -0.00287   2.07238
   R11        2.81499  -0.01000   0.00000  -0.02900  -0.02900   2.78598
   R12        2.06602  -0.00077   0.00000  -0.00218  -0.00218   2.06385
   R13        2.07673   0.00357   0.00000   0.01027   0.01027   2.08700
   R14        2.79726  -0.01323   0.00000  -0.03723  -0.03723   2.76003
   R15        2.85012  -0.01577   0.00000  -0.04848  -0.04848   2.80164
   R16        2.06626  -0.00231   0.00000  -0.00651  -0.00651   2.05975
   R17        2.06519  -0.00106   0.00000  -0.00298  -0.00298   2.06221
   R18        2.07249   0.00397   0.00000   0.01131   0.01131   2.08381
   R19        2.79361  -0.01117   0.00000  -0.03123  -0.03123   2.76238
   R20        2.79414  -0.01058   0.00000  -0.02961  -0.02961   2.76453
   R21        2.06764  -0.00149   0.00000  -0.00422  -0.00422   2.06342
   R22        2.07150  -0.00216   0.00000  -0.00614  -0.00614   2.06536
   R23        2.07289   0.00386   0.00000   0.01102   0.01102   2.08391
   R24        2.06607  -0.00120   0.00000  -0.00339  -0.00339   2.06268
   R25        2.07202   0.00406   0.00000   0.01157   0.01157   2.08359
   R26        2.07141  -0.00209   0.00000  -0.00595  -0.00595   2.06546
    A1        1.92955   0.00378   0.00000   0.02313   0.02303   1.95258
    A2        1.93019   0.00140   0.00000   0.00776   0.00770   1.93789
    A3        1.93245   0.00074   0.00000   0.00395   0.00391   1.93636
    A4        1.89387  -0.00260   0.00000  -0.01454  -0.01466   1.87921
    A5        1.89054  -0.00223   0.00000  -0.01216  -0.01223   1.87831
    A6        1.88593  -0.00135   0.00000  -0.00964  -0.00964   1.87629
    A7        1.91314   0.01070   0.00000   0.05404   0.05384   1.96698
    A8        1.91979  -0.00312   0.00000  -0.01102  -0.01095   1.90884
    A9        1.90982  -0.00223   0.00000   0.00023  -0.00001   1.90980
   A10        1.92892  -0.00331   0.00000  -0.01526  -0.01539   1.91354
   A11        1.91503  -0.00319   0.00000  -0.01002  -0.01058   1.90444
   A12        1.87678   0.00087   0.00000  -0.01952  -0.01980   1.85698
   A13        1.94650   0.00143   0.00000   0.00930   0.00921   1.95571
   A14        1.87279   0.00061   0.00000   0.01432   0.01421   1.88700
   A15        1.91606  -0.00035   0.00000  -0.00405  -0.00400   1.91206
   A16        1.94126  -0.00032   0.00000   0.00377   0.00356   1.94482
   A17        1.90765  -0.00096   0.00000  -0.01190  -0.01189   1.89575
   A18        1.87811  -0.00045   0.00000  -0.01184  -0.01183   1.86628
   A19        1.97023   0.00517   0.00000   0.02503   0.02494   1.99516
   A20        1.83692   0.00207   0.00000   0.01732   0.01767   1.85459
   A21        1.92375  -0.00143   0.00000   0.00708   0.00679   1.93053
   A22        1.92248  -0.00578   0.00000  -0.05137  -0.05144   1.87105
   A23        1.93328  -0.00069   0.00000   0.00428   0.00379   1.93707
   A24        1.87243   0.00049   0.00000  -0.00396  -0.00430   1.86813
   A25        1.89133   0.00700   0.00000   0.02336   0.02220   1.91354
   A26        1.90867  -0.00388   0.00000  -0.03597  -0.03593   1.87274
   A27        1.90442  -0.00501   0.00000  -0.04287  -0.04283   1.86159
   A28        1.94941  -0.00883   0.00000  -0.05046  -0.05062   1.89879
   A29        1.95881  -0.00495   0.00000  -0.02779  -0.02795   1.93086
   A30        1.95581   0.00334   0.00000   0.01678   0.01685   1.97266
   A31        1.79476   0.00807   0.00000   0.05308   0.05266   1.84742
   A32        1.89570   0.00257   0.00000   0.01268   0.01275   1.90845
   A33        1.90170   0.00038   0.00000  -0.00038  -0.00031   1.90139
   A34        1.92535  -0.00524   0.00000  -0.04207  -0.04205   1.88331
   A35        1.91338  -0.00283   0.00000  -0.02718  -0.02718   1.88620
   A36        1.85063   0.00616   0.00000   0.02036   0.01952   1.87015
   A37        1.95866  -0.00253   0.00000  -0.01295  -0.01305   1.94561
   A38        1.92427  -0.00815   0.00000  -0.04856  -0.04870   1.87556
   A39        1.95899   0.00229   0.00000   0.01208   0.01209   1.97107
   A40        1.82513   0.00599   0.00000   0.03806   0.03780   1.86293
   A41        1.89990   0.00032   0.00000   0.00287   0.00290   1.90279
   A42        1.89108   0.00252   0.00000   0.01112   0.01109   1.90217
   A43        1.95539  -0.00220   0.00000  -0.01074  -0.01083   1.94456
   A44        1.95596   0.00249   0.00000   0.01339   0.01340   1.96935
   A45        1.92543  -0.00797   0.00000  -0.04788  -0.04800   1.87743
   A46        1.90030   0.00015   0.00000   0.00257   0.00259   1.90289
   A47        1.82752   0.00568   0.00000   0.03593   0.03571   1.86322
   A48        1.89398   0.00221   0.00000   0.00887   0.00885   1.90284
    D1       -3.12289  -0.00023   0.00000  -0.00737  -0.00746  -3.13035
    D2        1.03600  -0.00104   0.00000  -0.01632  -0.01633   1.01968
    D3       -1.02207   0.00109   0.00000   0.01384   0.01396  -1.00811
    D4        1.06232  -0.00036   0.00000  -0.00933  -0.00946   1.05286
    D5       -1.06198  -0.00117   0.00000  -0.01828  -0.01833  -1.08031
    D6       -3.12005   0.00096   0.00000   0.01187   0.01196  -3.10809
    D7       -1.02761  -0.00006   0.00000  -0.00489  -0.00496  -1.03257
    D8        3.13128  -0.00087   0.00000  -0.01384  -0.01383   3.11745
    D9        1.07321   0.00126   0.00000   0.01632   0.01645   1.08966
   D10        3.11767   0.00084   0.00000   0.01996   0.02004   3.13771
   D11        0.98766  -0.00005   0.00000   0.00012   0.00009   0.98775
   D12       -1.04851   0.00033   0.00000   0.00833   0.00836  -1.04014
   D13       -1.04670   0.00183   0.00000   0.03180   0.03175  -1.01495
   D14        3.10647   0.00095   0.00000   0.01197   0.01180   3.11827
   D15        1.07030   0.00132   0.00000   0.02017   0.02008   1.09037
   D16        1.02003  -0.00110   0.00000  -0.00772  -0.00759   1.01244
   D17       -1.10999  -0.00198   0.00000  -0.02755  -0.02753  -1.13752
   D18        3.13703  -0.00160   0.00000  -0.01935  -0.01926   3.11777
   D19        3.10437  -0.00263   0.00000  -0.07312  -0.07317   3.03120
   D20        1.00694   0.00019   0.00000  -0.03560  -0.03565   0.97128
   D21       -1.00676  -0.00081   0.00000  -0.04366  -0.04361  -1.05037
   D22       -1.08881  -0.00111   0.00000  -0.04616  -0.04619  -1.13499
   D23        3.09695   0.00171   0.00000  -0.00864  -0.00867   3.08828
   D24        1.08325   0.00071   0.00000  -0.01669  -0.01663   1.06662
   D25        0.98248  -0.00247   0.00000  -0.06603  -0.06604   0.91644
   D26       -1.11495   0.00034   0.00000  -0.02851  -0.02853  -1.14347
   D27       -3.12865  -0.00065   0.00000  -0.03656  -0.03648   3.11806
   D28        1.08790   0.00261   0.00000   0.08601   0.08637   1.17426
   D29       -3.12114  -0.00157   0.00000   0.02742   0.02749  -3.09365
   D30        3.13553   0.00463   0.00000   0.08941   0.08925  -3.05841
   D31       -1.07351   0.00046   0.00000   0.03082   0.03036  -1.04314
   D32       -1.07894   0.00116   0.00000   0.05476   0.05500  -1.02394
   D33        0.99521  -0.00302   0.00000  -0.00383  -0.00389   0.99133
   D34       -1.08347  -0.00097   0.00000  -0.01316  -0.01310  -1.09657
   D35       -3.08861  -0.00233   0.00000  -0.02998  -0.03031  -3.11892
   D36        1.04816  -0.00163   0.00000  -0.02128  -0.02142   1.02674
   D37        3.12288   0.00250   0.00000   0.04105   0.04139  -3.11892
   D38        1.11774   0.00114   0.00000   0.02423   0.02417   1.14191
   D39       -1.02867   0.00184   0.00000   0.03293   0.03307  -0.99560
   D40        1.09356  -0.00315   0.00000   0.00570   0.00452   1.09808
   D41        3.12522  -0.00038   0.00000  -0.01009  -0.01027   3.11494
   D42       -3.12362   0.00011   0.00000  -0.01216  -0.01198  -3.13560
   D43       -1.09196   0.00288   0.00000  -0.02796  -0.02678  -1.11874
   D44       -1.19583  -0.00142   0.00000  -0.03675  -0.03673  -1.23256
   D45        3.06047  -0.00212   0.00000  -0.04518  -0.04537   3.01510
   D46        0.95048  -0.00118   0.00000  -0.03362  -0.03374   0.91674
   D47        3.01694   0.00116   0.00000   0.00610   0.00631   3.02326
   D48        0.99006   0.00046   0.00000  -0.00233  -0.00233   0.98773
   D49       -1.11993   0.00140   0.00000   0.00922   0.00930  -1.11063
   D50        1.18219   0.00234   0.00000   0.04466   0.04467   1.22686
   D51       -0.95994   0.00193   0.00000   0.03932   0.03945  -0.92050
   D52       -3.07240   0.00298   0.00000   0.05230   0.05250  -3.01990
   D53       -3.02268  -0.00186   0.00000  -0.00797  -0.00819  -3.03087
   D54        1.11837  -0.00227   0.00000  -0.01331  -0.01340   1.10496
   D55       -0.99409  -0.00122   0.00000  -0.00033  -0.00035  -0.99444
         Item               Value     Threshold  Converged?
 Maximum Force            0.015768     0.000450     NO 
 RMS     Force            0.003937     0.000300     NO 
 Maximum Displacement     0.320352     0.001800     NO 
 RMS     Displacement     0.101309     0.001200     NO 
 Predicted change in Energy=-5.478096D-03
 GradGradGradGradGradGradGradGradGradGradGradGradGradGradGradGradGradGrad

                          Input orientation:                          
 ---------------------------------------------------------------------
 Center     Atomic      Atomic             Coordinates (Angstroms)
 Number     Number       Type             X           Y           Z
 ---------------------------------------------------------------------
      1          6           0        1.042191   -0.100052   -0.104643
      2          6           0        2.572718   -0.014567   -0.007804
      3          6           0        3.051929    1.259046    0.709548
      4          6           0        4.582750    1.326701    0.802879
      5          7           0        5.102196    2.593709    1.349107
      6          6           0        4.728355    2.711557    2.756069
      7          7           0        6.582235    2.517877    1.307461
      8          6           0        6.987364    2.407339   -0.092710
      9          6           0        7.115838    3.782974    1.812387
     10          1           0        0.715796   -1.016409   -0.607123
     11          1           0        0.635698    0.749002   -0.664559
     12          1           0        0.585601   -0.087158    0.890731
     13          1           0        3.003843   -0.054337   -1.015808
     14          1           0        2.954155   -0.893407    0.527126
     15          1           0        2.589531    1.285705    1.700544
     16          1           0        2.694865    2.142472    0.166664
     17          1           0        4.955647    1.238892   -0.219867
     18          1           0        4.976492    0.462203    1.366167
     19          1           0        3.641383    2.746744    2.828801
     20          1           0        5.085545    3.655531    3.171049
     21          1           0        5.109174    1.881800    3.374485
     22          1           0        6.727399    1.431617   -0.508238
     23          1           0        8.077161    2.483304   -0.125775
     24          1           0        6.553246    3.196303   -0.729228
     25          1           0        6.948857    3.885706    2.886158
     26          1           0        6.693455    4.661557    1.297229
     27          1           0        8.198315    3.767992    1.661860
 ---------------------------------------------------------------------
                    Distance matrix (angstroms):
                    1          2          3          4          5
     1  C    0.000000
     2  C    1.535968   0.000000
     3  C    2.559122   1.538288   0.000000
     4  C    3.923618   2.548811   1.535154   0.000000
     5  N    5.084622   3.878476   2.528627   1.474279   0.000000
     6  C    5.447625   4.440441   3.018019   2.398745   1.460544
     7  N    6.288059   4.921324   3.795420   2.381480   1.482566
     8  C    6.452304   5.036064   4.177301   2.784246   2.380636
     9  C    7.459362   6.194704   4.909361   3.670003   2.384058
    10  H    1.094865   2.193406   3.516936   4.736201   6.008353
    11  H    1.095279   2.183211   2.826038   4.250451   5.235208
    12  H    1.095176   2.182033   2.815647   4.240745   5.272267
    13  H    2.163421   1.097052   2.168903   2.776298   4.124082
    14  H    2.164289   1.097271   2.162381   2.767172   4.177285
    15  H    2.751961   2.146962   1.093890   2.186413   2.854447
    16  H    2.798902   2.167528   1.096658   2.152757   2.719748
    17  H    4.137776   2.700830   2.118575   1.092141   2.078145
    18  H    4.237704   2.809490   2.184044   1.104393   2.135278
    19  H    4.844083   4.100391   2.655547   2.647084   2.084920
    20  H    6.417419   5.467086   3.992207   3.359238   2.108842
    21  H    5.707225   4.633540   3.423736   2.682986   2.146862
    22  H    5.901736   4.427557   3.875805   2.515861   2.727906
    23  H    7.494330   6.045839   5.239229   3.796187   3.322330
    24  H    6.451960   5.164760   4.252324   3.118592   2.605406
    25  H    7.727862   6.537411   5.179094   4.060421   2.727991
    26  H    7.521633   6.367867   5.018283   3.977528   2.609749
    27  H    8.324206   6.981610   5.804049   4.446354   3.326064
                    6          7          8          9         10
     6  C    0.000000
     7  N    2.360689   0.000000
     8  C    3.648454   1.461789   0.000000
     9  C    2.781825   1.462926   2.353353   0.000000
    10  H    6.427241   7.111394   7.163745   8.357551   0.000000
    11  H    5.683499   6.509923   6.589443   7.571821   1.768160
    12  H    5.336169   6.551297   6.940623   7.646658   1.767491
    13  H    4.985094   4.981842   4.772881   6.295406   2.515506
    14  H    4.594751   5.040709   5.248418   6.390621   2.512350
    15  H    2.778804   4.196957   4.880036   5.170717   3.759780
    16  H    3.341251   4.068660   4.308478   4.994463   3.807098
    17  H    3.328153   2.571832   2.347192   3.907535   4.817955
    18  H    2.655747   2.609148   3.155231   3.975354   4.922773
    19  H    1.089971   3.318956   4.454886   3.765463   5.875879
    20  H    1.091275   2.647131   3.978319   2.446282   7.429422
    21  H    1.102704   2.616694   3.978093   3.175108   6.599590
    22  H    4.036103   2.120801   1.091915   3.326419   6.491686
    23  H    4.423983   2.071271   1.092941   2.523837   8.165132
    24  H    3.963900   2.146906   1.102759   2.668426   7.199839
    25  H    2.515190   2.120766   3.325764   1.091522   8.665148
    26  H    3.129271   2.146588   2.664548   1.102590   8.461576
    27  H    3.788664   2.073668   2.529090   1.092995   9.166617
                   11         12         13         14         15
    11  H    0.000000
    12  H    1.766521   0.000000
    13  H    2.525241   3.079588   0.000000
    14  H    3.081049   2.528299   1.757029   0.000000
    15  H    3.114359   2.560525   3.057113   2.501677   0.000000
    16  H    2.621614   3.153493   2.513897   3.068179   1.760094
    17  H    4.370321   4.699909   2.472954   3.018389   3.047733
    18  H    4.800895   4.450591   3.135596   2.575173   2.547066
    19  H    5.022816   4.596185   4.799326   4.361271   2.124615
    20  H    6.554459   6.281486   5.968783   5.676794   3.742798
    21  H    6.132626   5.523454   5.239820   4.522536   3.083181
    22  H    6.131821   6.479620   4.041108   4.551383   4.692756
    23  H    7.659861   7.985238   5.741980   6.170385   5.906248
    24  H    6.403971   7.001298   4.821519   5.590850   5.026451
    25  H    7.893192   7.762500   6.805322   6.660525   5.212428
    26  H    7.473495   7.747349   6.418959   6.740404   5.329280
    27  H    8.468749   8.567977   6.983025   7.107565   6.133653
                   16         17         18         19         20
    16  H    0.000000
    17  H    2.465157   0.000000
    18  H    3.077001   1.766122   0.000000
    19  H    2.889292   3.646270   3.023399   0.000000
    20  H    4.126866   4.165973   3.669719   1.740296   0.000000
    21  H    4.023301   3.654622   2.462966   1.788941   1.785516
    22  H    4.149957   1.805382   2.742050   4.731689   4.602025
    23  H    5.401000   3.361735   3.990600   5.336201   4.603578
    24  H    4.098816   2.577446   3.788422   4.619591   4.192517
    25  H    5.341438   4.541574   4.233316   3.498558   1.898967
    26  H    4.859289   4.127492   4.537322   3.915018   2.666208
    27  H    5.930083   4.522404   4.625561   4.813557   3.461161
                   21         22         23         24         25
    21  H    0.000000
    22  H    4.230467   0.000000
    23  H    4.628452   1.753334   0.000000
    24  H    4.544636   1.786975   1.787411   0.000000
    25  H    2.763790   4.194463   3.508780   3.701729   0.000000
    26  H    3.814706   3.700456   2.946925   2.504628   1.786581
    27  H    4.004197   3.511633   2.204708   2.958105   1.753256
                   26         27
    26  H    0.000000
    27  H    1.787741   0.000000
 Stoichiometry    C7H18N2
 Framework group  C1[X(C7H18N2)]
 Deg. of freedom    75
 Full point group                 C1      NOp   1
 Largest Abelian subgroup         C1      NOp   1
 Largest concise Abelian subgroup C1      NOp   1
                         Standard orientation:                         
 ---------------------------------------------------------------------
 Center     Atomic      Atomic             Coordinates (Angstroms)
 Number     Number       Type             X           Y           Z
 ---------------------------------------------------------------------
      1          6           0        4.197838    0.004535    0.251478
      2          6           0        2.859723   -0.527978   -0.282447
      3          6           0        1.653882    0.281426    0.224644
      4          6           0        0.325371   -0.259788   -0.322024
      5          7           0       -0.872536    0.384873    0.246246
      6          6           0       -0.934295    1.777326   -0.190160
      7          7           0       -2.055823   -0.295018   -0.333048
      8          6           0       -2.025316   -1.692514    0.094624
      9          6           0       -3.255351    0.307917    0.248118
     10          1           0        5.047099   -0.573909   -0.126529
     11          1           0        4.228619   -0.035959    1.345575
     12          1           0        4.349791    1.048116   -0.043921
     13          1           0        2.745429   -1.580064    0.006646
     14          1           0        2.870489   -0.507600   -1.379475
     15          1           0        1.804638    1.328026   -0.055530
     16          1           0        1.622279    0.245488    1.320257
     17          1           0        0.287220   -1.315073   -0.043293
     18          1           0        0.312302   -0.215914   -1.425467
     19          1           0       -0.064205    2.306134    0.198866
     20          1           0       -1.803764    2.276960    0.240269
     21          1           0       -0.966540    1.884476   -1.287172
     22          1           0       -1.220452   -2.243336   -0.396360
     23          1           0       -2.963106   -2.153874   -0.225092
     24          1           0       -1.923966   -1.805523    1.186885
     25          1           0       -3.407418    1.325004   -0.117712
     26          1           0       -3.236322    0.321476    1.350460
     27          1           0       -4.114683   -0.278956   -0.086197
 ---------------------------------------------------------------------
 Rotational constants (GHZ):           3.6389025           0.6625494           0.5866084
 Standard basis: 6-31G(2df,p) (6D, 7F)
 There are   369 symmetry adapted cartesian basis functions of A   symmetry.
 There are   342 symmetry adapted basis functions of A   symmetry.
   342 basis functions,   522 primitive gaussians,   369 cartesian basis functions
    37 alpha electrons       37 beta electrons
       nuclear repulsion energy       494.8529113058 Hartrees.
 NAtoms=   27 NActive=   27 NUniq=   27 SFac= 1.00D+00 NAtFMM=   60 NAOKFM=F Big=F
 Integral buffers will be    131072 words long.
 Raffenetti 2 integral format.
 Two-electron integral symmetry is turned on.
 One-electron integrals computed using PRISM.
 PrsmSu:  requested number of processors reduced to:  13 ShMem   1 Linda.
 NBasis=   342 RedAO= T EigKep=  2.96D-04  NBF=   342
 NBsUse=   342 1.00D-06 EigRej= -1.00D+00 NBFU=   342
 Initial guess from the checkpoint file:  "CCCCNpCpNpCpC.chk"
 B after Tr=    -0.000000    0.000000   -0.000000
         Rot=    0.999918   -0.006005   -0.001669   -0.011229 Ang=  -1.47 deg.
 ExpMin= 1.61D-01 ExpMax= 4.17D+03 ExpMxC= 6.27D+02 IAcc=2 IRadAn=         4 AccDes= 0.00D+00
 Harris functional with IExCor=  402 and IRadAn=       4 diagonalized for initial guess.
 HarFok:  IExCor=  402 AccDes= 0.00D+00 IRadAn=         4 IDoV= 1 UseB2=F ITyADJ=14
 ICtDFT=  3500011 ScaDFX=  1.000000  1.000000  1.000000  1.000000
 FoFCou: FMM=F IPFlag=           0 FMFlag=      100000 FMFlg1=           0
         NFxFlg=           0 DoJE=T BraDBF=F KetDBF=T FulRan=T
         wScrn=  0.000000 ICntrl=       500 IOpCl=  0 I1Cent=   200000004 NGrid=           0
         NMat0=    1 NMatS0=      1 NMatT0=    0 NMatD0=    1 NMtDS0=    0 NMtDT0=    0
 Petite list used in FoFCou.
 Requested convergence on RMS density matrix=1.00D-08 within 128 cycles.
 Requested convergence on MAX density matrix=1.00D-06.
 Requested convergence on             energy=1.00D-06.
 No special actions if energy rises.
 Integral accuracy reduced to 1.0D-05 until final iterations.
 Initial convergence to 1.0D-05 achieved.  Increase integral accuracy.
 SCF Done:  E(RB3LYP) =  -387.058787927     A.U. after   10 cycles
            NFock= 10  Conv=0.86D-08     -V/T= 2.0084
 PrsmSu:  requested number of processors reduced to:  13 ShMem   1 Linda.
 Calling FoFJK, ICntrl=      2127 FMM=F ISym2X=0 I1Cent= 0 IOpClX= 0 NMat=1 NMatS=1 NMatT=0.
 ***** Axes restored to original set *****
 -------------------------------------------------------------------
 Center     Atomic                   Forces (Hartrees/Bohr)
 Number     Number              X              Y              Z
 -------------------------------------------------------------------
      1        6           0.002027585    0.000470554    0.000367267
      2        6          -0.001723339    0.001298723    0.000853209
      3        6           0.001203892   -0.000603396   -0.000881543
      4        6          -0.005023078    0.000510315   -0.002325850
      5        7          -0.000203807   -0.004451991    0.003276081
      6        6          -0.006318468    0.002670130    0.001092786
      7        7          -0.001982433    0.003504929   -0.005068472
      8        6           0.007651115   -0.002301769   -0.001018222
      9        6           0.005412807   -0.000598575    0.001901090
     10        1           0.000870521    0.000090113    0.000014158
     11        1          -0.000124666    0.000192754   -0.000059937
     12        1          -0.000310276    0.000001771    0.000258556
     13        1           0.000568712   -0.000110511   -0.000220611
     14        1           0.000226510   -0.000455892   -0.000331195
     15        1          -0.000194300    0.000530214    0.001406042
     16        1          -0.000284490    0.000722412    0.000633143
     17        1          -0.002765452   -0.001706992    0.001895527
     18        1           0.000009226   -0.000156558    0.000905124
     19        1          -0.001094688   -0.001734987    0.000078527
     20        1          -0.001348135   -0.001648396    0.000043156
     21        1           0.000608478   -0.000172730   -0.000137162
     22        1           0.002553663    0.001926740    0.000097419
     23        1           0.000162252    0.000801965   -0.001029205
     24        1          -0.000638640    0.000045693    0.000099971
     25        1           0.001247895    0.000218774   -0.001388436
     26        1          -0.000556061    0.000039496   -0.000007290
     27        1           0.000025179    0.000917216   -0.000454132
 -------------------------------------------------------------------
 Cartesian Forces:  Max     0.007651115 RMS     0.001952285

 GradGradGradGradGradGradGradGradGradGradGradGradGradGradGradGradGradGrad
 Berny optimization.
 Using GEDIIS/GDIIS optimizer.
 FormGI is forming the generalized inverse of G from B-inverse, IUseBI=4.
 Internal  Forces:  Max     0.013810579 RMS     0.002610298
 Search for a local minimum.
 Step number   2 out of a maximum of  139
 All quantities printed in internal units (Hartrees-Bohrs-Radians)
 Mixed Optimization -- RFO/linear search
 Update second derivatives using D2CorX and points    1    2
 DE= -2.92D-03 DEPred=-5.48D-03 R= 5.32D-01
 TightC=F SS=  1.41D+00  RLast= 3.14D-01 DXNew= 5.0454D-01 9.4265D-01
 Trust test= 5.32D-01 RLast= 3.14D-01 DXMaxT set to 5.05D-01
 ITU=  1  0
 Use linear search instead of GDIIS.
     Eigenvalues ---    0.00231   0.00339   0.00431   0.00512   0.00528
     Eigenvalues ---    0.00624   0.00644   0.00654   0.03597   0.03607
[...]
 666,0.00005269,0.00013547,-0.00005062,-0.00000450,-0.00006327,-0.00064
 089,-0.00118140,-0.00023038,-0.00000335,0.00032340,0.00010145,0.001272
 76,0.00423336,0.00034858,0.10975622,0.28854298,0.00001341,-0.00004775,
 0.00002039,-0.00012124,0.00005914,-0.00004342,0.00047504,-0.00001716,0
 .00009302,0.00320630,-0.00142525,-0.00342182,-0.01444240,-0.02835026,-
 0.00123495,0.01028533,0.01955826,-0.05013277,-0.00116412,0.00121091,0.
 00146123,-0.00004779,-0.00061525,-0.00029318,0.00086831,0.00063015,0.0
 0063349,-0.00002885,-0.00001310,-0.00000639,-0.00000354,0.00000539,-0.
 00000294,-0.00002433,0.00000626,0.00000212,-0.00001309,0.00003013,0.00
 004572,0.00001245,-0.00002541,0.00000453,-0.00016943,0.00010566,0.0000
 0892,-0.00001812,0.00003772,0.00000662,-0.00029327,-0.00159024,0.00013
 169,0.00008955,-0.00055401,0.00024188,-0.00208964,-0.00337168,-0.00026
 064,-0.00994907,-0.01062777,0.05437890,-0.00000596,0.00001073,0.000000
 62,0.00010669,0.00003168,-0.00005303,-0.00014939,0.00009451,0.00000699
 ,-0.00026673,-0.00110489,-0.00060997,0.00446141,-0.00361017,0.01437819
 ,-0.06117122,0.02091553,-0.04261160,0.00190484,-0.00063645,0.00056322,
 -0.00035017,-0.00022071,0.00009270,-0.00033817,-0.00034942,-0.00024238
 ,0.00000951,-0.00000263,0.00000271,0.00000819,0.00000196,0.00001974,-0
 .00000248,0.00000812,-0.00000805,0.00000420,-0.00003163,-0.00000405,0.
 00000910,-0.00004719,0.00002186,-0.00002764,0.00011233,-0.00011381,-0.
 00005961,0.00004322,0.00010809,-0.00002933,-0.00009464,0.00001378,0.00
 000968,0.00011670,-0.00044239,-0.00584302,0.01470487,-0.02807382,0.002
 89505,-0.00635658,0.01252693,0.06006809,-0.00000804,-0.00001549,0.0000
 0580,-0.00010066,-0.00002063,0.00002900,-0.00011955,-0.00031809,0.0002
 9870,0.00030222,0.00569241,-0.00355441,-0.00380576,0.00610123,-0.02260
 354,0.02030185,-0.09362109,0.08498516,-0.00157251,0.00082286,-0.000057
 54,-0.00008243,-0.00108969,-0.00008218,0.00106171,0.00110645,0.0013113
 1,0.00000086,0.00000937,-0.00000125,0.00000194,-0.00000094,-0.00000781
 ,0.00000373,-0.00000699,0.00000284,0.00000773,0.00002706,-0.00000618,-
 0.00000377,0.00000382,-0.00000215,-0.00001766,-0.00000523,0.00010066,0
 .00012992,-0.00002581,0.00004349,0.00007212,0.00007180,0.00030340,0.00
 026033,0.00075939,0.00234646,-0.00028169,-0.00144754,0.00246038,0.0075
 7525,-0.01116275,0.02501891,-0.02417270,0.09356645,0.00003510,-0.00011
 538,-0.00000892,-0.00024407,0.00012469,0.00004227,0.00008686,-0.000606
 87,-0.00005798,0.00181674,0.00506612,0.00104718,0.00172218,-0.00380235
 ,-0.03776157,-0.04220507,0.08734446,-0.22412023,-0.00386644,0.00007836
 ,0.00124599,0.00040977,-0.00075021,0.00010407,0.00004876,0.00045113,-0
 .00058101,-0.00005750,-0.00002750,-0.00001118,0.00000368,0.00001043,0.
 00001097,-0.00002936,0.00001615,0.00000945,0.00000475,0.00002946,0.000
 01155,0.00000470,-0.00007568,0.00000834,-0.00029197,0.00005809,-0.0000
 5175,0.00024487,0.00010813,0.00015802,0.00017378,-0.00023475,0.0005598
 0,-0.00047344,-0.00243946,0.00107373,-0.00155566,0.00312476,-0.0030056
 6,-0.00116194,0.00175238,-0.00100597,0.04442455,-0.09063741,0.26033038
 ,-0.00001248,0.00004324,-0.00000173,0.00006821,-0.00006425,-0.00000850
 ,-0.00001333,0.00015276,-0.00000111,0.00044665,-0.00047200,0.00032677,
 0.00090039,-0.00028579,0.00123702,-0.00027583,0.00036146,0.00000899,0.
 00431560,-0.00157065,0.00928328,-0.13293251,0.00819034,-0.12897859,-0.
 00053634,-0.00102919,0.00118430,0.00002327,0.00001424,0.00000464,0.000
 00246,-0.00000727,0.00000227,-0.00000169,-0.00000410,0.00000061,-0.000
 00492,0.00001433,0.00000954,-0.00000134,0.00000997,-0.00000150,0.00000
 301,-0.00000364,-0.00000237,-0.00000294,-0.00000755,-0.00000674,-0.000
 01041,0.00002672,0.00000043,-0.00000368,0.00005143,0.00000971,0.000005
 71,0.00000411,0.00000449,0.00003162,-0.00005236,-0.00000834,-0.0000063
 3,-0.00009872,-0.00011080,0.13836086,-0.00000466,0.00000294,-0.0000011
 4,-0.00000011,-0.00000035,0.00001210,-0.00000026,-0.00000521,-0.000018
 56,0.00007275,-0.00014478,0.00014547,0.00167634,0.00128325,-0.00099372
 ,-0.00031355,-0.00009836,-0.00012191,0.01821373,-0.00706448,0.02800533
 ,0.00151552,-0.04788515,0.00231834,-0.00325482,-0.00339287,0.00271855,
 0.00000503,0.00000340,0.00000152,-0.00000396,0.00000071,0.00000024,0.0
 0000475,-0.00000131,-0.00000395,0.00000418,-0.00001297,-0.00000281,0.0
 0000597,0.00000687,-0.00000837,0.00001366,0.00001157,-0.00001693,-0.00
 004953,0.00001962,-0.00001244,0.00006763,-0.00005780,0.00004027,0.0000
 3720,0.00010768,-0.00013358,-0.00003862,0.00013804,0.00004938,-0.00010
 083,0.00004685,-0.00003437,0.00009579,-0.00002208,-0.00021002,-0.00575
 571,0.05627265,0.00000311,0.00000047,-0.00000493,0.00000666,0.00000521
 ,0.00002201,-0.00000721,0.00002540,-0.00008840,0.00035584,0.00035861,0
 .00009345,-0.00149401,-0.00166786,0.00211166,0.00047042,-0.00036073,-0
 .00063349,-0.01062711,0.00683276,-0.01742521,-0.12252797,0.00872185,-0
 .22955769,0.00305365,0.00287825,-0.00109528,-0.00000387,-0.00000572,0.
 00000011,0.00000297,0.00000171,0.00000512,-0.00000104,0.00000231,0.000
 00027,-0.00000241,0.00000022,-0.00000601,-0.00000358,-0.00001590,0.000
 00661,0.00001013,-0.00000264,0.00001425,0.00004673,-0.00000719,0.00005
 582,-0.00005600,-0.00006593,-0.00006759,-0.00005380,-0.00029289,0.0001
 9228,0.00008760,0.00002491,-0.00004924,-0.00017621,0.00009049,-0.00008
 722,-0.00004069,-0.00000201,0.00028974,0.13698492,-0.01480307,0.250925
 44,0.00002389,-0.00005173,-0.00000249,-0.00007227,0.00009435,0.0000065
 8,0.00005282,-0.00014953,0.00006590,0.00013828,0.00084470,0.00072162,-
 0.00087824,-0.00202864,0.00245246,0.00016728,-0.00068980,-0.00049258,-
 0.01053063,-0.00250923,0.00045973,-0.28603880,0.02808491,0.06101182,-0
 .00025020,0.00095694,-0.00090622,-0.00003453,-0.00002383,-0.00000758,-
 0.00000602,0.00001026,-0.00000389,-0.00000032,0.00000772,0.00000040,0.
 00000411,-0.00001869,-0.00001430,0.00000081,-0.00000460,-0.00000085,-0
 .00000141,0.00000689,0.00000148,0.00002284,0.00002513,0.00000969,0.000
 07373,-0.00001340,-0.00006198,-0.00015611,-0.00045598,0.00011589,-0.00
 004794,-0.00001103,0.00008142,0.00008099,0.00010259,-0.00006981,-0.000
 03465,0.00013890,0.00033307,-0.01397498,0.00247927,0.00505205,0.313567
 65,0.00001355,-0.00005806,-0.00000545,-0.00013425,0.00006991,-0.000018
 78,0.00012281,-0.00033979,0.00005708,-0.00092002,0.00071680,0.00065688
 ,-0.00375003,-0.00354334,0.00385301,-0.00062734,-0.00125555,-0.0003168
 4,-0.03008714,0.00017176,0.00560605,0.03657655,-0.05181214,-0.00726951
 ,-0.00041101,0.00084481,0.00016838,-0.00002731,-0.00000948,-0.00000599
 ,-0.00000436,0.00000443,-0.00000534,-0.00000131,0.00000310,0.00000253,
 0.00000565,-0.00000344,-0.00000682,0.00000195,0.00000750,-0.00000213,-
 0.00001337,0.00001381,0.00002612,0.00000221,0.00001442,-0.00001499,0.0
 0010094,0.00002776,-0.00006480,-0.00003408,-0.00026053,0.00014010,-0.0
 0008477,0.00024961,0.00020219,0.00002568,0.00040816,0.00024985,0.00004
 015,0.00021469,0.00028748,0.00053631,-0.00083786,-0.00098257,-0.027927
 34,0.05863894,-0.00000838,0.00003319,-0.00000095,0.00006672,-0.0000467
 3,0.00004504,-0.00007344,0.00023284,-0.00007780,0.00047380,-0.00038399
 ,-0.00028385,0.00139514,0.00181095,-0.00114757,0.00028841,0.00011576,0
 .00030505,0.01729703,0.00122079,-0.00412835,0.05722800,-0.00579600,-0.
 06422120,0.00090492,-0.00055899,-0.00012931,0.00001522,0.00000492,0.00
 000436,0.00000225,-0.00000178,0.00000330,0.00000060,-0.00000305,-0.000
 00108,-0.00000061,0.00000791,0.00000287,-0.00000105,-0.00000733,-0.000
 00248,-0.00001949,-0.00000870,0.00000378,0.00000707,-0.00000897,0.0000
 1977,-0.00008750,0.00002271,0.00004005,0.00002450,0.00006070,-0.000053
 69,0.00003626,-0.00005284,-0.00007471,-0.00025010,0.00000785,0.0001709
 5,0.00002299,0.00012412,0.00001242,-0.02473810,0.00300662,0.00915124,-
 0.06938135,0.00375583,0.06524630,-0.00000041,-0.00000744,-0.00000152,-
 0.00001676,0.00001273,0.00001126,-0.00006016,-0.00000322,0.00002390,-0
 .00036548,-0.00006065,-0.00017088,0.00179770,-0.00053927,-0.00129355,0
 .00009770,-0.00036626,0.00027756,0.00261788,-0.01232558,-0.00376587,-0
 .05391463,0.02185158,0.01308385,-0.00048855,0.00130338,0.00007089,-0.0
 0000298,-0.00000086,-0.00000047,0.00000134,-0.00000014,-0.00000066,-0.
 00000089,-0.00000091,0.00000154,0.00000279,0.00000805,0.00000120,-0.00
 000014,-0.00000165,0.00000121,-0.00005097,-0.00001909,-0.00000118,0.00
 000521,-0.00000876,-0.00000572,-0.00000580,0.00009346,0.00006292,0.000
 06349,0.00011330,-0.00002462,0.00017961,0.00017195,-0.00012888,-0.0006
 9798,0.00005462,0.00091365,0.00008909,0.00007107,-0.00005946,0.0026536
 3,-0.01525649,-0.01020261,-0.00332289,0.02594291,0.01746523,0.05120439
 ,0.00002386,-0.00007959,0.00000502,-0.00013510,0.00011586,-0.00000900,
 0.00002550,-0.00022596,0.00023429,-0.00079959,0.00027475,-0.00027004,0
 .00389124,0.00142690,-0.00016674,-0.00088981,-0.00116026,-0.00064383,-
 0.00242110,-0.04027000,-0.00206950,0.02177314,-0.20167609,-0.10182409,
 -0.00297385,0.00165354,-0.00459538,-0.00004431,-0.00002562,-0.00001203
 ,-0.00000580,0.00000887,-0.00001104,-0.00001061,0.00000784,0.00000673,
 0.00001347,0.00001566,0.00001052,0.00000543,0.00000004,-0.00000079,-0.
 00017968,0.00002927,0.00004510,-0.00001384,0.00000816,-0.00003796,0.00
 007544,0.00044049,0.00026555,0.00006321,0.00000065,0.00008583,-0.00024
 482,0.00049712,0.00039938,-0.00030012,0.00080800,0.00053808,0.00015392
 ,0.00038843,0.00023783,0.00048787,0.00163702,-0.00068473,0.00120975,-0
 .00305074,-0.00386092,-0.02095533,0.23806461,0.00000332,0.00000863,-0.
 00000204,0.00001290,-0.00001914,-0.00000634,0.00009062,0.00000435,-0.0
 0011255,0.00029750,-0.00002557,0.00008552,-0.00116272,0.00032906,0.000
 99356,-0.00019677,-0.00035928,-0.00043770,-0.00266872,0.01937352,0.010
 46902,0.01359084,-0.10022495,-0.11905882,0.00096585,0.00214987,0.00505
 288,0.00000174,0.00000144,0.00000112,0.00000318,-0.00000209,-0.0000001
 9,-0.00000755,0.00000057,0.00000563,-0.00000653,0.00001769,0.00000674,
 -0.00000251,-0.00000275,0.00000343,0.00000824,0.00002209,0.00005756,0.
 00002564,-0.00001458,0.00001668,-0.00003929,0.00000785,-0.00005177,-0.
 00005361,-0.00005893,0.00003836,-0.00026190,-0.00006747,0.00019323,0.0
 0068711,0.00022456,-0.00039776,0.00006235,0.00018687,0.00009971,0.0047
 0658,-0.02188894,-0.01371086,0.00028826,-0.00651793,-0.00461087,-0.016
 82845,0.10939036,0.12122528,-0.00001447,0.00005299,-0.00000387,0.00006
 555,-0.00009166,0.00000457,-0.00016357,0.00006165,0.00019871,-0.000036
 49,0.00001824,-0.00061708,0.00147683,0.00024767,0.00138203,-0.00051673
 ,0.00047002,-0.00017261,0.00689861,0.01788447,-0.01308745,-0.00271480,
 0.00048335,-0.00255611,-0.07810597,-0.07528373,0.04373767,0.00003215,0
 .00001871,0.00000598,0.00000039,-0.00000570,0.00000144,0.00000007,-0.0
 0000514,-0.00000080,-0.00000248,0.00000954,0.00001540,-0.00000219,0.00
 000132,-0.00000807,0.00000534,-0.00000239,-0.00001895,0.00008762,0.000
 00885,0.00002752,0.00004889,0.00000256,0.00011006,-0.00098418,-0.00060
 958,-0.00008637,-0.00003265,0.00004073,0.00007541,0.00002222,-0.000095
 34,-0.00003928,-0.00030873,0.00017168,-0.00001069,0.00050336,0.0007132
 6,-0.00078266,0.00057322,-0.00016946,-0.00010992,0.00001573,-0.0000462
 2,0.00000716,0.08059845,0.00000533,0.00001476,-0.00000362,0.00005898,0
 .00001260,0.00002585,0.00005465,0.00025258,-0.00022554,0.00011936,-0.0
 0022819,0.00061930,-0.00073428,-0.00012119,-0.00017123,-0.00008402,-0.
 00045854,0.00099304,0.00090399,-0.00247409,0.00458829,0.00151654,0.001
 09679,0.00067351,-0.07125229,-0.22453367,0.10159924,0.00000048,-0.0000
 0290,0.00000104,-0.00000534,0.00000162,-0.00000379,0.00000156,-0.00000
 047,0.00000023,-0.00000186,-0.00000776,-0.00000744,0.00000656,0.000016
 49,-0.00000486,0.00003085,-0.00000686,0.00000590,-0.00013206,-0.000017
 13,-0.00003893,-0.00001989,-0.00007462,-0.00013528,-0.00039091,0.00026
 523,-0.00058498,0.00001242,0.00020264,-0.00031241,-0.00007932,0.000244
 62,-0.00011188,0.00022144,-0.00002167,-0.00068978,-0.00031786,-0.00009
 677,0.00025003,-0.00014107,0.00002364,-0.00016425,-0.00013273,0.000382
 12,-0.00031797,0.07833625,0.24083673,-0.00001317,0.00000497,-0.0000015
 9,-0.00003281,-0.00003511,-0.00001666,-0.00015669,-0.00034425,0.000204
 05,-0.00005751,0.00045455,-0.00035478,0.00174725,-0.00041002,0.0015132
 7,-0.00057048,-0.00015531,0.00050314,0.01085485,0.02480893,-0.02018842
 ,-0.00469011,-0.00017289,-0.00339418,0.03748961,0.09654535,-0.10464371
 ,0.00000893,0.00000822,0.00000144,0.00000816,-0.00000379,0.00000548,0.
 00000881,-0.00000352,-0.00000200,-0.00000337,-0.00000305,-0.00001504,-
 0.00001600,-0.00001006,0.00001309,0.00007939,-0.00000026,-0.00000883,0
 .00018380,0.00002739,0.00005976,0.00004668,0.00001879,-0.00019090,-0.0
 0048676,-0.00049066,0.00049761,-0.00006303,0.00014214,0.00004642,0.000
 05874,-0.00001490,-0.00007213,-0.00013617,0.00022872,-0.00003691,0.000
 21235,0.00163568,-0.00078132,-0.00012534,-0.00038418,0.00030301,-0.000
 10138,0.00057539,-0.00008345,-0.04085726,-0.11358034,0.12062110,0.0000
 0397,-0.00001810,-0.00000341,-0.00004415,0.00003499,0.00001223,0.00002
 277,-0.00001399,0.00002363,-0.00045151,-0.00003940,0.00003881,0.002730
 32,-0.00086039,-0.00038383,-0.00054173,-0.00037367,0.00047161,-0.00009
 309,-0.01467518,-0.01996824,-0.00047885,-0.00191392,0.00171877,-0.0512
 6975,0.01056791,0.00841547,-0.00000970,-0.00000492,-0.00000238,0.00000
 068,0.00000082,0.00000043,-0.00000244,0.00000070,0.00000173,0.00000542
 ,0.00001063,0.00000203,0.00000258,-0.00000248,0.00000345,-0.00007034,-
 0.00002261,0.00000883,-0.00001679,-0.00001115,-0.00001367,0.00004650,0
 .00018542,0.00003209,0.00002454,0.00000660,-0.00007328,0.00029617,-0.0
 0015099,-0.00006013,-0.00033040,0.00044785,0.00003006,-0.00131804,0.00
 033658,0.00050018,-0.00002540,0.00008509,0.00003328,-0.00007676,0.0004
 4842,-0.00007569,0.00023137,0.00095583,0.00045237,0.00071614,-0.009563
 92,-0.00635428,0.05167598,0.00001402,-0.00002474,-0.00000558,-0.000042
 81,0.00003575,0.00000769,0.00017466,0.00001974,-0.00012368,-0.00007180
 ,-0.00030428,0.00041615,0.00045128,0.00088402,0.00014476,0.00063871,-0
 .00003671,-0.00161028,-0.00447492,0.00783012,-0.00064878,-0.00043546,0
 .00375691,0.00164155,0.01047784,-0.19796824,-0.10666806,-0.00001648,-0
 .00001106,-0.00000306,-0.00000485,0.00000342,-0.00000326,-0.00001359,0
 .00000522,0.00000610,0.00000284,0.00001925,0.00001751,0.00001191,0.000
 00221,-0.00000780,-0.00009229,0.00003497,0.00005831,-0.00006302,0.0000
 0213,-0.00002251,0.00004394,0.00013010,0.00011438,-0.00000019,0.000060
 57,-0.00020685,-0.00012680,0.00019381,0.00088186,0.00014667,0.00016432
 ,-0.00042535,0.00019884,-0.00076686,0.00083387,-0.00008655,0.00006703,
 -0.00016457,0.00021519,-0.00024182,-0.00003175,0.00003857,0.00078469,-
 0.00217508,0.00310238,-0.02023325,-0.01576175,-0.01021909,0.20993431,0
 .00001476,-0.00005559,0.00000404,-0.00010164,0.00008212,-0.00001625,-0
 .00009157,-0.00025818,0.00023335,-0.00032597,0.00091746,-0.00044145,0.
 00379832,0.00015362,0.00053714,-0.00041018,-0.00072115,0.00047437,-0.0
 0847182,-0.01840149,-0.03336058,-0.00118839,-0.00557189,0.00295738,0.0
 0803379,-0.10880120,-0.13079464,-0.00003185,-0.00001926,-0.00000988,0.
 00000213,0.00000497,-0.00000145,-0.00000559,0.00000662,0.00000375,0.00
 000698,0.00001028,0.00000097,-0.00000511,-0.00001533,0.00001459,-0.000
 10249,0.00001646,0.00002161,0.00006826,-0.00001449,0.00002183,0.000141
 68,0.00035105,0.00005201,-0.00002506,-0.00022610,0.00036354,-0.0000713
 6,0.00042062,0.00055116,-0.00000154,0.00056956,-0.00022519,-0.00010839
 ,-0.00008153,0.00074355,-0.00007051,0.00068685,0.00030361,0.00030205,0
 .00015963,-0.00025877,0.00033196,0.00227526,0.00059991,-0.00058726,0.0
 1125519,0.01010111,-0.00269877,0.12590428,0.15318529,0.00002472,-0.000
 06693,0.00000289,-0.00009837,0.00011940,0.00003108,0.00002862,-0.00028
 144,-0.00002262,0.00046272,0.00154812,-0.00005197,-0.00197193,0.002450
 62,-0.00317065,0.00056637,-0.00085324,-0.00142654,-0.02138091,-0.00082
 568,0.00045176,-0.00017978,-0.00051531,0.00144208,-0.27865112,0.037307
 58,0.07033310,-0.00004222,-0.00002572,-0.00000993,-0.00000366,0.000010
 72,-0.00000411,0.00000065,0.00000822,0.00000087,0.00000595,-0.00001840
 ,-0.00002101,-0.00000271,-0.00001711,0.00000680,0.00001450,0.00001552,
 0.00000643,0.00002214,0.00000415,0.00002807,0.00002427,-0.00008056,-0.
 00004988,0.00016058,-0.00013600,0.00029168,-0.00005186,0.00008298,0.00
 020876,-0.00002595,0.00009511,0.00006129,0.00034562,-0.00017242,0.0002
 5742,0.00048742,-0.00021163,-0.00012821,0.00072012,0.00037469,-0.00048
 253,-0.00003229,0.00034154,0.00002439,-0.00816229,0.00158713,0.0029658
 0,-0.00102748,0.00013101,0.00159756,0.30876689,0.00000192,0.00000336,-
 0.00000650,0.00001488,0.00000861,0.00001770,0.00001288,0.00019407,-0.0
 0010228,-0.00009774,-0.00007727,0.00033178,0.00038324,0.00024848,0.000
 07836,0.00006807,-0.00010514,0.00018466,0.00364085,-0.00039257,0.00025
 417,0.00081218,-0.00010980,-0.00034366,0.03689368,-0.05310773,-0.01119
 453,-0.00000111,-0.00000285,0.00000023,-0.00000058,-0.00000006,0.00000
 089,0.00000080,-0.00000053,0.00000029,0.00000083,0.00000239,-0.0000046
 6,0.00000430,0.00000657,0.00000063,-0.00002832,-0.00000561,0.00001163,
 -0.00007903,-0.00002800,-0.00001371,-0.00001703,0.00004487,-0.00004227
 ,0.00021796,0.00023143,-0.00016890,0.00000763,0.00007709,0.00020414,-0
 .00004261,0.00024730,-0.00024099,-0.00012279,-0.00023910,0.00006611,-0
 .00013715,0.00002235,-0.00013641,-0.00015171,0.00000342,0.00052108,0.0
 0001675,-0.00005578,-0.00004218,-0.02531445,0.00492729,0.00691995,0.02
 478895,-0.00434160,-0.00864777,-0.04087238,0.05244882,0.00000867,-0.00
 004758,0.00000166,-0.00012046,0.00004885,0.00002647,0.00005430,-0.0003
 5429,0.00004265,0.00021766,0.00135112,-0.00028384,-0.00590203,0.002106
 42,-0.00375905,0.00049454,-0.00056682,-0.00228188,-0.03154021,0.002108
 84,0.00599932,-0.00061178,0.00052158,0.00078243,0.07786042,-0.01137240
 ,-0.06969393,-0.00002052,-0.00000555,-0.00000475,-0.00000043,0.0000038
 4,-0.00000179,-0.00000221,0.00000257,0.00000161,0.00000516,0.00000089,
 -0.00000555,-0.00000386,-0.00001705,0.00000116,-0.00000841,0.00001952,
 0.00002241,0.00008460,0.00001279,0.00003606,0.00002133,-0.00007738,0.0
 0001465,-0.00002479,-0.00036508,0.00036394,-0.00003832,0.00011681,0.00
 065249,-0.00004836,0.00022155,-0.00001508,0.00019963,-0.00040982,0.000
 89401,-0.00004760,-0.00037056,0.00033562,0.00016398,0.00043022,-0.0003
 1751,0.00034005,0.00011672,-0.00037629,0.01337242,-0.00365931,-0.00407
 958,0.01788873,-0.00216809,-0.00506101,-0.07234252,0.01235222,0.076705
 78\\0.00000437,0.00000087,0.00000040,-0.00000485,0.00000047,-0.0000007
 5,-0.00000244,-0.00000302,-0.00000169,0.00000156,0.00000449,-0.0000035
 7,0.00001152,-0.00001533,-0.00000065,0.00000058,0.00000331,0.00000510,
 -0.00001225,0.00000546,-0.00000710,0.00000552,0.00000291,0.00000561,-0
 .00000418,0.00000485,-0.00000394,0.00000010,-0.00000035,-0.00000046,-0
 .00000103,0.00000038,-0.00000058,0.00000024,-0.00000049,-0.00000002,-0
 .00000005,-0.00000040,-0.00000034,0.00000004,-0.00000014,0.00000048,-0
 .00000029,0.00000107,0.00000105,0.00000194,-0.00000125,0.00000217,0.00
 000022,-0.00000467,-0.00000102,-0.00000081,0.00000065,-0.00000251,-0.0
 0000033,0.00000128,0.00000269,0.00000277,0.00000201,0.00000181,-0.0000
 0004,-0.00000045,-0.00000025,-0.00000170,-0.00000107,0.00000087,-0.000
 00041,-0.00000020,-0.00000165,0.00000009,-0.00000085,0.00000079,-0.000
 00097,-0.00000126,-0.00000003,-0.00000031,0.00000115,0.00000162,0.0000
 0073,0.00000057,0.00000200\\\@


 In the beginning the Universe was created.
 This has made a lot of people very angry
 and been widely regarded as a bad move.
                               -D.Adams
 Job cpu time:       0 days  3 hours 38 minutes 25.6 seconds.
 Elapsed time:       0 days  0 hours 54 minutes 39.7 seconds.
 File lengths (MBytes):  RWF=    230 Int=      0 D2E=      0 Chk=     11 Scr=      1
 Normal termination of Gaussian 16 at Tue Jun  1 13:47:09 2021.
### All Done ###
