### Starting Gaussian ###
 Entering Gaussian System, Link 0=g16
 Initial command:
 /cluster/software/gaussian/gaussian-16-A.03/avx2/g16/l1.exe "/local/scratch/cz9n3/Gau-20264.inp" -scrdir="/local/scratch/cz9n3/"
 Entering Link 1 = /cluster/software/gaussian/gaussian-16-A.03/avx2/g16/l1.exe PID=     20265.
  
 Copyright (c) 1988,1990,1992,1993,1995,1998,2003,2009,2016,
            Gaussian, Inc.  All Rights Reserved.
  
 This is part of the Gaussian(R) 16 program.  It is based on
 the Gaussian(R) 09 system (copyright 2009, Gaussian, Inc.),
 the Gaussian(R) 03 system (copyright 2003, Gaussian, Inc.),
 the Gaussian(R) 98 system (copyright 1998, Gaussian, Inc.),
 the Gaussian(R) 94 system (copyright 1995, Gaussian, Inc.),
 the Gaussian 92(TM) system (copyright 1992, Gaussian, Inc.),
 the Gaussian 90(TM) system (copyright 1990, Gaussian, Inc.),
 the Gaussian 88(TM) system (copyright 1988, Gaussian, Inc.),
 the Gaussian 86(TM) system (copyright 1986, Carnegie Mellon
 University), and the Gaussian 82(TM) system (copyright 1983,
 Carnegie Mellon University). Gaussian is a federally registered
 trademark of Gaussian, Inc.
  
 This software contains proprietary and confidential information,
 including trade secrets, belonging to Gaussian, Inc.
  
 This software is provided under written license and may be
 used, copied, transmitted, or stored only in accord with that
 written license.
  
 The following legend is applicable only to US Government
 contracts under FAR:
  
                    RESTRICTED RIGHTS LEGEND
  
 Use, reproduction and disclosure by the US Government is
 subject to restrictions as set forth in subparagraphs (a)
 and (c) of the Commercial Computer Software - Restricted
 Rights clause in FAR 52.227-19.
  
 Gaussian, Inc.
 340 Quinnipiac St., Bldg. 40, Wallingford CT 06492
  
  
 ---------------------------------------------------------------
 Warning -- This program may not be used in any manner that
 competes with the business of Gaussian, Inc. or will provide
 assistance to any competitor of Gaussian, Inc.  The licensee
 of this program is prohibited from giving any competitor of
 Gaussian, Inc. access to this program.  By using this program,
 the user acknowledges that Gaussian, Inc. is engaged in the
 business of creating and licensing software in the field of
 computational chemistry and represents and warrants to the
 licensee that it is not a competitor of Gaussian, Inc. and that
 it will not use this program in any manner prohibited above.
 ---------------------------------------------------------------
  

 Cite this work as:
 Gaussian 16, Revision A.03,
 M. J. Frisch, G. W. Trucks, H. B. Schlegel, G. E. Scuseria, 
 M. A. Robb, J. R. Cheeseman, G. Scalmani, V. Barone, 
 G. A. Petersson, H. Nakatsuji, X. Li, M. Caricato, A. V. Marenich, 
 J. Bloino, B. G. Janesko, R. Gomperts, B. Mennucci, H. P. Hratchian, 
 J. V. Ortiz, A. F. Izmaylov, J. L. Sonnenberg, D. Williams-Young, 
 F. Ding, F. Lipparini, F. Egidi, J. Goings, B. Peng, A. Petrone, 
 T. Henderson, D. Ranasinghe, V. G. Zakrzewski, J. Gao, N. Rega, 
 G. Zheng, W. Liang, M. Hada, M. Ehara, K. Toyota, R. Fukuda, 
 J. Hasegawa, M. Ishida, T. Nakajima, Y. Honda, O. Kitao, H. Nakai, 
 T. Vreven, K. Throssell, J. A. Montgomery, Jr., J. E. Peralta, 
 F. Ogliaro, M. J. Bearpark, J. J. Heyd, E. N. Brothers, K. N. Kudin, 
 V. N. Staroverov, T. A. Keith, R. Kobayashi, J. Normand, 
 K. Raghavachari, A. P. Rendell, J. C. Burant, S. S. Iyengar, 
 J. Tomasi, M. Cossi, J. M. Millam, M. Klene, C. Adamo, R. Cammi, 
 J. W. Ochterski, R. L. Martin, K. Morokuma, O. Farkas, 
 J. B. Foresman, and D. J. Fox, Gaussian, Inc., Wallingford CT, 2016.
 
 ******************************************
 Gaussian 16:  ES64L-G16RevA.03 25-Dec-2016
                 1-Jun-2021 
 ******************************************
 %chk=CCCC1NCdCNC1NC.chk
 %NProcShared=20
 Will use up to   20 processors via shared memory.
 -----------------------------
 # opt freq b3lyp/6-31g(2df,p)
 -----------------------------
 1/18=20,19=15,26=3,38=1/1,3;
 2/9=110,12=2,17=6,18=5,40=1/2;
 3/5=1,6=6,7=104,11=2,25=1,30=1,71=1,74=-5/1,2,3;
 4//1;
 5/5=2,38=5/2;
 6/7=2,8=2,9=2,10=2,28=1/1;
 7//1,2,3,16;
 1/18=20,19=15,26=3/3(2);
 2/9=110/2;
 99//99;
 2/9=110/2;
 3/5=1,6=6,7=104,11=2,25=1,30=1,71=1,74=-5/1,2,3;
 4/5=5,16=3,69=1/1;
 5/5=2,38=5/2;
 7//1,2,3,16;
 1/18=20,19=15,26=3/3(-5);
 2/9=110/2;
 6/7=2,8=2,9=2,10=2,19=2,28=1/1;
 99/9=1/99;
 -------------------
 Title Card Required
 -------------------
 Symbolic Z-matrix:
 Charge =  0 Multiplicity = 1
 C                     0.89192   0.01963   0.02881 
 C                     2.39718   0.01745   0.04602 
 C                     2.99792  -1.1525    0.83063 
 C                     4.54366  -1.2269    0.80364 
 N                     4.93354  -2.43289   0.05777 
 C                     5.82042  -2.38495  -0.97648 
 C                     6.29222  -1.22605  -1.46128 
 N                     6.05481  -0.01645  -0.86572 
 C                     5.2471    0.14729   0.33946 
 N                     5.82809   0.89468   1.46705 
 C                     4.96498   0.95516   2.64186 
 H                     0.54609   0.89194  -0.53536 
 H                     0.50645   0.09471   1.04881 
 H                     0.50963  -0.88484  -0.4462 
 H                     2.67972   0.96958   0.50947 
 H                     2.76686   0.00368  -0.98715 
 H                     2.5784   -2.08855   0.44099 
 H                     2.67044  -1.08226   1.87511 
 H                     4.89248  -1.46822   1.81245 
 H                     4.83028  -3.31853   0.54497 
 H                     6.09142  -3.34655  -1.39328 
 H                     6.91613  -1.19212  -2.34492 
 H                     6.24186   0.81533  -1.41218 
 H                     4.49765   0.84366  -0.02231 
 H                     5.98967   1.84048   1.1273 
 H                     4.78407  -0.02259   3.09757 
 H                     3.99621   1.41456   2.42358 
 H                     5.46068   1.53865   3.4197 
 

 GradGradGradGradGradGradGradGradGradGradGradGradGradGradGradGradGradGrad
 Berny optimization.
 Initialization pass.
                           ----------------------------
                           !    Initial Parameters    !
                           ! (Angstroms and Degrees)  !
 --------------------------                            --------------------------
 ! Name  Definition              Value          Derivative Info.                !
 --------------------------------------------------------------------------------
 ! R1    R(1,2)                  1.5054         estimate D2E/DX2                !
 ! R2    R(1,12)                 1.0949         estimate D2E/DX2                !
 ! R3    R(1,13)                 1.093          estimate D2E/DX2                !
 ! R4    R(1,14)                 1.0908         estimate D2E/DX2                !
 ! R5    R(2,3)                  1.5314         estimate D2E/DX2                !
 ! R6    R(2,15)                 1.096          estimate D2E/DX2                !
 ! R7    R(2,16)                 1.0974         estimate D2E/DX2                !
 ! R8    R(3,4)                  1.5478         estimate D2E/DX2                !
 ! R9    R(3,17)                 1.0973         estimate D2E/DX2                !
 ! R10   R(3,18)                 1.0969         estimate D2E/DX2                !
 ! R11   R(4,5)                  1.4706         estimate D2E/DX2                !
 ! R12   R(4,9)                  1.612          estimate D2E/DX2                !
 ! R13   R(4,19)                 1.0944         estimate D2E/DX2                !
 ! R14   R(5,6)                  1.3633         estimate D2E/DX2                !
 ! R15   R(5,20)                 1.0161         estimate D2E/DX2                !
 ! R16   R(6,7)                  1.3419         estimate D2E/DX2                !
 ! R17   R(6,21)                 1.0825         estimate D2E/DX2                !
 ! R18   R(7,8)                  1.369          estimate D2E/DX2                !
 ! R19   R(7,22)                 1.0822         estimate D2E/DX2                !
 ! R20   R(8,9)                  1.46           estimate D2E/DX2                !
 ! R21   R(8,23)                 1.0127         estimate D2E/DX2                !
 ! R22   R(9,10)                 1.4723         estimate D2E/DX2                !
 ! R23   R(9,24)                 1.0851         estimate D2E/DX2                !
 ! R24   R(10,11)                1.459          estimate D2E/DX2                !
 ! R25   R(10,25)                1.0179         estimate D2E/DX2                !
 ! R26   R(11,26)                1.0938         estimate D2E/DX2                !
 ! R27   R(11,27)                1.0942         estimate D2E/DX2                !
 ! R28   R(11,28)                1.0914         estimate D2E/DX2                !
 ! A1    A(2,1,12)             108.8371         estimate D2E/DX2                !
 ! A2    A(2,1,13)             110.0038         estimate D2E/DX2                !
 ! A3    A(2,1,14)             110.7458         estimate D2E/DX2                !
 ! A4    A(12,1,13)            108.3451         estimate D2E/DX2                !
 ! A5    A(12,1,14)            108.9976         estimate D2E/DX2                !
 ! A6    A(13,1,14)            109.8614         estimate D2E/DX2                !
 ! A7    A(1,2,3)              113.5289         estimate D2E/DX2                !
 ! A8    A(1,2,15)             105.1506         estimate D2E/DX2                !
 ! A9    A(1,2,16)             109.0323         estimate D2E/DX2                !
 ! A10   A(3,2,15)             110.2375         estimate D2E/DX2                !
 ! A11   A(3,2,16)             109.9146         estimate D2E/DX2                !
 ! A12   A(15,2,16)            108.7943         estimate D2E/DX2                !
 ! A13   A(2,3,4)              114.8061         estimate D2E/DX2                !
 ! A14   A(2,3,17)             108.6509         estimate D2E/DX2                !
 ! A15   A(2,3,18)             108.7736         estimate D2E/DX2                !
 ! A16   A(4,3,17)             109.5501         estimate D2E/DX2                !
 ! A17   A(4,3,18)             108.5331         estimate D2E/DX2                !
 ! A18   A(17,3,18)            106.1778         estimate D2E/DX2                !
 ! A19   A(3,4,5)              108.2418         estimate D2E/DX2                !
 ! A20   A(3,4,9)              113.5681         estimate D2E/DX2                !
 ! A21   A(3,4,19)             108.2313         estimate D2E/DX2                !
 ! A22   A(5,4,9)              115.9336         estimate D2E/DX2                !
 ! A23   A(5,4,19)             101.6655         estimate D2E/DX2                !
 ! A24   A(9,4,19)             108.3201         estimate D2E/DX2                !
 ! A25   A(4,5,6)              121.8975         estimate D2E/DX2                !
 ! A26   A(4,5,20)             116.4013         estimate D2E/DX2                !
 ! A27   A(6,5,20)             117.4217         estimate D2E/DX2                !
 ! A28   A(5,6,7)              122.2208         estimate D2E/DX2                !
 ! A29   A(5,6,21)             115.07           estimate D2E/DX2                !
 ! A30   A(7,6,21)             122.6865         estimate D2E/DX2                !
 ! A31   A(6,7,8)              123.0198         estimate D2E/DX2                !
 ! A32   A(6,7,22)             121.6517         estimate D2E/DX2                !
 ! A33   A(8,7,22)             115.3073         estimate D2E/DX2                !
 ! A34   A(7,8,9)              123.6504         estimate D2E/DX2                !
 ! A35   A(7,8,23)             117.3197         estimate D2E/DX2                !
 ! A36   A(9,8,23)             117.0978         estimate D2E/DX2                !
 ! A37   A(4,9,8)              112.5499         estimate D2E/DX2                !
 ! A38   A(4,9,10)             112.6069         estimate D2E/DX2                !
 ! A39   A(4,9,24)             109.9789         estimate D2E/DX2                !
 ! A40   A(8,9,10)             118.0875         estimate D2E/DX2                !
 ! A41   A(8,9,24)             100.3032         estimate D2E/DX2                !
 ! A42   A(10,9,24)            101.6604         estimate D2E/DX2                !
 ! A43   A(9,10,11)            113.8463         estimate D2E/DX2                !
 ! A44   A(9,10,25)            106.1826         estimate D2E/DX2                !
 ! A45   A(11,10,25)           108.914          estimate D2E/DX2                !
 ! A46   A(10,11,26)           113.3444         estimate D2E/DX2                !
 ! A47   A(10,11,27)           112.3669         estimate D2E/DX2                !
 ! A48   A(10,11,28)           109.1071         estimate D2E/DX2                !
 ! A49   A(26,11,27)           108.1792         estimate D2E/DX2                !
 ! A50   A(26,11,28)           104.8379         estimate D2E/DX2                !
 ! A51   A(27,11,28)           108.653          estimate D2E/DX2                !
 ! D1    D(12,1,2,3)           179.0902         estimate D2E/DX2                !
 ! D2    D(12,1,2,15)           58.5089         estimate D2E/DX2                !
 ! D3    D(12,1,2,16)          -58.0089         estimate D2E/DX2                !
 ! D4    D(13,1,2,3)            60.5291         estimate D2E/DX2                !
 ! D5    D(13,1,2,15)          -60.0522         estimate D2E/DX2                !
 ! D6    D(13,1,2,16)         -176.57           estimate D2E/DX2                !
 ! D7    D(14,1,2,3)           -61.1069         estimate D2E/DX2                !
 ! D8    D(14,1,2,15)          178.3118         estimate D2E/DX2                !
 ! D9    D(14,1,2,16)           61.794          estimate D2E/DX2                !
 ! D10   D(1,2,3,4)            176.8521         estimate D2E/DX2                !
 ! D11   D(1,2,3,17)            53.8219         estimate D2E/DX2                !
 ! D12   D(1,2,3,18)           -61.3488         estimate D2E/DX2                !
 ! D13   D(15,2,3,4)           -65.4807         estimate D2E/DX2                !
 ! D14   D(15,2,3,17)          171.4891         estimate D2E/DX2                !
 ! D15   D(15,2,3,18)           56.3184         estimate D2E/DX2                !
 ! D16   D(16,2,3,4)            54.4379         estimate D2E/DX2                !
 ! D17   D(16,2,3,17)          -68.5922         estimate D2E/DX2                !
 ! D18   D(16,2,3,18)          176.2371         estimate D2E/DX2                !
 ! D19   D(2,3,4,5)           -113.177          estimate D2E/DX2                !
 ! D20   D(2,3,4,9)             17.0752         estimate D2E/DX2                !
 ! D21   D(2,3,4,19)           137.3895         estimate D2E/DX2                !
 ! D22   D(17,3,4,5)             9.3698         estimate D2E/DX2                !
 ! D23   D(17,3,4,9)           139.622          estimate D2E/DX2                !
 ! D24   D(17,3,4,19)         -100.0637         estimate D2E/DX2                !
 ! D25   D(18,3,4,5)           124.8932         estimate D2E/DX2                !
 ! D26   D(18,3,4,9)          -104.8546         estimate D2E/DX2                !
 ! D27   D(18,3,4,19)           15.4597         estimate D2E/DX2                !
 ! D28   D(3,4,5,6)            127.9466         estimate D2E/DX2                !
 ! D29   D(3,4,5,20)           -75.9065         estimate D2E/DX2                !
 ! D30   D(9,4,5,6)             -0.9868         estimate D2E/DX2                !
 ! D31   D(9,4,5,20)           155.16           estimate D2E/DX2                !
 ! D32   D(19,4,5,6)          -118.1996         estimate D2E/DX2                !
 ! D33   D(19,4,5,20)           37.9473         estimate D2E/DX2                !
 ! D34   D(3,4,9,8)           -119.6638         estimate D2E/DX2                !
 ! D35   D(3,4,9,10)           103.8564         estimate D2E/DX2                !
 ! D36   D(3,4,9,24)            -8.7462         estimate D2E/DX2                !
 ! D37   D(5,4,9,8)              6.6277         estimate D2E/DX2                !
 ! D38   D(5,4,9,10)          -129.8522         estimate D2E/DX2                !
 ! D39   D(5,4,9,24)           117.5453         estimate D2E/DX2                !
 ! D40   D(19,4,9,8)           120.0721         estimate D2E/DX2                !
 ! D41   D(19,4,9,10)          -16.4077         estimate D2E/DX2                !
 ! D42   D(19,4,9,24)         -129.0102         estimate D2E/DX2                !
 ! D43   D(4,5,6,7)             -6.5836         estimate D2E/DX2                !
 ! D44   D(4,5,6,21)           175.1032         estimate D2E/DX2                !
 ! D45   D(20,5,6,7)          -162.5002         estimate D2E/DX2                !
 ! D46   D(20,5,6,21)           19.1866         estimate D2E/DX2                !
 ! D47   D(5,6,7,8)              8.0719         estimate D2E/DX2                !
 ! D48   D(5,6,7,22)          -173.683          estimate D2E/DX2                !
 ! D49   D(21,6,7,8)          -173.7435         estimate D2E/DX2                !
 ! D50   D(21,6,7,22)            4.5016         estimate D2E/DX2                !
 ! D51   D(6,7,8,9)             -1.1913         estimate D2E/DX2                !
 ! D52   D(6,7,8,23)          -164.8836         estimate D2E/DX2                !
 ! D53   D(22,7,8,9)          -179.5389         estimate D2E/DX2                !
 ! D54   D(22,7,8,23)           16.7688         estimate D2E/DX2                !
 ! D55   D(7,8,9,4)             -5.8749         estimate D2E/DX2                !
 ! D56   D(7,8,9,10)           128.0243         estimate D2E/DX2                !
 ! D57   D(7,8,9,24)          -122.7153         estimate D2E/DX2                !
 ! D58   D(23,8,9,4)           157.8508         estimate D2E/DX2                !
 ! D59   D(23,8,9,10)          -68.25           estimate D2E/DX2                !
 ! D60   D(23,8,9,24)           41.0103         estimate D2E/DX2                !
 ! D61   D(4,9,10,11)          -43.7373         estimate D2E/DX2                !
 ! D62   D(4,9,10,25)         -163.5586         estimate D2E/DX2                !
 ! D63   D(8,9,10,11)         -177.6118         estimate D2E/DX2                !
 ! D64   D(8,9,10,25)           62.5668         estimate D2E/DX2                !
 ! D65   D(24,9,10,11)          73.8981         estimate D2E/DX2                !
 ! D66   D(24,9,10,25)         -45.9232         estimate D2E/DX2                !
 ! D67   D(9,10,11,26)          64.6031         estimate D2E/DX2                !
 ! D68   D(9,10,11,27)         -58.4248         estimate D2E/DX2                !
 ! D69   D(9,10,11,28)        -178.9934         estimate D2E/DX2                !
 ! D70   D(25,10,11,26)       -177.1312         estimate D2E/DX2                !
 ! D71   D(25,10,11,27)         59.8409         estimate D2E/DX2                !
 ! D72   D(25,10,11,28)        -60.7277         estimate D2E/DX2                !
 --------------------------------------------------------------------------------
 Trust Radius=3.00D-01 FncErr=1.00D-07 GrdErr=1.00D-06 EigMax=2.50D+02 EigMin=1.00D-04
 Number of steps in this run=    161 maximum allowed number of steps=    168.
 GradGradGradGradGradGradGradGradGradGradGradGradGradGradGradGradGradGrad

                          Input orientation:                          
 ---------------------------------------------------------------------
 Center     Atomic      Atomic             Coordinates (Angstroms)
 Number     Number       Type             X           Y           Z
 ---------------------------------------------------------------------
      1          6           0        0.891920    0.019630    0.028810
      2          6           0        2.397180    0.017450    0.046020
      3          6           0        2.997920   -1.152500    0.830630
      4          6           0        4.543660   -1.226900    0.803640
      5          7           0        4.933540   -2.432890    0.057770
      6          6           0        5.820420   -2.384950   -0.976480
      7          6           0        6.292220   -1.226050   -1.461280
      8          7           0        6.054810   -0.016450   -0.865720
      9          6           0        5.247100    0.147290    0.339460
     10          7           0        5.828090    0.894680    1.467050
     11          6           0        4.964980    0.955160    2.641860
     12          1           0        0.546090    0.891940   -0.535360
     13          1           0        0.506450    0.094710    1.048810
     14          1           0        0.509630   -0.884840   -0.446200
     15          1           0        2.679720    0.969580    0.509470
     16          1           0        2.766860    0.003680   -0.987150
     17          1           0        2.578400   -2.088550    0.440990
     18          1           0        2.670440   -1.082260    1.875110
     19          1           0        4.892480   -1.468220    1.812450
     20          1           0        4.830280   -3.318530    0.544970
     21          1           0        6.091420   -3.346550   -1.393280
     22          1           0        6.916130   -1.192120   -2.344920
     23          1           0        6.241860    0.815330   -1.412180
     24          1           0        4.497650    0.843660   -0.022310
     25          1           0        5.989670    1.840480    1.127300
     26          1           0        4.784070   -0.022590    3.097570
     27          1           0        3.996210    1.414560    2.423580
     28          1           0        5.460680    1.538650    3.419700
 ---------------------------------------------------------------------
                    Distance matrix (angstroms):
                    1          2          3          4          5
     1  C    0.000000
     2  C    1.505360   0.000000
     3  C    2.540087   1.531432   0.000000
     4  C    3.935658   2.594180   1.547765   0.000000
     5  N    4.727619   3.526674   2.446086   1.470626   0.000000
     6  C    5.575188   4.305300   3.570866   2.477907   1.363278
     7  C    5.738931   4.357704   4.013810   2.861350   2.368541
     8  N    5.239935   3.769705   3.675975   2.556468   2.819444
     9  C    4.368111   2.867928   2.643769   1.612045   2.614383
    10  N    5.215364   3.815757   3.550470   2.567289   3.722769
    11  C    4.928799   3.769785   3.404719   2.884085   4.261149
    12  H    1.094902   2.128208   3.472338   4.718365   5.536787
    13  H    1.092989   2.141592   2.794738   4.255094   5.193269
    14  H    1.090801   2.149245   2.809542   4.237039   4.713961
    15  H    2.080785   1.095977   2.169705   2.895744   4.106159
    16  H    2.132564   1.097403   2.166671   2.806826   3.423921
    17  H    2.731031   2.150367   1.097272   2.176282   2.410832
    18  H    2.790362   2.151651   1.096866   2.162850   3.201335
    19  H    4.625965   3.399119   2.157083   1.094353   2.002792
    20  H    5.188488   4.159049   2.851461   2.126964   1.016063
    21  H    6.355180   5.199566   4.396518   3.422709   2.069059
    22  H    6.587415   5.253624   5.043615   3.942493   3.353072
    23  H    5.597450   4.188618   4.407459   3.458966   3.797814
    24  H    3.699044   2.258155   2.638437   2.229693   3.306387
    25  H    5.523516   4.171162   4.242229   3.406541   4.530011
    26  H    4.956602   3.874378   3.099362   2.601975   3.882302
    27  H    4.161414   3.187727   3.181803   3.146620   4.612864
    28  H    5.888898   4.804248   4.473339   3.915733   5.230065
                    6          7          8          9         10
     6  C    0.000000
     7  C    1.341893   0.000000
     8  N    2.382645   1.369010   0.000000
     9  C    2.910779   2.494194   1.460022   0.000000
    10  N    4.089850   3.645275   2.514632   1.472277   0.000000
    11  C    4.998049   4.832701   3.799325   2.456276   1.459039
    12  H    6.225042   6.193643   5.592880   4.839350   5.648821
    13  H    6.203933   6.443609   5.870441   4.793715   5.397660
    14  H    5.544007   5.880915   5.628421   4.911840   5.925642
    15  H    4.829587   4.664204   3.775531   2.701204   3.291626
    16  H    3.876841   3.763668   3.290253   2.816400   4.023445
    17  H    3.550742   4.260868   4.252824   3.482994   4.529122
    18  H    4.444203   4.926405   4.483532   3.241788   3.747740
    19  H    3.078895   3.568645   3.260558   2.214797   2.564754
    20  H    2.041264   3.246657   3.793844   3.496839   4.426849
    21  H    1.082515   2.131071   3.371828   3.990261   5.122388
    22  H    2.120390   1.082236   2.076561   3.433013   4.479920
    23  H    3.257183   2.042591   1.012652   2.122279   2.909891
    24  H    3.617193   3.094320   1.968725   1.085119   1.997715
    25  H    4.723219   4.024412   2.724805   2.009725   1.017878
    26  H    4.822100   4.950348   4.162029   2.801861   2.142419
    27  H    5.415203   5.228443   4.135833   2.741214   2.130964
    28  H    5.903427   5.670890   4.597407   3.386647   2.088667
                   11         12         13         14         15
    11  C    0.000000
    12  H    5.442914   0.000000
    13  H    4.812138   1.773906   0.000000
    14  H    5.724671   1.779389   1.787340   0.000000
    15  H    3.125653   2.376989   2.404036   3.010227   0.000000
    16  H    4.348190   2.434120   3.043497   2.485394   1.783375
    17  H    4.450142   3.737227   3.070675   2.552613   3.060574
    18  H    3.162894   3.771034   2.598246   3.177508   2.464773
    19  H    2.562411   5.474822   4.718385   4.964998   3.540753
    20  H    4.762302   6.103233   5.531688   5.057003   4.797297
    21  H    6.004659   7.032177   6.999855   6.173602   5.821437
    22  H    5.769382   6.942278   7.365958   6.689006   5.546860
    23  H    4.252672   5.763374   6.282571   6.056580   4.050355
    24  H    2.707145   3.985019   4.199750   4.367116   1.898293
    25  H    2.031668   5.770332   5.754961   6.319344   3.477923
    26  H    1.093798   5.656414   4.744387   5.618952   3.480079
    27  H    1.094171   4.575127   3.976232   5.067457   2.365369
    28  H    1.091428   6.341445   5.678950   6.732858   4.065344
                   16         17         18         19         20
    16  H    0.000000
    17  H    2.540183   0.000000
    18  H    3.062857   1.754363   0.000000
    19  H    3.810841   2.760558   2.256181   0.000000
    20  H    4.200259   2.568000   3.381580   2.243663   0.000000
    21  H    4.737265   4.157935   5.245235   3.904137   2.312590
    22  H    4.526579   5.232665   5.987204   4.631967   4.150163
    23  H    3.593752   5.028687   5.211733   4.175364   4.786626
    24  H    2.152235   3.534971   3.263138   2.977755   4.213820
    25  H    4.269805   5.248339   4.485412   3.552570   5.319650
    26  H    4.555740   4.023753   2.661718   1.937300   4.169067
    27  H    3.890368   4.267626   2.879687   3.080130   5.160135
    28  H    5.388240   5.507888   4.127998   3.456497   5.679232
                   21         22         23         24         25
    21  H    0.000000
    22  H    2.495463   0.000000
    23  H    4.164641   2.313979   0.000000
    24  H    4.688019   3.922749   2.230428   0.000000
    25  H    5.767925   4.702266   2.750180   2.131051   0.000000
    26  H    5.738084   5.961055   4.813014   3.250550   2.967569
    27  H    6.451860   6.169222   4.484983   2.561200   2.415705
    28  H    6.886784   6.542651   4.947777   3.641136   2.371925
                   26         27         28
    26  H    0.000000
    27  H    1.772113   0.000000
    28  H    1.731773   1.775479   0.000000
 Stoichiometry    C8H17N3
 Framework group  C1[X(C8H17N3)]
 Deg. of freedom    78
 Full point group                 C1      NOp   1
 Largest Abelian subgroup         C1      NOp   1
 Largest concise Abelian subgroup C1      NOp   1
                         Standard orientation:                         
 ---------------------------------------------------------------------
 Center     Atomic      Atomic             Coordinates (Angstroms)
 Number     Number       Type             X           Y           Z
 ---------------------------------------------------------------------
      1          6           0       -3.347916   -1.184022   -0.647576
      2          6           0       -1.962247   -0.597193   -0.606794
      3          6           0       -1.315633   -0.652134    0.780345
      4          6           0        0.138831   -0.126262    0.840086
      5          7           0        1.025640   -1.258847    1.145967
      6          6           0        2.119266   -1.543817    0.383536
      7          6           0        2.382582   -0.894372   -0.760825
      8          7           0        1.677372    0.203591   -1.174762
      9          6           0        0.553259    0.769399   -0.434563
     10          7           0        0.578319    2.209645   -0.130154
     11          6           0       -0.561149    2.665709    0.658778
     12          1           0       -3.741564   -1.090667   -1.664993
     13          1           0       -4.007202   -0.633354    0.028242
     14          1           0       -3.329250   -2.238601   -0.369435
     15          1           0       -2.082432    0.443715   -0.928090
     16          1           0       -1.330125   -1.121204   -1.334892
     17          1           0       -1.346701   -1.687901    1.141215
     18          1           0       -1.926895   -0.066909    1.478189
     19          1           0        0.244488    0.486920    1.740338
     20          1           0        1.029546   -1.582301    2.109163
     21          1           0        2.740103   -2.349111    0.754885
     22          1           0        3.195252   -1.193882   -1.409744
     23          1           0        1.781572    0.485433   -2.141805
     24          1           0       -0.222705    0.718672   -1.191393
     25          1           0        0.571344    2.689485   -1.027806
     26          1           0       -0.595784    2.230738    1.661771
     27          1           0       -1.516713    2.463256    0.165706
     28          1           0       -0.474215    3.741147    0.823366
 ---------------------------------------------------------------------
 Rotational constants (GHZ):           1.2286246           0.8757840           0.6563112
 Standard basis: 6-31G(2df,p) (6D, 7F)
 There are   426 symmetry adapted cartesian basis functions of A   symmetry.
 There are   393 symmetry adapted basis functions of A   symmetry.
   393 basis functions,   603 primitive gaussians,   426 cartesian basis functions
    43 alpha electrons       43 beta electrons
       nuclear repulsion energy       668.8490137610 Hartrees.
 NAtoms=   28 NActive=   28 NUniq=   28 SFac= 1.00D+00 NAtFMM=   60 NAOKFM=F Big=F
 Integral buffers will be    131072 words long.
 Raffenetti 2 integral format.
 Two-electron integral symmetry is turned on.
 One-electron integrals computed using PRISM.
 PrsmSu:  requested number of processors reduced to:  13 ShMem   1 Linda.
 NBasis=   393 RedAO= T EigKep=  1.77D-04  NBF=   393
 NBsUse=   393 1.00D-06 EigRej= -1.00D+00 NBFU=   393
 ExpMin= 1.61D-01 ExpMax= 4.17D+03 ExpMxC= 6.27D+02 IAcc=3 IRadAn=         5 AccDes= 0.00D+00
 Harris functional with IExCor=  402 and IRadAn=       5 diagonalized for initial guess.
 HarFok:  IExCor=  402 AccDes= 0.00D+00 IRadAn=         5 IDoV= 1 UseB2=F ITyADJ=14
 ICtDFT=  3500011 ScaDFX=  1.000000  1.000000  1.000000  1.000000
 FoFCou: FMM=F IPFlag=           0 FMFlag=      100000 FMFlg1=           0
         NFxFlg=           0 DoJE=T BraDBF=F KetDBF=T FulRan=T
         wScrn=  0.000000 ICntrl=       500 IOpCl=  0 I1Cent=   200000004 NGrid=           0
         NMat0=    1 NMatS0=      1 NMatT0=    0 NMatD0=    1 NMtDS0=    0 NMtDT0=    0
 Petite list used in FoFCou.
 Requested convergence on RMS density matrix=1.00D-08 within 128 cycles.
 Requested convergence on MAX density matrix=1.00D-06.
 Requested convergence on             energy=1.00D-06.
 No special actions if energy rises.
 Integral accuracy reduced to 1.0D-05 until final iterations.
 Initial convergence to 1.0D-05 achieved.  Increase integral accuracy.
 SCF Done:  E(RB3LYP) =  -479.292466113     A.U. after   14 cycles
            NFock= 14  Conv=0.29D-08     -V/T= 2.0078

 **********************************************************************

            Population analysis using the SCF density.

 **********************************************************************

 Orbital symmetries:
       Occupied  (A) (A) (A) (A) (A) (A) (A) (A) (A) (A) (A) (A)
                 (A) (A) (A) (A) (A) (A) (A) (A) (A) (A) (A) (A)
                 (A) (A) (A) (A) (A) (A) (A) (A) (A) (A) (A) (A)
                 (A) (A) (A) (A) (A) (A) (A)
       Virtual   (A) (A) (A) (A) (A) (A) (A) (A) (A) (A) (A) (A)
                 (A) (A) (A) (A) (A) (A) (A) (A) (A) (A) (A) (A)
                 (A) (A) (A) (A) (A) (A) (A) (A) (A) (A) (A) (A)
                 (A) (A) (A) (A) (A) (A) (A) (A) (A) (A) (A) (A)
                 (A) (A) (A) (A) (A) (A) (A) (A) (A) (A) (A) (A)
                 (A) (A) (A) (A) (A) (A) (A) (A) (A) (A) (A) (A)
                 (A) (A) (A) (A) (A) (A) (A) (A) (A) (A) (A) (A)
                 (A) (A) (A) (A) (A) (A) (A) (A) (A) (A) (A) (A)
                 (A) (A) (A) (A) (A) (A) (A) (A) (A) (A) (A) (A)
                 (A) (A) (A) (A) (A) (A) (A) (A) (A) (A) (A) (A)
                 (A) (A) (A) (A) (A) (A) (A) (A) (A) (A) (A) (A)
                 (A) (A) (A) (A) (A) (A) (A) (A) (A) (A) (A) (A)
                 (A) (A) (A) (A) (A) (A) (A) (A) (A) (A) (A) (A)
                 (A) (A) (A) (A) (A) (A) (A) (A) (A) (A) (A) (A)
                 (A) (A) (A) (A) (A) (A) (A) (A) (A) (A) (A) (A)
                 (A) (A) (A) (A) (A) (A) (A) (A) (A) (A) (A) (A)
                 (A) (A) (A) (A) (A) (A) (A) (A) (A) (A) (A) (A)
                 (A) (A) (A) (A) (A) (A) (A) (A) (A) (A) (A) (A)
                 (A) (A) (A) (A) (A) (A) (A) (A) (A) (A) (A) (A)
                 (A) (A) (A) (A) (A) (A) (A) (A) (A) (A) (A) (A)
                 (A) (A) (A) (A) (A) (A) (A) (A) (A) (A) (A) (A)
                 (A) (A) (A) (A) (A) (A) (A) (A) (A) (A) (A) (A)
                 (A) (A) (A) (A) (A) (A) (A) (A) (A) (A) (A) (A)
                 (A) (A) (A) (A) (A) (A) (A) (A) (A) (A) (A) (A)
                 (A) (A) (A) (A) (A) (A) (A) (A) (A) (A) (A) (A)
                 (A) (A) (A) (A) (A) (A) (A) (A) (A) (A) (A) (A)
                 (A) (A) (A) (A) (A) (A) (A) (A) (A) (A) (A) (A)
                 (A) (A) (A) (A) (A) (A) (A) (A) (A) (A) (A) (A)
                 (A) (A) (A) (A) (A) (A) (A) (A) (A) (A) (A) (A)
                 (A) (A)
 The electronic state is 1-A.
 Alpha  occ. eigenvalues --  -14.31271 -14.31007 -14.30655 -10.23688 -10.21730
 Alpha  occ. eigenvalues --  -10.19799 -10.17300 -10.17278 -10.16670 -10.16561
 Alpha  occ. eigenvalues --  -10.16479  -0.93507  -0.89379  -0.86810  -0.79188
 Alpha  occ. eigenvalues --   -0.73873  -0.69338  -0.66836  -0.63576  -0.61707
 Alpha  occ. eigenvalues --   -0.57062  -0.52717  -0.50339  -0.49630  -0.47422
 Alpha  occ. eigenvalues --   -0.46613  -0.45033  -0.42995  -0.42104  -0.41123
 Alpha  occ. eigenvalues --   -0.40289  -0.38903  -0.37438  -0.36564  -0.35230
 Alpha  occ. eigenvalues --   -0.34719  -0.34066  -0.32061  -0.31776  -0.30841
 Alpha  occ. eigenvalues --   -0.25076  -0.20778  -0.12613
 Alpha virt. eigenvalues --    0.06800   0.07849   0.08130   0.09957   0.10973
 Alpha virt. eigenvalues --    0.12092   0.13268   0.14001   0.15163   0.15697
 Alpha virt. eigenvalues --    0.16450   0.17356   0.17970   0.18720   0.19317
 Alpha virt. eigenvalues --    0.19685   0.19985   0.21009   0.22320   0.23180
 Alpha virt. eigenvalues --    0.25325   0.26040   0.26895   0.29052   0.29494
 Alpha virt. eigenvalues --    0.30585   0.32738   0.41777   0.43356   0.44099
 Alpha virt. eigenvalues --    0.46335   0.46540   0.47849   0.50075   0.50514
 Alpha virt. eigenvalues --    0.51283   0.52081   0.52427   0.52796   0.54097
 Alpha virt. eigenvalues --    0.54541   0.56810   0.57219   0.58760   0.58904
 Alpha virt. eigenvalues --    0.61025   0.61147   0.63011   0.63645   0.65502
 Alpha virt. eigenvalues --    0.68730   0.69997   0.71173   0.71206   0.71713
 Alpha virt. eigenvalues --    0.73287   0.73763   0.74936   0.75419   0.75657
 Alpha virt. eigenvalues --    0.76370   0.77538   0.78281   0.78535   0.79384
 Alpha virt. eigenvalues --    0.80560   0.80877   0.81697   0.82212   0.82369
 Alpha virt. eigenvalues --    0.83236   0.84858   0.86436   0.86545   0.87595
 Alpha virt. eigenvalues --    0.89529   0.89958   0.91581   0.93775   0.94446
 Alpha virt. eigenvalues --    0.95202   0.96968   1.00166   1.02124   1.04939
 Alpha virt. eigenvalues --    1.07559   1.09217   1.11098   1.14168   1.15512
 Alpha virt. eigenvalues --    1.17818   1.20801   1.21287   1.23847   1.26234
 Alpha virt. eigenvalues --    1.28354   1.29746   1.31914   1.33925   1.35422
 Alpha virt. eigenvalues --    1.35686   1.36259   1.38029   1.39327   1.41135
 Alpha virt. eigenvalues --    1.42779   1.44244   1.45333   1.47632   1.49402
 Alpha virt. eigenvalues --    1.52086   1.53145   1.56305   1.59367   1.59800
 Alpha virt. eigenvalues --    1.61156   1.62989   1.65085   1.66529   1.66673
 Alpha virt. eigenvalues --    1.69734   1.70893   1.72213   1.73744   1.75734
 Alpha virt. eigenvalues --    1.77227   1.79254   1.80884   1.83126   1.84211
 Alpha virt. eigenvalues --    1.85695   1.87069   1.89883   1.91776   1.92545
 Alpha virt. eigenvalues --    1.95024   1.95294   1.95712   1.98260   1.99480
 Alpha virt. eigenvalues --    2.02973   2.05715   2.05955   2.10853   2.14461
 Alpha virt. eigenvalues --    2.14720   2.17456   2.20342   2.21847   2.23254
 Alpha virt. eigenvalues --    2.26066   2.29101   2.31209   2.33890   2.35903
 Alpha virt. eigenvalues --    2.37221   2.41176   2.41246   2.43726   2.45140
 Alpha virt. eigenvalues --    2.48502   2.50347   2.52051   2.54623   2.56793
 Alpha virt. eigenvalues --    2.57695   2.61259   2.61887   2.64176   2.68750
 Alpha virt. eigenvalues --    2.69432   2.74878   2.76158   2.77309   2.79236
 Alpha virt. eigenvalues --    2.79635   2.81114   2.83098   2.83652   2.85575
 Alpha virt. eigenvalues --    2.87128   2.88857   2.89809   2.91045   2.91539
 Alpha virt. eigenvalues --    2.92677   2.93915   2.95626   2.97216   2.97411
 Alpha virt. eigenvalues --    2.98885   3.00471   3.01393   3.01651   3.03900
 Alpha virt. eigenvalues --    3.04738   3.07012   3.08989   3.10994   3.13216
 Alpha virt. eigenvalues --    3.14405   3.15566   3.18826   3.20302   3.23956
 Alpha virt. eigenvalues --    3.24545   3.26960   3.28998   3.29111   3.32579
 Alpha virt. eigenvalues --    3.33910   3.35338   3.35833   3.37466   3.38485
 Alpha virt. eigenvalues --    3.40281   3.40794   3.43996   3.44361   3.48398
 Alpha virt. eigenvalues --    3.51682   3.54037   3.55092   3.57194   3.58510
 Alpha virt. eigenvalues --    3.59926   3.61574   3.62648   3.63791   3.65758
 Alpha virt. eigenvalues --    3.66509   3.67771   3.68610   3.71292   3.72503
 Alpha virt. eigenvalues --    3.77356   3.78470   3.81106   3.83753   3.85151
 Alpha virt. eigenvalues --    3.85706   3.89575   3.93141   3.95016   3.97688
 Alpha virt. eigenvalues --    3.98310   4.00826   4.04403   4.05921   4.08802
 Alpha virt. eigenvalues --    4.10825   4.14557   4.16563   4.18125   4.21098
 Alpha virt. eigenvalues --    4.23348   4.27826   4.29600   4.32856   4.33602
 Alpha virt. eigenvalues --    4.34750   4.35644   4.37572   4.38617   4.40727
 Alpha virt. eigenvalues --    4.41821   4.42429   4.43562   4.44342   4.47151
 Alpha virt. eigenvalues --    4.48643   4.50448   4.51867   4.52306   4.53856
 Alpha virt. eigenvalues --    4.55826   4.57645   4.58571   4.59813   4.60881
 Alpha virt. eigenvalues --    4.61699   4.63240   4.65339   4.65875   4.67155
 Alpha virt. eigenvalues --    4.68205   4.70347   4.72265   4.72565   4.74567
 Alpha virt. eigenvalues --    4.75526   4.77306   4.77675   4.78730   4.79915
 Alpha virt. eigenvalues --    4.82918   4.84000   4.85238   4.86228   4.87480
 Alpha virt. eigenvalues --    4.89222   4.91395   4.93815   4.96216   4.97860
 Alpha virt. eigenvalues --    4.99387   4.99878   5.02828   5.04602   5.04952
 Alpha virt. eigenvalues --    5.07892   5.09572   5.11247   5.15535   5.19134
 Alpha virt. eigenvalues --    5.20529   5.22905   5.26493   5.29030   5.34323
 Alpha virt. eigenvalues --    5.35735   5.39142   5.40491   5.43330   5.45570
 Alpha virt. eigenvalues --    5.49063   5.53010   5.60062   5.62320   5.65765
 Alpha virt. eigenvalues --    5.71719   5.76823   5.84291   5.88392   6.43252
 Alpha virt. eigenvalues --    6.79355  10.04974  10.63725  11.16594  11.29676
 Alpha virt. eigenvalues --   11.35943  11.45430  11.51064  11.67280  11.83090
 Alpha virt. eigenvalues --   12.20891  12.85463  14.42513  15.53854  21.38467
          Condensed to atoms (all electrons):
               1          2          3          4          5          6
     1  C    4.999832   0.394414  -0.034604   0.003384  -0.000115  -0.000000
     2  C    0.394414   4.740948   0.428502  -0.029858   0.001881   0.000275
     3  C   -0.034604   0.428502   4.928318   0.367707  -0.049603  -0.000309
     4  C    0.003384  -0.029858   0.367707   4.811916   0.360956  -0.042290
     5  N   -0.000115   0.001881  -0.049603   0.360956   6.358195   0.405185
     6  C   -0.000000   0.000275  -0.000309  -0.042290   0.405185   4.771076
     7  C    0.000010   0.000158   0.002262  -0.027955  -0.017202   0.661204
     8  N   -0.000054  -0.000451  -0.000617  -0.002249  -0.009492  -0.011502
     9  C    0.000868  -0.015559  -0.020040   0.352252  -0.010037  -0.023187
    10  N   -0.000073   0.000295   0.000871  -0.010556  -0.000699   0.000568
    11  C    0.000035  -0.001616  -0.000426  -0.010701   0.000669  -0.000103
    12  H    0.370877  -0.021665   0.003700  -0.000175   0.000002   0.000000
    13  H    0.375409  -0.026936  -0.004279   0.000096   0.000001  -0.000000
    14  H    0.373371  -0.025413  -0.004509   0.000095  -0.000013  -0.000002
    15  H   -0.040726   0.373647  -0.030380  -0.003690  -0.000159   0.000028
    16  H   -0.041676   0.376129  -0.034646  -0.004503   0.002073  -0.000288
    17  H   -0.005038  -0.029871   0.350900  -0.025849   0.001276   0.001258
    18  H   -0.003032  -0.032245   0.337257  -0.022203   0.004285  -0.000159
    19  H   -0.000183   0.004228  -0.053438   0.349714  -0.031412   0.005536
    20  H    0.000010  -0.000153   0.002978  -0.043132   0.358782  -0.042414
    21  H   -0.000000  -0.000001  -0.000229   0.006400  -0.032660   0.367423
    22  H   -0.000000  -0.000002   0.000016  -0.000098   0.002177  -0.040065
    23  H    0.000000  -0.000005  -0.000121   0.004247   0.000193   0.004619
    24  H   -0.000145   0.006728  -0.015614  -0.048309   0.000236   0.001111
    25  H   -0.000001  -0.000015  -0.000264   0.005834  -0.000032  -0.000007
    26  H   -0.000018   0.000197  -0.002576   0.005817   0.000130   0.000034
    27  H    0.000168  -0.000689  -0.000093  -0.003665   0.000001  -0.000010
    28  H   -0.000001   0.000036   0.000071   0.000079  -0.000015   0.000002
               7          8          9         10         11         12
     1  C    0.000010  -0.000054   0.000868  -0.000073   0.000035   0.370877
     2  C    0.000158  -0.000451  -0.015559   0.000295  -0.001616  -0.021665
     3  C    0.002262  -0.000617  -0.020040   0.000871  -0.000426   0.003700
     4  C   -0.027955  -0.002249   0.352252  -0.010556  -0.010701  -0.000175
     5  N   -0.017202  -0.009492  -0.010037  -0.000699   0.000669   0.000002
     6  C    0.661204  -0.011502  -0.023187   0.000568  -0.000103   0.000000
     7  C    4.798875   0.377460  -0.036445   0.001600  -0.000042  -0.000000
     8  N    0.377460   6.397484   0.350020  -0.033102   0.003005   0.000001
     9  C   -0.036445   0.350020   4.787031   0.333230  -0.060595   0.000016
    10  N    0.001600  -0.033102   0.333230   6.485359   0.368453  -0.000000
    11  C   -0.000042   0.003005  -0.060595   0.368453   4.948131   0.000000
    12  H   -0.000000   0.000001   0.000016  -0.000000   0.000000   0.610472
    13  H    0.000000  -0.000000  -0.000017   0.000003   0.000006  -0.032155
    14  H   -0.000000   0.000002  -0.000017   0.000000  -0.000001  -0.031375
    15  H    0.000005   0.000281  -0.006108   0.000476  -0.000122  -0.003421
    16  H   -0.000110   0.002292  -0.001765   0.000372   0.000002  -0.002702
    17  H   -0.000358   0.000059   0.001764  -0.000016  -0.000036   0.000017
    18  H   -0.000039  -0.000032   0.002285   0.000074   0.000501  -0.000062
    19  H    0.001504   0.000002  -0.039452  -0.002986  -0.004675   0.000004
    20  H    0.004620   0.000221   0.003297  -0.000066   0.000016  -0.000000
    21  H   -0.039972   0.002264   0.000087  -0.000002  -0.000000   0.000000
    22  H    0.367787  -0.031965   0.006056  -0.000047   0.000002  -0.000000
    23  H   -0.043627   0.363942  -0.046183   0.001130  -0.000247   0.000000
    24  H    0.007353  -0.052510   0.382274  -0.088633   0.002449   0.000055
    25  H   -0.000297   0.002875  -0.046916   0.341316  -0.046109   0.000000
    26  H   -0.000016   0.000074  -0.008975  -0.019386   0.377099   0.000000
    27  H    0.000036  -0.000394   0.002716  -0.050939   0.367158   0.000002
    28  H   -0.000001  -0.000038   0.003446  -0.022185   0.377473   0.000000
              13         14         15         16         17         18
     1  C    0.375409   0.373371  -0.040726  -0.041676  -0.005038  -0.003032
     2  C   -0.026936  -0.025413   0.373647   0.376129  -0.029871  -0.032245
     3  C   -0.004279  -0.004509  -0.030380  -0.034646   0.350900   0.337257
     4  C    0.000096   0.000095  -0.003690  -0.004503  -0.025849  -0.022203
     5  N    0.000001  -0.000013  -0.000159   0.002073   0.001276   0.004285
     6  C   -0.000000  -0.000002   0.000028  -0.000288   0.001258  -0.000159
     7  C    0.000000  -0.000000   0.000005  -0.000110  -0.000358  -0.000039
     8  N   -0.000000   0.000002   0.000281   0.002292   0.000059  -0.000032
     9  C   -0.000017  -0.000017  -0.006108  -0.001765   0.001764   0.002285
    10  N    0.000003   0.000000   0.000476   0.000372  -0.000016   0.000074
    11  C    0.000006  -0.000001  -0.000122   0.000002  -0.000036   0.000501
    12  H   -0.032155  -0.031375  -0.003421  -0.002702   0.000017  -0.000062
    13  H    0.605654  -0.031981  -0.006042   0.005985  -0.000374   0.005199
    14  H   -0.031981   0.601823   0.006228  -0.004397   0.005480  -0.000534
    15  H   -0.006042   0.006228   0.644684  -0.043790   0.006077  -0.008211
    16  H    0.005985  -0.004397  -0.043790   0.634362  -0.003847   0.006723
    17  H   -0.000374   0.005480   0.006077  -0.003847   0.629714  -0.037566
    18  H    0.005199  -0.000534  -0.008211   0.006723  -0.037566   0.670766
    19  H   -0.000002  -0.000001  -0.000092   0.000028   0.005024  -0.010146
    20  H    0.000000  -0.000000   0.000004  -0.000009   0.001763  -0.000283
    21  H    0.000000  -0.000000  -0.000000   0.000004  -0.000057   0.000006
    22  H    0.000000   0.000000   0.000000   0.000006  -0.000002  -0.000000
    23  H    0.000000   0.000000   0.000006   0.000187   0.000011   0.000005
    24  H    0.000037   0.000020   0.003663   0.001040   0.000452   0.000312
    25  H    0.000000   0.000000   0.000303  -0.000019   0.000007   0.000020
    26  H   -0.000001   0.000000   0.000092   0.000005   0.000075   0.002141
    27  H    0.000008  -0.000000   0.003189   0.000021   0.000028   0.000689
    28  H   -0.000000   0.000000  -0.000040  -0.000000  -0.000001  -0.000026
              19         20         21         22         23         24
     1  C   -0.000183   0.000010  -0.000000  -0.000000   0.000000  -0.000145
     2  C    0.004228  -0.000153  -0.000001  -0.000002  -0.000005   0.006728
     3  C   -0.053438   0.002978  -0.000229   0.000016  -0.000121  -0.015614
     4  C    0.349714  -0.043132   0.006400  -0.000098   0.004247  -0.048309
     5  N   -0.031412   0.358782  -0.032660   0.002177   0.000193   0.000236
     6  C    0.005536  -0.042414   0.367423  -0.040065   0.004619   0.001111
     7  C    0.001504   0.004620  -0.039972   0.367787  -0.043627   0.007353
     8  N    0.000002   0.000221   0.002264  -0.031965   0.363942  -0.052510
     9  C   -0.039452   0.003297   0.000087   0.006056  -0.046183   0.382274
    10  N   -0.002986  -0.000066  -0.000002  -0.000047   0.001130  -0.088633
    11  C   -0.004675   0.000016  -0.000000   0.000002  -0.000247   0.002449
    12  H    0.000004  -0.000000   0.000000  -0.000000   0.000000   0.000055
    13  H   -0.000002   0.000000   0.000000   0.000000   0.000000   0.000037
    14  H   -0.000001  -0.000000  -0.000000   0.000000   0.000000   0.000020
    15  H   -0.000092   0.000004  -0.000000   0.000000   0.000006   0.003663
    16  H    0.000028  -0.000009   0.000004   0.000006   0.000187   0.001040
    17  H    0.005024   0.001763  -0.000057  -0.000002   0.000011   0.000452
    18  H   -0.010146  -0.000283   0.000006  -0.000000   0.000005   0.000312
    19  H    0.689779  -0.008230  -0.000282   0.000007  -0.000110   0.006064
    20  H   -0.008230   0.499861  -0.006774  -0.000201   0.000018  -0.000107
    21  H   -0.000282  -0.006774   0.623324  -0.004093  -0.000180   0.000010
    22  H    0.000007  -0.000201  -0.004093   0.622871  -0.006679  -0.000359
    23  H   -0.000110   0.000018  -0.000180  -0.006679   0.500888  -0.006166
    24  H    0.006064  -0.000107   0.000010  -0.000359  -0.006166   0.736965
    25  H   -0.000113   0.000005  -0.000000  -0.000006   0.002185  -0.008419
    26  H    0.002320  -0.000003   0.000000   0.000000   0.000004  -0.001069
    27  H    0.001414  -0.000002  -0.000000  -0.000000  -0.000002   0.009171
    28  H    0.000006  -0.000000  -0.000000  -0.000000   0.000005  -0.000404
              25         26         27         28
     1  C   -0.000001  -0.000018   0.000168  -0.000001
     2  C   -0.000015   0.000197  -0.000689   0.000036
     3  C   -0.000264  -0.002576  -0.000093   0.000071
     4  C    0.005834   0.005817  -0.003665   0.000079
     5  N   -0.000032   0.000130   0.000001  -0.000015
     6  C   -0.000007   0.000034  -0.000010   0.000002
     7  C   -0.000297  -0.000016   0.000036  -0.000001
     8  N    0.002875   0.000074  -0.000394  -0.000038
     9  C   -0.046916  -0.008975   0.002716   0.003446
    10  N    0.341316  -0.019386  -0.050939  -0.022185
    11  C   -0.046109   0.377099   0.367158   0.377473
    12  H    0.000000   0.000000   0.000002   0.000000
    13  H    0.000000  -0.000001   0.000008  -0.000000
    14  H    0.000000   0.000000  -0.000000   0.000000
    15  H    0.000303   0.000092   0.003189  -0.000040
    16  H   -0.000019   0.000005   0.000021  -0.000000
    17  H    0.000007   0.000075   0.000028  -0.000001
    18  H    0.000020   0.002141   0.000689  -0.000026
    19  H   -0.000113   0.002320   0.001414   0.000006
    20  H    0.000005  -0.000003  -0.000002  -0.000000
    21  H   -0.000000   0.000000  -0.000000  -0.000000
    22  H   -0.000006   0.000000  -0.000000  -0.000000
    23  H    0.002185   0.000004  -0.000002   0.000005
    24  H   -0.008419  -0.001069   0.009171  -0.000404
    25  H    0.543846   0.005764  -0.005347  -0.003038
    26  H    0.005764   0.582266  -0.047875  -0.028359
    27  H   -0.005347  -0.047875   0.667512  -0.039179
    28  H   -0.003038  -0.028359  -0.039179   0.594088
 Mulliken charges:
               1
     1  C   -0.392712
     2  C   -0.142958
     3  C   -0.170835
     4  C    0.006735
     5  N   -0.344603
     6  C   -0.057986
     7  C   -0.056811
     8  N   -0.357579
     9  C    0.089958
    10  N   -0.305057
    11  C   -0.320327
    12  H    0.106410
    13  H    0.109390
    14  H    0.111225
    15  H    0.104099
    16  H    0.108525
    17  H    0.099109
    18  H    0.084274
    19  H    0.085493
    20  H    0.229798
    21  H    0.084732
    22  H    0.084594
    23  H    0.225880
    24  H    0.063796
    25  H    0.208429
    26  H    0.132258
    27  H    0.096081
    28  H    0.118081
 Sum of Mulliken charges =  -0.00000
 Mulliken charges with hydrogens summed into heavy atoms:
               1
     1  C   -0.065688
     2  C    0.069666
     3  C    0.012548
     4  C    0.092228
     5  N   -0.114805
     6  C    0.026747
     7  C    0.027783
     8  N   -0.131699
     9  C    0.153754
    10  N   -0.096628
    11  C    0.026093
 Electronic spatial extent (au):  <R**2>=           2007.7689
 Charge=             -0.0000 electrons
 Dipole moment (field-independent basis, Debye):
    X=             -1.4970    Y=              0.5197    Z=             -0.3234  Tot=              1.6173
 Quadrupole moment (field-independent basis, Debye-Ang):
   XX=            -73.5829   YY=            -68.6279   ZZ=            -60.7456
   XY=             -3.3923   XZ=             -1.9286   YZ=             -4.7718
 Traceless Quadrupole moment (field-independent basis, Debye-Ang):
   XX=             -5.9308   YY=             -0.9757   ZZ=              6.9065
   XY=             -3.3923   XZ=             -1.9286   YZ=             -4.7718
 Octapole moment (field-independent basis, Debye-Ang**2):
  XXX=              4.7430  YYY=              9.9062  ZZZ=             -1.3769  XYY=             -1.7416
  XXY=             -5.0821  XXZ=             -5.5474  XZZ=             12.1157  YZZ=              1.8662
  YYZ=              0.4237  XYZ=             -6.1207
 Hexadecapole moment (field-independent basis, Debye-Ang**3):
 XXXX=          -1459.1373 YYYY=           -882.7352 ZZZZ=           -334.5120 XXXY=            -35.3453
 XXXZ=            -23.1920 YYYX=            -14.6636 YYYZ=            -30.9073 ZZZX=            -11.6859
 ZZZY=            -28.7473 XXYY=           -393.6637 XXZZ=           -277.9854 YYZZ=           -195.5556
 XXYZ=             -9.2524 YYXZ=              1.1883 ZZXY=             -3.2371
 N-N= 6.688490137610D+02 E-N=-2.450512778101D+03  KE= 4.755812799831D+02
 PrsmSu:  requested number of processors reduced to:  13 ShMem   1 Linda.
 Calling FoFJK, ICntrl=      2127 FMM=F ISym2X=0 I1Cent= 0 IOpClX= 0 NMat=1 NMatS=1 NMatT=0.
 ***** Axes restored to original set *****
 -------------------------------------------------------------------
 Center     Atomic                   Forces (Hartrees/Bohr)
 Number     Number              X              Y              Z
 -------------------------------------------------------------------
      1        6          -0.006892355    0.000677937   -0.002737096
      2        6          -0.001188981    0.000305831    0.002693388
      3        6          -0.005332861    0.011931969    0.002911373
      4        6           0.012720844   -0.009913967    0.000776619
      5        7          -0.012032597    0.001602384    0.008376441
      6        6           0.014804587    0.001657918   -0.020114507
      7        6           0.010892098   -0.024045881   -0.008089288
      8        7           0.008491644    0.021308071    0.023411756
      9        6          -0.023037385   -0.002875538   -0.020454039
     10        7           0.024136761   -0.019830307    0.005362208
     11        6           0.003648216    0.006483519    0.001335837
     12        1          -0.004449231   -0.001515958    0.000226501
     13        1          -0.004193069   -0.001684671    0.000273108
     14        1          -0.005202138   -0.001569192    0.000230210
     15        1           0.004487363   -0.001455586   -0.003176999
     16        1           0.002185760    0.001720345    0.001458134
     17        1           0.004276467    0.000664906    0.000390808
     18        1          -0.002283347    0.001352078    0.000487752
     19        1          -0.000648133    0.011014191    0.002644361
     20        1           0.002132533    0.011335012   -0.000521426
     21        1           0.000163596    0.002156429   -0.004006055
     22        1           0.001255961   -0.001846282    0.000951861
     23        1          -0.005007636   -0.005073389    0.005254641
     24        1          -0.015276840   -0.006460937    0.000232854
     25        1           0.001167304   -0.002719379    0.003691999
     26        1           0.001848507    0.000272881   -0.004627791
     27        1          -0.007264505    0.002072293    0.003359022
     28        1           0.000597440    0.004435321   -0.000341673
 -------------------------------------------------------------------
 Cartesian Forces:  Max     0.024136761 RMS     0.008537369

 GradGradGradGradGradGradGradGradGradGradGradGradGradGradGradGradGradGrad
 Berny optimization.
 FormGI is forming the generalized inverse of G from B-inverse, IUseBI=4.
 Internal  Forces:  Max     0.032616896 RMS     0.007221062
 Search for a local minimum.
 Step number   1 out of a maximum of  161
 All quantities printed in internal units (Hartrees-Bohrs-Radians)
 Mixed Optimization -- RFO/linear search
 Second derivative matrix not updated -- first step.
 ITU=  0
     Eigenvalues ---    0.00230   0.00350   0.00477   0.00695   0.00736
     Eigenvalues ---    0.00911   0.01284   0.01467   0.01613   0.02334
     Eigenvalues ---    0.02403   0.02602   0.02917   0.03223   0.03268
     Eigenvalues ---    0.03649   0.03651   0.04417   0.04730   0.04956
     Eigenvalues ---    0.05319   0.05823   0.06068   0.06426   0.06699
     Eigenvalues ---    0.06910   0.07465   0.08498   0.08665   0.11028
     Eigenvalues ---    0.12284   0.12450   0.14257   0.15200   0.15992
     Eigenvalues ---    0.15996   0.16000   0.16000   0.16000   0.16000
     Eigenvalues ---    0.16000   0.16000   0.16031   0.18520   0.18821
     Eigenvalues ---    0.21572   0.21942   0.21982   0.22014   0.22802
     Eigenvalues ---    0.23580   0.27842   0.29292   0.31821   0.33971
     Eigenvalues ---    0.33986   0.34031   0.34131   0.34252   0.34314
     Eigenvalues ---    0.34334   0.34335   0.34377   0.34470   0.34648
     Eigenvalues ---    0.34720   0.35383   0.35469   0.35692   0.35726
     Eigenvalues ---    0.36124   0.37085   0.44678   0.44972   0.45531
     Eigenvalues ---    0.49050   0.50293   0.54997
 RFO step:  Lambda=-3.85405126D-02 EMin= 2.30000000D-03
 Linear search not attempted -- first point.
 Maximum step size (   0.300) exceeded in Quadratic search.
    -- Step size scaled by   0.885
 Iteration  1 RMS(Cart)=  0.18900063 RMS(Int)=  0.00737079
 Iteration  2 RMS(Cart)=  0.01450442 RMS(Int)=  0.00109013
 Iteration  3 RMS(Cart)=  0.00018585 RMS(Int)=  0.00108862
 Iteration  4 RMS(Cart)=  0.00000020 RMS(Int)=  0.00108862
 Variable       Old X    -DE/DX   Delta X   Delta X   Delta X     New X
                                 (Linear)    (Quad)   (Total)
    R1        2.84472   0.02075   0.00000   0.05147   0.05147   2.89619
    R2        2.06907   0.00008   0.00000   0.00019   0.00019   2.06925
    R3        2.06545   0.00162   0.00000   0.00374   0.00374   2.06919
    R4        2.06131   0.00302   0.00000   0.00694   0.00694   2.06825
    R5        2.89399   0.00383   0.00000   0.01021   0.01021   2.90420
    R6        2.07110  -0.00145   0.00000  -0.00338  -0.00338   2.06772
    R7        2.07379  -0.00066   0.00000  -0.00154  -0.00154   2.07225
    R8        2.92485   0.01912   0.00000   0.05337   0.05337   2.97823
    R9        2.07354  -0.00234   0.00000  -0.00548  -0.00548   2.06807
   R10        2.07278   0.00123   0.00000   0.00288   0.00288   2.07566
   R11        2.77908   0.00357   0.00000   0.00810   0.00814   2.78722
   R12        3.04632  -0.01641   0.00000  -0.05250  -0.05155   2.99477
   R13        2.06803  -0.00020   0.00000  -0.00046  -0.00046   2.06757
   R14        2.57622   0.02588   0.00000   0.04021   0.03938   2.61561
   R15        1.92008  -0.01035   0.00000  -0.01875  -0.01875   1.90133
   R16        2.53581  -0.01097   0.00000  -0.01617  -0.01720   2.51861
   R17        2.04566  -0.00033   0.00000  -0.00074  -0.00074   2.04492
   R18        2.58705   0.01958   0.00000   0.03126   0.03110   2.61815
   R19        2.04513  -0.00011   0.00000  -0.00025  -0.00025   2.04488
   R20        2.75904  -0.00662   0.00000  -0.01435  -0.01354   2.74550
   R21        1.91364  -0.00793   0.00000  -0.01421  -0.01421   1.89943
   R22        2.78220   0.01153   0.00000   0.02595   0.02595   2.80815
   R23        2.05058   0.00633   0.00000   0.01427   0.01427   2.06485
   R24        2.75718   0.00101   0.00000   0.00219   0.00219   2.75938
   R25        1.92351  -0.00357   0.00000  -0.00651  -0.00651   1.91700
   R26        2.06698  -0.00248   0.00000  -0.00574  -0.00574   2.06124
   R27        2.06768   0.00663   0.00000   0.01537   0.01537   2.08305
   R28        2.06250   0.00240   0.00000   0.00551   0.00551   2.06801
    A1        1.89957   0.00550   0.00000   0.02648   0.02619   1.92575
    A2        1.91993   0.00351   0.00000   0.01502   0.01485   1.93478
    A3        1.93288   0.00416   0.00000   0.01715   0.01700   1.94987
    A4        1.89098  -0.00366   0.00000  -0.01356  -0.01385   1.87713
    A5        1.90237  -0.00458   0.00000  -0.01923  -0.01949   1.88287
    A6        1.91744  -0.00508   0.00000  -0.02636  -0.02639   1.89105
    A7        1.98145  -0.00565   0.00000  -0.01664  -0.01662   1.96484
    A8        1.83522   0.00547   0.00000   0.03429   0.03429   1.86951
    A9        1.90297   0.00183   0.00000   0.00482   0.00469   1.90766
   A10        1.92401   0.00004   0.00000  -0.00043  -0.00034   1.92367
   A11        1.91837   0.00112   0.00000  -0.00383  -0.00386   1.91451
   A12        1.89882  -0.00265   0.00000  -0.01729  -0.01744   1.88138
   A13        2.00374   0.03262   0.00000   0.11712   0.11693   2.12067
   A14        1.89632  -0.00928   0.00000  -0.03686  -0.03506   1.86126
   A15        1.89846  -0.01009   0.00000  -0.02139  -0.02378   1.87467
   A16        1.91201  -0.01374   0.00000  -0.06279  -0.06162   1.85039
   A17        1.89426  -0.00656   0.00000  -0.00356  -0.00538   1.88888
   A18        1.85315   0.00528   0.00000  -0.00036  -0.00154   1.85162
   A19        1.88918   0.00009   0.00000   0.00106   0.00105   1.89023
   A20        1.98214   0.01414   0.00000   0.06346   0.06302   2.04515
   A21        1.88899  -0.00547   0.00000  -0.02600  -0.02487   1.86413
   A22        2.02342  -0.01122   0.00000  -0.03276  -0.03212   1.99130
   A23        1.77440   0.00673   0.00000   0.04287   0.04142   1.81582
   A24        1.89054  -0.00525   0.00000  -0.05335  -0.05280   1.83774
   A25        2.12751   0.00925   0.00000   0.03455   0.03480   2.16231
   A26        2.03159  -0.00648   0.00000  -0.03362  -0.03371   1.99788
   A27        2.04939  -0.00373   0.00000  -0.01190  -0.01231   2.03708
   A28        2.13316  -0.00387   0.00000  -0.01166  -0.01256   2.12060
   A29        2.00835   0.00579   0.00000   0.02324   0.02352   2.03187
   A30        2.14128  -0.00182   0.00000  -0.01084  -0.01056   2.13072
   A31        2.14710  -0.00933   0.00000  -0.02842  -0.02849   2.11861
   A32        2.12322   0.00294   0.00000   0.00663   0.00665   2.12988
   A33        2.01249   0.00642   0.00000   0.02207   0.02207   2.03456
   A34        2.15811   0.00392   0.00000   0.01786   0.01974   2.17785
   A35        2.04762   0.00051   0.00000   0.00383   0.00264   2.05026
   A36        2.04374  -0.00485   0.00000  -0.02256  -0.02325   2.02049
   A37        1.96437   0.01204   0.00000   0.02855   0.02548   1.98985
   A38        1.96536   0.00265   0.00000  -0.01089  -0.01620   1.94916
   A39        1.91949  -0.00823   0.00000  -0.02762  -0.02877   1.89072
   A40        2.06102  -0.02198   0.00000  -0.12131  -0.12116   1.93986
   A41        1.75062   0.00403   0.00000   0.05888   0.06142   1.81204
   A42        1.77431   0.01185   0.00000   0.09463   0.09837   1.87268
   A43        1.98699   0.01539   0.00000   0.04822   0.04839   2.03539
   A44        1.85324  -0.00237   0.00000  -0.00390  -0.00336   1.84987
   A45        1.90091  -0.00773   0.00000  -0.03718  -0.03715   1.86376
   A46        1.97823  -0.00703   0.00000  -0.03166  -0.03159   1.94664
   A47        1.96117   0.00825   0.00000   0.03705   0.03720   1.99837
   A48        1.90428  -0.00202   0.00000  -0.00897  -0.00904   1.89524
   A49        1.88808  -0.00080   0.00000  -0.00368  -0.00344   1.88465
   A50        1.82977   0.00425   0.00000   0.01835   0.01818   1.84795
   A51        1.89635  -0.00289   0.00000  -0.01221  -0.01220   1.88416
    D1        3.12571   0.00067   0.00000   0.00956   0.00955   3.13526
    D2        1.02117   0.00021   0.00000  -0.00322  -0.00315   1.01802
    D3       -1.01245  -0.00043   0.00000  -0.00332  -0.00336  -1.01581
    D4        1.05643  -0.00024   0.00000   0.00134   0.00125   1.05769
    D5       -1.04811  -0.00070   0.00000  -0.01145  -0.01145  -1.05956
    D6       -3.08173  -0.00134   0.00000  -0.01155  -0.01166  -3.09338
    D7       -1.06652   0.00105   0.00000   0.01309   0.01313  -1.05339
    D8        3.11213   0.00058   0.00000   0.00030   0.00043   3.11255
    D9        1.07851  -0.00005   0.00000   0.00020   0.00022   1.07873
   D10        3.08665  -0.00474   0.00000  -0.05477  -0.05483   3.03182
   D11        0.93937  -0.00257   0.00000  -0.02665  -0.02642   0.91295
   D12       -1.07074   0.00152   0.00000   0.00487   0.00477  -1.06596
   D13       -1.14285  -0.00143   0.00000  -0.02235  -0.02244  -1.16530
   D14        2.99305   0.00075   0.00000   0.00578   0.00598   2.99903
   D15        0.98294   0.00484   0.00000   0.03729   0.03717   1.02011
   D16        0.95012  -0.00397   0.00000  -0.04644  -0.04655   0.90357
   D17       -1.19716  -0.00180   0.00000  -0.01832  -0.01813  -1.21529
   D18        3.07592   0.00229   0.00000   0.01320   0.01306   3.08898
   D19       -1.97531   0.00567   0.00000   0.06178   0.06166  -1.91365
   D20        0.29802   0.00189   0.00000   0.06919   0.07090   0.36892
   D21        2.39790   0.00043   0.00000   0.02405   0.02527   2.42317
   D22        0.16353   0.00620   0.00000   0.04857   0.04687   0.21040
   D23        2.43686   0.00241   0.00000   0.05598   0.05611   2.49297
   D24       -1.74644   0.00096   0.00000   0.01084   0.01048  -1.73597
   D25        2.17980   0.00141   0.00000   0.01220   0.01085   2.19065
   D26       -1.83006  -0.00237   0.00000   0.01960   0.02009  -1.80997
   D27        0.26982  -0.00382   0.00000  -0.02553  -0.02554   0.24428
   D28        2.23309   0.01070   0.00000   0.07582   0.07589   2.30898
   D29       -1.32482   0.00707   0.00000   0.04304   0.04289  -1.28193
   D30       -0.01722   0.00028   0.00000   0.01408   0.01454  -0.00268
   D31        2.70805  -0.00335   0.00000  -0.01870  -0.01846   2.68960
   D32       -2.06297   0.00766   0.00000   0.06654   0.06740  -1.99557
   D33        0.66231   0.00403   0.00000   0.03376   0.03441   0.69671
   D34       -2.08853  -0.00661   0.00000  -0.07256  -0.07305  -2.16158
   D35        1.81264   0.01111   0.00000   0.09132   0.09213   1.90476
   D36       -0.15265   0.00008   0.00000  -0.00158  -0.00126  -0.15391
   D37        0.11567  -0.00350   0.00000  -0.04186  -0.04242   0.07326
   D38       -2.26635   0.01422   0.00000   0.12202   0.12276  -2.14359
   D39        2.05155   0.00319   0.00000   0.02913   0.02937   2.08092
   D40        2.09565  -0.00504   0.00000  -0.04293  -0.04251   2.05314
   D41       -0.28637   0.01268   0.00000   0.12095   0.12267  -0.16370
   D42       -2.25165   0.00165   0.00000   0.02806   0.02928  -2.22238
   D43       -0.11491   0.00363   0.00000   0.02973   0.02983  -0.08508
   D44        3.05613  -0.00008   0.00000   0.00265   0.00258   3.05871
   D45       -2.83616   0.00787   0.00000   0.06756   0.06796  -2.76820
   D46        0.33487   0.00417   0.00000   0.04049   0.04072   0.37559
   D47        0.14088  -0.00503   0.00000  -0.04697  -0.04674   0.09414
   D48       -3.03134  -0.00385   0.00000  -0.03497  -0.03435  -3.06569
   D49       -3.03240  -0.00092   0.00000  -0.01727  -0.01738  -3.04978
   D50        0.07857   0.00026   0.00000  -0.00526  -0.00499   0.07358
   D51       -0.02079  -0.00041   0.00000   0.00817   0.00900  -0.01179
   D52       -2.87776   0.00213   0.00000   0.01557   0.01655  -2.86121
   D53       -3.13355  -0.00149   0.00000  -0.00295  -0.00255  -3.13609
   D54        0.29267   0.00105   0.00000   0.00445   0.00500   0.29767
   D55       -0.10254   0.00272   0.00000   0.03031   0.03120  -0.07133
   D56        2.23445  -0.00333   0.00000  -0.08646  -0.08412   2.15033
   D57       -2.14179   0.00504   0.00000   0.01770   0.01698  -2.12481
   D58        2.75502   0.00099   0.00000   0.02688   0.02752   2.78254
   D59       -1.19119  -0.00506   0.00000  -0.08989  -0.08780  -1.27898
   D60        0.71577   0.00330   0.00000   0.01426   0.01330   0.72907
   D61       -0.76336  -0.00396   0.00000  -0.10231  -0.09954  -0.86290
   D62       -2.85464  -0.00181   0.00000  -0.08186  -0.07930  -2.93394
   D63       -3.09991  -0.00195   0.00000  -0.00248  -0.00665  -3.10656
   D64        1.09200   0.00020   0.00000   0.01797   0.01358   1.10558
   D65        1.28977  -0.00557   0.00000  -0.08492  -0.08320   1.20657
   D66       -0.80151  -0.00342   0.00000  -0.06447  -0.06297  -0.86448
   D67        1.12754   0.00021   0.00000   0.01576   0.01580   1.14334
   D68       -1.01970   0.00025   0.00000   0.01612   0.01641  -1.00330
   D69       -3.12402  -0.00006   0.00000   0.01370   0.01398  -3.11005
   D70       -3.09152   0.00157   0.00000   0.01555   0.01518  -3.07634
   D71        1.04442   0.00161   0.00000   0.01590   0.01579   1.06021
   D72       -1.05990   0.00130   0.00000   0.01349   0.01336  -1.04654
         Item               Value     Threshold  Converged?
 Maximum Force            0.032617     0.000450     NO 
 RMS     Force            0.007221     0.000300     NO 
 Maximum Displacement     0.745149     0.001800     NO 
 RMS     Displacement     0.194465     0.001200     NO 
 Predicted change in Energy=-2.347290D-02
 GradGradGradGradGradGradGradGradGradGradGradGradGradGradGradGradGradGrad

                          Input orientation:                          
 ---------------------------------------------------------------------
 Center     Atomic      Atomic             Coordinates (Angstroms)
 Number     Number       Type             X           Y           Z
 ---------------------------------------------------------------------
      1          6           0        0.647447   -0.152238    0.001827
      2          6           0        2.167814    0.037746   -0.033517
      3          6           0        2.915947   -1.040872    0.765700
      4          6           0        4.489143   -1.133885    0.751233
      5          7           0        4.874807   -2.341603   -0.002495
      6          6           0        5.842943   -2.357758   -0.991554
      7          6           0        6.438024   -1.238021   -1.401920
      8          7           0        6.195185   -0.022945   -0.782136
      9          6           0        5.287604    0.170462    0.335758
     10          7           0        5.988771    0.777956    1.496595
     11          6           0        5.195884    0.983625    2.705401
     12          1           0        0.151774    0.637616   -0.572168
     13          1           0        0.271769   -0.099335    1.028967
     14          1           0        0.349564   -1.115096   -0.424829
     15          1           0        2.378191    1.028759    0.379863
     16          1           0        2.509980    0.029654   -1.075325
     17          1           0        2.552910   -2.007643    0.403469
     18          1           0        2.585980   -0.963849    1.810521
     19          1           0        4.802729   -1.349772    1.776969
     20          1           0        4.711123   -3.206726    0.484424
     21          1           0        6.086103   -3.324979   -1.411487
     22          1           0        7.145117   -1.230828   -2.221015
     23          1           0        6.467070    0.810699   -1.273471
     24          1           0        4.571660    0.908502   -0.033905
     25          1           0        6.296722    1.694202    1.188815
     26          1           0        4.877905    0.035855    3.141727
     27          1           0        4.300297    1.610402    2.563463
     28          1           0        5.827412    1.463471    3.459399
 ---------------------------------------------------------------------
                    Distance matrix (angstroms):
                    1          2          3          4          5
     1  C    0.000000
     2  C    1.532599   0.000000
     3  C    2.553286   1.536836   0.000000
     4  C    4.035328   2.716085   1.576009   0.000000
     5  N    4.760664   3.604175   2.473693   1.474932   0.000000
     6  C    5.730996   4.490306   3.659157   2.523478   1.384119
     7  C    6.056420   4.662060   4.140346   2.906037   2.370639
     8  N    5.604348   4.096808   3.766347   2.548723   2.779822
     9  C    4.663336   3.144370   2.697579   1.584765   2.568129
    10  N    5.623997   4.181970   3.644803   2.541571   3.635909
    11  C    5.411819   4.191129   3.613743   2.966834   4.300341
    12  H    1.095002   2.171269   3.499695   4.868509   5.613138
    13  H    1.094966   2.177763   2.819128   4.351285   5.222992
    14  H    1.094471   2.188196   2.830052   4.303440   4.707495
    15  H    2.129117   1.094189   2.172883   3.044842   4.211725
    16  H    2.159252   1.096588   2.167996   2.933807   3.516565
    17  H    2.689728   2.126704   1.094374   2.152531   2.380660
    18  H    2.772724   2.139750   1.098391   2.184728   3.228617
    19  H    4.674569   3.485089   2.162876   1.094111   2.038484
    20  H    5.106493   4.154911   2.827136   2.101698   1.006142
    21  H    6.453118   5.344128   4.472938   3.468218   2.102267
    22  H    6.951554   5.582828   5.180967   3.987211   3.363028
    23  H    6.035035   4.540765   4.494108   3.434098   3.753357
    24  H    4.065206   2.556696   2.679703   2.189656   3.264363
    25  H    6.060743   4.613657   4.369130   3.384804   4.441710
    26  H    5.271729   4.174538   3.264065   2.689589   3.941884
    27  H    4.797103   3.710127   3.489646   3.294079   4.746846
    28  H    6.434078   5.256026   4.690882   3.983891   5.231706
                    6          7          8          9         10
     6  C    0.000000
     7  C    1.332791   0.000000
     8  N    2.370502   1.385465   0.000000
     9  C    2.908961   2.515316   1.452858   0.000000
    10  N    4.005602   3.559127   2.424184   1.486011   0.000000
    11  C    5.025037   4.832050   3.764930   2.506961   1.460199
    12  H    6.444964   6.612371   6.083030   5.236345   6.194353
    13  H    6.342000   6.725216   6.194578   5.070693   5.802795
    14  H    5.660618   6.167590   5.957495   5.159010   6.251094
    15  H    5.035254   4.979487   4.126229   3.033694   3.787649
    16  H    4.100658   4.140434   3.697224   3.118681   4.390526
    17  H    3.590680   4.352684   4.314030   3.496752   4.556273
    18  H    4.516903   5.023265   4.542415   3.280299   3.835547
    19  H    3.124548   3.576593   3.201316   2.150188   2.452047
    20  H    2.044572   3.227426   3.734043   3.429261   4.305179
    21  H    1.082122   2.116444   3.363244   3.988556   5.029960
    22  H    2.115940   1.082104   2.105166   3.457030   4.380979
    23  H    3.241624   2.052948   1.005134   2.095391   2.811247
    24  H    3.633415   3.156318   2.015757   1.092670   2.089899
    25  H    4.623668   3.915330   2.616019   2.016882   1.014431
    26  H    4.872852   4.970056   4.139491   2.838914   2.119244
    27  H    5.546548   5.329884   4.177494   2.830349   2.163821
    28  H    5.866260   5.594938   4.509469   3.423507   2.085321
                   11         12         13         14         15
    11  C    0.000000
    12  H    6.025382   0.000000
    13  H    5.313204   1.766672   0.000000
    14  H    6.139201   1.769981   1.775204   0.000000
    15  H    3.653704   2.452812   2.476075   3.059244   0.000000
    16  H    4.734768   2.486749   3.074780   2.530019   1.770071
    17  H    4.607807   3.703339   3.039160   2.517430   3.041516
    18  H    3.377138   3.763941   2.591097   3.165632   2.461797
    19  H    2.541908   5.576697   4.759486   4.973296   3.672560
    20  H    4.767261   6.056651   5.446125   4.921876   4.836614
    21  H    6.025390   7.184907   7.082872   6.226151   5.992711
    22  H    5.742202   7.424058   7.686714   7.029881   5.881656
    23  H    4.180579   6.356473   6.671667   6.469371   4.415880
    24  H    2.810533   4.460774   4.542521   4.698284   2.235391
    25  H    2.004195   6.479030   6.288274   6.772348   4.056119
    26  H    1.090760   6.040815   5.069371   5.878000   3.855167
    27  H    1.102303   5.290438   4.637555   5.653895   2.966633
    28  H    1.094346   7.010594   6.262150   7.193265   4.644312
                   16         17         18         19         20
    16  H    0.000000
    17  H    2.517787   0.000000
    18  H    3.053020   1.752255   0.000000
    19  H    3.910895   2.716796   2.250342   0.000000
    20  H    4.213313   2.470271   3.362331   2.264364   0.000000
    21  H    4.914797   4.184841   5.311039   3.964183   2.345001
    22  H    4.938210   5.346000   6.091822   4.635170   4.141002
    23  H    4.038299   5.106449   5.265253   4.091803   4.723690
    24  H    2.471327   3.573590   3.294015   2.903870   4.150087
    25  H    4.715556   5.323209   4.606665   3.441471   5.198980
    26  H    4.836386   4.132740   2.832744   1.946324   4.195642
    27  H    4.352560   4.561709   3.183171   3.103812   5.262691
    28  H    5.798699   5.666542   4.372363   3.434368   5.648656
                   21         22         23         24         25
    21  H    0.000000
    22  H    2.482401   0.000000
    23  H    4.155481   2.350621   0.000000
    24  H    4.702514   3.997857   2.266863   0.000000
    25  H    5.656688   4.571927   2.621536   2.255706   0.000000
    26  H    5.786770   5.958501   4.756028   3.307557   2.928655
    27  H    6.583869   6.249546   4.478448   2.704186   2.425364
    28  H    6.835328   6.423604   4.820304   3.753408   2.330029
                   26         27         28
    26  H    0.000000
    27  H    1.774040   0.000000
    28  H    1.743722   1.776617   0.000000
 Stoichiometry    C8H17N3
 Framework group  C1[X(C8H17N3)]
 Deg. of freedom    78
 Full point group                 C1      NOp   1
 Largest Abelian subgroup         C1      NOp   1
 Largest concise Abelian subgroup C1      NOp   1
                         Standard orientation:                         
 ---------------------------------------------------------------------
 Center     Atomic      Atomic             Coordinates (Angstroms)
 Number     Number       Type             X           Y           Z
 ---------------------------------------------------------------------
      1          6           0       -3.747548   -0.657478   -0.509204
      2          6           0       -2.270199   -0.278128   -0.658841
      3          6           0       -1.512930   -0.316220    0.677931
      4          6           0        0.047503   -0.106186    0.746797
      5          7           0        0.673462   -1.395468    1.095152
      6          6           0        1.761178   -1.930780    0.427247
      7          6           0        2.267590   -1.347370   -0.658807
      8          7           0        1.799313   -0.121938   -1.104392
      9          6           0        0.732497    0.636610   -0.474070
     10          7           0        1.192508    1.999096   -0.099570
     11          6           0        0.224752    2.850977    0.585943
     12          1           0       -4.252289   -0.612213   -1.479883
     13          1           0       -4.262101    0.036798    0.163229
     14          1           0       -3.867431   -1.671457   -0.115069
     15          1           0       -2.237966    0.729938   -1.083119
     16          1           0       -1.792001   -0.958162   -1.373955
[...]
 3642,0.00001073,0.00001333,-0.00000094,0.00004136,0.00003039,0.0003497
 5,-0.00000408,-0.00012893,-0.00010119,0.00012234,0.00007467,-0.0003872
 9,0.00005349,0.00006195,-0.04492139,0.15897458,0.23799870,0.00000552,0
 .00000376,-0.00002474,0.00002653,-0.00000767,0.00004046,0.00000611,0.0
 0004527,0.00009794,0.00021426,0.00020813,-0.00028450,0.00272984,-0.006
 00916,-0.00081252,-0.01615671,0.00270939,0.01117630,-0.28021186,-0.031
 33112,0.12019763,-0.00123958,0.00070987,0.00060354,0.00241829,-0.00002
 876,0.00010121,-0.00050440,0.00005026,0.00025023,0.00002101,-0.0001855
 0,0.00002018,-0.00002121,0.00000721,-0.00000243,0.00000480,0.00000019,
 0.00000293,-0.00000196,-0.00000481,0.00000185,-0.00000213,-0.00000851,
 0.00000576,-0.00001573,-0.00000046,-0.00002208,0.00001145,0.00001686,-
 0.00002903,-0.00003256,0.00003986,-0.00000776,-0.00015798,0.00004274,-
 0.00002234,-0.00129726,-0.00020036,0.00078061,-0.00023906,0.00132318,-
 0.00143267,0.29403217,0.00001484,0.00003117,0.00002910,-0.00004246,-0.
 00007389,-0.00003193,0.00002374,0.00007390,0.00007564,0.00054208,-0.00
 067502,-0.00125538,-0.00438805,0.00221121,-0.00475940,-0.01713522,0.00
 077493,0.01300567,-0.03209731,-0.04212087,-0.00116504,0.01986455,0.000
 05033,-0.00988891,-0.00234240,-0.00107761,-0.00295890,0.00167987,-0.00
 032421,-0.00146111,0.00016212,0.00048358,0.00001906,-0.00000713,0.0000
 0229,-0.00000176,-0.00002126,-0.00000307,0.00000954,0.00000748,-0.0000
 0017,-0.00000276,-0.00000904,0.00005156,-0.00000282,0.00009604,-0.0000
 5858,0.00007020,0.00004973,0.00003131,-0.00001497,-0.00008638,-0.00003
 338,0.00008116,0.00030169,-0.00006967,0.00024516,-0.00065383,0.0011697
 6,-0.00090912,0.00163133,-0.00242960,0.00230008,0.03208571,0.04097839,
 -0.00001484,0.00000796,0.00000349,0.00000489,-0.00002051,-0.00004133,-
 0.00001543,0.00015968,0.00014586,-0.00048721,-0.00040494,-0.00021179,0
 .00075252,-0.00572817,0.00233343,-0.01000860,0.00117905,0.00582250,0.1
 1810783,-0.00173878,-0.10118625,0.02661599,0.00189850,-0.01282675,-0.0
 0417037,-0.00212256,-0.00129976,0.00170316,-0.00078061,-0.00162021,0.0
 0016822,0.00052276,-0.00003670,0.00000794,-0.00000406,0.00000172,0.000
 00193,-0.00000018,-0.00000070,0.00001502,0.00001151,-0.00000300,-0.000
 02678,0.00004368,0.00000169,-0.00001047,0.00000712,0.00000031,0.000116
 14,0.00007358,-0.00002088,-0.00007947,-0.00000077,0.00002702,-0.000135
 49,0.00017116,0.00001221,-0.00085181,-0.00092453,0.00138053,-0.0012364
 1,0.00265708,-0.00144037,-0.13066769,0.00553413,0.10787808,-0.00004859
 ,0.00005677,-0.00006660,0.00017521,-0.00021204,0.00018179,0.00000048,-
 0.00225417,-0.00053477,-0.00622714,0.00465923,0.00292269,0.00334427,-0
 .00075764,-0.00099466,-0.00238037,0.00179837,0.00353332,0.00305773,0.0
 0423441,-0.00536384,-0.11626221,-0.14089170,0.03431064,-0.01749340,-0.
 03444186,0.00264484,0.00091522,0.00054081,-0.00044301,0.00003872,0.000
 19649,0.00004518,-0.00003386,0.00001253,0.00000428,0.00002715,-0.00000
 644,-0.00001593,0.00002881,0.00002438,0.00000809,0.00001526,0.00009290
 ,-0.00002029,-0.00008507,0.00004454,-0.00009469,-0.00074918,-0.0000284
 5,0.00027239,0.00010939,0.00002481,0.00000710,0.00038298,0.00000542,-0
 .00027772,-0.00015310,-0.00001938,-0.00037849,0.00038831,-0.00064031,0
 .00035108,0.00039368,0.00069296,0.00004319,0.13280313,-0.00000414,0.00
 004649,-0.00001948,-0.00007220,-0.00005142,-0.00001355,0.00015171,0.00
 015839,-0.00020540,0.00072551,-0.00040891,-0.00062869,-0.00076481,0.00
 042269,0.00119610,0.00464559,-0.00121335,-0.00265826,-0.00886193,-0.01
 917794,0.00511567,-0.16872485,-0.34968685,0.01077019,0.00742185,0.0049
 9268,0.00196776,-0.00048436,-0.00012723,0.00045599,0.00016897,0.000102
 97,-0.00014506,-0.00001391,0.00000165,0.00000147,-0.00000360,-0.000000
 21,0.00000554,0.00001267,-0.00000562,-0.00000261,-0.00002285,0.0000344
 2,0.00000495,0.00002934,-0.00001525,0.00001264,0.00006592,0.00007897,-
 0.00001117,-0.00003444,0.00000656,0.00002505,-0.00003711,0.00049209,0.
 00023003,0.00000987,-0.00002653,0.00013091,-0.00125627,0.00126255,-0.0
 0112359,0.00037994,0.00133104,-0.00013093,0.16609472,0.36162759,0.0000
 0250,-0.00007056,0.00007784,0.00010599,0.00009557,-0.00009910,0.000146
 84,0.00079232,0.00056813,0.00299244,0.00042208,-0.00032357,0.00133336,
 -0.00063655,-0.00043981,0.00270075,-0.00141233,-0.00245664,-0.01954050
 ,-0.03451808,-0.00670597,0.04997027,0.04051598,-0.03031143,-0.00076300
 ,0.01128160,-0.00021649,-0.00150973,-0.00052743,-0.00029120,0.00215205
 ,0.00058363,-0.00015976,0.00005550,-0.00001544,0.00000364,0.00001799,0
 .00000946,-0.00003070,-0.00001360,0.00001084,-0.00000920,0.00003678,-0
 .00002745,0.00006428,-0.00005431,-0.00001528,-0.00002581,0.00030405,-0
 .00001199,-0.00015023,0.00005573,0.00001654,-0.00012664,-0.00005410,-0
 .00058541,-0.00013995,-0.00006401,-0.00001784,-0.00007440,-0.00121052,
 -0.00066823,-0.00081303,0.00018380,0.00075977,0.00093972,-0.03558050,-
 0.01365413,0.04147686,-0.00007623,-0.00008854,-0.00000475,-0.00111820,
 0.00011735,0.00036461,0.00060149,0.00031047,0.00013364,0.00730183,-0.0
 0876356,0.00860172,0.00271818,0.00054159,-0.00029425,-0.00130625,0.000
 69584,0.00208271,0.00048849,-0.00382157,-0.00551511,-0.03463757,0.0234
 2880,-0.00773117,-0.09860018,0.07118542,-0.07266339,0.00196401,-0.0002
 4837,-0.00146021,-0.00054188,0.00035887,0.00019760,0.00001933,-0.00000
 280,0.00000072,0.00003891,0.00000148,-0.00002495,-0.00000357,-0.000040
 28,0.00000932,-0.00159757,-0.00047039,0.00018738,-0.00009270,0.0000623
 8,-0.00017965,0.00001220,0.00012625,-0.00015940,0.00001141,-0.00005220
 ,-0.00003334,-0.00079593,-0.00324914,0.00000334,-0.00018653,0.00035853
 ,-0.00029222,0.00009487,0.00016618,-0.00014245,-0.00000878,-0.00010070
 ,0.00046328,0.00107696,0.00046848,0.00027519,0.12314981,-0.00019965,0.
 00053760,-0.00010720,0.00025992,-0.00047589,0.00001230,0.00095270,0.00
 024489,-0.00009739,0.01252070,-0.02209130,0.01887830,-0.00063960,0.002
 27497,0.00081367,0.00041957,-0.00026966,-0.00074163,-0.00002201,0.0011
 8753,0.00128287,0.00615292,0.00104355,-0.00060133,0.07038806,-0.147236
 86,0.09465619,-0.00537028,0.00661279,-0.01029057,-0.00104251,0.0017713
 5,-0.00149136,-0.00007532,-0.00001366,0.00001834,0.00010494,-0.0000047
 9,-0.00006835,0.00024897,0.00005891,-0.00004624,-0.00020800,0.00101739
 ,0.00020788,-0.00017425,-0.00015199,-0.00022246,-0.00018426,0.00023187
 ,-0.00020005,-0.00008168,-0.00000023,-0.00004085,-0.00234405,-0.004460
 94,-0.00058865,-0.00015566,0.00038945,0.00005406,0.00008537,-0.0001666
 9,0.00006564,0.00001652,-0.00000286,-0.00009855,0.00015015,0.00098042,
 -0.00086142,-0.08043194,0.15824178,0.00010307,-0.00046899,-0.00009699,
 -0.00030943,0.00100439,0.00053491,-0.00032575,0.00047376,-0.00022449,0
 .00008696,0.00006266,0.00013789,-0.00080342,-0.00161107,0.00112128,-0.
 00043775,0.00126330,-0.00036023,0.00035791,0.00134605,0.00241230,0.009
 92151,-0.00851292,0.00786334,-0.06835084,0.08796997,-0.13569401,-0.015
 30641,0.01927979,-0.03063110,-0.00021162,0.00317354,0.00103036,0.00002
 314,0.00001525,-0.00000680,-0.00001782,0.00001785,0.00003205,-0.000183
 60,-0.00007051,0.00004959,0.00019587,-0.00074110,-0.00012298,-0.000054
 52,-0.00005758,-0.00007101,0.00013017,-0.00007143,0.00005271,-0.000063
 64,-0.00004274,0.00006620,0.00020742,-0.00044453,0.00040354,0.00017728
 ,-0.00010997,0.00039078,-0.00004856,0.00008018,-0.00010939,-0.00007696
 ,0.00012392,-0.00007540,-0.00074274,-0.00039097,0.00040152,0.07577221,
 -0.09747178,0.15784649,0.00003285,-0.00011427,-0.00001442,0.00002506,0
 .00038204,0.00013522,-0.00007415,-0.00020124,-0.00069467,-0.00022871,0
 .00050714,-0.00165550,-0.00112456,-0.00016467,0.00117904,0.00105223,-0
 .00001427,-0.00084873,-0.00051742,0.00126805,0.00131333,0.00239495,-0.
 00173184,-0.00170370,-0.00332246,0.00107992,0.00812368,-0.14905258,0.1
 3798017,-0.16159645,0.00182541,-0.01380670,0.00849873,0.00003626,-0.00
 000562,0.00001636,-0.00005181,0.00002743,0.00003059,-0.00005068,-0.000
 00850,0.00000935,0.00022472,-0.00017703,0.00012783,0.00009633,-0.00014
 877,0.00012961,-0.00002453,-0.00001874,0.00015819,-0.00065835,-0.00002
 067,0.00025283,0.00039146,-0.00081530,0.00012983,0.00010469,-0.0001411
 0,0.00015565,-0.00008296,-0.00010556,0.00007501,0.00003397,-0.00009594
 ,-0.00013965,0.00010766,-0.00034409,0.00049292,0.00114894,-0.00060002,
 -0.00047619,0.14589180,0.00002495,-0.00006499,0.00003673,0.00003429,0.
 00012660,-0.00007540,0.00010047,-0.00009676,0.00001171,-0.00083491,0.0
 0205237,-0.00145596,-0.00004550,-0.00037018,0.00054792,0.00040538,-0.0
 0001509,-0.00023631,-0.00005290,0.00024329,-0.00006868,-0.00029453,-0.
 00079443,-0.00070372,-0.00755611,0.00924995,-0.00837764,0.10942117,-0.
 16738009,0.11424580,0.02284876,-0.02476139,0.02267754,0.00001818,-0.00
 000010,-0.00000357,-0.00001326,0.00000640,0.00000674,-0.00002517,-0.00
 000338,0.00000069,0.00010846,-0.00010588,0.00004232,0.00000414,-0.0000
 3244,0.00005249,-0.00004811,-0.00004580,0.00004435,-0.00012839,0.00008
 873,0.00005349,0.00049152,-0.00075751,0.00035944,0.00002455,-0.0000813
 3,0.00004323,-0.00004316,-0.00003768,0.00002363,0.00004381,-0.00014166
 ,-0.00008760,0.00006824,-0.00013245,0.00040077,0.00010632,-0.00026291,
 -0.00287002,-0.12202727,0.18714853,0.00001583,-0.00006241,0.00006434,0
 .00008180,0.00004340,-0.00003034,-0.00011937,-0.00014667,0.00020006,-0
 .00016819,0.00146036,0.00036228,0.00099846,-0.00061495,0.00012155,-0.0
 0067288,0.00047885,0.00061819,0.00016098,-0.00125530,-0.00045457,0.000
 01355,0.00145314,0.00572904,-0.02551391,0.02130365,-0.03168731,-0.1223
 7156,0.10919702,-0.17404467,0.00214808,-0.00143344,0.00365356,0.000020
 94,0.00000074,-0.00001085,0.00000009,-0.00000966,-0.00000643,-0.000013
 80,-0.00000553,0.00000297,-0.00000935,-0.00003173,-0.00012224,0.000002
 27,0.00008717,0.00000899,-0.00001437,-0.00000318,-0.00001350,0.0000751
 4,-0.00004623,-0.00004260,-0.00004313,-0.00115276,0.00034578,-0.000014
 68,-0.00007354,-0.00005327,0.00002563,0.00012346,-0.00007689,-0.000069
 62,0.00013375,0.00015896,-0.00004225,0.00012890,-0.00050858,0.00046599
 ,-0.00342736,-0.00578317,0.14539272,-0.12329010,0.20036183,-0.00000567
 ,0.00001999,-0.00000343,-0.00005182,-0.00009075,0.00003111,0.00005289,
 0.00001574,-0.00001481,0.00018330,-0.00025144,0.00042057,0.00010055,0.
 00011546,-0.00001348,-0.00005215,0.00000348,0.00007409,0.00013569,-0.0
 0006250,-0.00004901,-0.00006721,0.00014985,0.00021502,0.00019393,0.000
 04585,0.00001323,0.00791315,-0.00610684,0.00748181,-0.14337782,0.08556
 787,-0.09337920,-0.00000015,-0.00000427,-0.00000082,-0.00000573,-0.000
 00728,0.00000717,0.00000895,0.00000536,0.00000016,-0.00001165,0.000036
 34,-0.00006144,0.00001600,0.00004678,0.00001194,-0.00000815,0.00001028
 ,0.00000434,-0.00000521,-0.00002925,0.00002324,-0.00009865,-0.00010311
 ,-0.00006777,-0.00001127,0.00001182,0.00000621,-0.00000009,0.00001311,
 -0.00000023,-0.00002049,0.00001063,-0.00001060,-0.00031721,0.00021714,
 -0.00048739,0.00019852,0.00026880,0.00035690,0.00054511,-0.00263005,-0
 .00000348,0.15032422,-0.00002384,0.00008463,0.00000292,-0.00004219,-0.
 00030252,-0.00001008,0.00003838,-0.00000913,0.00009374,-0.00015411,0.0
 0003535,0.00014659,-0.00010072,0.00006848,-0.00020407,-0.00001370,-0.0
 0004634,-0.00001361,0.00012618,0.00012041,-0.00004999,-0.00024707,-0.0
 0003164,-0.00083898,0.00174174,0.00112044,0.00378558,0.01683233,-0.028
 01247,0.02238579,0.08013402,-0.12026784,0.07802838,-0.00001848,-0.0000
 0352,-0.00000386,0.00000596,-0.00001304,-0.00000323,0.00003944,0.00002
 151,-0.00000458,-0.00003612,0.00009662,0.00002293,0.00001000,0.0000521
 1,-0.00000794,-0.00003475,0.00002175,-0.00004392,0.00008307,0.00003129
 ,-0.00005046,-0.00008254,0.00030625,-0.00016458,0.00001499,0.00000025,
 0.00000841,0.00000287,-0.00001332,0.00000541,0.00002292,-0.00004415,-0
 .00003262,0.00014921,-0.00009669,0.00012934,-0.00047353,0.00039280,-0.
 00132416,-0.00119707,-0.00640654,-0.00220147,-0.08929182,0.14358619,-0
 .00000320,-0.00002357,0.00001305,0.00002281,0.00013937,0.00000410,-0.0
 0000857,0.00004281,-0.00002137,0.00009071,-0.00045669,0.00037811,0.000
 16530,0.00017306,0.00000928,-0.00003703,-0.00000081,0.00002296,0.00001
 307,-0.00011099,-0.00011588,-0.00028569,0.00033105,-0.00018772,0.00134
 408,-0.00143992,0.00109948,0.00221807,-0.00053906,0.00156769,-0.091310
 46,0.08390513,-0.13859989,0.00002405,-0.00000157,0.00001058,0.00001181
 ,0.00001766,-0.00001937,-0.00000590,-0.00001328,-0.00000834,-0.0000405
 1,-0.00002934,0.00002128,-0.00001659,-0.00003950,-0.00001613,0.0000420
 0,-0.00000729,0.00002283,-0.00003517,-0.00000432,0.00001808,-0.0000789
 3,-0.00011473,-0.00011179,-0.00003889,0.00005162,0.00001372,-0.0000003
 8,0.00001034,0.00000443,-0.00001039,0.00001060,0.00003227,0.00004062,0
 .00001813,0.00005322,-0.00022114,0.00040236,0.00038021,0.00014910,-0.0
 0136940,0.00119213,0.10067683,-0.09231091,0.14521452,0.00002925,-0.000
 01793,-0.00002132,0.00008650,0.00006782,0.00003526,0.00000701,0.000033
 05,0.00016998,0.00022188,0.00015310,0.00005947,0.00028511,-0.00035640,
 -0.00035889,-0.00057597,0.00006429,0.00032102,0.00087404,0.00029009,-0
 .00087984,0.00097437,-0.00077307,-0.00055037,-0.00095802,0.00139604,0.
 00445585,-0.00551767,-0.01441919,-0.00075635,-0.26006976,-0.02765164,0
 .05485930,-0.00002836,0.00001480,-0.00000664,0.00001942,0.00000711,-0.
 00000611,-0.00002581,-0.00002698,0.00000022,0.00003865,-0.00007098,0.0
 0006167,-0.00005197,-0.00002454,-0.00005764,-0.00003734,-0.00009965,-0
 .00011609,0.00017790,0.00011282,-0.00020453,-0.00004038,-0.00000752,-0
 .00005172,-0.00000147,-0.00002689,-0.00010349,0.00008496,-0.00003853,0
 .00002761,0.00001754,-0.00014408,-0.00010871,0.00062383,0.00031861,-0.
 00084987,-0.00002067,0.00005101,-0.00026277,0.00106425,-0.00037163,-0.
 00071933,-0.01859919,-0.00131871,0.00608967,0.28676436,0.00002316,0.00
 002727,-0.00004579,0.00006367,-0.00017160,0.00001207,0.00000021,-0.000
 04787,0.00023358,0.00004721,0.00027176,-0.00022188,0.00024491,-0.00046
 746,-0.00034022,-0.00054247,0.00009785,0.00040529,0.00079328,-0.000020
 22,-0.00029826,0.00135825,0.00035072,0.00008749,-0.00184275,0.00257683
 ,0.00541313,-0.03715880,-0.01890082,0.00559525,-0.02887668,-0.05446469
 ,0.00786447,-0.00005446,0.00001078,-0.00001418,0.00000943,-0.00001300,
 0.00001288,-0.00000621,-0.00000071,0.00000806,0.00007575,-0.00002510,0
 .00008221,-0.00004431,0.00003092,-0.00004913,-0.00007726,-0.00008579,-
 0.00018749,0.00030197,0.00016361,-0.00031686,-0.00003546,0.00005714,-0
 .00002255,0.00001992,-0.00004258,-0.00015387,0.00007244,0.00003847,-0.
 00004552,0.00003405,-0.00008030,-0.00010546,0.00019421,-0.00052262,-0.
 00190924,0.00001649,-0.00016841,-0.00050302,-0.00032708,0.00171692,-0.
 00071571,0.01577553,0.00343619,-0.00519030,0.04220062,0.06415902,0.,-0
 .00001232,-0.00000746,0.00001499,0.00005271,0.00000719,-0.00000499,0.0
 0001185,-0.00001372,-0.00001867,-0.00016227,-0.00015524,0.00006205,0.0
 0000572,0.00005492,-0.00008432,0.00001882,0.00001717,-0.00019396,0.000
 06928,0.00009647,0.00009401,0.00037467,0.00041924,-0.00167062,-0.00014
 899,-0.00006604,-0.00300771,0.00083590,0.00463082,0.05423667,0.0072434
 5,-0.06694043,0.00001040,-0.00000223,0.00000428,-0.00000494,-0.0000002
 9,0.00000309,-0.00000291,0.00000093,0.00000355,-0.00001723,0.00000566,
 -0.00002972,-0.00000313,-0.00000847,0.00000101,0.00003704,0.00000701,0
 .00001434,0.00000322,-0.00000731,0.00001859,0.00002461,0.00005451,-0.0
 0001769,-0.00001035,0.00001660,-0.00000517,0.00002100,0.00002379,0.000
 00222,-0.00000783,0.00005409,0.00007427,0.00036759,-0.00109870,-0.0007
 8379,-0.00011118,0.00001027,0.00002720,0.00077439,0.00056431,-0.000197
 65,-0.01890531,-0.00259731,0.00530749,-0.06229669,-0.00856635,0.064901
 52,0.00000678,-0.00001210,-0.00003406,-0.00001539,0.00001385,0.0000282
 9,0.00004788,0.00004297,-0.00007148,0.00034314,-0.00004283,-0.00030281
 ,0.00003451,-0.00022354,-0.00005878,-0.00024635,0.00009162,0.00017705,
 0.00038306,0.00009751,-0.00033180,0.00028093,-0.00040021,0.00011993,-0
 .00056862,-0.00189759,0.00040735,0.00088284,-0.00363186,-0.01178237,-0
 .05337783,0.01153351,0.03901177,-0.00000964,0.00000131,-0.00000031,-0.
 00001245,-0.00000787,0.00001650,-0.00000945,0.00000301,0.00001119,0.00
 004149,-0.00000903,-0.00002012,0.00000158,0.00000767,0.00000701,-0.000
 01883,-0.00000322,0.00001081,0.00000208,-0.00002241,0.00001112,-0.0000
 2911,-0.00007440,-0.00000708,0.00001311,-0.00003747,-0.00007990,0.0000
 3872,-0.00000592,0.00001286,-0.00000545,-0.00003896,-0.00003660,0.0002
 6136,-0.00008577,-0.00069863,0.00016109,-0.00009041,0.00033960,0.00021
 251,0.00037075,0.00037444,0.00296015,-0.00616644,-0.01879529,-0.005342
 42,0.00773437,0.03069384,0.05396432,0.00000438,0.00002399,-0.00003900,
 -0.00003266,-0.00005927,0.00005356,0.00012660,-0.00001684,-0.00010107,
 0.00053033,0.00055409,-0.00145024,-0.00040732,-0.00061335,-0.00010545,
 -0.00015880,-0.00000006,0.00008312,0.00023681,0.00032865,-0.00006486,-
 0.00002586,-0.00015008,-0.00045010,-0.00054150,-0.00623553,0.00276759,
 -0.00105822,-0.01667302,-0.03675216,0.01065827,-0.06521591,-0.06196127
 ,-0.00002753,0.00000467,0.00000104,-0.00001189,-0.00000336,0.00001627,
 0.00000145,0.00000061,0.00000527,0.00000504,-0.00000025,-0.00000192,0.
 00002173,-0.00000252,0.00001269,-0.00008299,-0.00002165,0.00001316,-0.
 00001134,0.00002762,0.00002408,0.00004213,-0.00003699,0.00006732,0.000
 08234,-0.00014277,-0.00017027,0.00002581,-0.00002615,-0.00000205,0.000
 03666,-0.00005442,-0.00008595,0.00021186,-0.00007347,-0.00008652,-0.00
 020141,0.00032087,-0.00011988,0.00082101,0.00085780,0.00005962,-0.0037
 3676,0.00587292,0.01654956,0.00063839,0.00207369,0.00325465,-0.0071465
 4,0.07926074,0.00002213,-0.00000553,-0.00004780,-0.00001028,-0.0000007
 9,0.00004560,0.00002287,-0.00001610,-0.00003468,0.00039295,0.00018616,
 -0.00003585,-0.00018799,-0.00005763,-0.00003965,0.00007538,-0.00005085
 ,-0.00005142,-0.00003505,0.00009597,0.00020647,-0.00001305,-0.00008169
 ,-0.00008650,0.00014466,-0.00032355,0.00165084,-0.00182569,-0.00187451
 ,0.00015989,0.03542477,-0.06979123,-0.28570490,-0.00002803,0.00000734,
 -0.00000583,-0.00001495,-0.00000946,0.00002774,-0.00001526,-0.00000308
 ,0.00001310,0.00004746,-0.00002205,-0.00001516,0.00000792,0.00000842,0
 .00001048,-0.00005051,-0.00002452,-0.00001736,0.00002525,0.00001707,-0
 .00001840,-0.00005656,-0.00011508,0.00002121,0.00004699,-0.00003187,-0
 .00000944,-0.00000635,-0.00001388,-0.00001584,0.00000812,0.00000021,-0
 .00004889,-0.00017730,0.00001922,0.00008111,0.00027551,-0.00004669,0.0
 0042520,-0.00001509,-0.00057274,0.00021236,0.00367436,-0.00474733,-0.0
 1628493,0.00127029,-0.00102862,-0.00736647,-0.03900254,0.07848281,0.30
 692913\\0.00000182,-0.00000005,-0.00000096,-0.00000261,0.00000129,-0.0
 0000018,0.00000559,0.00000091,-0.00000306,-0.00000448,0.00000431,0.000
 01026,-0.00000796,-0.00000028,-0.00001064,0.00000851,0.00000374,-0.000
 00024,-0.00000036,-0.00000222,0.00000169,0.00000104,-0.00000337,-0.000
 00433,0.00000181,-0.00000255,0.00000485,0.00000064,-0.00000048,0.00000
 088,-0.00000316,0.00000701,0.00000151,-0.00000046,0.00000026,-0.000000
 11,-0.00000050,0.00000018,-0.00000033,-0.00000078,0.00000022,-0.000000
 54,0.00000098,-0.00000017,0.00000005,0.00000096,-0.00000096,0.00000006
 ,-0.00000095,-0.00000036,0.00000045,-0.00000003,-0.00000058,0.00000020
 ,0.00000092,0.00000079,0.00000033,0.00000160,-0.00000181,0.00000100,-0
 .00000182,-0.00000137,0.00000060,0.00000013,0.00000064,-0.00000043,-0.
 00000005,0.00000043,0.00000157,-0.00000206,-0.00000160,-0.00000180,-0.
 00000099,-0.00000155,-0.00000050,0.00000069,-0.00000045,-0.00000010,0.
 00000037,-0.00000075,0.00000008,0.00000116,-0.00000124,-0.00000034\\\@


 ABSOLUTISM, OBSOLETISM -- IF IT WORKS, IT'S OUT OF DATE

                          -- STAFFORD BEER
 Job cpu time:       0 days  5 hours 22 minutes 57.8 seconds.
 Elapsed time:       0 days  1 hours 23 minutes  7.6 seconds.
 File lengths (MBytes):  RWF=    313 Int=      0 D2E=      0 Chk=     14 Scr=      1
 Normal termination of Gaussian 16 at Tue Jun  1 12:28:10 2021.
### All Done ###
