### Starting Gaussian ###
 Entering Gaussian System, Link 0=g16
 Initial command:
 /cluster/software/gaussian/gaussian-16-A.03/avx2/g16/l1.exe "/local/scratch/linjian/Gau-25147.inp" -scrdir="/local/scratch/linjian/"
 Entering Link 1 = /cluster/software/gaussian/gaussian-16-A.03/avx2/g16/l1.exe PID=     25148.
  
 Copyright (c) 1988,1990,1992,1993,1995,1998,2003,2009,2016,
            Gaussian, Inc.  All Rights Reserved.
  
 This is part of the Gaussian(R) 16 program.  It is based on
 the Gaussian(R) 09 system (copyright 2009, Gaussian, Inc.),
 the Gaussian(R) 03 system (copyright 2003, Gaussian, Inc.),
 the Gaussian(R) 98 system (copyright 1998, Gaussian, Inc.),
 the Gaussian(R) 94 system (copyright 1995, Gaussian, Inc.),
 the Gaussian 92(TM) system (copyright 1992, Gaussian, Inc.),
 the Gaussian 90(TM) system (copyright 1990, Gaussian, Inc.),
 the Gaussian 88(TM) system (copyright 1988, Gaussian, Inc.),
 the Gaussian 86(TM) system (copyright 1986, Carnegie Mellon
 University), and the Gaussian 82(TM) system (copyright 1983,
 Carnegie Mellon University). Gaussian is a federally registered
 trademark of Gaussian, Inc.
  
 This software contains proprietary and confidential information,
 including trade secrets, belonging to Gaussian, Inc.
  
 This software is provided under written license and may be
 used, copied, transmitted, or stored only in accord with that
 written license.
  
 The following legend is applicable only to US Government
 contracts under FAR:
  
                    RESTRICTED RIGHTS LEGEND
  
 Use, reproduction and disclosure by the US Government is
 subject to restrictions as set forth in subparagraphs (a)
 and (c) of the Commercial Computer Software - Restricted
 Rights clause in FAR 52.227-19.
  
 Gaussian, Inc.
 340 Quinnipiac St., Bldg. 40, Wallingford CT 06492
  
  
 ---------------------------------------------------------------
 Warning -- This program may not be used in any manner that
 competes with the business of Gaussian, Inc. or will provide
 assistance to any competitor of Gaussian, Inc.  The licensee
 of this program is prohibited from giving any competitor of
 Gaussian, Inc. access to this program.  By using this program,
 the user acknowledges that Gaussian, Inc. is engaged in the
 business of creating and licensing software in the field of
 computational chemistry and represents and warrants to the
 licensee that it is not a competitor of Gaussian, Inc. and that
 it will not use this program in any manner prohibited above.
 ---------------------------------------------------------------
  

 Cite this work as:
 Gaussian 16, Revision A.03,
 M. J. Frisch, G. W. Trucks, H. B. Schlegel, G. E. Scuseria, 
 M. A. Robb, J. R. Cheeseman, G. Scalmani, V. Barone, 
 G. A. Petersson, H. Nakatsuji, X. Li, M. Caricato, A. V. Marenich, 
 J. Bloino, B. G. Janesko, R. Gomperts, B. Mennucci, H. P. Hratchian, 
 J. V. Ortiz, A. F. Izmaylov, J. L. Sonnenberg, D. Williams-Young, 
 F. Ding, F. Lipparini, F. Egidi, J. Goings, B. Peng, A. Petrone, 
 T. Henderson, D. Ranasinghe, V. G. Zakrzewski, J. Gao, N. Rega, 
 G. Zheng, W. Liang, M. Hada, M. Ehara, K. Toyota, R. Fukuda, 
 J. Hasegawa, M. Ishida, T. Nakajima, Y. Honda, O. Kitao, H. Nakai, 
 T. Vreven, K. Throssell, J. A. Montgomery, Jr., J. E. Peralta, 
 F. Ogliaro, M. J. Bearpark, J. J. Heyd, E. N. Brothers, K. N. Kudin, 
 V. N. Staroverov, T. A. Keith, R. Kobayashi, J. Normand, 
 K. Raghavachari, A. P. Rendell, J. C. Burant, S. S. Iyengar, 
 J. Tomasi, M. Cossi, J. M. Millam, M. Klene, C. Adamo, R. Cammi, 
 J. W. Ochterski, R. L. Martin, K. Morokuma, O. Farkas, 
 J. B. Foresman, and D. J. Fox, Gaussian, Inc., Wallingford CT, 2016.
 
 ******************************************
 Gaussian 16:  ES64L-G16RevA.03 25-Dec-2016
                31-May-2021 
 ******************************************
 %chk=CCCdNCdCpNpCdO.chk
 %NProcShared=20
 Will use up to   20 processors via shared memory.
 -----------------------------
 # opt freq b3lyp/6-31g(2df,p)
 -----------------------------
 1/18=20,19=15,26=3,38=1/1,3;
 2/9=110,12=2,17=6,18=5,40=1/2;
 3/5=1,6=6,7=104,11=2,25=1,30=1,71=1,74=-5/1,2,3;
 4//1;
 5/5=2,38=5/2;
 6/7=2,8=2,9=2,10=2,28=1/1;
 7//1,2,3,16;
 1/18=20,19=15,26=3/3(2);
 2/9=110/2;
 99//99;
 2/9=110/2;
 3/5=1,6=6,7=104,11=2,25=1,30=1,71=1,74=-5/1,2,3;
 4/5=5,16=3,69=1/1;
 5/5=2,38=5/2;
 7//1,2,3,16;
 1/18=20,19=15,26=3/3(-5);
 2/9=110/2;
 6/7=2,8=2,9=2,10=2,19=2,28=1/1;
 99/9=1/99;
 -------------------
 Title Card Required
 -------------------
 Symbolic Z-matrix:
 Charge =  0 Multiplicity = 1
 C                     0.94692  -0.04247  -0.06735 
 C                     2.46374  -0.07286  -0.08573 
 C                     2.99917  -1.28541  -0.81873 
 N                     4.27712  -1.45263  -0.91982 
 C                     4.74198  -2.56535  -1.59247 
 C                     6.06779  -2.77691  -1.72036 
 N                     7.0109   -1.9252   -1.20549 
 C                     6.56334  -3.98953  -2.45341 
 O                     7.76212  -4.2269   -2.5969 
 H                     0.58461   0.84212   0.46739 
 H                     0.54257  -0.92988   0.43016 
 H                     0.54257  -0.01435  -1.08433 
 H                     2.84769  -0.08553   0.94047 
 H                     2.84769   0.8299   -0.57385 
 H                     2.26242  -1.98963  -1.24444 
 H                     4.02686  -3.26713  -2.01671 
 H                     6.67484  -1.10674  -0.71072 
 H                     7.99417  -2.13516  -1.33242 
 H                     5.79412  -4.66376  -2.86099 
 

 GradGradGradGradGradGradGradGradGradGradGradGradGradGradGradGradGradGrad
 Berny optimization.
 Initialization pass.
                           ----------------------------
                           !    Initial Parameters    !
                           ! (Angstroms and Degrees)  !
 --------------------------                            --------------------------
 ! Name  Definition              Value          Derivative Info.                !
 --------------------------------------------------------------------------------
 ! R1    R(1,2)                  1.5172         estimate D2E/DX2                !
 ! R2    R(1,10)                 1.0953         estimate D2E/DX2                !
 ! R3    R(1,11)                 1.0948         estimate D2E/DX2                !
 ! R4    R(1,12)                 1.0948         estimate D2E/DX2                !
 ! R5    R(2,3)                  1.5147         estimate D2E/DX2                !
 ! R6    R(2,13)                 1.0957         estimate D2E/DX2                !
 ! R7    R(2,14)                 1.0957         estimate D2E/DX2                !
 ! R8    R(3,4)                  1.2928         estimate D2E/DX2                !
 ! R9    R(3,15)                 1.1045         estimate D2E/DX2                !
 ! R10   R(4,5)                  1.3808         estimate D2E/DX2                !
 ! R11   R(5,6)                  1.3487         estimate D2E/DX2                !
 ! R12   R(5,16)                 1.0881         estimate D2E/DX2                !
 ! R13   R(6,7)                  1.3711         estimate D2E/DX2                !
 ! R14   R(6,8)                  1.5011         estimate D2E/DX2                !
 ! R15   R(7,17)                 1.0137         estimate D2E/DX2                !
 ! R16   R(7,18)                 1.0134         estimate D2E/DX2                !
 ! R17   R(8,9)                  1.2305         estimate D2E/DX2                !
 ! R18   R(8,19)                 1.1011         estimate D2E/DX2                !
 ! A1    A(2,1,10)             110.6575         estimate D2E/DX2                !
 ! A2    A(2,1,11)             111.0091         estimate D2E/DX2                !
 ! A3    A(2,1,12)             111.0084         estimate D2E/DX2                !
 ! A4    A(10,1,11)            108.0959         estimate D2E/DX2                !
 ! A5    A(10,1,12)            108.0952         estimate D2E/DX2                !
 ! A6    A(11,1,12)            107.8517         estimate D2E/DX2                !
 ! A7    A(1,2,3)              112.0425         estimate D2E/DX2                !
 ! A8    A(1,2,13)             109.8275         estimate D2E/DX2                !
 ! A9    A(1,2,14)             109.8281         estimate D2E/DX2                !
 ! A10   A(3,2,13)             108.6686         estimate D2E/DX2                !
 ! A11   A(3,2,14)             108.669          estimate D2E/DX2                !
 ! A12   A(13,2,14)            107.6944         estimate D2E/DX2                !
 ! A13   A(2,3,4)              119.3945         estimate D2E/DX2                !
 ! A14   A(2,3,15)             117.4602         estimate D2E/DX2                !
 ! A15   A(4,3,15)             123.1453         estimate D2E/DX2                !
 ! A16   A(3,4,5)              118.3663         estimate D2E/DX2                !
 ! A17   A(4,5,6)              120.2351         estimate D2E/DX2                !
 ! A18   A(4,5,16)             119.2369         estimate D2E/DX2                !
 ! A19   A(6,5,16)             120.5279         estimate D2E/DX2                !
 ! A20   A(5,6,7)              122.8974         estimate D2E/DX2                !
 ! A21   A(5,6,8)              119.8381         estimate D2E/DX2                !
 ! A22   A(7,6,8)              117.2645         estimate D2E/DX2                !
 ! A23   A(6,7,17)             117.1798         estimate D2E/DX2                !
 ! A24   A(6,7,18)             119.4491         estimate D2E/DX2                !
 ! A25   A(17,7,18)            123.3711         estimate D2E/DX2                !
 ! A26   A(6,8,9)              122.3036         estimate D2E/DX2                !
 ! A27   A(6,8,19)             116.4095         estimate D2E/DX2                !
 ! A28   A(9,8,19)             121.2869         estimate D2E/DX2                !
 ! D1    D(10,1,2,3)          -179.9998         estimate D2E/DX2                !
 ! D2    D(10,1,2,13)           59.1305         estimate D2E/DX2                !
 ! D3    D(10,1,2,14)          -59.1292         estimate D2E/DX2                !
 ! D4    D(11,1,2,3)            59.9748         estimate D2E/DX2                !
 ! D5    D(11,1,2,13)          -60.895          estimate D2E/DX2                !
 ! D6    D(11,1,2,14)         -179.1546         estimate D2E/DX2                !
 ! D7    D(12,1,2,3)           -59.9758         estimate D2E/DX2                !
 ! D8    D(12,1,2,13)          179.1545         estimate D2E/DX2                !
 ! D9    D(12,1,2,14)           60.8948         estimate D2E/DX2                !
 ! D10   D(1,2,3,4)           -179.9998         estimate D2E/DX2                !
 ! D11   D(1,2,3,15)             0.0004         estimate D2E/DX2                !
 ! D12   D(13,2,3,4)           -58.462          estimate D2E/DX2                !
 ! D13   D(13,2,3,15)          121.5382         estimate D2E/DX2                !
 ! D14   D(14,2,3,4)            58.4613         estimate D2E/DX2                !
 ! D15   D(14,2,3,15)         -121.5385         estimate D2E/DX2                !
 ! D16   D(2,3,4,5)            179.9999         estimate D2E/DX2                !
 ! D17   D(15,3,4,5)            -0.0003         estimate D2E/DX2                !
 ! D18   D(3,4,5,6)           -179.9998         estimate D2E/DX2                !
 ! D19   D(3,4,5,16)             0.0005         estimate D2E/DX2                !
 ! D20   D(4,5,6,7)              0.0001         estimate D2E/DX2                !
 ! D21   D(4,5,6,8)           -179.9996         estimate D2E/DX2                !
 ! D22   D(16,5,6,7)           179.9998         estimate D2E/DX2                !
 ! D23   D(16,5,6,8)             0.0            estimate D2E/DX2                !
 ! D24   D(5,6,7,17)             0.0            estimate D2E/DX2                !
 ! D25   D(5,6,7,18)          -179.9996         estimate D2E/DX2                !
 ! D26   D(8,6,7,17)           179.9998         estimate D2E/DX2                !
 ! D27   D(8,6,7,18)             0.0002         estimate D2E/DX2                !
 ! D28   D(5,6,8,9)           -179.9999         estimate D2E/DX2                !
 ! D29   D(5,6,8,19)            -0.0003         estimate D2E/DX2                !
 ! D30   D(7,6,8,9)              0.0003         estimate D2E/DX2                !
 ! D31   D(7,6,8,19)           180.0            estimate D2E/DX2                !
 --------------------------------------------------------------------------------
 Trust Radius=3.00D-01 FncErr=1.00D-07 GrdErr=1.00D-06 EigMax=2.50D+02 EigMin=1.00D-04
 Number of steps in this run=     87 maximum allowed number of steps=    114.
 GradGradGradGradGradGradGradGradGradGradGradGradGradGradGradGradGradGrad

                          Input orientation:                          
 ---------------------------------------------------------------------
 Center     Atomic      Atomic             Coordinates (Angstroms)
 Number     Number       Type             X           Y           Z
 ---------------------------------------------------------------------
      1          6           0        0.946920   -0.042470   -0.067350
      2          6           0        2.463740   -0.072860   -0.085730
      3          6           0        2.999170   -1.285410   -0.818730
      4          7           0        4.277120   -1.452630   -0.919820
      5          6           0        4.741980   -2.565350   -1.592470
      6          6           0        6.067790   -2.776910   -1.720360
      7          7           0        7.010900   -1.925200   -1.205490
      8          6           0        6.563340   -3.989530   -2.453410
      9          8           0        7.762120   -4.226900   -2.596900
     10          1           0        0.584610    0.842120    0.467390
     11          1           0        0.542570   -0.929880    0.430160
     12          1           0        0.542570   -0.014350   -1.084330
     13          1           0        2.847690   -0.085530    0.940470
     14          1           0        2.847690    0.829900   -0.573850
     15          1           0        2.262420   -1.989630   -1.244440
     16          1           0        4.026860   -3.267130   -2.016710
     17          1           0        6.674840   -1.106740   -0.710720
     18          1           0        7.994170   -2.135160   -1.332420
     19          1           0        5.794120   -4.663760   -2.860990
 ---------------------------------------------------------------------
                    Distance matrix (angstroms):
                    1          2          3          4          5
     1  C    0.000000
     2  C    1.517236   0.000000
     3  C    2.514200   1.514679   0.000000
     4  N    3.715574   2.426483   1.292802   0.000000
     5  C    4.805559   3.697722   2.296586   1.380833   0.000000
     6  C    6.035968   4.793024   3.529014   2.366660   1.348661
     7  N    6.450728   5.036039   4.080796   2.788993   2.389047
     8  C    7.267513   6.144342   4.763166   3.743603   2.467156
     9  O    8.387790   7.185740   5.873665   4.759663   3.590386
    10  H    1.095315   2.162004   3.465630   4.563426   5.756527
    11  H    1.094766   2.165992   2.778671   4.005319   4.939720
    12  H    1.094778   2.165992   2.778672   4.005319   4.939722
    13  H    2.151855   1.095748   2.134817   2.715311   4.019157
    14  H    2.151859   1.095744   2.134818   2.715310   4.019160
    15  H    2.628215   2.248810   1.104516   2.110157   2.569201
    16  H    4.866669   4.046652   2.533479   2.134996   1.088059
    17  H    5.861370   4.380968   3.681595   2.431548   2.577009
    18  H    7.459456   6.032659   5.092738   3.801651   3.290810
    19  H    7.256452   6.314259   4.836923   4.047318   2.668233
                    6          7          8          9         10
     6  C    0.000000
     7  N    1.371115   0.000000
     8  C    1.501126   2.453380   0.000000
     9  O    2.396153   2.792521   1.230450   0.000000
    10  H    6.924514   7.194011   8.223207   9.305992   0.000000
    11  H    6.210017   6.745762   7.343440   8.494430   1.772890
    12  H    6.210018   6.745763   7.343440   8.494430   1.772891
    13  H    4.969164   5.032082   6.369120   7.335909   2.491158
    14  H    4.969166   5.032083   6.369121   7.335910   2.491157
    15  H    3.914990   4.749077   4.894806   6.089436   3.710016
    16  H    2.119796   3.370957   2.673256   3.899993   5.908111
    17  H    2.043857   1.013711   3.370442   3.804635   6.502069
    18  H    2.067191   1.013417   2.596648   2.455226   8.185664
    19  H    2.221741   3.423587   1.101094   2.033129   8.278395
                   11         12         13         14         15
    11  H    0.000000
    12  H    1.769710   0.000000
    13  H    2.507373   3.068951   0.000000
    14  H    3.068948   2.507374   1.769513   0.000000
    15  H    2.623974   2.623976   2.956682   2.956684   0.000000
    16  H    4.856973   4.856973   4.500881   4.500882   2.311202
    17  H    6.240002   6.240003   4.291430   4.291432   4.531424
    18  H    7.751499   7.751498   5.987760   5.987760   5.734272
    19  H    7.235489   7.235490   6.640236   6.640238   4.715624
                   16         17         18         19
    16  H    0.000000
    17  H    3.658510   0.000000
    18  H    4.182004   1.784598   0.000000
    19  H    2.405534   4.248732   3.683825   0.000000
 Stoichiometry    C6H10N2O
 Framework group  C1[X(C6H10N2O)]
 Deg. of freedom    51
 Full point group                 C1      NOp   1
 Largest Abelian subgroup         C1      NOp   1
 Largest concise Abelian subgroup C1      NOp   1
                         Standard orientation:                         
 ---------------------------------------------------------------------
 Center     Atomic      Atomic             Coordinates (Angstroms)
 Number     Number       Type             X           Y           Z
 ---------------------------------------------------------------------
      1          6           0        4.345046   -0.357176   -0.000005
      2          6           0        3.095766    0.503814    0.000003
      3          6           0        1.830997   -0.329620    0.000000
      4          7           0        0.681387    0.261762    0.000003
      5          6           0       -0.457801   -0.518591   -0.000001
      6          6           0       -1.676564    0.058906   -0.000002
      7          7           0       -1.856574    1.418153   -0.000001
      8          6           0       -2.909085   -0.797991    0.000002
      9          8           0       -4.042659   -0.319434   -0.000001
     10          1           0        5.244809    0.267437    0.000001
     11          1           0        4.378023   -1.000968   -0.884852
     12          1           0        4.378023   -1.000968    0.884858
     13          1           0        3.089865    1.150211   -0.884757
     14          1           0        3.089867    1.150213    0.884756
     15          1           0        1.944976   -1.428239   -0.000000
     16          1           0       -0.359669   -1.602215    0.000003
     17          1           0       -1.023397    1.995584   -0.000001
     18          1           0       -2.796825    1.796230    0.000004
     19          1           0       -2.748253   -1.887275    0.000001
 ---------------------------------------------------------------------
 Rotational constants (GHZ):           7.1247437           0.5357928           0.5014393
 Standard basis: 6-31G(2df,p) (6D, 7F)
 There are   329 symmetry adapted cartesian basis functions of A   symmetry.
 There are   302 symmetry adapted basis functions of A   symmetry.
   302 basis functions,   466 primitive gaussians,   329 cartesian basis functions
    34 alpha electrons       34 beta electrons
       nuclear repulsion energy       406.7076372459 Hartrees.
 NAtoms=   19 NActive=   19 NUniq=   19 SFac= 1.00D+00 NAtFMM=   60 NAOKFM=F Big=F
 Integral buffers will be    131072 words long.
 Raffenetti 2 integral format.
 Two-electron integral symmetry is turned on.
 One-electron integrals computed using PRISM.
 PrsmSu:  requested number of processors reduced to:  13 ShMem   1 Linda.
 NBasis=   302 RedAO= T EigKep=  2.22D-04  NBF=   302
 NBsUse=   302 1.00D-06 EigRej= -1.00D+00 NBFU=   302
 ExpMin= 1.61D-01 ExpMax= 5.48D+03 ExpMxC= 8.25D+02 IAcc=3 IRadAn=         5 AccDes= 0.00D+00
 Harris functional with IExCor=  402 and IRadAn=       5 diagonalized for initial guess.
 HarFok:  IExCor=  402 AccDes= 0.00D+00 IRadAn=         5 IDoV= 1 UseB2=F ITyADJ=14
 ICtDFT=  3500011 ScaDFX=  1.000000  1.000000  1.000000  1.000000
 FoFCou: FMM=F IPFlag=           0 FMFlag=      100000 FMFlg1=           0
         NFxFlg=           0 DoJE=T BraDBF=F KetDBF=T FulRan=T
         wScrn=  0.000000 ICntrl=       500 IOpCl=  0 I1Cent=   200000004 NGrid=           0
         NMat0=    1 NMatS0=      1 NMatT0=    0 NMatD0=    1 NMtDS0=    0 NMtDT0=    0
 Petite list used in FoFCou.
 Requested convergence on RMS density matrix=1.00D-08 within 128 cycles.
 Requested convergence on MAX density matrix=1.00D-06.
 Requested convergence on             energy=1.00D-06.
 No special actions if energy rises.
 Integral accuracy reduced to 1.0D-05 until final iterations.
 Initial convergence to 1.0D-05 achieved.  Increase integral accuracy.
 SCF Done:  E(RB3LYP) =  -419.383233872     A.U. after   15 cycles
            NFock= 15  Conv=0.29D-08     -V/T= 2.0079

 **********************************************************************

            Population analysis using the SCF density.

 **********************************************************************

 Orbital symmetries:
       Occupied  (A) (A) (A) (A) (A) (A) (A) (A) (A) (A) (A) (A)
                 (A) (A) (A) (A) (A) (A) (A) (A) (A) (A) (A) (A)
                 (A) (A) (A) (A) (A) (A) (A) (A) (A) (A)
       Virtual   (A) (A) (A) (A) (A) (A) (A) (A) (A) (A) (A) (A)
                 (A) (A) (A) (A) (A) (A) (A) (A) (A) (A) (A) (A)
                 (A) (A) (A) (A) (A) (A) (A) (A) (A) (A) (A) (A)
                 (A) (A) (A) (A) (A) (A) (A) (A) (A) (A) (A) (A)
                 (A) (A) (A) (A) (A) (A) (A) (A) (A) (A) (A) (A)
                 (A) (A) (A) (A) (A) (A) (A) (A) (A) (A) (A) (A)
                 (A) (A) (A) (A) (A) (A) (A) (A) (A) (A) (A) (A)
                 (A) (A) (A) (A) (A) (A) (A) (A) (A) (A) (A) (A)
                 (A) (A) (A) (A) (A) (A) (A) (A) (A) (A) (A) (A)
                 (A) (A) (A) (A) (A) (A) (A) (A) (A) (A) (A) (A)
                 (A) (A) (A) (A) (A) (A) (A) (A) (A) (A) (A) (A)
                 (A) (A) (A) (A) (A) (A) (A) (A) (A) (A) (A) (A)
                 (A) (A) (A) (A) (A) (A) (A) (A) (A) (A) (A) (A)
                 (A) (A) (A) (A) (A) (A) (A) (A) (A) (A) (A) (A)
                 (A) (A) (A) (A) (A) (A) (A) (A) (A) (A) (A) (A)
                 (A) (A) (A) (A) (A) (A) (A) (A) (A) (A) (A) (A)
                 (A) (A) (A) (A) (A) (A) (A) (A) (A) (A) (A) (A)
                 (A) (A) (A) (A) (A) (A) (A) (A) (A) (A) (A) (A)
                 (A) (A) (A) (A) (A) (A) (A) (A) (A) (A) (A) (A)
                 (A) (A) (A) (A) (A) (A) (A) (A) (A) (A) (A) (A)
                 (A) (A) (A) (A) (A) (A) (A) (A) (A) (A) (A) (A)
                 (A) (A) (A) (A) (A) (A) (A) (A) (A) (A) (A) (A)
                 (A) (A) (A) (A)
 The electronic state is 1-A.
 Alpha  occ. eigenvalues --  -19.13673 -14.33321 -14.33304 -10.27137 -10.23106
 Alpha  occ. eigenvalues --  -10.22647 -10.20334 -10.19261 -10.18343  -1.03219
 Alpha  occ. eigenvalues --   -0.93665  -0.89929  -0.78883  -0.74666  -0.67030
 Alpha  occ. eigenvalues --   -0.61774  -0.56509  -0.56232  -0.53352  -0.49555
 Alpha  occ. eigenvalues --   -0.46044  -0.45598  -0.44453  -0.42410  -0.41029
 Alpha  occ. eigenvalues --   -0.40595  -0.37471  -0.37159  -0.35815  -0.34864
 Alpha  occ. eigenvalues --   -0.30870  -0.26633  -0.25755  -0.19733
 Alpha virt. eigenvalues --   -0.06557   0.00984   0.09620   0.10159   0.10522
 Alpha virt. eigenvalues --    0.11059   0.12535   0.14838   0.14900   0.15251
 Alpha virt. eigenvalues --    0.16133   0.18693   0.19739   0.21843   0.23171
 Alpha virt. eigenvalues --    0.25234   0.29410   0.30452   0.33444   0.38717
 Alpha virt. eigenvalues --    0.40881   0.42539   0.46013   0.47504   0.48617
 Alpha virt. eigenvalues --    0.49269   0.49870   0.51198   0.52778   0.53086
 Alpha virt. eigenvalues --    0.55438   0.57061   0.57334   0.58739   0.58807
 Alpha virt. eigenvalues --    0.60035   0.62270   0.65957   0.66650   0.68769
 Alpha virt. eigenvalues --    0.70376   0.72727   0.72957   0.73042   0.74588
 Alpha virt. eigenvalues --    0.74752   0.74893   0.75174   0.76419   0.77665
 Alpha virt. eigenvalues --    0.78869   0.80233   0.80725   0.82581   0.85234
 Alpha virt. eigenvalues --    0.86164   0.88065   0.88749   0.89244   0.90848
 Alpha virt. eigenvalues --    0.94608   0.95873   0.97012   0.98252   1.01326
 Alpha virt. eigenvalues --    1.02239   1.03247   1.04946   1.06620   1.10186
 Alpha virt. eigenvalues --    1.13262   1.19296   1.19840   1.23230   1.24767
 Alpha virt. eigenvalues --    1.26213   1.29963   1.32653   1.33467   1.35837
 Alpha virt. eigenvalues --    1.37461   1.38950   1.39690   1.43415   1.46703
 Alpha virt. eigenvalues --    1.48229   1.49352   1.51521   1.52210   1.54202
 Alpha virt. eigenvalues --    1.54663   1.56085   1.58413   1.60273   1.65576
 Alpha virt. eigenvalues --    1.65750   1.66764   1.71440   1.72618   1.73710
 Alpha virt. eigenvalues --    1.79455   1.81449   1.84407   1.87374   1.88997
 Alpha virt. eigenvalues --    1.90476   1.91526   1.94733   2.01379   2.06464
 Alpha virt. eigenvalues --    2.15362   2.16327   2.20799   2.23003   2.27022
 Alpha virt. eigenvalues --    2.28315   2.31411   2.31971   2.32356   2.33492
 Alpha virt. eigenvalues --    2.38078   2.38739   2.45526   2.47082   2.50615
 Alpha virt. eigenvalues --    2.52420   2.59172   2.66747   2.75183   2.75900
 Alpha virt. eigenvalues --    2.76212   2.80175   2.81625   2.82725   2.83401
 Alpha virt. eigenvalues --    2.85749   2.86659   2.89559   2.90583   2.93057
 Alpha virt. eigenvalues --    2.94503   2.96158   2.96666   2.99593   3.01177
 Alpha virt. eigenvalues --    3.03596   3.04159   3.06306   3.09128   3.10731
 Alpha virt. eigenvalues --    3.11847   3.16592   3.17675   3.22439   3.22717
 Alpha virt. eigenvalues --    3.25199   3.26446   3.27545   3.35519   3.37237
 Alpha virt. eigenvalues --    3.38625   3.41478   3.43536   3.44694   3.46319
 Alpha virt. eigenvalues --    3.47761   3.49335   3.55800   3.57491   3.58855
 Alpha virt. eigenvalues --    3.61541   3.63140   3.63470   3.69086   3.73209
 Alpha virt. eigenvalues --    3.74663   3.79153   3.81699   3.83587   3.87107
 Alpha virt. eigenvalues --    3.91598   3.92529   3.94236   4.01410   4.04457
 Alpha virt. eigenvalues --    4.06000   4.08378   4.11033   4.11487   4.15491
 Alpha virt. eigenvalues --    4.16508   4.16670   4.18752   4.21528   4.22864
 Alpha virt. eigenvalues --    4.27409   4.28690   4.29213   4.31343   4.35296
 Alpha virt. eigenvalues --    4.36948   4.41097   4.41943   4.42583   4.43902
 Alpha virt. eigenvalues --    4.46767   4.49581   4.50423   4.52889   4.54955
 Alpha virt. eigenvalues --    4.55486   4.57778   4.58372   4.59466   4.60720
 Alpha virt. eigenvalues --    4.64448   4.65445   4.66149   4.69122   4.69878
 Alpha virt. eigenvalues --    4.71015   4.73152   4.75654   4.76359   4.76867
 Alpha virt. eigenvalues --    4.80320   4.81730   4.88293   4.89435   4.89540
 Alpha virt. eigenvalues --    4.93512   5.04449   5.04731   5.05215   5.05877
 Alpha virt. eigenvalues --    5.08970   5.11422   5.16790   5.20108   5.24699
 Alpha virt. eigenvalues --    5.31434   5.36667   5.40941   5.48800   5.49133
 Alpha virt. eigenvalues --    5.56435   5.60942   5.66600   5.73816   5.81022
 Alpha virt. eigenvalues --    5.81976   5.95473   6.07081   6.12072   6.34726
 Alpha virt. eigenvalues --    6.46312   6.77700   9.97171  10.64167  10.97792
 Alpha virt. eigenvalues --   11.17945  11.32837  11.45115  11.58248  12.06524
 Alpha virt. eigenvalues --   12.83363  13.56570  14.81206
          Condensed to atoms (all electrons):
               1          2          3          4          5          6
     1  C    4.964220   0.372506  -0.026322   0.001184  -0.000187   0.000001
     2  C    0.372506   4.930078   0.395420  -0.029691   0.003706  -0.000223
     3  C   -0.026322   0.395420   4.726364   0.654760  -0.100850   0.003872
     4  N    0.001184  -0.029691   0.654760   6.249050   0.472091  -0.013272
     5  C   -0.000187   0.003706  -0.100850   0.472091   4.909814   0.432060
     6  C    0.000001  -0.000223   0.003872  -0.013272   0.432060   5.073935
     7  N    0.000000  -0.000004   0.000544  -0.010994  -0.028174   0.353394
     8  C   -0.000000   0.000002  -0.000188  -0.000141  -0.014886   0.277827
     9  O   -0.000000  -0.000000   0.000000  -0.000046   0.002411  -0.063945
    10  H    0.378604  -0.021805   0.002215  -0.000040   0.000002  -0.000000
    11  H    0.380653  -0.030662  -0.003303   0.000104   0.000002  -0.000000
    12  H    0.380650  -0.030663  -0.003303   0.000104   0.000002  -0.000000
    13  H   -0.034896   0.361722  -0.022091  -0.002639   0.000311   0.000005
    14  H   -0.034895   0.361723  -0.022091  -0.002639   0.000311   0.000005
    15  H    0.003855  -0.082926   0.361443  -0.053879  -0.002551  -0.000561
    16  H    0.000071  -0.000577  -0.003116  -0.070889   0.370084  -0.066573
    17  H    0.000002  -0.000075  -0.000403   0.024236  -0.003745  -0.041614
    18  H    0.000000  -0.000000  -0.000001   0.000197   0.006508  -0.053258
    19  H    0.000000  -0.000000   0.000029  -0.000269   0.004980  -0.110489
               7          8          9         10         11         12
     1  C    0.000000  -0.000000  -0.000000   0.378604   0.380653   0.380650
     2  C   -0.000004   0.000002  -0.000000  -0.021805  -0.030662  -0.030663
     3  C    0.000544  -0.000188   0.000000   0.002215  -0.003303  -0.003303
     4  N   -0.010994  -0.000141  -0.000046  -0.000040   0.000104   0.000104
     5  C   -0.028174  -0.014886   0.002411   0.000002   0.000002   0.000002
     6  C    0.353394   0.277827  -0.063945  -0.000000  -0.000000  -0.000000
     7  N    6.591646  -0.021868  -0.004075  -0.000000   0.000000   0.000000
     8  C   -0.021868   4.550558   0.734007   0.000000  -0.000000  -0.000000
     9  O   -0.004075   0.734007   7.666656  -0.000000   0.000000   0.000000
    10  H   -0.000000   0.000000  -0.000000   0.588655  -0.030606  -0.030605
    11  H    0.000000  -0.000000   0.000000  -0.030606   0.593602  -0.033960
    12  H    0.000000  -0.000000   0.000000  -0.030605  -0.033960   0.593607
    13  H   -0.000006   0.000000  -0.000000  -0.002323  -0.004248   0.005408
    14  H   -0.000006   0.000000  -0.000000  -0.002323   0.005408  -0.004248
    15  H    0.000050  -0.000008   0.000000  -0.000142   0.003002   0.003002
    16  H    0.005978  -0.004063   0.000082   0.000000   0.000001   0.000001
    17  H    0.347262   0.003983   0.000018   0.000000   0.000000   0.000000
    18  H    0.349178   0.000552   0.020548  -0.000000   0.000000   0.000000
    19  H    0.005094   0.358233  -0.052326  -0.000000   0.000000   0.000000
              13         14         15         16         17         18
     1  C   -0.034896  -0.034895   0.003855   0.000071   0.000002   0.000000
     2  C    0.361722   0.361723  -0.082926  -0.000577  -0.000075  -0.000000
     3  C   -0.022091  -0.022091   0.361443  -0.003116  -0.000403  -0.000001
     4  N   -0.002639  -0.002639  -0.053879  -0.070889   0.024236   0.000197
     5  C    0.000311   0.000311  -0.002551   0.370084  -0.003745   0.006508
     6  C    0.000005   0.000005  -0.000561  -0.066573  -0.041614  -0.053258
     7  N   -0.000006  -0.000006   0.000050   0.005978   0.347262   0.349178
     8  C    0.000000   0.000000  -0.000008  -0.004063   0.003983   0.000552
     9  O   -0.000000  -0.000000   0.000000   0.000082   0.000018   0.020548
    10  H   -0.002323  -0.002323  -0.000142   0.000000   0.000000  -0.000000
    11  H   -0.004248   0.005408   0.003002   0.000001   0.000000   0.000000
    12  H    0.005408  -0.004248   0.003002   0.000001   0.000000   0.000000
    13  H    0.600749  -0.032187   0.004764   0.000027   0.000036   0.000000
    14  H   -0.032187   0.600746   0.004764   0.000027   0.000036   0.000000
    15  H    0.004764   0.004764   0.647997   0.017519   0.000097   0.000001
    16  H    0.000027   0.000027   0.017519   0.661346   0.000674  -0.000079
    17  H    0.000036   0.000036   0.000097   0.000674   0.426776  -0.024009
    18  H    0.000000   0.000000   0.000001  -0.000079  -0.024009   0.430237
    19  H    0.000000   0.000000   0.000003   0.008658  -0.000129   0.001040
              19
     1  C    0.000000
     2  C   -0.000000
     3  C    0.000029
     4  N   -0.000269
     5  C    0.004980
     6  C   -0.110489
     7  N    0.005094
     8  C    0.358233
     9  O   -0.052326
    10  H   -0.000000
    11  H    0.000000
    12  H    0.000000
    13  H    0.000000
    14  H    0.000000
    15  H    0.000003
    16  H    0.008658
    17  H   -0.000129
    18  H    0.001040
    19  H    0.692049
 Mulliken charges:
               1
     1  C   -0.385446
     2  C   -0.228531
     3  C    0.037022
     4  N   -0.217225
     5  C   -0.051889
     6  C    0.208837
     7  N   -0.588019
     8  C    0.115991
     9  O   -0.303330
    10  H    0.118369
    11  H    0.120007
    12  H    0.120005
    13  H    0.125369
    14  H    0.125370
    15  H    0.093571
    16  H    0.080827
    17  H    0.266856
    18  H    0.269086
    19  H    0.093127
 Sum of Mulliken charges =  -0.00000
 Mulliken charges with hydrogens summed into heavy atoms:
               1
     1  C   -0.027064
     2  C    0.022208
     3  C    0.130593
     4  N   -0.217225
     5  C    0.028938
     6  C    0.208837
     7  N   -0.052077
     8  C    0.209119
     9  O   -0.303330
 Electronic spatial extent (au):  <R**2>=           2158.4903
 Charge=             -0.0000 electrons
 Dipole moment (field-independent basis, Debye):
    X=              3.2810    Y=             -0.2198    Z=              0.0000  Tot=              3.2884
 Quadrupole moment (field-independent basis, Debye-Ang):
   XX=            -62.1050   YY=            -47.6753   ZZ=            -54.7329
   XY=             -1.7824   XZ=             -0.0001   YZ=              0.0000
 Traceless Quadrupole moment (field-independent basis, Debye-Ang):
   XX=             -7.2673   YY=              7.1625   ZZ=              0.1048
   XY=             -1.7824   XZ=             -0.0001   YZ=              0.0000
 Octapole moment (field-independent basis, Debye-Ang**2):
  XXX=             66.7448  YYY=              9.1628  ZZZ=             -0.0000  XYY=            -15.6354
  XXY=             12.3765  XXZ=              0.0000  XZZ=             -3.3975  YZZ=              0.4340
  YYZ=              0.0000  XYZ=              0.0000
 Hexadecapole moment (field-independent basis, Debye-Ang**3):
 XXXX=          -2793.1055 YYYY=           -218.7964 ZZZZ=            -64.9727 XXXY=            -24.2419
 XXXZ=             -0.0007 YYYX=            -13.3094 YYYZ=              0.0001 ZZZX=             -0.0001
 ZZZY=              0.0001 XXYY=           -421.2532 XXZZ=           -419.7499 YYZZ=            -53.6631
 XXYZ=              0.0005 YYXZ=             -0.0001 ZZXY=              2.0523
 N-N= 4.067076372459D+02 E-N=-1.790044337912D+03  KE= 4.160859626057D+02
 PrsmSu:  requested number of processors reduced to:  13 ShMem   1 Linda.
 Calling FoFJK, ICntrl=      2127 FMM=F ISym2X=0 I1Cent= 0 IOpClX= 0 NMat=1 NMatS=1 NMatT=0.
 ***** Axes restored to original set *****
 -------------------------------------------------------------------
 Center     Atomic                   Forces (Hartrees/Bohr)
 Number     Number              X              Y              Z
 -------------------------------------------------------------------
      1        6          -0.006278271    0.002610347    0.001568837
      2        6          -0.000559900   -0.007695096   -0.004647371
      3        6           0.017808871    0.009405344    0.005684814
      4        7          -0.018996874   -0.004704250   -0.002843130
      5        6          -0.013290982    0.000883889    0.000533759
      6        6           0.024007158   -0.006001601   -0.003628744
      7        7          -0.002139556   -0.005810536   -0.003512344
      8        6           0.026109661    0.011267325    0.006812469
      9        8          -0.026097780    0.005544096    0.003351007
     10        1          -0.001188558   -0.001371298   -0.000828348
     11        1          -0.001171677    0.000149632    0.000190059
     12        1          -0.001169666    0.000237108    0.000050948
     13        1           0.002529489    0.001678750   -0.000393601
     14        1           0.002529804    0.000433743    0.001667888
     15        1           0.003950292    0.000407506    0.000246558
     16        1           0.000372486   -0.002790235   -0.001686527
     17        1           0.006141355   -0.006187268   -0.003740386
     18        1          -0.008816759    0.001998090    0.001207974
     19        1          -0.003739093   -0.000055546   -0.000033862
 -------------------------------------------------------------------
 Cartesian Forces:  Max     0.026109661 RMS     0.007980510

 GradGradGradGradGradGradGradGradGradGradGradGradGradGradGradGradGradGrad
 Berny optimization.
 FormGI is forming the generalized inverse of G from B-inverse, IUseBI=4.
 Internal  Forces:  Max     0.026886361 RMS     0.005662297
 Search for a local minimum.
 Step number   1 out of a maximum of   87
 All quantities printed in internal units (Hartrees-Bohrs-Radians)
 Mixed Optimization -- RFO/linear search
 Second derivative matrix not updated -- first step.
 ITU=  0
     Eigenvalues ---    0.00538   0.00572   0.00751   0.00751   0.01263
     Eigenvalues ---    0.01903   0.01945   0.02074   0.02074   0.02498
     Eigenvalues ---    0.02768   0.03110   0.04252   0.05486   0.05644
     Eigenvalues ---    0.05672   0.09302   0.12771   0.16000   0.16000
     Eigenvalues ---    0.16000   0.16000   0.16000   0.16000   0.16000
     Eigenvalues ---    0.16000   0.21969   0.22000   0.22000   0.22000
     Eigenvalues ---    0.25000   0.25000   0.25000   0.30634   0.30885
     Eigenvalues ---    0.32259   0.33188   0.33561   0.34157   0.34157
     Eigenvalues ---    0.34206   0.34266   0.34268   0.35038   0.45357
     Eigenvalues ---    0.45405   0.48950   0.50763   0.55307   0.69232
     Eigenvalues ---    0.90899
 RFO step:  Lambda=-6.00990000D-03 EMin= 5.37951737D-03
 Linear search not attempted -- first point.
 Iteration  1 RMS(Cart)=  0.04894578 RMS(Int)=  0.00069787
 Iteration  2 RMS(Cart)=  0.00104934 RMS(Int)=  0.00005741
 Iteration  3 RMS(Cart)=  0.00000034 RMS(Int)=  0.00005741
 Variable       Old X    -DE/DX   Delta X   Delta X   Delta X     New X
                                 (Linear)    (Quad)   (Total)
    R1        2.86716   0.00985   0.00000   0.03153   0.03153   2.89869
    R2        2.06985  -0.00112   0.00000  -0.00321  -0.00321   2.06663
    R3        2.06881   0.00040   0.00000   0.00114   0.00114   2.06995
    R4        2.06883   0.00039   0.00000   0.00112   0.00112   2.06995
    R5        2.86233  -0.00245   0.00000  -0.00778  -0.00778   2.85455
    R6        2.07066   0.00050   0.00000   0.00143   0.00143   2.07210
    R7        2.07066   0.00050   0.00000   0.00144   0.00144   2.07210
    R8        2.44304  -0.01523   0.00000  -0.02180  -0.02180   2.42124
    R9        2.08723  -0.00299   0.00000  -0.00885  -0.00885   2.07838
   R10        2.60940   0.00212   0.00000   0.00429   0.00429   2.61368
   R11        2.54860   0.01504   0.00000   0.02690   0.02690   2.57550
   R12        2.05613   0.00221   0.00000   0.00621   0.00621   2.06234
   R13        2.59103  -0.01179   0.00000  -0.02296  -0.02296   2.56807
   R14        2.83672  -0.01971   0.00000  -0.05999  -0.05999   2.77673
   R15        1.91564  -0.00886   0.00000  -0.01927  -0.01927   1.89636
   R16        1.91508  -0.00912   0.00000  -0.01982  -0.01982   1.89526
   R17        2.32521  -0.02689   0.00000  -0.02938  -0.02938   2.29583
   R18        2.08077   0.00266   0.00000   0.00778   0.00778   2.08855
    A1        1.93134   0.00185   0.00000   0.01106   0.01103   1.94237
    A2        1.93747   0.00098   0.00000   0.00592   0.00589   1.94336
    A3        1.93746   0.00098   0.00000   0.00593   0.00590   1.94336
    A4        1.88663  -0.00149   0.00000  -0.00906  -0.00909   1.87754
    A5        1.88662  -0.00149   0.00000  -0.00905  -0.00908   1.87754
    A6        1.88237  -0.00101   0.00000  -0.00598  -0.00599   1.87637
    A7        1.95551   0.00343   0.00000   0.02124   0.02109   1.97660
    A8        1.91685   0.00050   0.00000   0.01017   0.01017   1.92702
    A9        1.91686   0.00050   0.00000   0.01016   0.01016   1.92703
   A10        1.89663  -0.00163   0.00000  -0.00804  -0.00829   1.88834
   A11        1.89663  -0.00163   0.00000  -0.00804  -0.00829   1.88834
   A12        1.87962  -0.00139   0.00000  -0.02784  -0.02794   1.85168
   A13        2.08383   0.00968   0.00000   0.04281   0.04281   2.12664
   A14        2.05007  -0.00210   0.00000  -0.00490  -0.00490   2.04517
   A15        2.14929  -0.00758   0.00000  -0.03791  -0.03791   2.11138
   A16        2.06588   0.00534   0.00000   0.02088   0.02088   2.08676
   A17        2.09850   0.00148   0.00000   0.00655   0.00655   2.10505
   A18        2.08108   0.00175   0.00000   0.01173   0.01173   2.09281
   A19        2.10361  -0.00323   0.00000  -0.01829  -0.01829   2.08532
   A20        2.14496   0.01072   0.00000   0.04189   0.04189   2.18685
   A21        2.09157  -0.00342   0.00000  -0.01337  -0.01337   2.07820
   A22        2.04665  -0.00730   0.00000  -0.02852  -0.02852   2.01813
   A23        2.04517   0.00425   0.00000   0.02563   0.02563   2.07080
   A24        2.08478  -0.00200   0.00000  -0.01206  -0.01206   2.07272
   A25        2.15323  -0.00225   0.00000  -0.01357  -0.01357   2.13966
   A26        2.13460   0.00116   0.00000   0.00513   0.00513   2.13973
   A27        2.03173  -0.00332   0.00000  -0.01905  -0.01905   2.01268
   A28        2.11685   0.00216   0.00000   0.01392   0.01392   2.13077
    D1       -3.14159  -0.00000   0.00000  -0.00000  -0.00000  -3.14159
    D2        1.03202  -0.00055   0.00000  -0.01089  -0.01096   1.02106
    D3       -1.03200   0.00055   0.00000   0.01087   0.01095  -1.02105
    D4        1.04676   0.00001   0.00000   0.00017   0.00017   1.04693
    D5       -1.06282  -0.00054   0.00000  -0.01071  -0.01079  -1.07361
    D6       -3.12684   0.00056   0.00000   0.01105   0.01112  -3.11571
    D7       -1.04677  -0.00001   0.00000  -0.00016  -0.00016  -1.04693
    D8        3.12684  -0.00056   0.00000  -0.01105  -0.01112   3.11571
    D9        1.06282   0.00054   0.00000   0.01071   0.01080   1.07361
   D10       -3.14159  -0.00000   0.00000  -0.00000  -0.00000   3.14159
   D11        0.00001  -0.00000   0.00000  -0.00001  -0.00001  -0.00000
   D12       -1.02035   0.00173   0.00000   0.02100   0.02089  -0.99947
   D13        2.12124   0.00173   0.00000   0.02100   0.02088   2.14213
   D14        1.02034  -0.00173   0.00000  -0.02099  -0.02088   0.99946
   D15       -2.12125  -0.00173   0.00000  -0.02100  -0.02089  -2.14213
   D16        3.14159   0.00000   0.00000   0.00000   0.00000  -3.14159
   D17       -0.00001   0.00000   0.00000   0.00001   0.00001   0.00000
   D18       -3.14159   0.00000   0.00000   0.00000   0.00000  -3.14159
   D19        0.00001  -0.00000   0.00000  -0.00001  -0.00001   0.00000
   D20        0.00000  -0.00000   0.00000  -0.00000  -0.00000  -0.00000
   D21       -3.14159  -0.00000   0.00000  -0.00001  -0.00001   3.14159
   D22        3.14159   0.00000   0.00000   0.00000   0.00000  -3.14159
   D23       -0.00000   0.00000   0.00000   0.00000   0.00000  -0.00000
   D24        0.00000  -0.00000   0.00000  -0.00000  -0.00000  -0.00000
   D25       -3.14159  -0.00000   0.00000  -0.00000  -0.00000  -3.14159
   D26        3.14159  -0.00000   0.00000  -0.00000  -0.00000   3.14159
   D27        0.00000   0.00000   0.00000   0.00000   0.00000   0.00000
   D28       -3.14159  -0.00000   0.00000  -0.00002  -0.00002   3.14157
   D29       -0.00000   0.00000   0.00000   0.00002   0.00002   0.00001
   D30        0.00001  -0.00000   0.00000  -0.00003  -0.00003  -0.00002
   D31        3.14159   0.00000   0.00000   0.00001   0.00001  -3.14158
         Item               Value     Threshold  Converged?
 Maximum Force            0.026886     0.000450     NO 
 RMS     Force            0.005662     0.000300     NO 
 Maximum Displacement     0.233118     0.001800     NO 
 RMS     Displacement     0.048670     0.001200     NO 
 Predicted change in Energy=-3.068350D-03
 GradGradGradGradGradGradGradGradGradGradGradGradGradGradGradGradGradGrad

                          Input orientation:                          
 ---------------------------------------------------------------------
 Center     Atomic      Atomic             Coordinates (Angstroms)
 Number     Number       Type             X           Y           Z
 ---------------------------------------------------------------------
      1          6           0        0.905853   -0.046412   -0.069739
      2          6           0        2.439576   -0.067617   -0.082559
      3          6           0        3.013386   -1.263435   -0.805445
      4          7           0        4.276995   -1.444826   -0.915101
      5          6           0        4.750957   -2.556797   -1.587300
      6          6           0        6.090727   -2.770756   -1.716638
      7          7           0        7.066104   -1.960954   -1.227101
      8          6           0        6.557012   -3.963236   -2.437505
      9          8           0        7.735331   -4.216440   -2.590591
     10          1           0        0.525296    0.830996    0.460661
     11          1           0        0.498937   -0.934603    0.425609
     12          1           0        0.498937   -0.020577   -1.086394
     13          1           0        2.830599   -0.066784    0.941857
     14          1           0        2.830598    0.839840   -0.557901
     15          1           0        2.299169   -1.979196   -1.238127
     16          1           0        4.048717   -3.271718   -2.019479
     17          1           0        6.798200   -1.133330   -0.726797
     18          1           0        8.024645   -2.213465   -1.379748
     19          1           0        5.759580   -4.618111   -2.833403
 ---------------------------------------------------------------------
                    Distance matrix (angstroms):
                    1          2          3          4          5
     1  C    0.000000
     2  C    1.533923   0.000000
     3  C    2.542460   1.510564   0.000000
     4  N    3.746305   2.442528   1.281264   0.000000
     5  C    4.836306   3.715205   2.302876   1.383102   0.000000
     6  C    6.084180   4.827844   3.545746   2.385408   1.362897
     7  N    6.553904   5.128301   4.133867   2.853570   2.417577
     8  C    7.272099   6.137989   4.744453   3.722711   2.441875
     9  O    8.389613   7.179693   5.848398   4.738058   3.559143
    10  H    1.093614   2.183360   3.490022   4.598623   5.790293
    11  H    1.095369   2.185401   2.818878   4.041232   4.976242
    12  H    1.095371   2.185401   2.818879   4.041232   4.976243
    13  H    2.174485   1.096507   2.125665   2.727519   4.035416
    14  H    2.174485   1.096506   2.125666   2.727519   4.035417
    15  H    2.653698   2.238121   1.099833   2.074053   2.542993
    16  H    4.907309   4.075200   2.564954   2.146927   1.091344
    17  H    6.027676   4.533034   3.787867   2.547344   2.637789
    18  H    7.555756   6.122121   5.132748   3.853775   3.298180
    19  H    7.217821   6.268698   4.786236   3.993454   2.611342
                    6          7          8          9         10
     6  C    0.000000
     7  N    1.358965   0.000000
     8  C    1.469381   2.394449   0.000000
     9  O    2.357652   2.719225   1.214901   0.000000
    10  H    6.977626   7.309289   8.231988   9.315115   0.000000
    11  H    6.263289   6.849272   7.353252   8.499019   1.766144
    12  H    6.263290   6.849274   7.353253   8.499016   1.766141
    13  H    5.000750   5.121696   6.363065   7.331728   2.520313
    14  H    5.000752   5.121699   6.363067   7.331726   2.520310
    15  H    3.902749   4.766984   4.848108   6.032105   3.732249
    16  H    2.124260   3.383872   2.635240   3.848350   5.949609
    17  H    2.039967   1.003513   3.315579   3.722567   6.679668
    18  H    2.040615   1.002927   2.516843   2.358337   8.300367
    19  H    2.183928   3.368634   1.105212   2.030736   8.242655
                   11         12         13         14         15
    11  H    0.000000
    12  H    1.766805   0.000000
    13  H    2.540918   3.090726   0.000000
    14  H    3.090725   2.540918   1.752496   0.000000
    15  H    2.664587   2.664591   2.948232   2.948235   0.000000
    16  H    4.903213   4.903213   4.530445   4.530445   2.311286
    17  H    6.406891   6.406891   4.434388   4.434389   4.606325
    18  H    7.844175   7.844176   6.080807   6.080809   5.732017
    19  H    7.201650   7.201647   6.598947   6.598946   4.635000
                   16         17         18         19
    16  H    0.000000
    17  H    3.715291   0.000000
    18  H    4.163792   1.759887   0.000000
    19  H    2.324285   4.202406   3.609149   0.000000
 Stoichiometry    C6H10N2O
 Framework group  C1[X(C6H10N2O)]
 Deg. of freedom    51
 Full point group                 C1      NOp   1
 Largest Abelian subgroup         C1      NOp   1
 Largest concise Abelian subgroup C1      NOp   1
                         Standard orientation:                         
 ---------------------------------------------------------------------
 Center     Atomic      Atomic             Coordinates (Angstroms)
 Number     Number       Type             X           Y           Z
 ---------------------------------------------------------------------
      1          6           0        4.375537   -0.364661    0.000000
      2          6           0        3.114133    0.508138    0.000002
      3          6           0        1.834063   -0.293875   -0.000001
      4          7           0        0.683292    0.269476    0.000001
      5          6           0       -0.458554   -0.511010   -0.000002
      6          6           0       -1.693400    0.065744   -0.000004
      7          7           0       -1.935496    1.402971   -0.000003
      8          6           0       -2.883777   -0.795699   -0.000008
      9          8           0       -4.014063   -0.350238    0.000010
     10          1           0        5.281863    0.247357    0.000006
     11          1           0        4.413037   -1.011212   -0.883402
     12          1           0        4.413036   -1.011214    0.883403
     13          1           0        3.105180    1.167257   -0.876245
     14          1           0        3.105180    1.167255    0.876251
     15          1           0        1.927804   -1.389706   -0.000006
     16          1           0       -0.373980   -1.599071   -0.000003
     17          1           0       -1.154631    2.033279    0.000003
     18          1           0       -2.886616    1.721142   -0.000003
     19          1           0       -2.680963   -1.882143    0.000005
 ---------------------------------------------------------------------
 Rotational constants (GHZ):           7.1927201           0.5325585           0.4989005
 Standard basis: 6-31G(2df,p) (6D, 7F)
 There are   329 symmetry adapted cartesian basis functions of A   symmetry.
 There are   302 symmetry adapted basis functions of A   symmetry.
   302 basis functions,   466 primitive gaussians,   329 cartesian basis functions
    34 alpha electrons       34 beta electrons
       nuclear repulsion energy       407.1870527191 Hartrees.
 NAtoms=   19 NActive=   19 NUniq=   19 SFac= 1.00D+00 NAtFMM=   60 NAOKFM=F Big=F
 Integral buffers will be    131072 words long.
 Raffenetti 2 integral format.
 Two-electron integral symmetry is turned on.
 One-electron integrals computed using PRISM.
 PrsmSu:  requested number of processors reduced to:  13 ShMem   1 Linda.
 NBasis=   302 RedAO= T EigKep=  2.25D-04  NBF=   302
 NBsUse=   302 1.00D-06 EigRej= -1.00D+00 NBFU=   302
 Initial guess from the checkpoint file:  "CCCdNCdCpNpCdO.chk"
 B after Tr=    -0.000000    0.000000    0.000000
         Rot=    0.999996   -0.000000   -0.000000   -0.002674 Ang=  -0.31 deg.
 ExpMin= 1.61D-01 ExpMax= 5.48D+03 ExpMxC= 8.25D+02 IAcc=2 IRadAn=         4 AccDes= 0.00D+00
 Harris functional with IExCor=  402 and IRadAn=       4 diagonalized for initial guess.
 HarFok:  IExCor=  402 AccDes= 0.00D+00 IRadAn=         4 IDoV= 1 UseB2=F ITyADJ=14
 ICtDFT=  3500011 ScaDFX=  1.000000  1.000000  1.000000  1.000000
 FoFCou: FMM=F IPFlag=           0 FMFlag=      100000 FMFlg1=           0
         NFxFlg=           0 DoJE=T BraDBF=F KetDBF=T FulRan=T
         wScrn=  0.000000 ICntrl=       500 IOpCl=  0 I1Cent=   200000004 NGrid=           0
         NMat0=    1 NMatS0=      1 NMatT0=    0 NMatD0=    1 NMtDS0=    0 NMtDT0=    0
 Petite list used in FoFCou.
 Requested convergence on RMS density matrix=1.00D-08 within 128 cycles.
 Requested convergence on MAX density matrix=1.00D-06.
 Requested convergence on             energy=1.00D-06.
 No special actions if energy rises.
 Integral accuracy reduced to 1.0D-05 until final iterations.
 Initial convergence to 1.0D-05 achieved.  Increase integral accuracy.
 SCF Done:  E(RB3LYP) =  -419.386320278     A.U. after   12 cycles
            NFock= 12  Conv=0.30D-08     -V/T= 2.0076
 PrsmSu:  requested number of processors reduced to:  13 ShMem   1 Linda.
 Calling FoFJK, ICntrl=      2127 FMM=F ISym2X=0 I1Cent= 0 IOpClX= 0 NMat=1 NMatS=1 NMatT=0.
 ***** Axes restored to original set *****
 -------------------------------------------------------------------
 Center     Atomic                   Forces (Hartrees/Bohr)
 Number     Number              X              Y              Z
 -------------------------------------------------------------------
      1        6           0.000708257   -0.000242918   -0.000148153
      2        6          -0.001459246   -0.003184496   -0.001924297
      3        6           0.003466715    0.002088710    0.001262482
      4        7          -0.001698517   -0.001927914   -0.001165681
      5        6          -0.001563965    0.002587887    0.001564605
      6        6           0.001602017    0.002187607    0.001323814
      7        7          -0.005968419   -0.000274523   -0.000165814
      8        6           0.003268388    0.000208988    0.000121717
      9        8          -0.001542732   -0.000788643   -0.000474999
     10        1           0.000631922    0.000007924    0.000005181
     11        1           0.000331208   -0.000071216    0.000008352
     12        1           0.000331558   -0.000026046   -0.000066349
     13        1           0.000228648    0.000961015    0.000446133
     14        1           0.000228865    0.000841912    0.000643277
     15        1          -0.001114802   -0.000773898   -0.000467849
     16        1           0.000676057   -0.000776213   -0.000469119
     17        1           0.002088278    0.000530416    0.000320652
     18        1           0.000951610   -0.000327108   -0.000197911
     19        1          -0.001165842   -0.001021485   -0.000616041
 -------------------------------------------------------------------
 Cartesian Forces:  Max     0.005968419 RMS     0.001497240

 GradGradGradGradGradGradGradGradGradGradGradGradGradGradGradGradGradGrad
 Berny optimization.
 Using GEDIIS/GDIIS optimizer.
 FormGI is forming the generalized inverse of G from B-inverse, IUseBI=4.
 Internal  Forces:  Max     0.003383868 RMS     0.000998247
 Search for a local minimum.
 Step number   2 out of a maximum of   87
 All quantities printed in internal units (Hartrees-Bohrs-Radians)
 Mixed Optimization -- En-DIIS/RFO-DIIS
 Update second derivatives using D2CorX and points    1    2
 DE= -3.09D-03 DEPred=-3.07D-03 R= 1.01D+00
 TightC=F SS=  1.41D+00  RLast= 1.46D-01 DXNew= 5.0454D-01 4.3691D-01
 Trust test= 1.01D+00 RLast= 1.46D-01 DXMaxT set to 4.37D-01
 ITU=  1  0
 Use linear search instead of GDIIS.
     Eigenvalues ---    0.00538   0.00572   0.00751   0.00751   0.01242
     Eigenvalues ---    0.01933   0.01945   0.02074   0.02074   0.02492
     Eigenvalues ---    0.02768   0.03110   0.04065   0.05327   0.05578
     Eigenvalues ---    0.05581   0.09623   0.12935   0.15032   0.16000
     Eigenvalues ---    0.16000   0.16000   0.16000   0.16000   0.16000
     Eigenvalues ---    0.16238   0.21373   0.21951   0.22000   0.22337
     Eigenvalues ---    0.24634   0.25000   0.25506   0.30608   0.30964
     Eigenvalues ---    0.32933   0.33395   0.34115   0.34157   0.34201
     Eigenvalues ---    0.34263   0.34267   0.34978   0.35129   0.45300
     Eigenvalues ---    0.45800   0.49240   0.50294   0.56195   0.67816
     Eigenvalues ---    0.90227
 RFO step:  Lambda=-2.84850589D-04 EMin= 5.37951737D-03
 Quartic linear search produced a step of  0.01863.
 Iteration  1 RMS(Cart)=  0.01240610 RMS(Int)=  0.00007734
 Iteration  2 RMS(Cart)=  0.00008701 RMS(Int)=  0.00000197
 Iteration  3 RMS(Cart)=  0.00000000 RMS(Int)=  0.00000197
 Variable       Old X    -DE/DX   Delta X   Delta X   Delta X     New X
                                 (Linear)    (Quad)   (Total)
    R1        2.89869  -0.00201   0.00059  -0.00582  -0.00523   2.89346
    R2        2.06663  -0.00021  -0.00006  -0.00072  -0.00078   2.06586
    R3        2.06995  -0.00006   0.00002  -0.00015  -0.00013   2.06982
    R4        2.06995  -0.00006   0.00002  -0.00015  -0.00013   2.06982
    R5        2.85455  -0.00223  -0.00014  -0.00757  -0.00771   2.84684
    R6        2.07210   0.00050   0.00003   0.00153   0.00155   2.07365
    R7        2.07210   0.00050   0.00003   0.00153   0.00155   2.07365
    R8        2.42124  -0.00338  -0.00041  -0.00558  -0.00598   2.41525
    R9        2.07838   0.00141  -0.00016   0.00409   0.00392   2.08231
   R10        2.61368  -0.00312   0.00008  -0.00637  -0.00629   2.60739
   R11        2.57550  -0.00086   0.00050  -0.00085  -0.00035   2.57515
   R12        2.06234   0.00026   0.00012   0.00092   0.00104   2.06338
   R13        2.56807  -0.00216  -0.00043  -0.00496  -0.00539   2.56268
   R14        2.77673   0.00195  -0.00112   0.00453   0.00342   2.78014
   R15        1.89636   0.00004  -0.00036  -0.00044  -0.00080   1.89557
   R16        1.89526   0.00102  -0.00037   0.00175   0.00138   1.89664
   R17        2.29583  -0.00127  -0.00055  -0.00224  -0.00278   2.29305
   R18        2.08855   0.00167   0.00014   0.00527   0.00541   2.09396
    A1        1.94237  -0.00071   0.00021  -0.00444  -0.00424   1.93813
    A2        1.94336  -0.00026   0.00011  -0.00136  -0.00125   1.94211
    A3        1.94336  -0.00026   0.00011  -0.00136  -0.00125   1.94211
    A4        1.87754   0.00049  -0.00017   0.00266   0.00248   1.88002
    A5        1.87754   0.00049  -0.00017   0.00266   0.00249   1.88002
    A6        1.87637   0.00032  -0.00011   0.00231   0.00220   1.87858
    A7        1.97660  -0.00093   0.00039  -0.00209  -0.00170   1.97490
    A8        1.92702   0.00013   0.00019  -0.00017   0.00002   1.92705
    A9        1.92703   0.00013   0.00019  -0.00017   0.00002   1.92704
   A10        1.88834   0.00065  -0.00015   0.00554   0.00538   1.89372
   A11        1.88834   0.00065  -0.00015   0.00554   0.00538   1.89372
   A12        1.85168  -0.00060  -0.00052  -0.00893  -0.00946   1.84222
   A13        2.12664   0.00058   0.00080   0.00384   0.00464   2.13128
   A14        2.04517  -0.00056  -0.00009  -0.00321  -0.00330   2.04187
   A15        2.11138  -0.00002  -0.00071  -0.00064  -0.00134   2.11004
   A16        2.08676  -0.00038   0.00039  -0.00097  -0.00058   2.08618
   A17        2.10505  -0.00008   0.00012  -0.00018  -0.00006   2.10499
   A18        2.09281   0.00117   0.00022   0.00770   0.00792   2.10073
   A19        2.08532  -0.00110  -0.00034  -0.00752  -0.00786   2.07746
   A20        2.18685   0.00046   0.00078   0.00301   0.00379   2.19065
   A21        2.07820  -0.00172  -0.00025  -0.00736  -0.00761   2.07059
   A22        2.01813   0.00126  -0.00053   0.00434   0.00381   2.02194
   A23        2.07080   0.00281   0.00048   0.01851   0.01899   2.08980
   A24        2.07272  -0.00148  -0.00022  -0.00975  -0.00998   2.06274
   A25        2.13966  -0.00132  -0.00025  -0.00876  -0.00902   2.13064
   A26        2.13973   0.00190   0.00010   0.00894   0.00904   2.14877
   A27        2.01268  -0.00090  -0.00035  -0.00455  -0.00491   2.00778
   A28        2.13077  -0.00101   0.00026  -0.00439  -0.00413   2.12664
    D1       -3.14159  -0.00000  -0.00000  -0.00000  -0.00000  -3.14159
    D2        1.02106  -0.00029  -0.00020  -0.00559  -0.00579   1.01527
    D3       -1.02105   0.00029   0.00020   0.00558   0.00578  -1.01526
    D4        1.04693   0.00003   0.00000   0.00055   0.00055   1.04748
    D5       -1.07361  -0.00026  -0.00020  -0.00503  -0.00523  -1.07885
    D6       -3.11571   0.00032   0.00021   0.00613   0.00634  -3.10937
    D7       -1.04693  -0.00003  -0.00000  -0.00055  -0.00055  -1.04748
    D8        3.11571  -0.00032  -0.00021  -0.00613  -0.00634   3.10938
    D9        1.07361   0.00026   0.00020   0.00503   0.00524   1.07885
   D10        3.14159  -0.00000  -0.00000  -0.00000  -0.00000   3.14159
   D11       -0.00000  -0.00000  -0.00000  -0.00000  -0.00000  -0.00000
   D12       -0.99947   0.00002   0.00039   0.00239   0.00278  -0.99669
   D13        2.14213   0.00002   0.00039   0.00239   0.00278   2.14490
   D14        0.99946  -0.00002  -0.00039  -0.00239  -0.00278   0.99668
   D15       -2.14213  -0.00002  -0.00039  -0.00239  -0.00278  -2.14491
   D16       -3.14159  -0.00000   0.00000  -0.00000  -0.00000   3.14159
   D17        0.00000  -0.00000   0.00000  -0.00000  -0.00000  -0.00000
   D18       -3.14159  -0.00000   0.00000  -0.00000  -0.00000  -3.14159
   D19        0.00000   0.00000  -0.00000  -0.00000  -0.00000   0.00000
   D20       -0.00000   0.00000  -0.00000   0.00001   0.00001   0.00000
   D21        3.14159   0.00000  -0.00000   0.00001   0.00001  -3.14159
   D22       -3.14159   0.00000   0.00000   0.00000   0.00000  -3.14159
   D23       -0.00000   0.00000   0.00000   0.00000   0.00000   0.00000
   D24       -0.00000   0.00000  -0.00000   0.00000   0.00000  -0.00000
   D25       -3.14159   0.00000  -0.00000   0.00001   0.00001  -3.14158
   D26        3.14159  -0.00000  -0.00000  -0.00000  -0.00000   3.14159
   D27        0.00000   0.00000   0.00000   0.00000   0.00000   0.00001
   D28        3.14157   0.00000  -0.00000   0.00018   0.00018  -3.14143
   D29        0.00001  -0.00000   0.00000  -0.00016  -0.00016  -0.00014
   D30       -0.00002   0.00000  -0.00000   0.00019   0.00019   0.00017
   D31       -3.14158  -0.00000   0.00000  -0.00016  -0.00016   3.14145
         Item               Value     Threshold  Converged?
 Maximum Force            0.003384     0.000450     NO 
 RMS     Force            0.000998     0.000300     NO 
 Maximum Displacement     0.045544     0.001800     NO 
 RMS     Displacement     0.012421     0.001200     NO 
 Predicted change in Energy=-1.439426D-04
 GradGradGradGradGradGradGradGradGradGradGradGradGradGradGradGradGradGrad

                          Input orientation:                          
 ---------------------------------------------------------------------
 Center     Atomic      Atomic             Coordinates (Angstroms)
 Number     Number       Type             X           Y           Z
 ---------------------------------------------------------------------
      1          6           0        0.907774   -0.056382   -0.075758
      2          6           0        2.438861   -0.068714   -0.083209
      3          6           0        3.018140   -1.258806   -0.802658
      4          7           0        4.278711   -1.439316   -0.911783
      5          6           0        4.751300   -2.548671   -1.582423
      6          6           0        6.090857   -2.762737   -1.711832
      7          7           0        7.067879   -1.957912   -1.225285
      8          6           0        6.546919   -3.959721   -2.435457
      9          8           0        7.718689   -4.229562   -2.598390
     10          1           0        0.524796    0.819870    0.453964
     11          1           0        0.505567   -0.947037    0.418859
     12          1           0        0.505571   -0.032309   -1.094255
     13          1           0        2.826651   -0.059697    0.943274
     14          1           0        2.826655    0.844390   -0.552235
     15          1           0        2.304036   -1.976977   -1.236815
     16          1           0        4.055197   -3.268577   -2.017630
     17          1           0        6.822301   -1.125613   -0.722132
     18          1           0        8.022923   -2.221979   -1.384933
     19          1           0        5.737792   -4.607671   -2.827000
 ---------------------------------------------------------------------
                    Distance matrix (angstroms):
                    1          2          3          4          5
     1  C    0.000000
     2  C    1.531155   0.000000
     3  C    2.535320   1.506482   0.000000
     4  N    3.738270   2.439289   1.278098   0.000000
     5  C    4.822264   3.707452   2.296874   1.379771   0.000000
     6  C    6.071692   4.821540   3.539774   2.382308   1.362712
     7  N    6.548596   5.128471   4.131313   2.854239   2.417247
     8  C    7.252875   6.127736   4.734264   3.717364   2.437822
     9  O    8.376614   7.177421   5.843390   4.739574   3.558508
    10  H    1.093204   2.177563   3.480913   4.589234   5.775576
    11  H    1.095300   2.182006   2.811107   4.031075   4.959496
    12  H    1.095300   2.182005   2.811107   4.031073   4.959496
    13  H    2.172677   1.097329   2.126690   2.730030   4.034651
    14  H    2.172677   1.097329   2.126690   2.730028   4.034651
    15  H    2.643158   2.233932   1.101910   2.072213   2.536805
    16  H    4.898503   4.073530   2.567260   2.149198   1.091893
    17  H    6.045055   4.554098   3.807345   2.569869   2.655982
    18  H    7.551761   6.124768   5.129776   3.854290   3.293819
    19  H    7.184194   6.246076   4.765435   3.979378   2.600312
                    6          7          8          9         10
     6  C    0.000000
     7  N    1.356114   0.000000
     8  C    1.471189   2.396489   0.000000
     9  O    2.363768   2.733014   1.213428   0.000000
    10  H    6.964681   7.303963   8.213356   9.304070   0.000000
    11  H    6.247565   6.840249   7.329483   8.479852   1.767360
    12  H    6.247564   6.840248   7.329480   8.479883   1.767359
    13  H    5.001105   5.127756   6.361321   7.339155   2.512290
    14  H    5.001104   5.127755   6.361318   7.339191   2.512289
    15  H    3.896546   4.763895   4.834261   6.020506   3.721126
    16  H    2.119740   3.379631   2.619340   3.831703   5.940362
    17  H    2.048095   1.003091   3.323174   3.736088   6.695273
    18  H    2.032772   1.003658   2.510365   2.365464   8.297969
    19  H    2.184499   3.369844   1.108075   2.029577   8.209644
                   11         12         13         14         15
    11  H    0.000000
    12  H    1.768118   0.000000
    13  H    2.539649   3.088638   0.000000
    14  H    3.088638   2.539649   1.747548   0.000000
    15  H    2.652644   2.652646   2.949894   2.949897   0.000000
    16  H    4.891410   4.891410   4.535768   4.535768   2.311811
    17  H    6.421439   6.421438   4.458136   4.458135   4.626494
    18  H    7.835163   7.835159   6.090751   6.090747   5.726049
    19  H    7.163241   7.163273   6.585877   6.585913   4.608679
                   16         17         18         19
    16  H    0.000000
    17  H    3.731954   0.000000
    18  H    4.151930   1.755795   0.000000
    19  H    2.297690   4.210862   3.604567   0.000000
 Stoichiometry    C6H10N2O
 Framework group  C1[X(C6H10N2O)]
 Deg. of freedom    51
 Full point group                 C1      NOp   1
 Largest Abelian subgroup         C1      NOp   1
 Largest concise Abelian subgroup C1      NOp   1
                         Standard orientation:                         
 ---------------------------------------------------------------------
 Center     Atomic      Atomic             Coordinates (Angstroms)
 Number     Number       Type             X           Y           Z
 ---------------------------------------------------------------------
      1          6           0        4.365349   -0.375065   -0.000017
      2          6           0        3.112664    0.505398   -0.000021
      3          6           0        1.831551   -0.287218    0.000005
      4          7           0        0.684194    0.275904    0.000009
      5          6           0       -0.455239   -0.502209    0.000032
      6          6           0       -1.689634    0.075072    0.000036
      7          7           0       -1.935631    1.408687    0.000014
      8          6           0       -2.875307   -0.795891    0.000070
      9          8           0       -4.011263   -0.369265   -0.000091
     10          1           0        5.273235    0.233899   -0.000035
     11          1           0        4.397174   -1.020921   -0.884065
     12          1           0        4.397191   -1.020889    0.884053
     13          1           0        3.111443    1.169195   -0.873807
     14          1           0        3.111460    1.169227    0.873741
     15          1           0        1.922883   -1.385336    0.000021
     16          1           0       -0.379717   -1.591486    0.000049
     17          1           0       -1.169335    2.055976   -0.000005
     18          1           0       -2.891588    1.714422    0.000029
     19          1           0       -2.658888   -1.882626   -0.000056
 ---------------------------------------------------------------------
 Rotational constants (GHZ):           7.1431350           0.5341115           0.5000154
 Standard basis: 6-31G(2df,p) (6D, 7F)
 There are   329 symmetry adapted cartesian basis functions of A   symmetry.
 There are   302 symmetry adapted basis functions of A   symmetry.
   302 basis functions,   466 primitive gaussians,   329 cartesian basis functions
    34 alpha electrons       34 beta electrons
       nuclear repulsion energy       407.4953356301 Hartrees.
 NAtoms=   19 NActive=   19 NUniq=   19 SFac= 1.00D+00 NAtFMM=   60 NAOKFM=F Big=F
 Integral buffers will be    131072 words long.
 Raffenetti 2 integral format.
 Two-electron integral symmetry is turned on.
 One-electron integrals computed using PRISM.
 PrsmSu:  requested number of processors reduced to:  13 ShMem   1 Linda.
 NBasis=   302 RedAO= T EigKep=  2.23D-04  NBF=   302
 NBsUse=   302 1.00D-06 EigRej= -1.00D+00 NBFU=   302
 Initial guess from the checkpoint file:  "CCCdNCdCpNpCdO.chk"
 B after Tr=     0.000000   -0.000000   -0.000000
         Rot=    1.000000    0.000001   -0.000000   -0.000094 Ang=   0.01 deg.
 ExpMin= 1.61D-01 ExpMax= 5.48D+03 ExpMxC= 8.25D+02 IAcc=2 IRadAn=         4 AccDes= 0.00D+00
 Harris functional with IExCor=  402 and IRadAn=       4 diagonalized for initial guess.
 HarFok:  IExCor=  402 AccDes= 0.00D+00 IRadAn=         4 IDoV= 1 UseB2=F ITyADJ=14
 ICtDFT=  3500011 ScaDFX=  1.000000  1.000000  1.000000  1.000000
 FoFCou: FMM=F IPFlag=           0 FMFlag=      100000 FMFlg1=           0
         NFxFlg=           0 DoJE=T BraDBF=F KetDBF=T FulRan=T
         wScrn=  0.000000 ICntrl=       500 IOpCl=  0 I1Cent=   200000004 NGrid=           0
         NMat0=    1 NMatS0=      1 NMatT0=    0 NMatD0=    1 NMtDS0=    0 NMtDT0=    0
 Petite list used in FoFCou.
 Requested convergence on RMS density matrix=1.00D-08 within 128 cycles.
 Requested convergence on MAX density matrix=1.00D-06.
 Requested convergence on             energy=1.00D-06.
 No special actions if energy rises.
 Integral accuracy reduced to 1.0D-05 until final iterations.
 Initial convergence to 1.0D-05 achieved.  Increase integral accuracy.
 SCF Done:  E(RB3LYP) =  -419.386484103     A.U. after   10 cycles
            NFock= 10  Conv=0.74D-08     -V/T= 2.0076
 PrsmSu:  requested number of processors reduced to:  13 ShMem   1 Linda.
 Calling FoFJK, ICntrl=      2127 FMM=F ISym2X=0 I1Cent= 0 IOpClX= 0 NMat=1 NMatS=1 NMatT=0.
 ***** Axes restored to original set *****
 -------------------------------------------------------------------
 Center     Atomic                   Forces (Hartrees/Bohr)
 Number     Number              X              Y              Z
 -------------------------------------------------------------------
      1        6           0.000092988    0.000062654    0.000037948
      2        6          -0.000429408   -0.000873145   -0.000528203
      3        6          -0.000491976    0.000782648    0.000473293
      4        7           0.000843559   -0.001130929   -0.000681669
      5        6           0.000112911    0.000613930    0.000369800
      6        6          -0.000157456    0.000721777    0.000423993
      7        7          -0.001521544   -0.000353006   -0.000213929
      8        6          -0.000004250   -0.000642692   -0.000347599
      9        8           0.000405618    0.000025559    0.000000238
     10        1           0.000002441    0.000048656    0.000029508
     11        1           0.000064546    0.000010854   -0.000042576
     12        1           0.000064538   -0.000032714    0.000029217
     13        1           0.000049261    0.000253406    0.000186978
     14        1           0.000049259    0.000283352    0.000137541
     15        1          -0.000430413   -0.000080243   -0.000048462
     16        1           0.000110626   -0.000069669   -0.000042838
     17        1           0.000633771    0.000255651    0.000154219
     18        1           0.000904125    0.000085740    0.000052908
     19        1          -0.000298594    0.000038172    0.000009633
 -------------------------------------------------------------------
 Cartesian Forces:  Max     0.001521544 RMS     0.000440312

 GradGradGradGradGradGradGradGradGradGradGradGradGradGradGradGradGradGrad
 Berny optimization.
 Using GEDIIS/GDIIS optimizer.
 FormGI is forming the generalized inverse of G from B-inverse, IUseBI=4.
 Internal  Forces:  Max     0.001102709 RMS     0.000282182
 Search for a local minimum.
 Step number   3 out of a maximum of   87
 All quantities printed in internal units (Hartrees-Bohrs-Radians)
 Mixed Optimization -- En-DIIS/RFO-DIIS
 Swapping is turned off.
 Update second derivatives using D2CorX and points    1    2    3
 DE= -1.64D-04 DEPred=-1.44D-04 R= 1.14D+00
 TightC=F SS=  1.41D+00  RLast= 4.00D-02 DXNew= 7.3478D-01 1.1990D-01
 Trust test= 1.14D+00 RLast= 4.00D-02 DXMaxT set to 4.37D-01
 ITU=  1  1  0
     Eigenvalues ---    0.00538   0.00572   0.00751   0.00751   0.01243
     Eigenvalues ---    0.01934   0.01945   0.02074   0.02074   0.02489
     Eigenvalues ---    0.02768   0.03110   0.04051   0.05088   0.05596
     Eigenvalues ---    0.05613   0.09589   0.12599   0.12939   0.16000
     Eigenvalues ---    0.16000   0.16000   0.16000   0.16000   0.16121
     Eigenvalues ---    0.16447   0.20954   0.21941   0.22071   0.22647
     Eigenvalues ---    0.24189   0.25053   0.26013   0.30699   0.31313
     Eigenvalues ---    0.32958   0.33467   0.34101   0.34157   0.34207
     Eigenvalues ---    0.34267   0.34269   0.34328   0.35043   0.45188
     Eigenvalues ---    0.45833   0.48468   0.50724   0.56044   0.72787
     Eigenvalues ---    0.91143
 En-DIIS/RFO-DIIS/Sim-DIIS IScMMF=       -3 using points:     3    2
 RFO step:  Lambda=-2.88937049D-05.
 DidBck=F Rises=F RFO-DIIS coefs:    1.29669   -0.29669
 Iteration  1 RMS(Cart)=  0.00500283 RMS(Int)=  0.00001189
 Iteration  2 RMS(Cart)=  0.00001381 RMS(Int)=  0.00000093
 Iteration  3 RMS(Cart)=  0.00000000 RMS(Int)=  0.00000093
 Variable       Old X    -DE/DX   Delta X   Delta X   Delta X     New X
                                 (Linear)    (Quad)   (Total)
    R1        2.89346  -0.00022  -0.00155   0.00063  -0.00092   2.89254
    R2        2.06586   0.00005  -0.00023   0.00032   0.00009   2.06594
    R3        2.06982  -0.00005  -0.00004  -0.00013  -0.00017   2.06964
    R4        2.06982  -0.00005  -0.00004  -0.00013  -0.00017   2.06964
    R5        2.84684  -0.00023  -0.00229   0.00077  -0.00152   2.84532
    R6        2.07365   0.00019   0.00046   0.00033   0.00079   2.07444
    R7        2.07365   0.00019   0.00046   0.00033   0.00079   2.07444
    R8        2.41525   0.00110  -0.00178   0.00294   0.00117   2.41642
    R9        2.08231   0.00035   0.00116   0.00027   0.00143   2.08374
   R10        2.60739  -0.00068  -0.00187  -0.00017  -0.00204   2.60535
   R11        2.57515  -0.00007  -0.00010   0.00022   0.00011   2.57526
   R12        2.06338  -0.00001   0.00031  -0.00019   0.00012   2.06350
   R13        2.56268   0.00000  -0.00160   0.00096  -0.00064   2.56204
   R14        2.78014   0.00067   0.00101   0.00104   0.00205   2.78220
   R15        1.89557   0.00013  -0.00024   0.00032   0.00009   1.89565
   R16        1.89664   0.00083   0.00041   0.00161   0.00202   1.89866
   R17        2.29305   0.00039  -0.00083   0.00080  -0.00002   2.29302
   R18        2.09396   0.00019   0.00161  -0.00045   0.00116   2.09512
    A1        1.93813   0.00000  -0.00126   0.00122  -0.00004   1.93808
    A2        1.94211  -0.00006  -0.00037  -0.00017  -0.00055   1.94157
    A3        1.94211  -0.00006  -0.00037  -0.00017  -0.00055   1.94157
    A4        1.88002   0.00004   0.00074  -0.00017   0.00057   1.88059
    A5        1.88002   0.00004   0.00074  -0.00017   0.00057   1.88059
    A6        1.87858   0.00004   0.00065  -0.00059   0.00007   1.87864
    A7        1.97490  -0.00003  -0.00051   0.00103   0.00052   1.97542
    A8        1.92705  -0.00005   0.00001  -0.00058  -0.00058   1.92646
    A9        1.92704  -0.00005   0.00001  -0.00058  -0.00058   1.92646
   A10        1.89372   0.00012   0.00160   0.00037   0.00197   1.89569
   A11        1.89372   0.00012   0.00160   0.00038   0.00197   1.89569
   A12        1.84222  -0.00011  -0.00281  -0.00070  -0.00351   1.83871
   A13        2.13128   0.00031   0.00138   0.00106   0.00244   2.13372
   A14        2.04187  -0.00043  -0.00098  -0.00216  -0.00314   2.03873
   A15        2.11004   0.00012  -0.00040   0.00110   0.00070   2.11074
   A16        2.08618   0.00067  -0.00017   0.00343   0.00326   2.08944
   A17        2.10499   0.00042  -0.00002   0.00231   0.00229   2.10729
   A18        2.10073  -0.00007   0.00235  -0.00171   0.00064   2.10136
   A19        2.07746  -0.00035  -0.00233  -0.00059  -0.00293   2.07454
   A20        2.19065   0.00060   0.00113   0.00237   0.00349   2.19414
   A21        2.07059  -0.00055  -0.00226  -0.00101  -0.00326   2.06733
   A22        2.02194  -0.00005   0.00113  -0.00136  -0.00023   2.02171
   A23        2.08980   0.00063   0.00563   0.00066   0.00629   2.09609
   A24        2.06274   0.00004  -0.00296   0.00236  -0.00060   2.06214
   A25        2.13064  -0.00067  -0.00267  -0.00301  -0.00569   2.12496
   A26        2.14877  -0.00003   0.00268  -0.00211   0.00057   2.14934
   A27        2.00778  -0.00023  -0.00146  -0.00078  -0.00224   2.00553
   A28        2.12664   0.00026  -0.00123   0.00289   0.00167   2.12830
    D1       -3.14159  -0.00000  -0.00000  -0.00000  -0.00000   3.14159
    D2        1.01527  -0.00010  -0.00172  -0.00078  -0.00249   1.01277
    D3       -1.01526   0.00010   0.00172   0.00078   0.00249  -1.01277
[...]
 0.54401489,0.03775081,0.02282170,0.73178540,0.00059356,-0.00440196,-0.
 00328164,0.03483443,-0.00843504,-0.00091113,0.06581424,-0.09832083,-0.
 02629959,-0.13593025,0.33167406,0.00035871,-0.00328165,-0.00095715,0.0
 2105775,-0.00091098,-0.00747898,0.03978608,-0.02629949,-0.07071383,-0.
 08217190,0.15583813,0.16808635,0.00051893,0.00126346,0.00076376,-0.000
 71635,-0.00478623,-0.00289328,-0.06574981,0.05389989,0.03258298,-0.090
 58926,0.01678500,0.01014675,0.79779751,-0.00015735,-0.00005945,-0.0004
 2681,-0.00048094,0.00894410,-0.00180494,0.03572714,-0.02527115,-0.0178
 2631,0.04949515,-0.20295271,-0.08697211,-0.00531861,0.47221604,-0.0000
 9507,-0.00042667,0.00038829,-0.00029062,-0.00180495,0.01083902,0.02159
 756,-0.01782641,-0.00655826,0.02992007,-0.08697181,-0.11165568,-0.0032
 1529,0.21488104,0.24664789,-0.00055423,-0.00054149,-0.00032735,-0.0009
 8052,0.00166807,0.00100829,0.01885445,-0.00446911,-0.00270167,-0.03994
 323,0.03414578,0.02064148,-0.41683207,0.03629426,0.02193981,0.84980280
 ,-0.00086357,-0.00103479,-0.00059727,-0.00014694,-0.00086125,-0.001042
 75,-0.00534567,-0.00272719,-0.00389665,0.04866699,-0.01355675,-0.01063
 038,0.03369113,-0.09517445,-0.02561320,0.02323220,0.50167261,-0.000522
 15,-0.00059741,-0.00040758,-0.00008892,-0.00104281,0.00023324,-0.00323
 169,-0.00389674,0.00136329,0.02941952,-0.01063061,-0.00239733,0.020366
 23,-0.02561285,-0.06828661,0.01404360,0.22262849,0.26797461,0.00046842
 ,0.00043050,0.00026021,0.00086267,-0.00013043,-0.00007883,-0.00337659,
 0.00001507,0.00000909,0.00531848,-0.00754765,-0.00456264,-0.05234805,-
 0.03056024,-0.01847399,-0.25657282,-0.10498424,-0.06346440,0.81898679,
 0.00046081,0.00039558,0.00020594,0.00079948,0.00025048,0.00003508,-0.0
 0113349,0.00111113,0.00103842,0.00244413,-0.00365191,-0.00094005,-0.00
 999041,0.01198946,-0.00039956,-0.10129627,-0.18837694,-0.09114139,-0.0
 4933659,0.61589260,0.00027859,0.00020601,0.00017929,0.00048332,0.00003
 513,0.00021360,-0.00068526,0.00103856,0.00002094,0.00147753,-0.0009401
 8,-0.00266506,-0.00603940,-0.00039937,0.01240873,-0.06123359,-0.091140
 98,-0.09270227,-0.02982772,0.37035346,0.22711358,-0.00047055,-0.000232
 38,-0.00014042,-0.00118191,-0.00088548,-0.00053538,-0.00336280,0.00192
 600,0.00116421,0.00014070,-0.00325474,-0.00196727,-0.02744428,0.032938
 46,0.01991141,-0.07134475,0.00311730,0.00188237,0.00313517,-0.02359546
 ,-0.01426345,0.94390465,0.00059871,0.00047849,0.00037146,0.00068512,0.
 00039222,0.00117550,0.00367577,0.00011919,-0.00029044,-0.01128674,0.00
 679617,-0.00378556,0.02335294,-0.00585724,-0.00234185,0.00356459,-0.17
 719179,-0.06157005,-0.00204681,-0.03408903,-0.02345172,-0.04554033,0.4
 7908224,0.00036198,0.00037142,0.00008870,0.00041420,0.00117548,-0.0008
 4153,0.00222235,-0.00029037,0.00042401,-0.00682363,-0.00378494,0.01076
 947,0.01411885,-0.00234198,-0.00339947,0.00215137,-0.06157313,-0.11255
 736,-0.00123631,-0.02345187,-0.00947116,-0.02754586,0.18004469,0.29011
 507,0.00041218,0.00038067,0.00023010,0.00045110,0.00072158,0.00043632,
 0.00413276,-0.00081432,-0.00049222,-0.00759585,0.00446234,0.00269728,0
 .01824995,-0.00212259,-0.00128304,-0.05762013,0.03771653,0.02280328,0.
 00515714,-0.00480325,-0.00290376,-0.68718628,0.12633584,0.07639541,0.7
 7319880,-0.00019236,-0.00019101,-0.00014230,-0.00007200,-0.00004850,-0
 .00034726,-0.00111294,-0.00021721,0.00007881,0.00537153,-0.00201165,0.
 00108234,-0.00623356,-0.00361959,-0.00466605,0.04789921,-0.00692413,-0
 .01707583,0.00358803,0.00201203,0.00131216,0.12928829,-0.12406099,-0.0
 3672347,-0.16769488,0.11191418,-0.00011627,-0.00014226,-0.00004174,-0.
 00004351,-0.00034722,0.00031593,-0.00067297,0.00007885,-0.00029992,0.0
 0324762,0.00108185,-0.00314747,-0.00376929,-0.00466603,0.00127833,0.02
 895904,-0.01707446,0.01099664,0.00216863,0.00131228,0.00063478,0.07818
 287,-0.03672384,-0.08552735,-0.10140281,0.05178853,0.05756926,-0.07663
 330,0.07198618,0.04351626,-0.01115601,0.02819505,0.01704416,-0.0063353
 0,-0.00300100,-0.00181416,-0.00097016,0.00203312,0.00122904,-0.0005122
 4,-0.00002628,-0.00001587,0.00029603,0.00062617,0.00037852,-0.00028395
 ,-0.00025620,-0.00015488,0.00022106,-0.00036055,-0.00021797,-0.0002748
 1,0.00013592,0.00008218,0.08555309,0.07383069,-0.21985655,-0.10450336,
 -0.00163290,0.00132169,0.00136111,-0.00026764,0.00060529,-0.00031574,-
 0.00008162,0.00033125,0.00008325,-0.00000845,-0.00002361,0.00008621,-0
 .00015629,-0.00023342,-0.00013241,0.00016403,0.00012346,0.00008085,-0.
 00015732,0.00018392,0.00008649,0.00014889,-0.00006477,-0.00003213,-0.0
 8023662,0.23613159,0.04463131,-0.10450338,-0.11015664,-0.00098714,0.00
 136123,-0.00010703,-0.00016181,-0.00031574,0.00093671,-0.00004937,0.00
 008325,0.00024389,-0.00000510,0.00008623,-0.00011410,-0.00009447,-0.00
 013244,-0.00009443,0.00009916,0.00008086,0.00003860,-0.00009511,0.0000
 8648,0.00009313,0.00009000,-0.00003211,-0.00003105,-0.04850372,0.11487
 930,0.11553976,-0.07861132,-0.07392014,0.04116129,-0.01346212,-0.02844
 808,0.01633872,0.00158364,-0.00204040,-0.00105828,-0.00023446,0.000751
 85,0.00018851,0.00014931,-0.00009300,-0.00013713,-0.00012354,0.0000148
 6,0.00002211,0.00003366,0.00004535,-0.00000734,0.00001156,-0.00004081,
 -0.00000880,-0.00001947,0.00002160,0.00000189,0.00355739,0.00888153,-0
 .00609202,0.08844866,-0.07502193,-0.22198548,0.09704854,0.00038768,0.0
 0135846,-0.00089250,0.00029717,0.00034481,-0.00072010,-0.00019765,0.00
 027535,0.00009852,-0.00011896,-0.00005579,0.00006592,0.00012208,0.0002
 4628,0.00016505,-0.00012940,-0.00011242,-0.00008360,0.00013100,-0.0001
 7212,-0.00011661,-0.00012664,0.00006177,0.00003811,-0.00903953,-0.0206
 3264,0.01283766,0.08324593,0.23929677,0.04184842,0.09709152,-0.1020183
 4,-0.00036017,-0.00115280,-0.00009911,0.00032787,0.00109066,0.00062165
 ,-0.00036261,-0.00037852,-0.00031056,0.00005103,-0.00000461,0.00005128
 ,0.00007797,0.00006486,0.00004511,-0.00007982,-0.00005943,-0.00003093,
 0.00006456,-0.00004208,-0.00002964,-0.00005663,0.00001328,0.00001077,-
 0.00660169,-0.01359960,0.00764521,-0.04597625,-0.10736136,0.10614539,-
 0.07861029,0.00209288,-0.08458044,-0.01346191,0.00124628,-0.03278260,0
 .00158361,-0.00188532,-0.00131486,-0.00023445,0.00051634,0.00057815,0.
 00014931,-0.00016462,-0.00001862,-0.00012352,0.00002644,0.00000286,0.0
 0003368,0.00001462,0.00004360,0.00001160,-0.00002677,-0.00003204,-0.00
 001949,0.00001172,0.00001826,0.00355731,-0.00126661,0.01069534,0.00365
 615,0.00066623,0.01105211,0.08844748,0.00218927,-0.04804013,0.00579483
 ,-0.00013869,-0.00062594,-0.00011113,0.00042841,0.00071433,0.00089672,
 -0.00041292,-0.00029923,-0.00007697,-0.00001012,0.00005337,-0.00006189
 ,0.00012577,0.00018318,0.00009799,-0.00013081,-0.00010739,-0.00006208,
 0.00011805,-0.00012571,-0.00006645,-0.00010900,0.00004292,0.00002317,-
 0.01004632,0.00122425,-0.02507149,0.01009553,-0.00023273,0.02561276,-0
 .00202229,0.04654493,-0.08587537,0.00575186,-0.27596476,0.00051061,0.0
 0014905,0.00188511,0.00011067,-0.00091404,0.00025209,-0.00000647,0.000
 40007,0.00026408,-0.00012905,0.00000874,-0.00005789,0.00007188,0.00019
 809,0.00010819,-0.00007746,-0.00008620,-0.00003595,0.00008596,-0.00014
 101,-0.00007607,-0.00008580,0.00004803,0.00002962,-0.00493587,0.001365
 89,-0.01421160,-0.00454631,-0.00063008,-0.01334508,0.09507555,-0.00619
 396,0.29889841,-0.01322917,0.00061561,-0.03241019,-0.07415872,0.001004
 58,-0.08004276,0.00318389,-0.00120631,0.01155569,0.00026612,0.00128900
 ,-0.00047424,-0.00032026,-0.00018115,-0.00065277,0.00050676,0.00131081
 ,0.00068982,-0.00054706,-0.00065825,-0.00040054,0.00065128,-0.00082906
 ,-0.00034445,-0.00054726,0.00022926,0.00008658,0.00136271,0.00039518,0
 .00027368,0.00165751,-0.00055181,0.00027362,-0.00688836,-0.00008646,0.
 00056854,0.08437033,0.00008442,-0.00041304,0.00045870,-0.00017037,-0.0
 4175519,-0.00180918,-0.00637959,-0.00472478,-0.02778645,-0.00253206,0.
 00254401,0.00066950,0.00102126,-0.00164297,0.00090394,-0.00078165,-0.0
 0062329,-0.00021909,0.00048642,0.00040680,0.00030556,-0.00033101,0.000
 48736,0.00005619,0.00024209,-0.00015213,0.00000121,0.00007139,-0.00000
 526,0.00037666,-0.00004137,0.00014546,-0.00062136,0.00029115,0.0008130
 9,-0.00038311,-0.00168725,0.04843383,0.00059903,0.00018208,0.00230416,
 -0.08266698,0.00077986,-0.26951686,-0.00271221,-0.00349898,-0.01506986
 ,-0.00198623,0.00171276,0.00232245,0.00160779,-0.00173626,0.00020842,-
 0.00113669,-0.00066136,-0.00037822,0.00058989,0.00050072,0.00039917,-0
 .00032193,0.00044943,0.00012515,0.00024472,-0.00013286,-0.00001726,-0.
 00052730,0.00023751,0.00042502,-0.00037859,-0.00022708,0.00056518,0.00
 078921,-0.00008578,0.00150851,0.09020082,0.00236390,0.29326404,-0.0132
 2933,-0.02841140,0.01560723,-0.07415991,-0.07040815,0.03808884,0.00318
 398,0.00967135,-0.00643848,0.00026614,0.00017909,0.00136176,-0.0003202
 3,-0.00066210,0.00014292,0.00050672,0.00121990,0.00084014,-0.00054706,
 -0.00066057,-0.00039674,0.00065123,-0.00069024,-0.00057408,-0.00054721
 ,0.00018320,0.00016277,0.00136271,0.00042598,0.00022273,-0.00688835,0.
 00046327,-0.00034082,0.00165752,-0.00001417,-0.00061577,0.00375387,0.0
 0898449,-0.00501494,0.08437157,0.00056970,0.00198108,-0.00107448,-0.07
 327775,-0.22074795,0.09472559,-0.00536664,-0.02570948,0.00751497,-0.00
 293539,0.00335062,0.00128945,0.00189821,-0.00053394,-0.00231838,-0.001
 36976,-0.00079350,-0.00057191,0.00074835,0.00073257,0.00032968,-0.0004
 3893,0.00041147,0.00048926,0.00032925,-0.00010053,-0.00015998,-0.00043
 371,0.00058483,-0.00007219,0.00083414,0.00116537,-0.00027067,-0.000354
 43,0.00012539,-0.00021656,-0.00026506,-0.00055526,0.00092121,0.0790854
 2,0.24233050,-0.00020372,-0.00079802,-0.00008977,0.03826804,0.09213673
 ,-0.09052316,-0.00438843,-0.01677242,0.00591475,-0.00131897,0.00024621
 ,0.00151586,0.00015707,0.00032186,-0.00090058,-0.00016381,-0.00012979,
 -0.00020810,0.00015655,0.00013459,0.00007339,-0.00014345,0.00009598,0.
 00020106,0.00010058,-0.00002583,-0.00006881,0.00030828,0.00006695,-0.0
 0016506,-0.00010903,-0.00056800,0.00115623,0.00013931,-0.00061083,0.00
 058524,0.01028615,0.02636918,-0.01487885,-0.04341413,-0.09940432,0.099
 36631,0.00137329,0.00059143,0.00035748,0.00445279,0.00777249,0.0046985
 2,-0.14011406,-0.09193681,-0.05557634,-0.04064300,-0.02081925,-0.01258
 520,0.00426402,-0.00619730,-0.00374634,-0.00049171,0.00035075,0.000212
 06,0.00002786,0.00036476,0.00022050,-0.00019044,-0.00024936,-0.0001507
 7,-0.00008408,0.00022200,0.00013421,0.00014044,0.00002801,0.00001694,0
 .00021597,-0.00018591,0.00005687,0.00021599,-0.00003605,-0.00019100,-0
 .00008415,0.00081327,0.00079975,-0.00008415,0.00108612,0.00034845,0.16
 946588,-0.00188916,0.00097486,0.00021846,-0.01417959,-0.00893549,-0.01
 174564,-0.09279260,-0.15952969,-0.06734934,-0.00244351,0.01201399,-0.0
 0976358,0.00509687,0.00065030,0.00568523,-0.00062524,-0.00025479,0.000
 18197,0.00033698,0.00004918,0.00031503,-0.00011195,0.00011223,-0.00016
 525,-0.00004216,-0.00000441,0.00011667,0.00020404,0.00033877,0.0003523
 7,0.00068603,0.00026179,-0.00039197,0.00078410,-0.00028528,0.00059770,
 0.00059551,-0.00314014,-0.00090962,0.00045225,-0.00214377,-0.00105578,
 0.10567404,0.15905381,-0.00114199,0.00021848,0.00074551,-0.00857168,-0
 .01174568,0.00339436,-0.05609358,-0.06734939,-0.08883060,-0.00147707,-
 0.00976340,0.02226335,0.00308110,0.00568516,-0.00531778,-0.00037795,0.
 00018194,-0.00044576,0.00020370,0.00031505,-0.00028151,-0.00006761,-0.
 00016529,0.00028567,-0.00002556,0.00011669,-0.00012689,0.00012334,0.00
 035236,-0.00003112,0.00052547,0.00031054,-0.00039324,0.00036324,-0.000
 10484,0.00015382,0.00019817,-0.00053277,-0.00111220,0.00043520,-0.0014
 3259,-0.00210858,0.06388044,0.08356525,0.07133219,-0.00005390,-0.00002
 363,-0.00001421,-0.00036503,-0.00014952,-0.00009035,0.00616391,0.00400
 788,0.00242284,0.00653252,0.00700467,0.00423427,-0.16788204,-0.1050976
 5,-0.06353199,-0.01684625,-0.02200691,-0.01330327,-0.00329760,0.004091
 67,0.00247345,-0.00115365,-0.00336571,-0.00203482,0.00081328,0.0009854
 2,0.00059576,0.00000713,-0.00000898,-0.00000544,-0.00000474,0.00000908
 ,0.00000999,-0.00000478,0.00001308,0.00000336,-0.00004125,-0.00002272,
 -0.00007378,-0.00004125,-0.00007586,0.00001413,0.00050947,-0.00194871,
 -0.00117801,0.17568603,-0.00003277,-0.00017551,-0.00007369,0.00083966,
 0.00004531,0.00018821,-0.00694429,0.00154043,0.00198938,-0.01066178,-0
 .02323492,-0.01859399,-0.10856298,-0.15379187,-0.07685731,0.00162441,0
 .00363392,0.00321741,0.00195016,0.00143420,-0.00258166,0.00267649,-0.0
 0219118,0.00263335,-0.00064067,0.00078697,-0.00053960,0.00009308,-0.00
 000681,-0.00000545,0.00003991,0.00002579,-0.00000612,0.00006662,-0.000
 00393,0.00002677,-0.00010287,0.00018203,0.00017672,0.00002989,0.000099
 06,0.00000506,0.00226084,0.00068005,0.00077934,0.11631782,0.17019188,-
 0.00001980,-0.00007378,-0.00009800,0.00050758,0.00018817,-0.00015220,-
 0.00419793,0.00198930,-0.00054777,-0.00644496,-0.01859407,-0.00371629,
 -0.06562723,-0.07685725,-0.07311176,0.00098221,0.00321734,0.00025624,0
 .00117899,-0.00258155,0.00414435,0.00161786,0.00263365,-0.00495546,-0.
 00038727,-0.00053976,0.00135348,0.00005627,-0.00000544,-0.00000112,0.0
 0005434,0.00001123,-0.00001481,0.00001006,0.00000948,0.00001489,0.0000
 8775,-0.00003847,0.00000360,-0.00013187,0.00022031,0.00008657,0.001366
 70,0.00077935,-0.00013807,0.07031466,0.09068812,0.07499320,-0.00002773
 ,0.00000682,0.00000412,0.00010413,-0.00003342,-0.00002023,-0.00118317,
 0.00190758,0.00115309,0.00197183,-0.00150886,-0.00091210,-0.00067952,-
 0.00116457,-0.00070406,0.01394976,-0.02196489,-0.01327756,-0.09371712,
 0.07970426,0.04818133,-0.00581248,-0.00210901,-0.00127487,0.00139638,0
 .00163783,0.00099004,0.00003194,-0.00001831,-0.00001106,0.00002296,0.0
 0000948,0.00000666,0.00002299,0.00001029,0.00000530,-0.00007660,0.0000
 4696,0.00008737,-0.00007662,0.00009917,0.00000099,0.00090198,0.0001659
 4,0.00010033,0.00023742,0.00046058,0.00027844,0.08022340,-0.00006286,-
 0.00008640,-0.00003857,-0.00012273,0.00009824,-0.00009994,0.00046839,0
 .00008849,0.00013401,-0.00016163,0.00013354,0.00157008,0.00285459,-0.0
 0028568,0.00005006,0.00196458,-0.01703421,-0.00930823,0.08017445,-0.32
 610772,-0.19955655,-0.00355649,0.00037928,-0.00125027,0.00036051,0.000
 91717,0.00066648,0.00004823,-0.00002008,-0.00001272,-0.00003657,0.0000
 0496,0.00001562,-0.00001109,0.00002185,0.00001045,0.00011631,-0.000050
 28,-0.00011895,0.00012983,-0.00016449,0.00001878,0.00005188,-0.0000353
 4,-0.00012348,0.00009979,-0.00036011,0.00015060,-0.07925238,0.34479654
 ,-0.00003800,-0.00003860,-0.00004585,-0.00007420,-0.00009998,0.0002032
 2,0.00028313,0.00013394,-0.00005212,-0.00009772,0.00157012,-0.00151463
 ,0.00172566,0.00005006,-0.00033820,0.00118735,-0.00930863,-0.00726295,
 0.04846561,-0.19955573,-0.11661963,-0.00214962,-0.00125031,0.00169162,
 0.00021771,0.00066642,0.00021758,0.00002915,-0.00001271,-0.00000675,0.
 00000671,0.00001933,0.00000815,-0.00003552,0.00000675,-0.00000874,0.00
 008556,-0.00004115,-0.00011195,0.00006324,-0.00005895,0.00000226,0.000
 03135,-0.00012344,0.00009423,0.00006030,0.00015061,-0.00051826,-0.0479
 0801,0.20573369,0.12882414,-0.00007573,-0.00005767,-0.00003486,-0.0001
 1496,0.00000366,0.00000223,0.00022551,0.00002728,0.00001654,0.00042336
 ,0.00061489,0.00037168,0.00193423,-0.00304619,-0.00184137,-0.02753954,
 0.00220786,0.00133484,-0.42383077,0.10214202,0.06174881,-0.00147425,0.
 00139936,0.00084599,0.00066641,0.00115550,0.00069846,0.00004315,-0.000
 02689,-0.00001626,0.00000260,0.00002311,0.00000799,0.00000258,0.000017
 81,0.00001675,0.00007444,-0.00005925,-0.00006575,0.00007445,-0.0000857
 4,-0.00002192,0.00009370,0.00002820,0.00001703,-0.00060987,0.00044408,
 0.00026842,0.00237194,-0.00353632,-0.00213773,0.44810669,0.00001649,0.
 00001227,0.00000470,0.00004441,-0.00019421,0.00017572,-0.00061373,0.00
 040973,0.00012457,0.00153250,-0.00076194,-0.00026619,-0.00346962,-0.00
 354104,-0.00272405,-0.01921768,0.00908646,0.00951945,0.10197615,-0.079
 49070,-0.05279320,-0.00715090,0.00126980,0.00071935,0.00477905,0.00081
 432,0.00216917,-0.00000514,0.00000213,0.00000074,-0.00000064,-0.000003
 89,0.00000291,0.00000834,-0.00000431,-0.00000202,-0.00003293,0.0000753
 3,0.00006078,0.00000185,-0.00000137,-0.00002147,0.00013479,0.00016502,
 -0.00022239,-0.00122929,0.00090303,-0.00113794,0.02338080,-0.00200422,
 0.00286427,-0.10134496,0.07302159,0.00000996,0.00000469,0.00000735,0.0
 0002683,0.00017572,-0.00037869,-0.00037096,0.00012455,0.00027896,0.000
 92638,-0.00026616,-0.00048258,-0.00209736,-0.00272412,-0.00068149,-0.0
 1161740,0.00951942,-0.00090618,0.06164927,-0.05279340,-0.02407313,-0.0
 0432285,0.00071918,0.00051526,0.00288907,0.00216927,-0.00146290,-0.000
 00311,0.00000074,0.00000135,0.00000975,-0.00000224,-0.00000477,-0.0000
 0510,0.00000313,-0.00000437,0.00001939,-0.00006173,-0.00002199,-0.0000
 3815,0.00010103,0.00005469,0.00008148,-0.00022241,0.00039848,-0.000743
 09,-0.00113790,0.00209758,0.01413343,0.00286464,-0.00501145,-0.0612672
 4,0.04129220,0.02967698,-0.00005464,-0.00005189,-0.00003143,-0.0000389
 8,-0.00005462,-0.00003302,-0.00026648,-0.00008831,-0.00005334,0.000923
 21,0.00003639,0.00002188,0.00033083,0.00081760,0.00049440,0.00505581,0
 .00313128,0.00189264,0.00049715,0.00166339,0.00100555,-0.14910585,-0.0
 9306694,-0.05626655,-0.05058343,-0.01542378,-0.00932344,0.00003282,-0.
 00001268,-0.00000766,0.00000456,0.00001678,0.00000092,0.00000456,0.000
 00861,0.00001445,0.00006591,-0.00003617,-0.00003418,0.00006592,-0.0000
 4708,-0.00001613,0.00003015,0.00000889,0.00000538,0.00035061,0.0001417
 8,0.00008578,0.00033851,0.00047150,0.00028502,-0.00037394,0.00119051,0
 .00071969,0.19272327,-0.00003165,-0.00001753,-0.00001527,-0.00004619,-
 0.00000154,-0.00003085,0.00016368,-0.00019453,-0.00016470,0.00095839,0
 .00050797,0.00088968,-0.00136440,-0.00104379,0.00033974,-0.02218349,-0
 .01003595,-0.01401105,0.00499604,-0.00246134,-0.00296708,-0.08494060,-
 0.14602431,-0.05581189,0.00087677,0.02084556,0.00240918,0.00001216,-0.
 00000403,0.00000074,0.00000428,0.00000828,-0.00000306,0.00000640,0.000
 00133,0.00001035,0.00004488,-0.00002556,-0.00001410,0.00002012,-0.0000
 3060,-0.00000888,0.00007431,0.00002894,-0.00008497,0.00139957,0.000241
 67,-0.00005933,-0.00137827,-0.00029153,-0.00070570,0.00009325,0.000241
 98,0.00023339,0.10129474,0.13825499,-0.00001913,-0.00001520,-0.0000016
 2,-0.00002795,-0.00003085,0.00003081,0.00009894,-0.00016474,-0.0000216
 3,0.00057956,0.00088967,-0.00042590,-0.00082522,0.00033955,-0.00140015
 ,-0.01341005,-0.01400912,0.00466946,0.00302007,-0.00296723,0.00065319,
 -0.05135631,-0.05581424,-0.08745110,0.00053261,0.00240992,0.01831699,0
 .00000735,0.00000072,-0.00000479,0.00000497,0.00000667,-0.00000248,0.0
 0000148,0.00000058,0.00000450,-0.00000082,-0.00001154,-0.00001852,0.00
 004015,-0.00001146,-0.00001348,0.00004492,-0.00008498,0.00011813,0.000
 84623,-0.00005924,0.00030382,-0.00083321,-0.00070571,0.00044933,0.0000
 5639,0.00023340,-0.00000311,0.06124003,0.06999380,0.06479655\\0.000003
 74,-0.00000736,-0.00000446,-0.00003401,-0.00006138,-0.00003714,0.00007
 817,0.00001443,0.00000875,0.00001723,-0.00001893,-0.00001088,-0.000071
 67,-0.00000166,-0.00000131,0.00000769,0.00001723,0.00000691,-0.0000296
 3,0.00004616,0.00002752,0.00001789,-0.00000403,0.00000965,0.00001941,0
 .00000135,-0.00000362,0.00000742,0.00000154,0.00000094,0.00000405,0.00
 000215,-0.00000264,0.00000405,-0.00000135,0.00000313,0.00001105,0.0000
 1799,0.00001379,0.00001102,0.00002060,0.00000951,-0.00004372,-0.000011
 99,-0.00000726,0.00000362,0.00001343,0.00000789,-0.00000870,0.00000393
 ,0.00000234,0.00004384,-0.00002492,-0.00001471,-0.00004146,-0.00000721
 ,-0.00000841\\\@


 SIGN SEEN IN A RESTAURANT-
 WE RESERVE THE RIGHT TO SERVE REFUSE TO ANYONE.
 Job cpu time:       0 days  1 hours 35 minutes 17.0 seconds.
 Elapsed time:       0 days  0 hours 23 minutes 51.4 seconds.
 File lengths (MBytes):  RWF=    137 Int=      0 D2E=      0 Chk=      8 Scr=      1
 Normal termination of Gaussian 16 at Mon May 31 23:03:18 2021.
### All Done ###
