### Starting Gaussian ###
 Entering Gaussian System, Link 0=g16
 Initial command:
 /cluster/software/gaussian/gaussian-16-A.03/avx2/g16/l1.exe "/local/scratch/cz9n3/Gau-15668.inp" -scrdir="/local/scratch/cz9n3/"
 Entering Link 1 = /cluster/software/gaussian/gaussian-16-A.03/avx2/g16/l1.exe PID=     15669.
  
 Copyright (c) 1988,1990,1992,1993,1995,1998,2003,2009,2016,
            Gaussian, Inc.  All Rights Reserved.
  
 This is part of the Gaussian(R) 16 program.  It is based on
 the Gaussian(R) 09 system (copyright 2009, Gaussian, Inc.),
 the Gaussian(R) 03 system (copyright 2003, Gaussian, Inc.),
 the Gaussian(R) 98 system (copyright 1998, Gaussian, Inc.),
 the Gaussian(R) 94 system (copyright 1995, Gaussian, Inc.),
 the Gaussian 92(TM) system (copyright 1992, Gaussian, Inc.),
 the Gaussian 90(TM) system (copyright 1990, Gaussian, Inc.),
 the Gaussian 88(TM) system (copyright 1988, Gaussian, Inc.),
 the Gaussian 86(TM) system (copyright 1986, Carnegie Mellon
 University), and the Gaussian 82(TM) system (copyright 1983,
 Carnegie Mellon University). Gaussian is a federally registered
 trademark of Gaussian, Inc.
  
 This software contains proprietary and confidential information,
 including trade secrets, belonging to Gaussian, Inc.
  
 This software is provided under written license and may be
 used, copied, transmitted, or stored only in accord with that
 written license.
  
 The following legend is applicable only to US Government
 contracts under FAR:
  
                    RESTRICTED RIGHTS LEGEND
  
 Use, reproduction and disclosure by the US Government is
 subject to restrictions as set forth in subparagraphs (a)
 and (c) of the Commercial Computer Software - Restricted
 Rights clause in FAR 52.227-19.
  
 Gaussian, Inc.
 340 Quinnipiac St., Bldg. 40, Wallingford CT 06492
  
  
 ---------------------------------------------------------------
 Warning -- This program may not be used in any manner that
 competes with the business of Gaussian, Inc. or will provide
 assistance to any competitor of Gaussian, Inc.  The licensee
 of this program is prohibited from giving any competitor of
 Gaussian, Inc. access to this program.  By using this program,
 the user acknowledges that Gaussian, Inc. is engaged in the
 business of creating and licensing software in the field of
 computational chemistry and represents and warrants to the
 licensee that it is not a competitor of Gaussian, Inc. and that
 it will not use this program in any manner prohibited above.
 ---------------------------------------------------------------
  

 Cite this work as:
 Gaussian 16, Revision A.03,
 M. J. Frisch, G. W. Trucks, H. B. Schlegel, G. E. Scuseria, 
 M. A. Robb, J. R. Cheeseman, G. Scalmani, V. Barone, 
 G. A. Petersson, H. Nakatsuji, X. Li, M. Caricato, A. V. Marenich, 
 J. Bloino, B. G. Janesko, R. Gomperts, B. Mennucci, H. P. Hratchian, 
 J. V. Ortiz, A. F. Izmaylov, J. L. Sonnenberg, D. Williams-Young, 
 F. Ding, F. Lipparini, F. Egidi, J. Goings, B. Peng, A. Petrone, 
 T. Henderson, D. Ranasinghe, V. G. Zakrzewski, J. Gao, N. Rega, 
 G. Zheng, W. Liang, M. Hada, M. Ehara, K. Toyota, R. Fukuda, 
 J. Hasegawa, M. Ishida, T. Nakajima, Y. Honda, O. Kitao, H. Nakai, 
 T. Vreven, K. Throssell, J. A. Montgomery, Jr., J. E. Peralta, 
 F. Ogliaro, M. J. Bearpark, J. J. Heyd, E. N. Brothers, K. N. Kudin, 
 V. N. Staroverov, T. A. Keith, R. Kobayashi, J. Normand, 
 K. Raghavachari, A. P. Rendell, J. C. Burant, S. S. Iyengar, 
 J. Tomasi, M. Cossi, J. M. Millam, M. Klene, C. Adamo, R. Cammi, 
 J. W. Ochterski, R. L. Martin, K. Morokuma, O. Farkas, 
 J. B. Foresman, and D. J. Fox, Gaussian, Inc., Wallingford CT, 2016.
 
 ******************************************
 Gaussian 16:  ES64L-G16RevA.03 25-Dec-2016
                 1-Jun-2021 
 ******************************************
 %chk=CCCNpCpNpCpNC.chk
 %NProcShared=20
 Will use up to   20 processors via shared memory.
 -----------------------------
 # opt freq b3lyp/6-31g(2df,p)
 -----------------------------
 1/18=20,19=15,26=3,38=1/1,3;
 2/9=110,12=2,17=6,18=5,40=1/2;
 3/5=1,6=6,7=104,11=2,25=1,30=1,71=1,74=-5/1,2,3;
 4//1;
 5/5=2,38=5/2;
 6/7=2,8=2,9=2,10=2,28=1/1;
 7//1,2,3,16;
 1/18=20,19=15,26=3/3(2);
 2/9=110/2;
 99//99;
 2/9=110/2;
 3/5=1,6=6,7=104,11=2,25=1,30=1,71=1,74=-5/1,2,3;
 4/5=5,16=3,69=1/1;
 5/5=2,38=5/2;
 7//1,2,3,16;
 1/18=20,19=15,26=3/3(-5);
 2/9=110/2;
 6/7=2,8=2,9=2,10=2,19=2,28=1/1;
 99/9=1/99;
 -------------------
 Title Card Required
 -------------------
 Symbolic Z-matrix:
 Charge =  0 Multiplicity = 1
 C                     0.85054  -0.03223  -0.01151 
 C                     2.36934   0.00518   0.01489 
 C                     2.94404  -1.40402   0.20993 
 N                     4.43029  -1.45657   0.18977 
 C                     4.9362   -0.6478    1.3181 
 N                     4.89311  -2.87859   0.32701 
 C                     4.3856   -3.66899  -0.82516 
 N                     6.35735  -2.91081   0.25155 
 C                     6.88211  -4.24761   0.53156 
 H                     0.45428   0.97936  -0.13652 
 H                     0.4607   -0.43954   0.927 
 H                     0.48442  -0.65161  -0.83582 
 H                     2.66427   0.6769    0.82487 
 H                     2.74374   0.42845  -0.92492 
 H                     2.53381  -1.97873  -0.62535 
 H                     2.55357  -1.85125   1.13398 
 H                     4.63513   0.39987   1.22466 
 H                     6.02757  -0.58302   1.33626 
 H                     4.58834  -1.02566   2.28634 
 H                     3.29606  -3.74941  -0.82953 
 H                     4.69711  -4.71622  -0.75895 
 H                     4.72194  -3.2627   -1.78651 
 H                     6.73353  -2.31061   0.97752 
 H                     6.6798   -4.94617  -0.28375 
 H                     6.49424  -4.65114   1.47145 
 H                     7.97244  -4.18616   0.60955 
 

 GradGradGradGradGradGradGradGradGradGradGradGradGradGradGradGradGradGrad
 Berny optimization.
 Initialization pass.
                           ----------------------------
                           !    Initial Parameters    !
                           ! (Angstroms and Degrees)  !
 --------------------------                            --------------------------
 ! Name  Definition              Value          Derivative Info.                !
 --------------------------------------------------------------------------------
 ! R1    R(1,2)                  1.5195         estimate D2E/DX2                !
 ! R2    R(1,10)                 1.0936         estimate D2E/DX2                !
 ! R3    R(1,11)                 1.0948         estimate D2E/DX2                !
 ! R4    R(1,12)                 1.0941         estimate D2E/DX2                !
 ! R5    R(2,3)                  1.5343         estimate D2E/DX2                !
 ! R6    R(2,13)                 1.0928         estimate D2E/DX2                !
 ! R7    R(2,14)                 1.0966         estimate D2E/DX2                !
 ! R8    R(3,4)                  1.4873         estimate D2E/DX2                !
 ! R9    R(3,15)                 1.0937         estimate D2E/DX2                !
 ! R10   R(3,16)                 1.0983         estimate D2E/DX2                !
 ! R11   R(4,5)                  1.4776         estimate D2E/DX2                !
 ! R12   R(4,6)                  1.5017         estimate D2E/DX2                !
 ! R13   R(5,17)                 1.0941         estimate D2E/DX2                !
 ! R14   R(5,18)                 1.0934         estimate D2E/DX2                !
 ! R15   R(5,19)                 1.096          estimate D2E/DX2                !
 ! R16   R(6,7)                  1.4865         estimate D2E/DX2                !
 ! R17   R(6,8)                  1.4665         estimate D2E/DX2                !
 ! R18   R(7,20)                 1.0925         estimate D2E/DX2                !
 ! R19   R(7,21)                 1.0946         estimate D2E/DX2                !
 ! R20   R(7,22)                 1.0965         estimate D2E/DX2                !
 ! R21   R(8,9)                  1.4632         estimate D2E/DX2                !
 ! R22   R(8,23)                 1.0143         estimate D2E/DX2                !
 ! R23   R(9,24)                 1.0925         estimate D2E/DX2                !
 ! R24   R(9,25)                 1.0939         estimate D2E/DX2                !
 ! R25   R(9,26)                 1.0948         estimate D2E/DX2                !
 ! A1    A(2,1,10)             109.9617         estimate D2E/DX2                !
 ! A2    A(2,1,11)             110.498          estimate D2E/DX2                !
 ! A3    A(2,1,12)             111.1918         estimate D2E/DX2                !
 ! A4    A(10,1,11)            108.2459         estimate D2E/DX2                !
 ! A5    A(10,1,12)            108.4373         estimate D2E/DX2                !
 ! A6    A(11,1,12)            108.4249         estimate D2E/DX2                !
 ! A7    A(1,2,3)              110.7314         estimate D2E/DX2                !
 ! A8    A(1,2,13)             107.3236         estimate D2E/DX2                !
 ! A9    A(1,2,14)             109.6255         estimate D2E/DX2                !
 ! A10   A(3,2,13)             111.6684         estimate D2E/DX2                !
 ! A11   A(3,2,14)             109.6066         estimate D2E/DX2                !
 ! A12   A(13,2,14)            107.8069         estimate D2E/DX2                !
 ! A13   A(2,3,4)              113.8924         estimate D2E/DX2                !
 ! A14   A(2,3,15)             104.1839         estimate D2E/DX2                !
 ! A15   A(2,3,16)             110.3507         estimate D2E/DX2                !
 ! A16   A(4,3,15)             110.2358         estimate D2E/DX2                !
 ! A17   A(4,3,16)             110.6263         estimate D2E/DX2                !
 ! A18   A(15,3,16)            107.1699         estimate D2E/DX2                !
 ! A19   A(3,4,5)              108.2075         estimate D2E/DX2                !
 ! A20   A(3,4,6)              109.8884         estimate D2E/DX2                !
 ! A21   A(5,4,6)              110.0601         estimate D2E/DX2                !
 ! A22   A(4,5,17)             111.39           estimate D2E/DX2                !
 ! A23   A(4,5,18)             112.7591         estimate D2E/DX2                !
 ! A24   A(4,5,19)             112.1623         estimate D2E/DX2                !
 ! A25   A(17,5,18)            102.6708         estimate D2E/DX2                !
 ! A26   A(17,5,19)            108.5567         estimate D2E/DX2                !
 ! A27   A(18,5,19)            108.8163         estimate D2E/DX2                !
 ! A28   A(4,6,7)              109.1131         estimate D2E/DX2                !
 ! A29   A(4,6,8)              108.8936         estimate D2E/DX2                !
 ! A30   A(7,6,8)              106.8165         estimate D2E/DX2                !
 ! A31   A(6,7,20)             112.5019         estimate D2E/DX2                !
 ! A32   A(6,7,21)             111.3866         estimate D2E/DX2                !
 ! A33   A(6,7,22)             112.1968         estimate D2E/DX2                !
 ! A34   A(20,7,21)            102.3354         estimate D2E/DX2                !
 ! A35   A(20,7,22)            109.2483         estimate D2E/DX2                !
 ! A36   A(21,7,22)            108.6769         estimate D2E/DX2                !
 ! A37   A(6,8,9)              111.6117         estimate D2E/DX2                !
 ! A38   A(6,8,23)             108.6914         estimate D2E/DX2                !
 ! A39   A(9,8,23)             105.7031         estimate D2E/DX2                !
 ! A40   A(8,9,24)             112.0212         estimate D2E/DX2                !
 ! A41   A(8,9,25)             111.9804         estimate D2E/DX2                !
 ! A42   A(8,9,26)             108.6342         estimate D2E/DX2                !
 ! A43   A(24,9,25)            109.8559         estimate D2E/DX2                !
 ! A44   A(24,9,26)            105.87           estimate D2E/DX2                !
 ! A45   A(25,9,26)            108.2164         estimate D2E/DX2                !
 ! D1    D(10,1,2,3)           179.1896         estimate D2E/DX2                !
 ! D2    D(10,1,2,13)           57.0749         estimate D2E/DX2                !
 ! D3    D(10,1,2,14)          -59.7537         estimate D2E/DX2                !
 ! D4    D(11,1,2,3)            59.7563         estimate D2E/DX2                !
 ! D5    D(11,1,2,13)          -62.3584         estimate D2E/DX2                !
 ! D6    D(11,1,2,14)         -179.1871         estimate D2E/DX2                !
 ! D7    D(12,1,2,3)           -60.6973         estimate D2E/DX2                !
 ! D8    D(12,1,2,13)          177.188          estimate D2E/DX2                !
 ! D9    D(12,1,2,14)           60.3593         estimate D2E/DX2                !
 ! D10   D(1,2,3,4)            177.5938         estimate D2E/DX2                !
 ! D11   D(1,2,3,15)            57.451          estimate D2E/DX2                !
 ! D12   D(1,2,3,16)           -57.2893         estimate D2E/DX2                !
 ! D13   D(13,2,3,4)           -62.8702         estimate D2E/DX2                !
 ! D14   D(13,2,3,15)          176.987          estimate D2E/DX2                !
 ! D15   D(13,2,3,16)           62.2468         estimate D2E/DX2                !
 ! D16   D(14,2,3,4)            56.5259         estimate D2E/DX2                !
 ! D17   D(14,2,3,15)          -63.6169         estimate D2E/DX2                !
 ! D18   D(14,2,3,16)         -178.3571         estimate D2E/DX2                !
 ! D19   D(2,3,4,5)             62.2827         estimate D2E/DX2                !
 ! D20   D(2,3,4,6)           -177.5198         estimate D2E/DX2                !
 ! D21   D(15,3,4,5)           178.9578         estimate D2E/DX2                !
 ! D22   D(15,3,4,6)           -60.8448         estimate D2E/DX2                !
 ! D23   D(16,3,4,5)           -62.6875         estimate D2E/DX2                !
 ! D24   D(16,3,4,6)            57.51           estimate D2E/DX2                !
 ! D25   D(3,4,5,17)           -61.5314         estimate D2E/DX2                !
 ! D26   D(3,4,5,18)          -176.3527         estimate D2E/DX2                !
 ! D27   D(3,4,5,19)            60.3795         estimate D2E/DX2                !
 ! D28   D(6,4,5,17)           178.3786         estimate D2E/DX2                !
 ! D29   D(6,4,5,18)            63.5572         estimate D2E/DX2                !
 ! D30   D(6,4,5,19)           -59.7106         estimate D2E/DX2                !
 ! D31   D(3,4,6,7)             61.5519         estimate D2E/DX2                !
 ! D32   D(3,4,6,8)            177.7978         estimate D2E/DX2                !
 ! D33   D(5,4,6,7)           -179.3806         estimate D2E/DX2                !
 ! D34   D(5,4,6,8)            -63.1347         estimate D2E/DX2                !
 ! D35   D(4,6,7,20)           -65.4041         estimate D2E/DX2                !
 ! D36   D(4,6,7,21)          -179.6449         estimate D2E/DX2                !
 ! D37   D(4,6,7,22)            58.2663         estimate D2E/DX2                !
 ! D38   D(8,6,7,20)           177.0313         estimate D2E/DX2                !
 ! D39   D(8,6,7,21)            62.7906         estimate D2E/DX2                !
 ! D40   D(8,6,7,22)           -59.2982         estimate D2E/DX2                !
 ! D41   D(4,6,8,9)            173.4735         estimate D2E/DX2                !
 ! D42   D(4,6,8,23)            57.2832         estimate D2E/DX2                !
 ! D43   D(7,6,8,9)            -68.8175         estimate D2E/DX2                !
 ! D44   D(7,6,8,23)           174.9922         estimate D2E/DX2                !
 ! D45   D(6,8,9,24)            71.7059         estimate D2E/DX2                !
 ! D46   D(6,8,9,25)           -52.2361         estimate D2E/DX2                !
 ! D47   D(6,8,9,26)          -171.6992         estimate D2E/DX2                !
 ! D48   D(23,8,9,24)         -170.2957         estimate D2E/DX2                !
 ! D49   D(23,8,9,25)           65.7623         estimate D2E/DX2                !
 ! D50   D(23,8,9,26)          -53.7009         estimate D2E/DX2                !
 --------------------------------------------------------------------------------
 Trust Radius=3.00D-01 FncErr=1.00D-07 GrdErr=1.00D-06 EigMax=2.50D+02 EigMin=1.00D-04
 Number of steps in this run=    130 maximum allowed number of steps=    156.
 GradGradGradGradGradGradGradGradGradGradGradGradGradGradGradGradGradGrad

                          Input orientation:                          
 ---------------------------------------------------------------------
 Center     Atomic      Atomic             Coordinates (Angstroms)
 Number     Number       Type             X           Y           Z
 ---------------------------------------------------------------------
      1          6           0        0.850540   -0.032230   -0.011510
      2          6           0        2.369340    0.005180    0.014890
      3          6           0        2.944040   -1.404020    0.209930
      4          7           0        4.430290   -1.456570    0.189770
      5          6           0        4.936200   -0.647800    1.318100
      6          7           0        4.893110   -2.878590    0.327010
      7          6           0        4.385600   -3.668990   -0.825160
      8          7           0        6.357350   -2.910810    0.251550
      9          6           0        6.882110   -4.247610    0.531560
     10          1           0        0.454280    0.979360   -0.136520
     11          1           0        0.460700   -0.439540    0.927000
     12          1           0        0.484420   -0.651610   -0.835820
     13          1           0        2.664270    0.676900    0.824870
     14          1           0        2.743740    0.428450   -0.924920
     15          1           0        2.533810   -1.978730   -0.625350
     16          1           0        2.553570   -1.851250    1.133980
     17          1           0        4.635130    0.399870    1.224660
     18          1           0        6.027570   -0.583020    1.336260
     19          1           0        4.588340   -1.025660    2.286340
     20          1           0        3.296060   -3.749410   -0.829530
     21          1           0        4.697110   -4.716220   -0.758950
     22          1           0        4.721940   -3.262700   -1.786510
     23          1           0        6.733530   -2.310610    0.977520
     24          1           0        6.679800   -4.946170   -0.283750
     25          1           0        6.494240   -4.651140    1.471450
     26          1           0        7.972440   -4.186160    0.609550
 ---------------------------------------------------------------------
                    Distance matrix (angstroms):
                    1          2          3          4          5
     1  C    0.000000
     2  C    1.519490   0.000000
     3  C    2.512685   1.534329   0.000000
     4  N    3.857962   2.532748   1.487315   0.000000
     5  C    4.340439   2.951865   2.401793   1.477560   0.000000
     6  N    4.955677   3.844862   2.446822   1.501725   2.441422
     7  C    5.136604   4.274402   2.877429   2.434519   3.744905
     8  N    6.219355   4.946032   3.731331   2.414993   2.877223
     9  C    7.378631   6.222400   4.868043   3.730703   4.166994
    10  H    1.093601   2.153928   3.464020   4.674278   4.985095
    11  H    1.094841   2.161626   2.758875   4.163593   4.497381
    12  H    1.094149   2.169794   2.776589   4.155681   4.945476
    13  H    2.119437   1.092822   2.187842   2.841456   2.675775
    14  H    2.151918   1.096620   2.164706   2.764107   3.316072
    15  H    2.645574   2.091138   1.093743   2.129251   3.364499
    16  H    2.742497   2.175462   1.098340   2.137611   2.675653
    17  H    4.004741   2.598678   2.672729   2.135258   1.094069
    18  H    5.377871   3.933782   3.383906   2.151472   1.093442
    19  H    4.498685   3.338574   2.675511   2.146222   1.096026
    20  H    4.524064   3.958384   2.589450   2.753646   4.113679
    21  H    6.106925   5.320616   3.870743   3.405375   4.574204
    22  H    5.345493   4.411214   3.255978   2.693111   4.064752
    23  H    6.385825   5.033457   3.971314   2.579699   2.472110
    24  H    7.628971   6.571538   5.171697   4.178735   4.907346
    25  H    7.442100   6.388872   4.973846   4.013461   4.298574
    26  H    8.268150   7.022512   5.760625   4.491515   4.716014
                    6          7          8          9         10
     6  N    0.000000
     7  C    1.486538   0.000000
     8  N    1.466537   2.371063   0.000000
     9  C    2.423258   2.899664   1.463152   0.000000
    10  H    5.899309   6.126717   7.080272   8.311711   0.000000
    11  H    5.094626   5.376267   6.429144   7.476114   1.773244
    12  H    5.074265   4.931927   6.385739   7.465345   1.774822
    13  H    4.225766   4.957049   5.180656   6.490532   2.428952
    14  H    4.138071   4.415277   5.058944   6.411940   2.483285
    15  H    2.698710   2.515160   4.032020   5.039243   3.648794
    16  H    2.679566   3.240176   4.045997   4.984146   3.746137
    17  H    3.408904   4.562855   3.856629   5.208491   4.434876
    18  H    2.752313   4.109868   2.589200   3.847987   5.972577
    19  H    2.713892   4.087754   3.289918   4.326846   5.194305
    20  H    2.155570   1.092513   3.353130   3.867884   5.560328
    21  H    2.143504   1.094583   2.652737   2.580550   7.129422
    22  H    2.154949   1.096535   2.636680   3.318106   6.239428
    23  H    2.032956   3.256935   1.014290   1.993220   7.175930
    24  H    2.800031   2.680983   2.129134   1.092541   8.595969
    25  H    2.648640   3.268853   2.129705   1.093925   8.412444
    26  H    3.357356   3.897599   2.088827   1.094842   9.152155
                   11         12         13         14         15
    11  H    0.000000
    12  H    1.775689   0.000000
    13  H    2.472365   3.045419   0.000000
    14  H    3.065173   2.505792   1.769126   0.000000
    15  H    3.012753   2.450621   3.028618   2.434816   0.000000
    16  H    2.532957   3.098488   2.549381   3.077705   1.764053
    17  H    4.268381   4.751798   2.029992   2.863366   3.673666
    18  H    5.583737   5.953919   3.627769   4.113338   4.242909
    19  H    4.385060   5.170102   2.955783   3.978590   3.688818
    20  H    4.698926   4.183506   4.767433   4.215290   1.938562
    21  H    6.251367   5.854376   5.977179   5.505527   3.491643
    22  H    5.787187   5.067364   5.154974   4.275535   2.790123
    23  H    6.546133   6.715047   5.050485   5.200015   4.507437
    24  H    7.775142   7.558489   6.998031   6.692549   5.109953
    25  H    7.378184   7.578765   6.593538   6.753597   5.217600
    26  H    8.400248   8.405509   7.202249   7.140625   5.998035
                   16         17         18         19         20
    16  H    0.000000
    17  H    3.067353   0.000000
    18  H    3.703782   1.708045   0.000000
    19  H    2.479883   1.778058   1.780440   0.000000
    20  H    2.830137   4.819681   4.709333   4.335602   0.000000
    21  H    4.047963   5.487525   4.821138   4.786006   1.703715
    22  H    3.901702   4.742267   4.317065   4.648688   1.784890
    23  H    4.208035   3.436723   1.900432   2.822401   4.141470
    24  H    5.349230   5.919132   4.699672   5.133222   3.630400
    25  H    4.845838   5.387940   4.097030   4.176195   4.041779
    26  H    5.923764   5.705056   4.158515   4.924685   4.912253
                   21         22         23         24         25
    21  H    0.000000
    22  H    1.780229   0.000000
    23  H    3.598513   3.548638   0.000000
    24  H    2.051768   2.987570   2.922305   0.000000
    25  H    2.865065   3.960191   2.404019   1.789470   0.000000
    26  H    3.589087   4.142419   2.277715   1.745428   1.773176
                   26
    26  H    0.000000
 Stoichiometry    C6H17N3
 Framework group  C1[X(C6H17N3)]
 Deg. of freedom    72
 Full point group                 C1      NOp   1
 Largest Abelian subgroup         C1      NOp   1
 Largest concise Abelian subgroup C1      NOp   1
                         Standard orientation:                         
 ---------------------------------------------------------------------
 Center     Atomic      Atomic             Coordinates (Angstroms)
 Number     Number       Type             X           Y           Z
 ---------------------------------------------------------------------
      1          6           0       -3.822057   -0.544520    0.215259
      2          6           0       -2.646755    0.248645   -0.331005
      3          6           0       -1.321735   -0.295603    0.218793
      4          7           0       -0.118317    0.395574   -0.316152
      5          6           0       -0.180298    1.813899    0.093354
      6          7           0        1.124528   -0.244936    0.231811
      7          6           0        1.173203   -1.665114   -0.204674
      8          7           0        2.296340    0.418031   -0.349621
      9          6           0        3.540221   -0.055437    0.258162
     10          1           0       -4.759900   -0.137391   -0.172892
     11          1           0       -3.849255   -0.485961    1.308195
     12          1           0       -3.756511   -1.597953   -0.073088
     13          1           0       -2.801040    1.293613   -0.050831
     14          1           0       -2.641577    0.192326   -1.426166
     15          1           0       -1.318756   -1.347300   -0.081537
     16          1           0       -1.325366   -0.271992    1.316873
     17          1           0       -1.064250    2.309870   -0.318506
     18          1           0        0.640936    2.408623   -0.315904
     19          1           0       -0.191541    1.929462    1.183213
     20          1           0        0.363459   -2.261655    0.221985
     21          1           0        2.064246   -2.170791    0.180612
     22          1           0        1.158118   -1.763626   -1.296671
     23          1           0        2.247370    1.408873   -0.138394
     24          1           0        3.783847   -1.075290   -0.048746
     25          1           0        3.512299    0.007385    1.349925
     26          1           0        4.364590    0.569904   -0.099670
 ---------------------------------------------------------------------
 Rotational constants (GHZ):           3.6072870           0.7358785           0.6398513
 Standard basis: 6-31G(2df,p) (6D, 7F)
 There are   364 symmetry adapted cartesian basis functions of A   symmetry.
 There are   337 symmetry adapted basis functions of A   symmetry.
   337 basis functions,   515 primitive gaussians,   364 cartesian basis functions
    37 alpha electrons       37 beta electrons
       nuclear repulsion energy       501.0991197937 Hartrees.
 NAtoms=   26 NActive=   26 NUniq=   26 SFac= 1.00D+00 NAtFMM=   60 NAOKFM=F Big=F
 Integral buffers will be    131072 words long.
 Raffenetti 2 integral format.
 Two-electron integral symmetry is turned on.
 One-electron integrals computed using PRISM.
 PrsmSu:  requested number of processors reduced to:  13 ShMem   1 Linda.
 NBasis=   337 RedAO= T EigKep=  2.88D-04  NBF=   337
 NBsUse=   337 1.00D-06 EigRej= -1.00D+00 NBFU=   337
 ExpMin= 1.61D-01 ExpMax= 4.17D+03 ExpMxC= 6.27D+02 IAcc=3 IRadAn=         5 AccDes= 0.00D+00
 Harris functional with IExCor=  402 and IRadAn=       5 diagonalized for initial guess.
 HarFok:  IExCor=  402 AccDes= 0.00D+00 IRadAn=         5 IDoV= 1 UseB2=F ITyADJ=14
 ICtDFT=  3500011 ScaDFX=  1.000000  1.000000  1.000000  1.000000
 FoFCou: FMM=F IPFlag=           0 FMFlag=      100000 FMFlg1=           0
         NFxFlg=           0 DoJE=T BraDBF=F KetDBF=T FulRan=T
         wScrn=  0.000000 ICntrl=       500 IOpCl=  0 I1Cent=   200000004 NGrid=           0
         NMat0=    1 NMatS0=      1 NMatT0=    0 NMatD0=    1 NMtDS0=    0 NMtDT0=    0
 Petite list used in FoFCou.
 Requested convergence on RMS density matrix=1.00D-08 within 128 cycles.
 Requested convergence on MAX density matrix=1.00D-06.
 Requested convergence on             energy=1.00D-06.
 No special actions if energy rises.
 Integral accuracy reduced to 1.0D-05 until final iterations.
 Initial convergence to 1.0D-05 achieved.  Increase integral accuracy.
 SCF Done:  E(RB3LYP) =  -403.051263539     A.U. after   12 cycles
            NFock= 12  Conv=0.56D-08     -V/T= 2.0085

 **********************************************************************

            Population analysis using the SCF density.

 **********************************************************************

 Orbital symmetries:
       Occupied  (A) (A) (A) (A) (A) (A) (A) (A) (A) (A) (A) (A)
                 (A) (A) (A) (A) (A) (A) (A) (A) (A) (A) (A) (A)
                 (A) (A) (A) (A) (A) (A) (A) (A) (A) (A) (A) (A)
                 (A)
       Virtual   (A) (A) (A) (A) (A) (A) (A) (A) (A) (A) (A) (A)
                 (A) (A) (A) (A) (A) (A) (A) (A) (A) (A) (A) (A)
                 (A) (A) (A) (A) (A) (A) (A) (A) (A) (A) (A) (A)
                 (A) (A) (A) (A) (A) (A) (A) (A) (A) (A) (A) (A)
                 (A) (A) (A) (A) (A) (A) (A) (A) (A) (A) (A) (A)
                 (A) (A) (A) (A) (A) (A) (A) (A) (A) (A) (A) (A)
                 (A) (A) (A) (A) (A) (A) (A) (A) (A) (A) (A) (A)
                 (A) (A) (A) (A) (A) (A) (A) (A) (A) (A) (A) (A)
                 (A) (A) (A) (A) (A) (A) (A) (A) (A) (A) (A) (A)
                 (A) (A) (A) (A) (A) (A) (A) (A) (A) (A) (A) (A)
                 (A) (A) (A) (A) (A) (A) (A) (A) (A) (A) (A) (A)
                 (A) (A) (A) (A) (A) (A) (A) (A) (A) (A) (A) (A)
                 (A) (A) (A) (A) (A) (A) (A) (A) (A) (A) (A) (A)
                 (A) (A) (A) (A) (A) (A) (A) (A) (A) (A) (A) (A)
                 (A) (A) (A) (A) (A) (A) (A) (A) (A) (A) (A) (A)
                 (A) (A) (A) (A) (A) (A) (A) (A) (A) (A) (A) (A)
                 (A) (A) (A) (A) (A) (A) (A) (A) (A) (A) (A) (A)
                 (A) (A) (A) (A) (A) (A) (A) (A) (A) (A) (A) (A)
                 (A) (A) (A) (A) (A) (A) (A) (A) (A) (A) (A) (A)
                 (A) (A) (A) (A) (A) (A) (A) (A) (A) (A) (A) (A)
                 (A) (A) (A) (A) (A) (A) (A) (A) (A) (A) (A) (A)
                 (A) (A) (A) (A) (A) (A) (A) (A) (A) (A) (A) (A)
                 (A) (A) (A) (A) (A) (A) (A) (A) (A) (A) (A) (A)
                 (A) (A) (A) (A) (A) (A) (A) (A) (A) (A) (A) (A)
                 (A) (A) (A) (A) (A) (A) (A) (A) (A) (A) (A) (A)
 The electronic state is 1-A.
 Alpha  occ. eigenvalues --  -14.36225 -14.34027 -14.32926 -10.19937 -10.19753
 Alpha  occ. eigenvalues --  -10.19631 -10.19242 -10.17878 -10.17325  -0.97673
 Alpha  occ. eigenvalues --   -0.87996  -0.78915  -0.76722  -0.69304  -0.67474
 Alpha  occ. eigenvalues --   -0.64102  -0.59487  -0.56354  -0.50934  -0.47331
 Alpha  occ. eigenvalues --   -0.47058  -0.44352  -0.43142  -0.42180  -0.41185
 Alpha  occ. eigenvalues --   -0.40301  -0.39228  -0.38637  -0.37520  -0.35893
 Alpha  occ. eigenvalues --   -0.35690  -0.33977  -0.33297  -0.32520  -0.30774
 Alpha  occ. eigenvalues --   -0.22822  -0.16111
 Alpha virt. eigenvalues --    0.08068   0.09983   0.10146   0.11454   0.12320
 Alpha virt. eigenvalues --    0.13682   0.14584   0.15046   0.15536   0.16246
 Alpha virt. eigenvalues --    0.17097   0.17801   0.18490   0.19189   0.19244
 Alpha virt. eigenvalues --    0.19663   0.20685   0.20966   0.21873   0.22994
 Alpha virt. eigenvalues --    0.24830   0.25104   0.26291   0.26789   0.27985
 Alpha virt. eigenvalues --    0.42738   0.44367   0.45758   0.47558   0.48175
 Alpha virt. eigenvalues --    0.50964   0.51143   0.52401   0.53070   0.54272
 Alpha virt. eigenvalues --    0.54932   0.55714   0.58283   0.59342   0.60737
 Alpha virt. eigenvalues --    0.62200   0.64114   0.64495   0.67289   0.68191
 Alpha virt. eigenvalues --    0.71431   0.71943   0.72348   0.72801   0.73579
 Alpha virt. eigenvalues --    0.73856   0.74399   0.75369   0.75634   0.75784
 Alpha virt. eigenvalues --    0.76630   0.77025   0.78385   0.79035   0.79651
 Alpha virt. eigenvalues --    0.80207   0.82075   0.83795   0.85358   0.86672
 Alpha virt. eigenvalues --    0.88244   0.89096   0.90167   0.90687   0.91761
 Alpha virt. eigenvalues --    0.93939   0.96084   0.96935   0.99239   1.06409
 Alpha virt. eigenvalues --    1.08486   1.14332   1.16105   1.18565   1.19483
 Alpha virt. eigenvalues --    1.21224   1.24080   1.27027   1.27808   1.30628
 Alpha virt. eigenvalues --    1.31490   1.33234   1.33605   1.38641   1.39152
 Alpha virt. eigenvalues --    1.42531   1.44259   1.46025   1.48187   1.49505
 Alpha virt. eigenvalues --    1.50434   1.53677   1.54860   1.57479   1.58281
 Alpha virt. eigenvalues --    1.59009   1.60204   1.63470   1.63929   1.65714
 Alpha virt. eigenvalues --    1.68166   1.69589   1.72969   1.73569   1.76165
 Alpha virt. eigenvalues --    1.79722   1.81413   1.82758   1.87103   1.88089
 Alpha virt. eigenvalues --    1.90107   1.93911   1.95175   1.95868   1.97392
 Alpha virt. eigenvalues --    1.98655   1.98775   2.01504   2.05157   2.07489
 Alpha virt. eigenvalues --    2.12150   2.13132   2.18147   2.20822   2.24599
 Alpha virt. eigenvalues --    2.28692   2.29948   2.31657   2.32083   2.32703
 Alpha virt. eigenvalues --    2.35459   2.38032   2.39427   2.43404   2.44027
 Alpha virt. eigenvalues --    2.45419   2.48151   2.52124   2.55364   2.59856
 Alpha virt. eigenvalues --    2.60813   2.65644   2.69729   2.71840   2.73984
 Alpha virt. eigenvalues --    2.76115   2.77741   2.78304   2.79354   2.81321
 Alpha virt. eigenvalues --    2.82670   2.84087   2.86583   2.86983   2.87486
 Alpha virt. eigenvalues --    2.88879   2.90255   2.91458   2.92532   2.93951
 Alpha virt. eigenvalues --    2.94393   2.95544   2.97727   2.98293   2.98645
 Alpha virt. eigenvalues --    3.00650   3.04276   3.05537   3.06486   3.11508
 Alpha virt. eigenvalues --    3.15705   3.17392   3.18205   3.21518   3.24760
 Alpha virt. eigenvalues --    3.26002   3.29084   3.31473   3.34449   3.35569
 Alpha virt. eigenvalues --    3.36513   3.38083   3.40081   3.42647   3.45364
 Alpha virt. eigenvalues --    3.46206   3.47459   3.50685   3.54202   3.55167
 Alpha virt. eigenvalues --    3.57830   3.60368   3.61546   3.61952   3.63412
 Alpha virt. eigenvalues --    3.64644   3.65310   3.66996   3.68585   3.71961
 Alpha virt. eigenvalues --    3.73145   3.78484   3.80060   3.82174   3.83432
 Alpha virt. eigenvalues --    3.84016   3.88407   3.92758   3.94154   3.98776
 Alpha virt. eigenvalues --    4.01502   4.04711   4.07225   4.10678   4.12359
 Alpha virt. eigenvalues --    4.17183   4.21426   4.24494   4.26711   4.27909
 Alpha virt. eigenvalues --    4.34433   4.35452   4.36377   4.40229   4.42885
 Alpha virt. eigenvalues --    4.43798   4.44857   4.45629   4.47794   4.48600
 Alpha virt. eigenvalues --    4.49656   4.51614   4.52594   4.54024   4.56010
 Alpha virt. eigenvalues --    4.56936   4.57602   4.58674   4.61229   4.61906
 Alpha virt. eigenvalues --    4.63237   4.65132   4.67811   4.69761   4.70839
 Alpha virt. eigenvalues --    4.72533   4.74192   4.75035   4.75237   4.78039
 Alpha virt. eigenvalues --    4.79039   4.80337   4.81995   4.82544   4.83104
 Alpha virt. eigenvalues --    4.85584   4.87291   4.90073   4.92518   4.94520
 Alpha virt. eigenvalues --    4.96167   4.97105   4.98400   5.04182   5.06313
 Alpha virt. eigenvalues --    5.09593   5.15698   5.20919   5.22132   5.26888
 Alpha virt. eigenvalues --    5.29568   5.31888   5.37563   5.38707   5.41095
 Alpha virt. eigenvalues --    5.41744   5.45658   5.47986   5.51437   5.61957
 Alpha virt. eigenvalues --    5.63801   5.67310   5.90209  10.27220  11.18259
 Alpha virt. eigenvalues --   11.20811  11.35722  11.52946  11.54988  11.63223
 Alpha virt. eigenvalues --   11.88571  12.05281  12.22984  14.61475  16.39767
          Condensed to atoms (all electrons):
               1          2          3          4          5          6
     1  C    4.954636   0.393760  -0.038803   0.001710   0.000056  -0.000056
     2  C    0.393760   4.831853   0.424421  -0.035794  -0.002837   0.001878
     3  C   -0.038803   0.424421   4.816766   0.377591  -0.070815  -0.041902
     4  N    0.001710  -0.035794   0.377591   6.348686   0.378377   0.236554
     5  C    0.000056  -0.002837  -0.070815   0.378377   4.965028  -0.051301
     6  N   -0.000056   0.001878  -0.041902   0.236554  -0.051301   6.514514
     7  C    0.000021   0.000006  -0.010398  -0.048349   0.003519   0.366831
     8  N    0.000000  -0.000063   0.002336  -0.025208  -0.004589   0.241091
     9  C   -0.000000   0.000001  -0.000257   0.002890   0.000246  -0.057641
    10  H    0.376720  -0.022515   0.002921  -0.000072   0.000012   0.000000
    11  H    0.379237  -0.030055  -0.003624   0.000077   0.000013   0.000001
    12  H    0.378504  -0.029720  -0.004619   0.000092   0.000000   0.000001
    13  H   -0.033410   0.370259  -0.033720  -0.001560  -0.001178   0.000003
    14  H   -0.033483   0.363665  -0.026582   0.004116  -0.000041   0.000038
    15  H   -0.004183  -0.028008   0.359577  -0.020206   0.005342  -0.002803
    16  H    0.001538  -0.046940   0.340715  -0.045412  -0.009298   0.008495
    17  H   -0.000067  -0.000292  -0.004518  -0.021463   0.381595   0.002415
    18  H   -0.000012   0.000296   0.004866  -0.023394   0.373543  -0.002361
    19  H    0.000111  -0.000541  -0.005724  -0.043192   0.343450   0.009836
    20  H    0.000003   0.000032  -0.001681  -0.001720   0.000113  -0.022443
    21  H   -0.000000  -0.000011   0.000021   0.002420  -0.000192  -0.023670
    22  H    0.000013   0.000007   0.001983   0.007173   0.000275  -0.040224
    23  H   -0.000000  -0.000005  -0.000122  -0.004827   0.005319  -0.038329
    24  H   -0.000000  -0.000000  -0.000011  -0.000029  -0.000002  -0.003158
    25  H    0.000000   0.000000   0.000053   0.000039  -0.000114   0.014921
    26  H    0.000000  -0.000000   0.000002  -0.000080   0.000017   0.002981
               7          8          9         10         11         12
     1  C    0.000021   0.000000  -0.000000   0.376720   0.379237   0.378504
     2  C    0.000006  -0.000063   0.000001  -0.022515  -0.030055  -0.029720
     3  C   -0.010398   0.002336  -0.000257   0.002921  -0.003624  -0.004619
     4  N   -0.048349  -0.025208   0.002890  -0.000072   0.000077   0.000092
     5  C    0.003519  -0.004589   0.000246   0.000012   0.000013   0.000000
     6  N    0.366831   0.241091  -0.057641   0.000000   0.000001   0.000001
     7  C    4.933141  -0.059325  -0.008588  -0.000000   0.000001  -0.000016
     8  N   -0.059325   6.487522   0.372594  -0.000000   0.000000   0.000000
     9  C   -0.008588   0.372594   4.918190   0.000000   0.000000   0.000000
    10  H   -0.000000  -0.000000   0.000000   0.597808  -0.031445  -0.031375
    11  H    0.000001   0.000000   0.000000  -0.031445   0.596943  -0.033120
    12  H   -0.000016   0.000000   0.000000  -0.031375  -0.033120   0.599893
    13  H   -0.000009   0.000001   0.000000  -0.002869  -0.004678   0.005712
    14  H    0.000013   0.000003   0.000000  -0.002202   0.005591  -0.004492
    15  H   -0.000804   0.000087  -0.000004  -0.000121  -0.000525   0.005756
    16  H    0.000772  -0.000111   0.000035  -0.000084   0.005299  -0.000323
    17  H   -0.000196   0.000127  -0.000002   0.000000   0.000022   0.000004
    18  H    0.000053  -0.001803  -0.000319  -0.000000  -0.000000   0.000000
    19  H    0.000276  -0.001170   0.000054   0.000002   0.000016   0.000001
    20  H    0.378318   0.002870  -0.000102  -0.000000   0.000003  -0.000005
    21  H    0.378867  -0.003297   0.000495   0.000000   0.000000   0.000000
    22  H    0.345403   0.007901   0.002030   0.000000  -0.000000   0.000001
    23  H    0.005795   0.334612  -0.045957  -0.000000  -0.000000   0.000000
    24  H   -0.001047  -0.026250   0.384021  -0.000000   0.000000  -0.000000
    25  H    0.000801  -0.047860   0.357829   0.000000  -0.000000   0.000000
    26  H    0.000063  -0.022335   0.377402  -0.000000   0.000000   0.000000
              13         14         15         16         17         18
     1  C   -0.033410  -0.033483  -0.004183   0.001538  -0.000067  -0.000012
     2  C    0.370259   0.363665  -0.028008  -0.046940  -0.000292   0.000296
     3  C   -0.033720  -0.026582   0.359577   0.340715  -0.004518   0.004866
     4  N   -0.001560   0.004116  -0.020206  -0.045412  -0.021463  -0.023394
     5  C   -0.001178  -0.000041   0.005342  -0.009298   0.381595   0.373543
     6  N    0.000003   0.000038  -0.002803   0.008495   0.002415  -0.002361
     7  C   -0.000009   0.000013  -0.000804   0.000772  -0.000196   0.000053
     8  N    0.000001   0.000003   0.000087  -0.000111   0.000127  -0.001803
     9  C    0.000000   0.000000  -0.000004   0.000035  -0.000002  -0.000319
    10  H   -0.002869  -0.002202  -0.000121  -0.000084   0.000000  -0.000000
    11  H   -0.004678   0.005591  -0.000525   0.005299   0.000022  -0.000000
    12  H    0.005712  -0.004492   0.005756  -0.000323   0.000004   0.000000
    13  H    0.640113  -0.041989   0.006340  -0.005355   0.003036  -0.000188
    14  H   -0.041989   0.626691  -0.007160   0.006905   0.000873  -0.000076
    15  H    0.006340  -0.007160   0.637000  -0.053418   0.000106  -0.000207
    16  H   -0.005355   0.006905  -0.053418   0.698781  -0.000407  -0.000300
    17  H    0.003036   0.000873   0.000106  -0.000407   0.574302  -0.028873
    18  H   -0.000188  -0.000076  -0.000207  -0.000300  -0.028873   0.602802
    19  H    0.000699   0.000284  -0.000294   0.016798  -0.039603  -0.045152
    20  H   -0.000002   0.000023   0.000596   0.000782  -0.000004   0.000006
    21  H    0.000000  -0.000000  -0.000159  -0.000046   0.000003  -0.000006
    22  H    0.000000   0.000065   0.000236   0.000684   0.000003  -0.000034
    23  H    0.000002  -0.000001   0.000004  -0.000036  -0.000407   0.003381
    24  H    0.000000   0.000000   0.000002  -0.000001   0.000000  -0.000011
    25  H    0.000000   0.000000  -0.000002   0.000024  -0.000001   0.000067
    26  H    0.000000   0.000000   0.000000   0.000000  -0.000000  -0.000003
              19         20         21         22         23         24
     1  C    0.000111   0.000003  -0.000000   0.000013  -0.000000  -0.000000
     2  C   -0.000541   0.000032  -0.000011   0.000007  -0.000005  -0.000000
     3  C   -0.005724  -0.001681   0.000021   0.001983  -0.000122  -0.000011
     4  N   -0.043192  -0.001720   0.002420   0.007173  -0.004827  -0.000029
     5  C    0.343450   0.000113  -0.000192   0.000275   0.005319  -0.000002
     6  N    0.009836  -0.022443  -0.023670  -0.040224  -0.038329  -0.003158
     7  C    0.000276   0.378318   0.378867   0.345403   0.005795  -0.001047
     8  N   -0.001170   0.002870  -0.003297   0.007901   0.334612  -0.026250
     9  C    0.000054  -0.000102   0.000495   0.002030  -0.045957   0.384021
    10  H    0.000002  -0.000000   0.000000   0.000000  -0.000000  -0.000000
    11  H    0.000016   0.000003   0.000000  -0.000000  -0.000000   0.000000
    12  H    0.000001  -0.000005   0.000000   0.000001   0.000000  -0.000000
    13  H    0.000699  -0.000002   0.000000   0.000000   0.000002   0.000000
    14  H    0.000284   0.000023  -0.000000   0.000065  -0.000001   0.000000
    15  H   -0.000294   0.000596  -0.000159   0.000236   0.000004   0.000002
    16  H    0.016798   0.000782  -0.000046   0.000684  -0.000036  -0.000001
    17  H   -0.039603  -0.000004   0.000003   0.000003  -0.000407   0.000000
    18  H   -0.045152   0.000006  -0.000006  -0.000034   0.003381  -0.000011
    19  H    0.665538  -0.000021   0.000005   0.000104   0.000283  -0.000003
    20  H   -0.000021   0.588622  -0.030932  -0.038832  -0.000242  -0.000242
    21  H    0.000005  -0.030932   0.589333  -0.039885   0.000141   0.003085
    22  H    0.000104  -0.038832  -0.039885   0.642864  -0.000265  -0.000461
    23  H    0.000283  -0.000242   0.000141  -0.000265   0.514976   0.005737
    24  H   -0.000003  -0.000242   0.003085  -0.000461   0.005737   0.589979
    25  H    0.000195   0.000022  -0.000098   0.000644  -0.006290  -0.047707
    26  H    0.000006  -0.000004  -0.000030   0.000008  -0.002770  -0.030206
              25         26
     1  C    0.000000   0.000000
     2  C    0.000000  -0.000000
     3  C    0.000053   0.000002
     4  N    0.000039  -0.000080
     5  C   -0.000114   0.000017
     6  N    0.014921   0.002981
     7  C    0.000801   0.000063
     8  N   -0.047860  -0.022335
     9  C    0.357829   0.377402
    10  H    0.000000  -0.000000
    11  H   -0.000000   0.000000
    12  H    0.000000   0.000000
    13  H    0.000000   0.000000
    14  H    0.000000   0.000000
    15  H   -0.000002   0.000000
    16  H    0.000024   0.000000
    17  H   -0.000001  -0.000000
    18  H    0.000067  -0.000003
    19  H    0.000195   0.000006
    20  H    0.000022  -0.000004
    21  H   -0.000098  -0.000030
    22  H    0.000644   0.000008
    23  H   -0.006290  -0.002770
    24  H   -0.047707  -0.030206
    25  H    0.658465  -0.033597
    26  H   -0.033597   0.588155
 Mulliken charges:
               1
     1  C   -0.376297
     2  C   -0.189397
     3  C   -0.088474
     4  N   -0.088420
     5  C   -0.316540
     6  N   -0.115672
     7  C   -0.285147
     8  N   -0.257132
     9  C   -0.302915
    10  H    0.113222
    11  H    0.116242
    12  H    0.113705
    13  H    0.098793
    14  H    0.107760
    15  H    0.102849
    16  H    0.080902
    17  H    0.133345
    18  H    0.117725
    19  H    0.098044
    20  H    0.124843
    21  H    0.123954
    22  H    0.110305
    23  H    0.229002
    24  H    0.126304
    25  H    0.102609
    26  H    0.120392
 Sum of Mulliken charges =  -0.00000
 Mulliken charges with hydrogens summed into heavy atoms:
               1
     1  C   -0.033128
     2  C    0.017155
     3  C    0.095277
     4  N   -0.088420
     5  C    0.032574
     6  N   -0.115672
     7  C    0.073954
     8  N   -0.028130
     9  C    0.046390
 Electronic spatial extent (au):  <R**2>=           1882.6915
 Charge=             -0.0000 electrons
 Dipole moment (field-independent basis, Debye):
    X=             -0.2510    Y=              0.2665    Z=              0.7538  Tot=              0.8380
 Quadrupole moment (field-independent basis, Debye-Ang):
   XX=            -54.0885   YY=            -53.5192   ZZ=            -62.7981
   XY=              0.2570   XZ=              1.4493   YZ=              0.6380
 Traceless Quadrupole moment (field-independent basis, Debye-Ang):
   XX=              2.7135   YY=              3.2827   ZZ=             -5.9962
   XY=              0.2570   XZ=              1.4493   YZ=              0.6380
 Octapole moment (field-independent basis, Debye-Ang**2):
  XXX=             21.5774  YYY=              3.6305  ZZZ=              0.9586  XYY=              8.1861
  XXY=              5.0425  XXZ=              0.7955  XZZ=             -3.4795  YZZ=             -0.3009
  YYZ=             -1.5700  XYZ=              0.3110
 Hexadecapole moment (field-independent basis, Debye-Ang**3):
 XXXX=          -1923.9884 YYYY=           -420.7187 ZZZZ=           -129.8979 XXXY=             -1.9316
 XXXZ=             13.3605 YYYX=              3.6922 YYYZ=             -5.2667 ZZZX=              1.7908
 ZZZY=              2.0598 XXYY=           -386.3049 XXZZ=           -363.5818 YYZZ=            -96.8841
 XXYZ=              1.6793 YYXZ=              0.5099 ZZXY=             -0.3164
 N-N= 5.010991197937D+02 E-N=-1.937487112651D+03  KE= 3.996484461691D+02
 PrsmSu:  requested number of processors reduced to:  13 ShMem   1 Linda.
 Calling FoFJK, ICntrl=      2127 FMM=F ISym2X=0 I1Cent= 0 IOpClX= 0 NMat=1 NMatS=1 NMatT=0.
 ***** Axes restored to original set *****
 -------------------------------------------------------------------
 Center     Atomic                   Forces (Hartrees/Bohr)
 Number     Number              X              Y              Z
 -------------------------------------------------------------------
      1        6          -0.003349510    0.000421246   -0.000452722
      2        6           0.004780849    0.000138939    0.002500231
      3        6           0.007968168   -0.000219318   -0.004258414
      4        7           0.004396558    0.008655494   -0.008104112
      5        6           0.003762174   -0.005310153   -0.003551815
      6        7          -0.018801916   -0.011056603    0.014392184
      7        6           0.001686854    0.003401352    0.000684925
      8        7           0.009023364    0.005338201   -0.020531409
      9        6          -0.001129977    0.002988612    0.002843926
     10        1          -0.002234889   -0.000653785   -0.000271358
     11        1          -0.002061484   -0.000102089   -0.000540395
     12        1          -0.002077408   -0.000215249   -0.000095200
     13        1           0.002431399    0.000803485   -0.000421776
     14        1           0.002423798   -0.000305751    0.001548736
     15        1           0.004649262   -0.002510445    0.001749563
     16        1          -0.001897118   -0.001342560    0.003829891
     17        1          -0.004540919   -0.004645519   -0.004004085
     18        1           0.000180449   -0.005016638   -0.002271187
     19        1          -0.000486348   -0.001595150    0.004976790
     20        1           0.001770516    0.006432557    0.004083613
     21        1           0.006039208    0.004655818    0.004292706
     22        1           0.001024944    0.001627396   -0.001473322
     23        1          -0.008770712    0.000230314    0.001604662
     24        1          -0.001707288    0.000588044    0.000642547
     25        1          -0.002468436   -0.006237263    0.002502044
     26        1          -0.000611539    0.003929062    0.000323978
 -------------------------------------------------------------------
 Cartesian Forces:  Max     0.020531409 RMS     0.005158475

 GradGradGradGradGradGradGradGradGradGradGradGradGradGradGradGradGradGrad
 Berny optimization.
 FormGI is forming the generalized inverse of G from B-inverse, IUseBI=4.
 Internal  Forces:  Max     0.018041804 RMS     0.004448121
 Search for a local minimum.
 Step number   1 out of a maximum of  130
 All quantities printed in internal units (Hartrees-Bohrs-Radians)
 Mixed Optimization -- RFO/linear search
 Second derivative matrix not updated -- first step.
 ITU=  0
     Eigenvalues ---    0.00230   0.00312   0.00415   0.00508   0.00537
     Eigenvalues ---    0.00547   0.00666   0.00856   0.03262   0.03447
     Eigenvalues ---    0.03787   0.03897   0.03932   0.04911   0.05510
     Eigenvalues ---    0.05636   0.05763   0.06669   0.06750   0.07006
     Eigenvalues ---    0.07113   0.07147   0.07587   0.08023   0.09395
     Eigenvalues ---    0.11292   0.11945   0.12955   0.15969   0.16000
     Eigenvalues ---    0.16000   0.16000   0.16000   0.16000   0.16000
     Eigenvalues ---    0.16000   0.16000   0.16000   0.16000   0.16000
     Eigenvalues ---    0.16000   0.16354   0.17818   0.17901   0.21904
     Eigenvalues ---    0.21989   0.23689   0.29027   0.30416   0.32197
     Eigenvalues ---    0.33745   0.33832   0.33866   0.34059   0.34068
     Eigenvalues ---    0.34125   0.34259   0.34259   0.34288   0.34338
     Eigenvalues ---    0.34347   0.34363   0.34384   0.34400   0.34418
     Eigenvalues ---    0.34489   0.34521   0.34524   0.34850   0.36158
     Eigenvalues ---    0.36573   0.45262
 RFO step:  Lambda=-1.58056311D-02 EMin= 2.30000000D-03
 Linear search not attempted -- first point.
 Iteration  1 RMS(Cart)=  0.09084152 RMS(Int)=  0.00252085
 Iteration  2 RMS(Cart)=  0.00535384 RMS(Int)=  0.00090531
 Iteration  3 RMS(Cart)=  0.00001015 RMS(Int)=  0.00090528
 Iteration  4 RMS(Cart)=  0.00000003 RMS(Int)=  0.00090528
 Variable       Old X    -DE/DX   Delta X   Delta X   Delta X     New X
                                 (Linear)    (Quad)   (Total)
    R1        2.87142   0.00976   0.00000   0.03049   0.03049   2.90191
    R2        2.06661   0.00024   0.00000   0.00066   0.00066   2.06726
    R3        2.06895   0.00031   0.00000   0.00086   0.00086   2.06981
    R4        2.06764   0.00089   0.00000   0.00247   0.00247   2.07012
    R5        2.89946  -0.00017   0.00000  -0.00057  -0.00057   2.89889
    R6        2.06513   0.00084   0.00000   0.00232   0.00232   2.06746
    R7        2.07231  -0.00062   0.00000  -0.00173  -0.00173   2.07058
    R8        2.81062  -0.01072   0.00000  -0.03034  -0.03034   2.78028
    R9        2.06687  -0.00176   0.00000  -0.00490  -0.00490   2.06198
   R10        2.07556   0.00444   0.00000   0.01253   0.01253   2.08810
   R11        2.79218  -0.01314   0.00000  -0.03608  -0.03608   2.75611
   R12        2.83785  -0.01471   0.00000  -0.04354  -0.04354   2.79430
   R13        2.06749  -0.00286   0.00000  -0.00795  -0.00795   2.05954
   R14        2.06631  -0.00015   0.00000  -0.00043  -0.00043   2.06588
   R15        2.07119   0.00510   0.00000   0.01429   0.01429   2.08548
   R16        2.80915  -0.01804   0.00000  -0.05095  -0.05095   2.75820
   R17        2.77135  -0.00516   0.00000  -0.01367  -0.01367   2.75769
   R18        2.06455  -0.00226   0.00000  -0.00625  -0.00625   2.05830
   R19        2.06846  -0.00248   0.00000  -0.00690  -0.00690   2.06156
   R20        2.07215   0.00221   0.00000   0.00620   0.00620   2.07835
   R21        2.76496  -0.00207   0.00000  -0.00543  -0.00543   2.75952
   R22        1.91673  -0.00197   0.00000  -0.00420  -0.00420   1.91253
   R23        2.06460  -0.00054   0.00000  -0.00149  -0.00149   2.06311
   R24        2.06722   0.00533   0.00000   0.01482   0.01482   2.08204
   R25        2.06895  -0.00037   0.00000  -0.00102  -0.00102   2.06793
    A1        1.91919   0.00252   0.00000   0.01498   0.01489   1.93408
    A2        1.92855   0.00212   0.00000   0.01225   0.01217   1.94073
    A3        1.94066   0.00162   0.00000   0.00840   0.00835   1.94901
    A4        1.88925  -0.00211   0.00000  -0.01037  -0.01049   1.87876
    A5        1.89259  -0.00223   0.00000  -0.01310  -0.01315   1.87943
    A6        1.89237  -0.00216   0.00000  -0.01349  -0.01352   1.87885
    A7        1.93263   0.00035   0.00000   0.00499   0.00496   1.93759
    A8        1.87315   0.00155   0.00000   0.02070   0.02065   1.89380
    A9        1.91333   0.00096   0.00000   0.00797   0.00800   1.92133
   A10        1.94898  -0.00057   0.00000  -0.00251  -0.00272   1.94626
   A11        1.91300  -0.00142   0.00000  -0.01696  -0.01700   1.89599
   A12        1.88159  -0.00081   0.00000  -0.01372  -0.01392   1.86767
   A13        1.98780  -0.00030   0.00000  -0.00055  -0.00052   1.98728
   A14        1.81835   0.00436   0.00000   0.03051   0.03048   1.84883
   A15        1.92598  -0.00094   0.00000  -0.00025  -0.00031   1.92567
   A16        1.92398  -0.00438   0.00000  -0.03852  -0.03847   1.88551
   A17        1.93079   0.00157   0.00000   0.01019   0.01017   1.94097
   A18        1.87047  -0.00028   0.00000  -0.00133  -0.00148   1.86898
   A19        1.88858   0.00769   0.00000   0.02062   0.01875   1.90733
   A20        1.91791  -0.00269   0.00000  -0.03232  -0.03271   1.88520
   A21        1.92091  -0.00813   0.00000  -0.06368  -0.06386   1.85705
   A22        1.94412  -0.00838   0.00000  -0.04720  -0.04740   1.89672
   A23        1.96802  -0.00553   0.00000  -0.03097  -0.03117   1.93685
   A24        1.95760   0.00370   0.00000   0.02009   0.02023   1.97783
   A25        1.79194   0.00748   0.00000   0.04446   0.04389   1.83583
   A26        1.89467   0.00242   0.00000   0.01280   0.01295   1.90762
   A27        1.89920   0.00086   0.00000   0.00412   0.00423   1.90343
   A28        1.90438   0.00054   0.00000  -0.03076  -0.03506   1.86933
   A29        1.90055  -0.00911   0.00000  -0.08928  -0.09200   1.80855
   A30        1.86430   0.00071   0.00000  -0.03198  -0.03619   1.82811
   A31        1.96353  -0.00764   0.00000  -0.04150  -0.04184   1.92169
   A32        1.94406  -0.00886   0.00000  -0.04966  -0.05007   1.89400
   A33        1.95820   0.00162   0.00000   0.00645   0.00633   1.96454
   A34        1.78609   0.00943   0.00000   0.05907   0.05840   1.84449
   A35        1.90674   0.00317   0.00000   0.01678   0.01671   1.92345
   A36        1.89677   0.00326   0.00000   0.01495   0.01479   1.91156
   A37        1.94799  -0.00397   0.00000  -0.03080  -0.03220   1.91579
   A38        1.89702  -0.00652   0.00000  -0.08888  -0.09080   1.80623
   A39        1.84487   0.00320   0.00000  -0.01097  -0.01469   1.83018
   A40        1.95514  -0.00199   0.00000  -0.01375  -0.01381   1.94133
   A41        1.95443   0.00620   0.00000   0.03642   0.03658   1.99101
   A42        1.89602  -0.00572   0.00000  -0.03126  -0.03128   1.86475
   A43        1.91735  -0.00292   0.00000  -0.01882  -0.01871   1.89864
   A44        1.84778   0.00323   0.00000   0.01590   0.01562   1.86340
   A45        1.88873   0.00106   0.00000   0.01092   0.01114   1.89988
    D1        3.12745   0.00064   0.00000   0.01205   0.01211   3.13956
    D2        0.99615   0.00013   0.00000  -0.00120  -0.00121   0.99493
    D3       -1.04290  -0.00027   0.00000  -0.00068  -0.00068  -1.04358
    D4        1.04294   0.00032   0.00000   0.00769   0.00772   1.05066
    D5       -1.08836  -0.00019   0.00000  -0.00555  -0.00560  -1.09396
    D6       -3.12740  -0.00059   0.00000  -0.00503  -0.00507  -3.13247
    D7       -1.05937   0.00056   0.00000   0.01094   0.01099  -1.04838
    D8        3.09251   0.00005   0.00000  -0.00231  -0.00233   3.09018
    D9        1.05347  -0.00036   0.00000  -0.00179  -0.00180   1.05167
   D10        3.09960  -0.00215   0.00000  -0.04621  -0.04622   3.05337
   D11        1.00271   0.00050   0.00000  -0.01887  -0.01880   0.98391
   D12       -0.99989  -0.00104   0.00000  -0.03323  -0.03326  -1.03315
   D13       -1.09729  -0.00034   0.00000  -0.01839  -0.01847  -1.11576
   D14        3.08901   0.00231   0.00000   0.00896   0.00895   3.09796
   D15        1.08641   0.00077   0.00000  -0.00541  -0.00551   1.08090
   D16        0.98656  -0.00264   0.00000  -0.04824  -0.04820   0.93836
   D17       -1.11032   0.00001   0.00000  -0.02089  -0.02078  -1.13110
   D18       -3.11292  -0.00153   0.00000  -0.03526  -0.03524   3.13503
   D19        1.08704   0.00282   0.00000   0.05376   0.05396   1.14100
   D20       -3.09831  -0.00398   0.00000  -0.03024  -0.03044  -3.12875
   D21        3.12340   0.00517   0.00000   0.06577   0.06597  -3.09381
   D22       -1.06194  -0.00163   0.00000  -0.01823  -0.01844  -1.08038
   D23       -1.09410   0.00305   0.00000   0.04633   0.04654  -1.04757
   D24        1.00374  -0.00375   0.00000  -0.03768  -0.03787   0.96587
   D25       -1.07392  -0.00121   0.00000  -0.01940  -0.01918  -1.09310
   D26       -3.07794  -0.00172   0.00000  -0.02532  -0.02567  -3.10361
   D27        1.05382  -0.00149   0.00000  -0.02262  -0.02271   1.03111
   D28        3.11329   0.00218   0.00000   0.04501   0.04538  -3.12451
   D29        1.10928   0.00166   0.00000   0.03909   0.03889   1.14817
   D30       -1.04215   0.00189   0.00000   0.04179   0.04185  -1.00030
   D31        1.07428   0.00136   0.00000   0.11315   0.11083   1.18511
   D32        3.10316  -0.00255   0.00000   0.00841   0.00876   3.11192
   D33       -3.13078   0.00414   0.00000   0.07924   0.07889  -3.05190
   D34       -1.10191   0.00022   0.00000  -0.02550  -0.02318  -1.12509
   D35       -1.14152  -0.00473   0.00000  -0.07713  -0.07672  -1.21824
   D36       -3.13539  -0.00619   0.00000  -0.09381  -0.09387   3.05392
   D37        1.01694  -0.00514   0.00000  -0.08172  -0.08160   0.93534
   D38        3.08978   0.00534   0.00000   0.06183   0.06193  -3.13148
   D39        1.09590   0.00389   0.00000   0.04515   0.04478   1.14068
   D40       -1.03495   0.00494   0.00000   0.05724   0.05704  -0.97790
   D41        3.02768  -0.00084   0.00000  -0.06945  -0.06931   2.95838
   D42        0.99978   0.00149   0.00000   0.01556   0.01258   1.01236
   D43       -1.20109  -0.00457   0.00000  -0.16967  -0.16668  -1.36778
   D44        3.05419  -0.00223   0.00000  -0.08466  -0.08480   2.96939
   D45        1.25150   0.00489   0.00000   0.09978   0.09951   1.35101
   D46       -0.91169   0.00553   0.00000   0.10738   0.10722  -0.80448
   D47       -2.99672   0.00414   0.00000   0.09187   0.09195  -2.90476
   D48       -2.97222  -0.00312   0.00000  -0.02962  -0.02966  -3.00188
   D49        1.14777  -0.00247   0.00000  -0.02202  -0.02195   1.12582
   D50       -0.93726  -0.00386   0.00000  -0.03754  -0.03721  -0.97447
         Item               Value     Threshold  Converged?
 Maximum Force            0.018042     0.000450     NO 
 RMS     Force            0.004448     0.000300     NO 
 Maximum Displacement     0.340889     0.001800     NO 
 RMS     Displacement     0.092523     0.001200     NO 
 Predicted change in Energy=-9.348542D-03
 GradGradGradGradGradGradGradGradGradGradGradGradGradGradGradGradGradGrad

                          Input orientation:                          
 ---------------------------------------------------------------------
 Center     Atomic      Atomic             Coordinates (Angstroms)
 Number     Number       Type             X           Y           Z
 ---------------------------------------------------------------------
      1          6           0        0.858254   -0.031579   -0.002945
      2          6           0        2.393264   -0.011469    0.035538
      3          6           0        2.957506   -1.425876    0.220795
      4          7           0        4.425364   -1.495264    0.148816
      5          6           0        4.997831   -0.762106    1.272156
      6          7           0        4.825559   -2.907850    0.324731
      7          6           0        4.366205   -3.634273   -0.854959
      8          7           0        6.278752   -2.871937    0.196236
      9          6           0        6.841651   -4.159381    0.593781
     10          1           0        0.459393    0.978719   -0.133068
     11          1           0        0.444048   -0.434774    0.927401
     12          1           0        0.482317   -0.646553   -0.827873
     13          1           0        2.711720    0.656267    0.841554
     14          1           0        2.787669    0.403160   -0.898856
     15          1           0        2.550673   -2.020336   -0.598788
     16          1           0        2.581976   -1.868986    1.160793
     17          1           0        4.709666    0.285614    1.188268
     18          1           0        6.090003   -0.763411    1.224458
     19          1           0        4.679589   -1.150338    2.254959
     20          1           0        3.279221   -3.703779   -0.852127
     21          1           0        4.727537   -4.661679   -0.791693
     22          1           0        4.715293   -3.178994   -1.793284
     23          1           0        6.564192   -2.228240    0.923186
     24          1           0        6.715145   -4.905953   -0.192697
     25          1           0        6.428006   -4.560003    1.533083
     26          1           0        7.918697   -4.010059    0.716955
 ---------------------------------------------------------------------
                    Distance matrix (angstroms):
                    1          2          3          4          5
     1  C    0.000000
     2  C    1.535624   0.000000
     3  C    2.530017   1.534027   0.000000
     4  N    3.858715   2.518713   1.471259   0.000000
     5  C    4.392681   2.979337   2.389325   1.458468   0.000000
     6  N    4.911194   3.793247   2.386771   1.478682   2.351916
     7  C    5.100103   4.220212   2.831730   2.363561   3.629450
     8  N    6.122835   4.827538   3.622482   2.309226   2.692536
     9  C    7.293550   6.107779   4.764216   3.624080   3.924454
    10  H    1.093949   2.179164   3.485379   4.682839   5.059896
    11  H    1.095297   2.184960   2.792678   4.193056   4.578531
    12  H    1.095458   2.191010   2.798858   4.149921   4.981298
    13  H    2.149802   1.094051   2.186566   2.836468   2.724611
    14  H    2.171243   1.095702   2.151241   2.717293   3.309978
    15  H    2.678519   2.112509   1.091152   2.085444   3.327484
    16  H    2.775170   2.179950   1.104973   2.135847   2.659688
    17  H    4.043881   2.604374   2.633489   2.081542   1.089860
    18  H    5.423403   3.955354   3.355404   2.112732   1.093214
    19  H    4.577374   3.383805   2.679424   2.149288   1.103587
    20  H    4.479648   3.899490   2.538406   2.681989   4.014926
    21  H    6.085336   5.268549   3.824731   3.316934   4.420316
    22  H    5.290396   4.332393   3.196835   2.586650   3.913833
    23  H    6.183912   4.806104   3.761027   2.389872   2.173664
    24  H    7.622251   6.533508   5.138265   4.122199   4.718731
    25  H    7.340855   6.261865   4.856874   3.914000   4.066633
    26  H    8.136118   6.854449   5.615834   4.341699   4.403283
                    6          7          8          9         10
     6  N    0.000000
     7  C    1.459577   0.000000
     8  N    1.459305   2.311711   0.000000
     9  C    2.388167   2.915891   1.460277   0.000000
    10  H    5.863311   6.088021   6.985767   8.225667   0.000000
    11  H    5.067244   5.366276   6.365387   7.410353   1.767142
    12  H    5.030478   4.900182   6.292837   7.402850   1.767707
    13  H    4.175926   4.901450   5.058496   6.348873   2.475245
    14  H    4.075899   4.335270   4.910515   6.283273   2.517651
    15  H    2.610685   2.442656   3.905876   4.940671   3.685740
    16  H    2.609963   3.219156   3.949992   4.869522   3.780060
    17  H    3.310188   4.433764   3.662826   4.965557   4.504569
    18  H    2.647064   3.941739   2.353455   3.534875   6.048277
    19  H    2.614562   3.992459   3.124030   4.060587   5.295810
    20  H    2.099918   1.089207   3.284541   3.871580   5.513099
    21  H    2.081328   1.090930   2.566213   2.577075   7.103868
    22  H    2.138145   1.099815   2.548897   3.343745   6.177021
    23  H    1.960322   3.157512   1.012066   1.978585   6.976305
    24  H    2.798335   2.751960   2.116348   1.091751   8.588793
    25  H    2.599531   3.287970   2.158473   1.101766   8.311309
    26  H    3.306993   3.902862   2.062980   1.094302   9.013970
                   11         12         13         14         15
    11  H    0.000000
    12  H    1.768418   0.000000
    13  H    2.517951   3.074827   0.000000
    14  H    3.087055   2.534084   1.760357   0.000000
    15  H    3.046495   2.493563   3.043801   2.453476   0.000000
    16  H    2.584990   3.139697   2.548656   3.073615   1.766355
    17  H    4.333879   4.775378   2.061403   2.839714   3.629356
    18  H    5.663308   5.972592   3.684413   4.095700   4.175038
    19  H    4.496026   5.232087   3.022258   3.992401   3.665112
    20  H    4.678816   4.143656   4.711752   4.136515   1.851740
    21  H    6.258618   5.843324   5.917057   5.424682   3.428213
    22  H    5.759897   5.026267   5.066153   4.165041   2.730365
    23  H    6.377516   6.523583   4.813376   4.950377   4.297437
    24  H    7.782848   7.575888   6.930756   6.641567   5.082767
    25  H    7.293294   7.499361   6.441931   6.618110   5.101813
    26  H    8.288385   8.306588   6.993049   6.958074   5.874169
                   16         17         18         19         20
    16  H    0.000000
    17  H    3.028221   0.000000
    18  H    3.678669   1.734097   0.000000
    19  H    2.472576   1.789048   1.789109   0.000000
    20  H    2.811488   4.703683   4.567107   4.258529   0.000000
    21  H    4.026757   5.328816   4.595397   4.649075   1.737483
    22  H    3.872174   4.570907   4.102638   4.528243   1.795404
    23  H    4.005442   3.135123   1.568867   2.547002   4.014970
    24  H    5.304545   5.734229   4.422645   4.923327   3.699411
    25  H    4.708729   5.152825   3.824083   3.899216   4.041929
    26  H    5.767302   5.382641   3.760639   4.586423   4.907194
                   21         22         23         24         25
    21  H    0.000000
    22  H    1.789327   0.000000
    23  H    3.497962   3.420755   0.000000
    24  H    2.090227   3.089284   2.904846   0.000000
    25  H    2.882102   3.988143   2.414051   1.783380   0.000000
    26  H    3.589446   4.153765   2.247687   1.754602   1.786242
                   26
    26  H    0.000000
 Stoichiometry    C6H17N3
 Framework group  C1[X(C6H17N3)]
 Deg. of freedom    72
 Full point group                 C1      NOp   1
 Largest Abelian subgroup         C1      NOp   1
 Largest concise Abelian subgroup C1      NOp   1
                         Standard orientation:                         
 ---------------------------------------------------------------------
 Center     Atomic      Atomic             Coordinates (Angstroms)
 Number     Number       Type             X           Y           Z
 ---------------------------------------------------------------------
      1          6           0       -3.817138   -0.481193    0.219236
      2          6           0       -2.608949    0.299621   -0.318118
      3          6           0       -1.295887   -0.271186    0.232596
      4          7           0       -0.090893    0.355070   -0.333439
      5          6           0       -0.038729    1.754474    0.074084
      6          7           0        1.090443   -0.299451    0.268680
      7          6           0        1.121891   -1.670962   -0.229651
      8          7           0        2.217783    0.358644   -0.383689
      9          6           0        3.460757   -0.008691    0.288984
     10          1           0       -4.751649   -0.070208   -0.173833
     11          1           0       -3.866409   -0.431535    1.312298
     12          1           0       -3.773688   -1.538619   -0.063592
     13          1           0       -2.730762    1.353914   -0.052457
     14          1           0       -2.582490    0.245745   -1.412175
     15          1           0       -1.289216   -1.326866   -0.043279
     16          1           0       -1.289869   -0.224104    1.336549
     17          1           0       -0.906298    2.270251   -0.337127
     18          1           0        0.827549    2.257485   -0.363704
     19          1           0       -0.018897    1.890188    1.169115
     20          1           0        0.300998   -2.244091    0.199335
     21          1           0        2.034461   -2.149120    0.129109
     22          1           0        1.087557   -1.721791   -1.327755
     23          1           0        2.081355    1.336464   -0.161131
     24          1           0        3.783557   -1.011661    0.003023
     25          1           0        3.410709    0.047983    1.388152
     26          1           0        4.230088    0.683760   -0.066175
 ---------------------------------------------------------------------
 Rotational constants (GHZ):           3.7150548           0.7586901           0.6626739
 Standard basis: 6-31G(2df,p) (6D, 7F)
 There are   364 symmetry adapted cartesian basis functions of A   symmetry.
 There are   337 symmetry adapted basis functions of A   symmetry.
   337 basis functions,   515 primitive gaussians,   364 cartesian basis functions
    37 alpha electrons       37 beta electrons
       nuclear repulsion energy       507.9656708137 Hartrees.
 NAtoms=   26 NActive=   26 NUniq=   26 SFac= 1.00D+00 NAtFMM=   60 NAOKFM=F Big=F
 Integral buffers will be    131072 words long.
 Raffenetti 2 integral format.
 Two-electron integral symmetry is turned on.
 One-electron integrals computed using PRISM.
 PrsmSu:  requested number of processors reduced to:  13 ShMem   1 Linda.
 NBasis=   337 RedAO= T EigKep=  2.70D-04  NBF=   337
 NBsUse=   337 1.00D-06 EigRej= -1.00D+00 NBFU=   337
 Initial guess from the checkpoint file:  "CCCNpCpNpCpNC.chk"
 B after Tr=    -0.000000    0.000000   -0.000000
         Rot=    0.999972    0.003075   -0.000122    0.006833 Ang=   0.86 deg.
 ExpMin= 1.61D-01 ExpMax= 4.17D+03 ExpMxC= 6.27D+02 IAcc=2 IRadAn=         4 AccDes= 0.00D+00
 Harris functional with IExCor=  402 and IRadAn=       4 diagonalized for initial guess.
 HarFok:  IExCor=  402 AccDes= 0.00D+00 IRadAn=         4 IDoV= 1 UseB2=F ITyADJ=14
 ICtDFT=  3500011 ScaDFX=  1.000000  1.000000  1.000000  1.000000
 FoFCou: FMM=F IPFlag=           0 FMFlag=      100000 FMFlg1=           0
         NFxFlg=           0 DoJE=T BraDBF=F KetDBF=T FulRan=T
         wScrn=  0.000000 ICntrl=       500 IOpCl=  0 I1Cent=   200000004 NGrid=           0
         NMat0=    1 NMatS0=      1 NMatT0=    0 NMatD0=    1 NMtDS0=    0 NMtDT0=    0
 Petite list used in FoFCou.
 Requested convergence on RMS density matrix=1.00D-08 within 128 cycles.
 Requested convergence on MAX density matrix=1.00D-06.
 Requested convergence on             energy=1.00D-06.
 No special actions if energy rises.
 Integral accuracy reduced to 1.0D-05 until final iterations.
 Initial convergence to 1.0D-05 achieved.  Increase integral accuracy.
 SCF Done:  E(RB3LYP) =  -403.055841836     A.U. after   10 cycles
            NFock= 10  Conv=0.85D-08     -V/T= 2.0078
 PrsmSu:  requested number of processors reduced to:  13 ShMem   1 Linda.
 Calling FoFJK, ICntrl=      2127 FMM=F ISym2X=0 I1Cent= 0 IOpClX= 0 NMat=1 NMatS=1 NMatT=0.
 ***** Axes restored to original set *****
 -------------------------------------------------------------------
 Center     Atomic                   Forces (Hartrees/Bohr)
 Number     Number              X              Y              Z
 -------------------------------------------------------------------
      1        6           0.001354232    0.000822633   -0.000264664
      2        6          -0.001685870   -0.001580283    0.000126430
      3        6          -0.001715760    0.003021524   -0.001186985
      4        7          -0.001989467    0.003316723    0.004049655
      5        6          -0.000635243    0.008874611    0.000988666
      6        7          -0.004977970    0.000633346   -0.002741513
      7        6          -0.003200500   -0.006890495   -0.003611627
      8        7           0.008942286   -0.006666545   -0.001970240
      9        6           0.004364089   -0.001297200    0.001869685
     10        1          -0.000247124   -0.000005570   -0.000077924
     11        1          -0.000020194   -0.000130395    0.000034762
     12        1           0.000315248   -0.000129022   -0.000052212
     13        1           0.000217068   -0.000013051    0.000304895
     14        1           0.000532825    0.000519734    0.000186453
     15        1          -0.000447206    0.000285172    0.001134965
     16        1           0.000341787    0.000060540    0.000658862
     17        1          -0.000917801    0.000239136    0.001070252
     18        1          -0.003473551    0.005366332    0.001330938
     19        1           0.000023011   -0.000672625   -0.000070330
     20        1           0.000573109   -0.000847663   -0.000431004
     21        1           0.001333623    0.000151499   -0.000483799
     22        1           0.000020053    0.000658133    0.001480409
     23        1           0.002427117   -0.004195460   -0.001542631
     24        1          -0.000485292   -0.001006831   -0.000424756
     25        1          -0.000922710    0.000163576   -0.000953387
     26        1           0.000274238   -0.000677819    0.000575099
 -------------------------------------------------------------------
 Cartesian Forces:  Max     0.008942286 RMS     0.002462372

 GradGradGradGradGradGradGradGradGradGradGradGradGradGradGradGradGradGrad
 Berny optimization.
 Using GEDIIS/GDIIS optimizer.
 FormGI is forming the generalized inverse of G from B-inverse, IUseBI=4.
 Internal  Forces:  Max     0.020361424 RMS     0.004273753
 Search for a local minimum.
 Step number   2 out of a maximum of  130
 All quantities printed in internal units (Hartrees-Bohrs-Radians)
 Mixed Optimization -- RFO/linear search
 Update second derivatives using D2CorX and points    1    2
 DE= -4.58D-03 DEPred=-9.35D-03 R= 4.90D-01
 Trust test= 4.90D-01 RLast= 4.54D-01 DXMaxT set to 3.00D-01
 ITU=  0  0
 Use linear search instead of GDIIS.
     Eigenvalues ---    0.00237   0.00312   0.00436   0.00508   0.00538
     Eigenvalues ---    0.00544   0.00657   0.00860   0.03719   0.03820
     Eigenvalues ---    0.03877   0.03955   0.04894   0.05483   0.05531
     Eigenvalues ---    0.05576   0.05623   0.06852   0.06878   0.06892
     Eigenvalues ---    0.07486   0.07506   0.07739   0.08051   0.09393
     Eigenvalues ---    0.10807   0.12006   0.12756   0.14305   0.15652
     Eigenvalues ---    0.15955   0.16000   0.16000   0.16000   0.16000
     Eigenvalues ---    0.16000   0.16000   0.16000   0.16000   0.16000
     Eigenvalues ---    0.16000   0.16170   0.16563   0.21871   0.21964
     Eigenvalues ---    0.22709   0.24023   0.29025   0.30189   0.32611
     Eigenvalues ---    0.33728   0.33839   0.34058   0.34062   0.34079
     Eigenvalues ---    0.34220   0.34259   0.34261   0.34279   0.34323
     Eigenvalues ---    0.34338   0.34352   0.34385   0.34400   0.34487
     Eigenvalues ---    0.34504   0.34517   0.34551   0.35268   0.36548
     Eigenvalues ---    0.44667   0.46389
 RFO step:  Lambda=-5.90939748D-03 EMin= 2.36712093D-03
 Quartic linear search produced a step of -0.30059.
 Iteration  1 RMS(Cart)=  0.13113151 RMS(Int)=  0.00497549
 Iteration  2 RMS(Cart)=  0.00753664 RMS(Int)=  0.00032450
 Iteration  3 RMS(Cart)=  0.00001991 RMS(Int)=  0.00032421
 Iteration  4 RMS(Cart)=  0.00000001 RMS(Int)=  0.00032421
 Variable       Old X    -DE/DX   Delta X   Delta X   Delta X     New X
                                 (Linear)    (Quad)   (Total)
    R1        2.90191  -0.00140  -0.00916   0.01713   0.00796   2.90987
    R2        2.06726   0.00009  -0.00020   0.00062   0.00042   2.06768
    R3        2.06981   0.00009  -0.00026   0.00073   0.00048   2.07029
    R4        2.07012   0.00000  -0.00074   0.00164   0.00089   2.07101
    R5        2.89889  -0.00068   0.00017  -0.00193  -0.00176   2.89713
    R6        2.06746   0.00028  -0.00070   0.00207   0.00137   2.06883
    R7        2.07058   0.00023   0.00052  -0.00070  -0.00017   2.07040
    R8        2.78028   0.00153   0.00912  -0.01701  -0.00789   2.77239
    R9        2.06198  -0.00084   0.00147  -0.00486  -0.00339   2.05859
   R10        2.08810   0.00042  -0.00377   0.00910   0.00533   2.09342
   R11        2.75611   0.00753   0.01084  -0.00938   0.00146   2.75757
   R12        2.79430   0.02036   0.01309   0.01329   0.02638   2.82068
   R13        2.05954   0.00039   0.00239  -0.00449  -0.00210   2.05744
   R14        2.06588  -0.00353   0.00013  -0.00712  -0.00699   2.05888
   R15        2.08548   0.00017  -0.00429   0.00975   0.00546   2.09093
   R16        2.75820   0.00631   0.01531  -0.02120  -0.00588   2.75232
   R17        2.75769   0.01442   0.00411   0.01757   0.02168   2.77937
   R18        2.05830  -0.00052   0.00188  -0.00512  -0.00324   2.05506
   R19        2.06156   0.00027   0.00208  -0.00403  -0.00195   2.05961
   R20        2.07835  -0.00098  -0.00186   0.00217   0.00030   2.07865
   R21        2.75952   0.00402   0.00163   0.00375   0.00538   2.76491
   R22        1.91253  -0.00309   0.00126  -0.00732  -0.00606   1.90647
   R23        2.06311   0.00105   0.00045   0.00104   0.00149   2.06460
   R24        2.08204  -0.00053  -0.00445   0.00875   0.00430   2.08633
   R25        2.06793   0.00024   0.00031  -0.00020   0.00010   2.06803
    A1        1.93408   0.00046  -0.00448   0.01252   0.00805   1.94213
    A2        1.94073   0.00002  -0.00366   0.00836   0.00471   1.94543
    A3        1.94901  -0.00059  -0.00251   0.00265   0.00015   1.94916
    A4        1.87876  -0.00008   0.00315  -0.00642  -0.00327   1.87549
[...]
 185573,-0.00094736,-0.00118859,-0.00005125,0.00066750,-0.00028548,0.00
 097814,0.00044097,0.00010014,-0.00009834,-0.00011139,0.00004229,-0.000
 05000,0.00002896,0.00003601,0.00000759,0.00002506,0.00000373,0.0000111
 3,-0.00000908,-0.00002897,-0.00012195,-0.00003256,-0.00006265,0.000106
 84,-0.00005766,0.00018961,0.00003143,0.00008274,0.00106352,-0.00098161
 ,0.00187307,0.00344739,0.00286789,-0.00183696,-0.01995117,-0.01691416,
 0.00536276,0.20355186,-0.00011347,-0.00000232,0.00002647,0.00030814,-0
 .00018841,-0.00010186,-0.00132324,0.00031301,-0.00046176,-0.00007539,0
 .00292160,0.00622250,-0.10079549,-0.12575407,0.02811019,0.00151124,0.0
 0066084,-0.00030674,-0.00072151,0.00037332,0.00004290,-0.00001171,0.00
 024624,0.00015502,0.00016600,-0.00006987,0.00005630,0.00002663,-0.0000
 1389,0.00000337,0.00007397,0.00000391,0.00003093,0.00003754,0.00000124
 ,0.00003664,-0.00017548,-0.00007445,0.00006960,0.00001813,0.00012797,-
 0.00010800,0.00031679,0.00010968,-0.00001755,0.00082709,-0.00018845,0.
 00052800,-0.02512127,-0.01748295,0.00596445,0.00925879,0.00684158,-0.0
 0321521,0.11555833,0.13211439,-0.00009365,0.00021069,0.00014151,-0.000
 51432,-0.00010069,-0.00029746,0.00664070,-0.00111384,0.00363977,0.0294
 8740,0.02068313,-0.02761793,0.03828487,0.02894192,-0.06071953,-0.00185
 768,0.00436164,0.00216707,0.00093821,0.00017163,-0.00073470,0.00107732
 ,-0.00157018,-0.00075930,-0.00036281,-0.00014164,-0.00019435,-0.000064
 36,0.00004578,-0.00004561,-0.00003176,0.00000787,-0.00002628,0.0000348
 8,-0.00001017,0.00002943,-0.00008029,0.00014012,0.00011261,-0.00001303
 ,-0.00028973,0.00002928,-0.00032161,-0.00030852,0.00029652,-0.00233502
 ,-0.00062496,0.00091542,-0.00761630,-0.00450013,0.00325096,-0.00932127
 ,-0.00815380,0.00407711,-0.05267403,-0.03682641,0.07514748,0.00001179,
 -0.00003810,-0.00001920,0.00004363,0.00004312,0.00008744,0.00046076,-0
 .00020732,-0.00020513,0.00084437,0.00079961,0.00036998,-0.00027909,-0.
 00001356,0.00032508,-0.01745332,0.00064924,0.01759122,-0.14574499,-0.0
 1446336,0.12163723,-0.00403909,-0.00415757,-0.00024965,0.00056235,-0.0
 0064471,0.00142644,0.00000814,-0.00000784,0.00001244,0.00000536,0.0000
 0285,-0.00000074,-0.00000896,-0.00000012,-0.00000480,0.00001398,-0.000
 01410,-0.00001983,-0.00002209,0.00003285,-0.00001012,-0.00005653,0.000
 00864,-0.00000199,0.00010552,-0.00006452,0.00018740,0.00022117,0.00013
 868,-0.00025027,-0.00012110,-0.00004078,0.00001497,0.00049258,-0.00005
 353,-0.00045028,0.16368566,0.00000995,-0.00002598,0.00002087,0.0001913
 5,-0.00003737,0.00003614,-0.00041160,-0.00084504,0.00023390,0.00138259
 ,0.00108086,0.00062793,-0.00086170,-0.00066604,0.00015057,-0.01843702,
 -0.00219431,0.01949735,-0.00906259,-0.05105234,0.01098443,-0.00433211,
 -0.00259414,-0.00094131,-0.00040592,-0.00020746,0.00142859,0.00000066,
 0.00001382,-0.00000464,0.00001022,-0.00001014,-0.00000178,-0.00000731,
 -0.00000026,-0.00001762,0.00000873,-0.00002966,-0.00002228,0.00000921,
 0.00007997,0.00000954,-0.00003483,0.00009831,-0.00015616,0.00035709,-0
 .00033296,-0.00006608,0.00021485,0.00011469,-0.00006534,0.00013024,0.0
 0013097,0.00003186,0.00038164,-0.00035063,-0.00079706,0.01927161,0.052
 90186,0.00001523,0.00002374,-0.00003353,-0.00036219,-0.00002935,0.0002
 4445,0.00105912,-0.00011966,-0.00047182,0.00044245,0.00061458,-0.00010
 459,-0.00022218,-0.00035567,0.00004560,-0.00440300,0.00065336,0.006612
 71,0.12827664,0.01601352,-0.21108288,-0.00013318,-0.00087656,0.0014972
 0,-0.00074142,-0.00005737,0.00039778,-0.00000786,-0.00000031,0.0000065
 9,-0.00002072,0.00001449,0.00000204,0.00000052,-0.00000573,0.00001449,
 0.00000305,0.00005096,-0.00001202,-0.00000177,-0.00014992,-0.00000645,
 -0.00006699,-0.00006552,0.00021444,-0.00069605,-0.00004802,0.00012533,
 -0.00009368,-0.00001527,0.00011996,-0.00003059,-0.00003977,-0.00003978
 ,-0.00008155,-0.00047666,-0.00014605,-0.13903965,-0.01587307,0.2247116
 7,0.00002733,-0.00010565,-0.00002588,0.00049189,-0.00007878,0.00024407
 ,-0.00162722,0.00006394,-0.00057213,-0.00148435,-0.00552312,-0.0003630
 0,-0.00021808,-0.00022243,0.00073769,0.01047164,-0.02336488,-0.0053099
 5,-0.11940040,0.12522741,0.01733314,0.00029027,-0.00090202,0.00034302,
 0.00023338,-0.00008720,-0.00029202,0.00002451,0.00000274,0.00001871,0.
 00001883,-0.00001719,0.00000077,-0.00000226,-0.00001032,0.00001066,-0.
 00002401,0.00009206,0.00001242,0.00001249,0.00016862,0.00000116,-0.000
 06505,-0.00006515,0.00027379,0.00059342,0.00021035,-0.00023198,0.00007
 395,0.00007522,-0.00020969,0.00005000,0.00003361,-0.00004303,0.0002413
 0,0.00013450,-0.00029820,-0.00878114,0.01562875,0.00030293,0.12698908,
 -0.00001390,-0.00009285,-0.00007902,0.00026428,0.00002174,0.00020943,-
 0.00191834,0.00048828,-0.00083086,-0.00273609,-0.00464430,0.00046035,-
 0.00038055,-0.00015898,0.00152835,0.00841478,-0.02524361,-0.00887553,0
 .11616495,-0.23958038,-0.02507683,0.00133264,0.00182364,0.00010011,-0.
 00037497,0.00013944,-0.00000766,0.00004105,-0.00004419,0.00002703,0.00
 001745,0.00000408,0.00001036,0.00000270,0.00000966,0.00001660,-0.00002
 308,0.00001259,-0.00001312,0.00002271,0.00005206,-0.00001909,0.0001201
 0,0.00003907,0.00004132,0.00029194,0.00035554,-0.00004824,0.00009777,0
 .00005774,-0.00026138,-0.00000349,0.00003875,-0.00011080,0.00036107,0.
 00030987,-0.00021226,-0.00191682,0.00470170,0.00035483,-0.12458708,0.2
 6648668,0.00000958,-0.00006046,-0.00003370,0.00026014,-0.00010155,0.00
 027753,-0.00051495,0.00048301,-0.00074062,-0.00134251,-0.00213820,0.00
 050206,0.00010521,-0.00015964,0.00069171,0.00385714,-0.00813162,-0.002
 60563,0.01469663,-0.02552337,-0.05015428,0.00028935,0.00073836,-0.0002
 9325,0.00006371,-0.00000563,0.00009951,0.00001598,-0.00000464,0.000020
 49,0.00001118,-0.00000512,-0.00000419,-0.00000308,-0.00001232,0.000019
 39,-0.00001348,0.00011359,0.00001897,0.00002502,0.00006918,-0.00000873
 ,-0.00021962,-0.00019187,0.00041456,0.00016849,0.00010314,-0.00019293,
 -0.00000348,-0.00004090,-0.00004941,-0.00006267,-0.00003456,-0.0000054
 8,0.00001736,0.00024449,0.00020622,0.01176439,-0.02153975,-0.00228850,
 -0.01447038,0.03271182,0.05157330,-0.00000380,-0.00017364,-0.00006276,
 0.00037985,0.00001220,0.00056345,0.00073666,0.00011028,-0.00088155,0.0
 0006951,0.00253070,0.00183832,-0.00048734,-0.00046990,0.00080049,-0.02
 273852,-0.00686410,-0.02234751,-0.11030124,0.02543407,-0.09869423,0.00
 349061,0.00177833,-0.00289859,-0.00003309,0.00019787,0.00045607,0.0000
 4254,-0.00003488,0.00004977,0.00000030,0.00000400,-0.00000255,-0.00000
 200,-0.00000883,0.00002815,-0.00001299,0.00013406,0.00002177,-0.000016
 46,0.00004974,-0.00001430,-0.00015147,-0.00003483,0.00064494,0.0003221
 6,0.00014428,0.00008169,0.00032255,-0.00004512,-0.00021642,0.00001820,
 0.00008262,0.00025828,0.00033833,0.00017336,-0.00018500,0.01119965,-0.
 00362310,0.01622908,-0.00771710,0.00451720,-0.01445084,0.12443179,0.00
 000002,0.00003792,0.00001318,-0.00024329,0.00005176,-0.00002647,0.0008
 8268,-0.00056532,-0.00088581,-0.00059677,0.00288354,0.00000952,-0.0000
 4169,-0.00051341,0.00015172,-0.02237138,0.00139003,-0.02335002,0.02515
 982,-0.06144153,0.04237259,0.00298090,0.00162286,-0.00341182,0.0001498
 0,0.00002040,0.00009875,-0.00001371,-0.00000013,-0.00001021,-0.0000043
 1,-0.00000161,-0.00000144,0.00000275,-0.00001017,0.00000894,-0.0000237
 6,0.00004733,0.00002171,-0.00000988,0.00000595,-0.00003296,0.00024200,
 -0.00105126,0.00028458,0.00043730,-0.00075592,0.00034940,0.00014885,-0
 .00000646,-0.00009238,-0.00003267,0.00002699,0.00019448,0.00007776,0.0
 0009427,-0.00004136,0.00187616,-0.00056435,0.00092804,0.01310887,-0.00
 479880,0.02341921,-0.02253019,0.06370738,0.00003114,-0.00013957,-0.000
 01569,0.00070307,-0.00015529,0.00051337,-0.00065461,0.00047188,-0.0007
 5472,-0.00058530,0.00166644,0.00134608,0.00035406,-0.00018435,-0.00020
 035,-0.01006603,-0.00652234,-0.00579855,-0.09728107,0.04183247,-0.2118
 2034,0.00213412,-0.00134768,0.00285440,0.00018769,0.00016920,0.0003730
 1,0.00002457,0.00001351,0.00003244,0.00003025,-0.00002636,-0.00001603,
 -0.00000983,-0.00003011,0.00003244,-0.00003960,0.00025236,0.00005792,0
 .00002526,0.00022647,-0.00000605,-0.00055245,-0.00017729,0.00077656,0.
 00086563,-0.00001777,-0.00056923,-0.00000487,-0.00012422,-0.00010422,0
 .00009363,-0.00001400,0.00024820,-0.00015659,0.00003015,0.00008513,-0.
 01314469,0.00647448,-0.01987968,0.00249133,-0.00020773,0.00252335,0.11
 741143,-0.04135572,0.22983532,-0.00003981,-0.00000539,-0.00001543,0.00
 024408,0.00012476,-0.00075872,0.00018523,-0.00024070,0.00211203,0.0011
 3281,-0.00072290,0.00073030,-0.00019410,0.00041008,-0.00014095,0.00846
 154,-0.01745003,0.02770664,0.00408584,0.00187276,0.00301591,-0.1358982
 0,0.07194867,-0.11695362,-0.01658501,0.02110467,-0.02334960,0.00000476
 ,-0.00001034,0.00000238,-0.00001026,0.00000487,0.00000714,0.00000847,0
 .00003160,-0.00000363,0.00002737,-0.00022040,-0.00003987,-0.00004022,-
 0.00004852,0.00000770,-0.00104661,0.00052397,-0.00086961,0.00015992,-0
 .00013666,-0.00016448,-0.00009882,0.00009674,0.00010657,-0.00005022,-0
 .00008173,-0.00013268,0.00007432,-0.00003398,-0.00004936,-0.00051498,0
 .00004985,-0.00051533,-0.00028766,0.00003853,-0.00011940,-0.00012572,0
 .00073481,-0.00194966,0.14472359,0.00004027,0.00019805,0.00011073,-0.0
 0036291,-0.00008478,-0.00035088,0.00102131,0.00130934,0.00080699,-0.00
 373188,0.00199752,-0.00346381,0.00005547,-0.00037271,-0.00084678,0.002
 01470,-0.00578798,0.00096550,0.00247107,0.00024066,0.00332986,0.089044
 36,-0.12330607,0.16317584,-0.01407128,0.00207141,-0.01775439,-0.000071
 49,0.00006598,-0.00006958,-0.00003571,-0.00000769,0.00000067,0.0000170
 5,0.00000081,-0.00003597,-0.00005900,-0.00006681,0.00003512,-0.0000003
 8,-0.00012026,-0.00002118,0.00066171,0.00001940,-0.00014019,-0.0003859
 0,0.00006393,-0.00002051,-0.00000524,-0.00002344,-0.00000230,0.0000147
 4,-0.00013018,-0.00007216,-0.00019744,-0.00009297,0.00025361,-0.000838
 54,0.00007187,-0.00066056,0.00021676,-0.00016018,-0.00000800,-0.001376
 25,-0.00007223,-0.00079266,-0.07373325,0.12267630,0.00005814,-0.000122
 80,0.00003751,0.00045235,-0.00017751,0.00024072,0.00058937,-0.00130723
 ,-0.00054790,-0.00351711,0.00386906,0.00458154,-0.00049381,-0.00050247
 ,-0.00052563,0.00379998,0.02138064,-0.04250257,-0.00116016,-0.00246951
 ,-0.00019645,-0.10692578,0.11531767,-0.20025046,-0.00807665,0.00613042
 ,-0.00572617,-0.00000650,0.00002571,0.00001548,-0.00003746,-0.00000405
 ,-0.00000252,0.00001932,-0.00001920,0.00002019,-0.00006348,0.00020708,
 0.00006270,-0.00005528,-0.00008992,-0.00003900,0.00120186,-0.00011421,
 0.00055006,-0.00005318,0.00009464,0.00049393,0.00019219,-0.00019473,-0
 .00013447,0.00029705,-0.00009383,0.00033718,-0.00018225,0.00000855,0.0
 0044185,0.00031214,0.00023838,0.00004962,0.00012898,0.00022191,0.00010
 677,0.00109866,0.00119787,0.00059756,0.11205460,-0.14319295,0.24076408
 ,0.00000941,-0.00001127,0.00000124,0.00005745,-0.00002163,0.00004715,0
 .00001809,-0.00010235,-0.00019249,-0.00056217,0.00028060,0.00075506,-0
 .00025746,0.00012987,-0.00022994,0.00324086,0.00127621,-0.00076323,-0.
 00007866,-0.00027366,-0.00012940,-0.02132636,0.01165398,-0.02576882,-0
 .10606646,0.07417671,-0.07617894,-0.00000396,0.00000973,0.00000388,-0.
 00000802,-0.00000221,-0.00000067,0.00000472,-0.00000729,0.00000958,-0.
 00001849,0.00004472,0.00001911,-0.00001207,-0.00001823,-0.00000550,0.0
 0012810,-0.00000938,0.00017066,-0.00004018,0.00002769,0.00010733,0.000
 02324,-0.00001004,0.00004233,0.00000336,-0.00000936,0.00013142,-0.0000
 0092,-0.00003030,0.00009555,0.00003366,-0.00000369,0.00005588,-0.00006
 035,0.00000083,-0.00002859,0.00024223,0.00009620,0.00018399,-0.0057761
 3,-0.00168724,-0.00049833,0.12218981,0.00001516,0.00001628,-0.00002960
 ,-0.00010622,-0.00007547,0.00012027,-0.00023848,-0.00005105,-0.0001757
 3,0.00056553,0.00009180,-0.00011906,0.00011485,-0.00002953,0.00036795,
 0.00060513,0.00062525,-0.00063569,0.00003984,0.00002994,-0.00038718,-0
 .01071113,0.01157396,-0.01404343,0.07959782,-0.14609112,0.10409551,-0.
 00000003,-0.00000416,0.00000539,0.00002411,0.00000058,0.00000667,-0.00
 000704,-0.00000547,0.00000209,0.00002880,0.00002752,-0.00001891,0.0000
 2794,0.00006446,-0.00001747,0.00003338,-0.00002741,0.00005564,0.000063
 47,0.00002517,0.00001257,-0.00002253,-0.00001401,-0.00001060,0.0000465
 0,0.00003905,-0.00012914,0.00000179,0.00004132,-0.00010524,0.00011293,
 0.00001021,0.00002687,-0.00004250,-0.00005518,0.00002655,0.00000753,-0
 .00004464,0.00006187,-0.00408088,-0.00025542,-0.00107897,-0.07967653,0
 .15270919,0.00002157,0.00003617,-0.00000512,-0.00007726,-0.00006968,-0
 .00001236,0.00003991,0.00005484,-0.00010063,-0.00019128,0.00020064,-0.
 00038970,-0.00000651,-0.00002344,-0.00003951,0.00121497,-0.00073295,0.
 00154732,0.00026032,0.00025130,0.00046658,-0.00752461,0.00353446,-0.00
 975389,-0.08128757,0.09852079,-0.15391415,-0.00001553,0.00001896,-0.00
 000641,0.00000249,-0.00000484,0.00000514,0.00000367,-0.00000648,0.0000
 0706,0.00000052,0.00002197,0.00001084,0.00000938,0.00002287,-0.0000212
 3,0.00004821,0.00000157,0.00006592,0.00000633,0.00001678,0.00003978,-0
 .00003910,0.00001836,0.00001670,0.00002170,-0.00001252,-0.00001822,0.0
 0000336,-0.00001259,0.00001052,-0.00010590,-0.00005996,0.00001498,-0.0
 0000364,-0.00002002,-0.00005224,0.00007295,0.00005940,-0.00012072,-0.0
 0185532,-0.00084363,0.00138254,0.09528850,-0.10764803,0.16626686,0.000
 02193,0.00003706,-0.00004548,-0.00016558,-0.00008290,0.00004933,-0.000
 32635,0.00042890,-0.00039757,-0.00088175,0.00032678,0.00003495,0.00000
 550,0.00053593,0.00072266,0.00388420,-0.00023539,-0.00297561,0.0000363
 9,0.00039737,0.00044312,-0.00424449,-0.03468348,-0.01616544,-0.0574071
 6,0.04623215,0.02121604,0.00000380,-0.00001099,0.00000287,0.00001678,-
 0.00000046,0.00001167,-0.00000103,-0.00000110,0.00001118,0.00001682,0.
 00001962,-0.00000226,-0.00002121,0.00015892,-0.00005455,0.00000426,-0.
 00005095,0.00011221,0.00030250,0.00001700,0.00012407,-0.00002305,0.000
 03639,0.00014652,-0.00004796,0.00001279,-0.00006304,0.00021641,0.00008
 050,-0.00034331,-0.00028865,-0.00004120,0.00014949,0.00007565,0.000289
 90,-0.00002243,0.00016245,0.00002307,0.00004235,0.00146986,-0.00044016
 ,0.00105109,-0.00214237,0.01249854,0.00711487,0.06212563,0.00000150,0.
 00003909,-0.00001806,-0.00014618,-0.00009453,0.00004660,-0.00033883,0.
 00035806,-0.00019123,0.00156753,0.00191959,0.00091676,-0.00077732,0.00
 022170,0.00049404,0.00310828,-0.00026587,-0.00317668,0.00002979,-0.000
 00192,0.00022902,-0.01150502,-0.01732293,-0.00983109,0.04359755,-0.241
 51835,-0.08873538,-0.00000938,0.00000996,-0.00000047,0.00002033,0.0000
 0041,0.00000509,0.00000272,-0.00001051,0.00001844,0.00000275,0.0000537
 8,0.00001327,0.00004928,0.00002771,-0.00003754,0.00015980,-0.00004665,
 0.00010843,0.00022139,-0.00000016,0.00007072,-0.00006726,-0.00002571,0
 .00011421,-0.00000471,-0.00017775,0.00007480,0.00011395,0.00003457,0.0
 0000230,-0.00026299,-0.00007694,0.00013214,-0.00003095,0.00022275,0.00
 002548,0.00014214,0.00002748,-0.00000518,-0.00042003,0.00094038,0.0007
 6185,0.00536178,-0.01646074,-0.00846865,-0.04079858,0.26707512,0.00003
 083,0.00007922,-0.00001308,-0.00026223,-0.00016917,0.00004429,-0.00015
 019,-0.00012433,0.00034030,0.00022177,0.00121922,0.00020706,-0.0000637
 1,0.00027719,-0.00012085,0.00130303,0.00169312,-0.00090574,0.00005129,
 0.00004050,0.00005143,-0.00447611,-0.01295251,-0.00287848,0.01890140,-
 0.08975801,-0.09568757,-0.00002252,0.00002227,-0.00001063,0.00003657,-
 0.00000400,0.00000514,-0.00001548,-0.00001230,-0.00000890,0.00005103,0
 .00002295,-0.00002105,0.00005541,0.00011279,-0.00000289,-0.00000732,-0
 .00006325,-0.00005621,-0.00007146,0.00004776,-0.00010756,-0.00001147,-
 0.00000982,0.00010749,0.00009066,0.00002894,-0.00004191,-0.00001653,-0
 .00002015,-0.00000736,-0.00012071,-0.00001851,0.00006045,-0.00005354,0
 .00007188,-0.00003059,0.00001731,-0.00004056,-0.00004449,0.00030854,-0
 .00081018,-0.00009534,-0.00409689,0.01917803,0.00959037,-0.01697331,0.
 10486863,0.09997198,0.00001670,0.00005306,0.00003618,-0.00008907,-0.00
 005939,-0.00006175,0.00015496,0.00003305,0.00031910,-0.00006017,-0.000
 31990,0.00000956,-0.00010804,0.00013853,-0.00027985,-0.00520787,-0.003
 54992,-0.00214620,-0.00102577,0.00068060,0.00131333,-0.01726332,-0.006
 57050,0.02695953,-0.12411401,-0.01589432,0.11174651,-0.00002254,0.0000
 2437,-0.00001564,0.00000711,-0.00000520,-0.00000644,-0.00000993,-0.000
 00941,-0.00001704,0.00001101,0.00000831,-0.00000189,0.00001961,0.00001
 913,0.00001604,0.00001433,-0.00004500,-0.00004012,-0.00004920,0.000008
 67,-0.00002564,-0.00000925,0.00003143,0.00007926,-0.00000308,-0.000046
 06,0.00001502,-0.00001141,-0.00003565,0.00005334,-0.00037867,-0.000425
 66,-0.00011821,0.00007389,-0.00002358,-0.00003274,-0.00016710,-0.00005
 336,-0.00013381,0.00008995,0.00143922,-0.00018575,0.01040266,0.0011020
 1,-0.01300202,-0.00279257,-0.00001756,0.00527365,0.14052177,0.00000947
 ,0.00003153,-0.00000627,-0.00006777,-0.00003836,-0.00002077,-0.0001910
 0,0.00033585,-0.00001160,0.00063958,0.00072817,-0.00023152,-0.00021364
 ,-0.00001283,0.00018043,-0.00325231,-0.00237927,-0.00141708,-0.0006822
 7,0.00045595,0.00053628,-0.00877840,-0.00420708,0.01558639,-0.01510748
 ,-0.05088901,0.02106721,-0.00000561,0.00000618,-0.00000667,0.00000332,
 -0.00000316,0.00000718,0.00000700,-0.00000082,0.00000899,-0.00001370,0
 .00000989,0.00001280,0.00000279,0.00002049,-0.00003230,0.00004280,-0.0
 0001453,0.00004050,0.00009093,-0.00001137,0.00003917,-0.00003804,0.000
 00543,0.00001902,-0.00001698,-0.00008464,0.00000184,0.00005052,0.00002
 419,-0.00002269,-0.00021186,-0.00021664,-0.00003908,0.00007444,0.00001
 487,0.00002280,-0.00015754,-0.00009008,-0.00009857,0.00024349,0.000825
 07,-0.00008640,-0.01119515,-0.00214052,0.01514465,0.01525028,0.0050714
 5,-0.02367970,0.02351713,0.05255925,-0.00001320,-0.00002771,-0.0000255
 4,0.00004977,0.00003198,0.00002546,-0.00017721,0.00000675,-0.00010318,
 0.00034803,0.00061214,0.00031305,-0.00025264,0.00008213,0.00010891,-0.
 00101743,-0.00122527,0.00037471,-0.00040520,-0.00057434,0.00068351,-0.
 00723790,-0.00167602,0.00887760,0.12055982,0.02642336,-0.23147967,0.00
 001749,-0.00002152,0.00000940,0.00000135,0.00000381,0.00000621,0.00000
 770,0.00000713,0.00001449,-0.00001111,-0.00000187,0.00000648,-0.000009
 74,0.00000390,-0.00001750,0.00001777,0.00001257,0.00001277,0.00008138,
 -0.00000686,0.00001334,0.00001625,-0.00002372,0.00000264,-0.00000557,-
 0.00003622,0.00008723,0.00007691,0.00001735,-0.00000232,-0.00010575,-0
 .00017050,-0.00005201,-0.00002524,0.00000853,0.00000570,0.00018140,0.0
 0013937,0.00005427,0.00086585,0.00040743,0.00033877,0.01098112,0.00043
 965,-0.01499043,0.00581061,0.00258251,-0.01034588,-0.12975444,-0.02701
 459,0.24608197\\0.00000126,-0.00000106,0.00000289,-0.00000320,-0.00000
 032,-0.00000241,0.00000122,-0.00000006,-0.00000288,0.00000296,-0.00000
 426,0.00000620,-0.00000283,-0.00000478,0.00000135,-0.00000685,-0.00000
 193,-0.00000555,0.00000558,0.00000537,0.00000260,0.00000826,-0.0000047
 4,-0.00000147,0.00000776,0.00001038,0.00000151,0.00000065,0.00000032,-
 0.00000033,-0.00000004,0.00000075,-0.00000028,-0.00000037,-0.00000010,
 -0.00000036,0.00000027,-0.00000167,0.00000096,-0.00000011,0.00000125,0
 .00000194,0.00000011,-0.00000049,-0.00000028,-0.00000008,-0.00000166,-
 0.00000157,-0.00000041,-0.00000037,-0.00000006,-0.00000044,0.00000138,
 -0.00000186,-0.00000020,0.00000007,-0.00000111,-0.00000072,-0.00000049
 ,-0.00000288,-0.00000072,0.00000025,-0.00000058,-0.00000309,0.00000031
 ,-0.00000195,-0.00000621,0.00000425,-0.00000011,-0.00000252,0.00000126
 ,0.00000249,0.00000098,-0.00000234,0.00000257,-0.00000127,-0.00000132,
 0.00000116\\\@


 ON A TOMBSTONE, "HERE LIES LESTER MOORE,
 FOUR SLUGS FROM A 44, NO LES, NO MORE".
 Job cpu time:       0 days  2 hours 50 minutes 41.1 seconds.
 Elapsed time:       0 days  0 hours 42 minutes 41.4 seconds.
 File lengths (MBytes):  RWF=    218 Int=      0 D2E=      0 Chk=     10 Scr=      1
 Normal termination of Gaussian 16 at Tue Jun  1 21:30:17 2021.
### All Done ###
