### Starting Gaussian ###
 Entering Gaussian System, Link 0=g16
 Initial command:
 /cluster/software/gaussian/gaussian-16-A.03/avx2/g16/l1.exe "/local/scratch/linjian/Gau-10172.inp" -scrdir="/local/scratch/linjian/"
 Entering Link 1 = /cluster/software/gaussian/gaussian-16-A.03/avx2/g16/l1.exe PID=     10173.
  
 Copyright (c) 1988,1990,1992,1993,1995,1998,2003,2009,2016,
            Gaussian, Inc.  All Rights Reserved.
  
 This is part of the Gaussian(R) 16 program.  It is based on
 the Gaussian(R) 09 system (copyright 2009, Gaussian, Inc.),
 the Gaussian(R) 03 system (copyright 2003, Gaussian, Inc.),
 the Gaussian(R) 98 system (copyright 1998, Gaussian, Inc.),
 the Gaussian(R) 94 system (copyright 1995, Gaussian, Inc.),
 the Gaussian 92(TM) system (copyright 1992, Gaussian, Inc.),
 the Gaussian 90(TM) system (copyright 1990, Gaussian, Inc.),
 the Gaussian 88(TM) system (copyright 1988, Gaussian, Inc.),
 the Gaussian 86(TM) system (copyright 1986, Carnegie Mellon
 University), and the Gaussian 82(TM) system (copyright 1983,
 Carnegie Mellon University). Gaussian is a federally registered
 trademark of Gaussian, Inc.
  
 This software contains proprietary and confidential information,
 including trade secrets, belonging to Gaussian, Inc.
  
 This software is provided under written license and may be
 used, copied, transmitted, or stored only in accord with that
 written license.
  
 The following legend is applicable only to US Government
 contracts under FAR:
  
                    RESTRICTED RIGHTS LEGEND
  
 Use, reproduction and disclosure by the US Government is
 subject to restrictions as set forth in subparagraphs (a)
 and (c) of the Commercial Computer Software - Restricted
 Rights clause in FAR 52.227-19.
  
 Gaussian, Inc.
 340 Quinnipiac St., Bldg. 40, Wallingford CT 06492
  
  
 ---------------------------------------------------------------
 Warning -- This program may not be used in any manner that
 competes with the business of Gaussian, Inc. or will provide
 assistance to any competitor of Gaussian, Inc.  The licensee
 of this program is prohibited from giving any competitor of
 Gaussian, Inc. access to this program.  By using this program,
 the user acknowledges that Gaussian, Inc. is engaged in the
 business of creating and licensing software in the field of
 computational chemistry and represents and warrants to the
 licensee that it is not a competitor of Gaussian, Inc. and that
 it will not use this program in any manner prohibited above.
 ---------------------------------------------------------------
  

 Cite this work as:
 Gaussian 16, Revision A.03,
 M. J. Frisch, G. W. Trucks, H. B. Schlegel, G. E. Scuseria, 
 M. A. Robb, J. R. Cheeseman, G. Scalmani, V. Barone, 
 G. A. Petersson, H. Nakatsuji, X. Li, M. Caricato, A. V. Marenich, 
 J. Bloino, B. G. Janesko, R. Gomperts, B. Mennucci, H. P. Hratchian, 
 J. V. Ortiz, A. F. Izmaylov, J. L. Sonnenberg, D. Williams-Young, 
 F. Ding, F. Lipparini, F. Egidi, J. Goings, B. Peng, A. Petrone, 
 T. Henderson, D. Ranasinghe, V. G. Zakrzewski, J. Gao, N. Rega, 
 G. Zheng, W. Liang, M. Hada, M. Ehara, K. Toyota, R. Fukuda, 
 J. Hasegawa, M. Ishida, T. Nakajima, Y. Honda, O. Kitao, H. Nakai, 
 T. Vreven, K. Throssell, J. A. Montgomery, Jr., J. E. Peralta, 
 F. Ogliaro, M. J. Bearpark, J. J. Heyd, E. N. Brothers, K. N. Kudin, 
 V. N. Staroverov, T. A. Keith, R. Kobayashi, J. Normand, 
 K. Raghavachari, A. P. Rendell, J. C. Burant, S. S. Iyengar, 
 J. Tomasi, M. Cossi, J. M. Millam, M. Klene, C. Adamo, R. Cammi, 
 J. W. Ochterski, R. L. Martin, K. Morokuma, O. Farkas, 
 J. B. Foresman, and D. J. Fox, Gaussian, Inc., Wallingford CT, 2016.
 
 ******************************************
 Gaussian 16:  ES64L-G16RevA.03 25-Dec-2016
                31-May-2021 
 ******************************************
 %chk=CCCNCNpNpCN.chk
 %NProcShared=20
 Will use up to   20 processors via shared memory.
 -----------------------------
 # opt freq b3lyp/6-31g(2df,p)
 -----------------------------
 1/18=20,19=15,26=3,38=1/1,3;
 2/9=110,12=2,17=6,18=5,40=1/2;
 3/5=1,6=6,7=104,11=2,25=1,30=1,71=1,74=-5/1,2,3;
 4//1;
 5/5=2,38=5/2;
 6/7=2,8=2,9=2,10=2,28=1/1;
 7//1,2,3,16;
 1/18=20,19=15,26=3/3(2);
 2/9=110/2;
 99//99;
 2/9=110/2;
 3/5=1,6=6,7=104,11=2,25=1,30=1,71=1,74=-5/1,2,3;
 4/5=5,16=3,69=1/1;
 5/5=2,38=5/2;
 7//1,2,3,16;
 1/18=20,19=15,26=3/3(-5);
 2/9=110/2;
 6/7=2,8=2,9=2,10=2,19=2,28=1/1;
 99/9=1/99;
 -------------------
 Title Card Required
 -------------------
 Symbolic Z-matrix:
 Charge =  0 Multiplicity = 1
 C                     0.95225   0.1014   -0.03057 
 C                     2.47295   0.08009  -0.02065 
 C                     2.98772  -1.14585   0.73154 
 N                     4.44754  -1.16284   0.72487 
 C                     4.94374  -2.31663   1.47188 
 N                     6.4143   -2.29411   1.47106 
 N                     6.90188  -1.06243   2.12947 
 C                     6.90857  -3.46374   2.20862 
 N                     8.36566  -3.4384    2.18949 
 H                     0.58531   0.97769  -0.57287 
 H                     0.55654   0.14024   0.98956 
 H                     0.5534   -0.79405  -0.51823 
 H                     2.84316   0.99896   0.45011 
 H                     2.84053   0.07297  -1.05397 
 H                     2.6026   -2.053     0.25139 
 H                     2.61319  -1.12208   1.76219 
 H                     4.79478  -0.34295   1.21466 
 H                     4.59755  -3.23424   0.98191 
 H                     4.55552  -2.30414   2.49926 
 H                     6.77338  -0.27865   1.48577 
 H                     7.92187  -1.15831   2.21099 
 H                     6.5698   -4.38616   1.72184 
 H                     6.55386  -3.475     3.24543 
 H                     8.64911  -3.48229   1.21555 
 H                     8.70636  -4.29025   2.6337 
 

 GradGradGradGradGradGradGradGradGradGradGradGradGradGradGradGradGradGrad
 Berny optimization.
 Initialization pass.
                           ----------------------------
                           !    Initial Parameters    !
                           ! (Angstroms and Degrees)  !
 --------------------------                            --------------------------
 ! Name  Definition              Value          Derivative Info.                !
 --------------------------------------------------------------------------------
 ! R1    R(1,2)                  1.5209         estimate D2E/DX2                !
 ! R2    R(1,10)                 1.0939         estimate D2E/DX2                !
 ! R3    R(1,11)                 1.0949         estimate D2E/DX2                !
 ! R4    R(1,12)                 1.0949         estimate D2E/DX2                !
 ! R5    R(2,3)                  1.5276         estimate D2E/DX2                !
 ! R6    R(2,13)                 1.0968         estimate D2E/DX2                !
 ! R7    R(2,14)                 1.0968         estimate D2E/DX2                !
 ! R8    R(3,4)                  1.4599         estimate D2E/DX2                !
 ! R9    R(3,15)                 1.0963         estimate D2E/DX2                !
 ! R10   R(3,16)                 1.0968         estimate D2E/DX2                !
 ! R11   R(4,5)                  1.4613         estimate D2E/DX2                !
 ! R12   R(4,17)                 1.0162         estimate D2E/DX2                !
 ! R13   R(5,6)                  1.4707         estimate D2E/DX2                !
 ! R14   R(5,18)                 1.0963         estimate D2E/DX2                !
 ! R15   R(5,19)                 1.0984         estimate D2E/DX2                !
 ! R16   R(6,7)                  1.4793         estimate D2E/DX2                !
 ! R17   R(6,8)                  1.4684         estimate D2E/DX2                !
 ! R18   R(7,20)                 1.0223         estimate D2E/DX2                !
 ! R19   R(7,21)                 1.0277         estimate D2E/DX2                !
 ! R20   R(8,9)                  1.4574         estimate D2E/DX2                !
 ! R21   R(8,22)                 1.0966         estimate D2E/DX2                !
 ! R22   R(8,23)                 1.0959         estimate D2E/DX2                !
 ! R23   R(9,24)                 1.0153         estimate D2E/DX2                !
 ! R24   R(9,25)                 1.0193         estimate D2E/DX2                !
 ! A1    A(2,1,10)             110.4787         estimate D2E/DX2                !
 ! A2    A(2,1,11)             110.8422         estimate D2E/DX2                !
 ! A3    A(2,1,12)             110.836          estimate D2E/DX2                !
 ! A4    A(10,1,11)            108.1949         estimate D2E/DX2                !
 ! A5    A(10,1,12)            108.1893         estimate D2E/DX2                !
 ! A6    A(11,1,12)            108.2009         estimate D2E/DX2                !
 ! A7    A(1,2,3)              110.572          estimate D2E/DX2                !
 ! A8    A(1,2,13)             109.181          estimate D2E/DX2                !
 ! A9    A(1,2,14)             109.2112         estimate D2E/DX2                !
 ! A10   A(3,2,13)             110.3183         estimate D2E/DX2                !
 ! A11   A(3,2,14)             110.2278         estimate D2E/DX2                !
 ! A12   A(13,2,14)            107.259          estimate D2E/DX2                !
 ! A13   A(2,3,4)              110.1227         estimate D2E/DX2                !
 ! A14   A(2,3,15)             109.2706         estimate D2E/DX2                !
 ! A15   A(2,3,16)             109.2818         estimate D2E/DX2                !
 ! A16   A(4,3,15)             109.8553         estimate D2E/DX2                !
 ! A17   A(4,3,16)             110.2415         estimate D2E/DX2                !
 ! A18   A(15,3,16)            108.031          estimate D2E/DX2                !
 ! A19   A(3,4,5)              110.2661         estimate D2E/DX2                !
 ! A20   A(3,4,17)             109.2738         estimate D2E/DX2                !
 ! A21   A(5,4,17)             105.9388         estimate D2E/DX2                !
 ! A22   A(4,5,6)              109.0953         estimate D2E/DX2                !
 ! A23   A(4,5,18)             108.9754         estimate D2E/DX2                !
 ! A24   A(4,5,19)             110.4359         estimate D2E/DX2                !
 ! A25   A(6,5,18)             109.1658         estimate D2E/DX2                !
 ! A26   A(6,5,19)             110.7176         estimate D2E/DX2                !
 ! A27   A(18,5,19)            108.418          estimate D2E/DX2                !
 ! A28   A(5,6,7)              110.0029         estimate D2E/DX2                !
 ! A29   A(5,6,8)              108.9097         estimate D2E/DX2                !
 ! A30   A(7,6,8)              109.1893         estimate D2E/DX2                !
 ! A31   A(6,7,20)             108.4611         estimate D2E/DX2                !
 ! A32   A(6,7,21)             106.544          estimate D2E/DX2                !
 ! A33   A(20,7,21)            104.2536         estimate D2E/DX2                !
 ! A34   A(6,8,9)              108.4256         estimate D2E/DX2                !
 ! A35   A(6,8,22)             110.0626         estimate D2E/DX2                !
 ! A36   A(6,8,23)             111.9898         estimate D2E/DX2                !
 ! A37   A(9,8,22)             108.5207         estimate D2E/DX2                !
 ! A38   A(9,8,23)             109.6456         estimate D2E/DX2                !
 ! A39   A(22,8,23)            108.1397         estimate D2E/DX2                !
 ! A40   A(8,9,24)             106.915          estimate D2E/DX2                !
 ! A41   A(8,9,25)             108.2949         estimate D2E/DX2                !
 ! A42   A(24,9,25)            106.7738         estimate D2E/DX2                !
 ! D1    D(10,1,2,3)          -179.779          estimate D2E/DX2                !
 ! D2    D(10,1,2,13)           58.6708         estimate D2E/DX2                !
 ! D3    D(10,1,2,14)          -58.3216         estimate D2E/DX2                !
 ! D4    D(11,1,2,3)            60.2982         estimate D2E/DX2                !
 ! D5    D(11,1,2,13)          -61.2521         estimate D2E/DX2                !
 ! D6    D(11,1,2,14)         -178.2444         estimate D2E/DX2                !
 ! D7    D(12,1,2,3)           -59.8672         estimate D2E/DX2                !
 ! D8    D(12,1,2,13)          178.5825         estimate D2E/DX2                !
 ! D9    D(12,1,2,14)           61.5902         estimate D2E/DX2                !
 ! D10   D(1,2,3,4)            179.4992         estimate D2E/DX2                !
 ! D11   D(1,2,3,15)            58.749          estimate D2E/DX2                !
 ! D12   D(1,2,3,16)           -59.2659         estimate D2E/DX2                !
 ! D13   D(13,2,3,4)           -59.6244         estimate D2E/DX2                !
 ! D14   D(13,2,3,15)          179.6254         estimate D2E/DX2                !
 ! D15   D(13,2,3,16)           61.6105         estimate D2E/DX2                !
 ! D16   D(14,2,3,4)            58.6445         estimate D2E/DX2                !
 ! D17   D(14,2,3,15)          -62.1057         estimate D2E/DX2                !
 ! D18   D(14,2,3,16)          179.8794         estimate D2E/DX2                !
 ! D19   D(2,3,4,5)            178.6056         estimate D2E/DX2                !
 ! D20   D(2,3,4,17)            62.5508         estimate D2E/DX2                !
 ! D21   D(15,3,4,5)           -60.9959         estimate D2E/DX2                !
 ! D22   D(15,3,4,17)         -177.0507         estimate D2E/DX2                !
 ! D23   D(16,3,4,5)            57.9457         estimate D2E/DX2                !
 ! D24   D(16,3,4,17)          -58.1091         estimate D2E/DX2                !
 ! D25   D(3,4,5,6)           -178.9033         estimate D2E/DX2                !
 ! D26   D(3,4,5,18)            61.9912         estimate D2E/DX2                !
 ! D27   D(3,4,5,19)           -56.9992         estimate D2E/DX2                !
 ! D28   D(17,4,5,6)           -60.7791         estimate D2E/DX2                !
 ! D29   D(17,4,5,18)         -179.8847         estimate D2E/DX2                !
 ! D30   D(17,4,5,19)           61.1249         estimate D2E/DX2                !
 ! D31   D(4,5,6,7)             61.0471         estimate D2E/DX2                !
 ! D32   D(4,5,6,8)           -179.3194         estimate D2E/DX2                !
 ! D33   D(18,5,6,7)          -179.9659         estimate D2E/DX2                !
 ! D34   D(18,5,6,8)           -60.3323         estimate D2E/DX2                !
 ! D35   D(19,5,6,7)           -60.6865         estimate D2E/DX2                !
 ! D36   D(19,5,6,8)            58.9471         estimate D2E/DX2                !
 ! D37   D(5,6,7,20)           -75.5837         estimate D2E/DX2                !
 ! D38   D(5,6,7,21)           172.7038         estimate D2E/DX2                !
 ! D39   D(8,6,7,20)           164.953          estimate D2E/DX2                !
 ! D40   D(8,6,7,21)            53.2406         estimate D2E/DX2                !
 ! D41   D(5,6,8,9)            179.4235         estimate D2E/DX2                !
 ! D42   D(5,6,8,22)            60.8615         estimate D2E/DX2                !
 ! D43   D(5,6,8,23)           -59.4652         estimate D2E/DX2                !
 ! D44   D(7,6,8,9)            -60.439          estimate D2E/DX2                !
 ! D45   D(7,6,8,22)          -179.001          estimate D2E/DX2                !
 ! D46   D(7,6,8,23)            60.6724         estimate D2E/DX2                !
 ! D47   D(6,8,9,24)           -60.6156         estimate D2E/DX2                !
 ! D48   D(6,8,9,25)          -175.3396         estimate D2E/DX2                !
 ! D49   D(22,8,9,24)           58.9182         estimate D2E/DX2                !
 ! D50   D(22,8,9,25)          -55.8058         estimate D2E/DX2                !
 ! D51   D(23,8,9,24)          176.837          estimate D2E/DX2                !
 ! D52   D(23,8,9,25)           62.1131         estimate D2E/DX2                !
 --------------------------------------------------------------------------------
 Trust Radius=3.00D-01 FncErr=1.00D-07 GrdErr=1.00D-06 EigMax=2.50D+02 EigMin=1.00D-04
 Number of steps in this run=    128 maximum allowed number of steps=    150.
 GradGradGradGradGradGradGradGradGradGradGradGradGradGradGradGradGradGrad

                          Input orientation:                          
 ---------------------------------------------------------------------
 Center     Atomic      Atomic             Coordinates (Angstroms)
 Number     Number       Type             X           Y           Z
 ---------------------------------------------------------------------
      1          6           0        0.952250    0.101400   -0.030570
      2          6           0        2.472950    0.080090   -0.020650
      3          6           0        2.987720   -1.145850    0.731540
      4          7           0        4.447540   -1.162840    0.724870
      5          6           0        4.943740   -2.316630    1.471880
      6          7           0        6.414300   -2.294110    1.471060
      7          7           0        6.901880   -1.062430    2.129470
      8          6           0        6.908570   -3.463740    2.208620
      9          7           0        8.365660   -3.438400    2.189490
     10          1           0        0.585310    0.977690   -0.572870
     11          1           0        0.556540    0.140240    0.989560
     12          1           0        0.553400   -0.794050   -0.518230
     13          1           0        2.843160    0.998960    0.450110
     14          1           0        2.840530    0.072970   -1.053970
     15          1           0        2.602600   -2.053000    0.251390
     16          1           0        2.613190   -1.122080    1.762190
     17          1           0        4.794780   -0.342950    1.214660
     18          1           0        4.597550   -3.234240    0.981910
     19          1           0        4.555520   -2.304140    2.499260
     20          1           0        6.773380   -0.278650    1.485770
     21          1           0        7.921870   -1.158310    2.210990
     22          1           0        6.569800   -4.386160    1.721840
     23          1           0        6.553860   -3.475000    3.245430
     24          1           0        8.649110   -3.482290    1.215550
     25          1           0        8.706360   -4.290250    2.633700
 ---------------------------------------------------------------------
                    Distance matrix (angstroms):
                    1          2          3          4          5
     1  C    0.000000
     2  C    1.520882   0.000000
     3  C    2.505909   1.527647   0.000000
     4  N    3.792894   2.449425   1.459934   0.000000
     5  C    4.902675   3.751895   2.396840   1.461325   0.000000
     6  N    6.150394   4.836968   3.688745   2.388455   1.470733
     7  N    6.435711   5.054086   4.157140   2.829623   2.416558
     8  C    7.293966   6.099434   4.788261   3.681348   2.391486
     9  N    8.509847   7.210307   6.025250   4.761822   3.671903
    10  H    1.093901   2.161901   3.461572   4.602480   5.833477
    11  H    1.094879   2.167203   2.762470   4.111929   5.051373
    12  H    1.094863   2.167113   2.758913   4.104343   5.055084
    13  H    2.147605   1.096810   2.168020   2.706087   4.055809
    14  H    2.147966   1.096775   2.166849   2.697032   4.063693
    15  H    2.728479   2.154272   1.096258   2.102468   2.653306
    16  H    2.733059   2.154855   1.096849   2.107732   2.634899
    17  H    4.063629   2.663803   2.035564   1.016213   1.995937
    18  H    5.043790   4.062491   2.648700   2.092671   1.096324
    19  H    5.016993   4.046183   2.631438   2.112507   1.098354
    20  H    6.027377   4.570743   3.956276   2.601979   2.738821
    21  H    7.428800   6.017024   5.151191   3.778828   3.279824
    22  H    7.400406   6.306175   4.930679   3.985941   2.643767
    23  H    7.409511   6.321374   4.945901   4.016950   2.660787
    24  H    8.581218   7.236276   6.143660   4.824293   3.892844
    25  H    9.301137   8.062310   6.797669   5.617995   4.404805
                    6          7          8          9         10
     6  N    0.000000
     7  N    1.479281   0.000000
     8  C    1.468445   2.402623   0.000000
     9  N    2.373467   2.791324   1.457436   0.000000
    10  H    6.989953   7.166853   8.212588   9.363030   0.000000
    11  H    6.361702   6.558136   7.404260   8.673457   1.772946
    12  H    6.368485   6.883716   7.412904   8.680768   1.772870
    13  H    4.963838   4.852091   6.287735   7.294766   2.478876
    14  H    4.975005   5.283747   6.300933   7.305944   2.477094
    15  H    4.009337   4.795021   4.935820   6.236058   3.732820
    16  H    3.988339   4.304801   4.912531   6.216014   3.738160
    17  H    2.548649   2.407156   3.898127   4.825276   4.760146
    18  H    2.103258   3.368025   2.626462   3.962144   6.021276
    19  H    2.124231   2.680297   2.639316   3.987439   5.997579
    20  H    2.047250   1.022337   3.268882   3.607575   6.641431
    21  H    2.027389   1.027725   2.518291   2.322977   8.132496
    22  H    2.112757   3.365059   1.096621   2.083761   8.357673
    23  H    2.135970   2.680854   1.095865   2.097372   8.368360
    24  H    2.543901   3.121504   2.003999   1.015298   9.386945
    25  H    3.254204   3.732187   2.023823   1.019337  10.197291
                   11         12         13         14         15
    11  H    0.000000
    12  H    1.773792   0.000000
    13  H    2.501407   3.065219   0.000000
    14  H    3.065477   2.503938   1.766273   0.000000
    15  H    3.088941   2.525171   3.067869   2.506057   0.000000
    16  H    2.533815   3.090413   2.504646   3.067668   1.774610
    17  H    4.271630   4.603879   2.488791   3.023039   2.942416
    18  H    5.264688   4.955814   4.613098   4.262577   2.430805
    19  H    4.924026   5.234748   4.247548   4.606223   2.988292
    20  H    6.250663   6.555136   4.260459   4.694808   4.697597
    21  H    7.578008   7.866109   5.792047   6.164092   5.738914
    22  H    7.561999   7.356510   6.671181   6.441771   4.831618
    23  H    7.357089   7.573516   6.449762   6.697892   5.157404
    24  H    8.869244   8.704777   7.374046   7.178454   6.287508
    25  H    9.420828   9.414289   8.192736   8.188074   6.923624
                   16         17         18         19         20
    16  H    0.000000
    17  H    2.380371   0.000000
    18  H    3.001290   2.907341   0.000000
    19  H    2.390227   2.356631   1.780226   0.000000
    20  H    4.253817   1.998122   3.704541   3.169964   0.000000
    21  H    5.327740   3.381742   4.107460   3.567680   1.618263
    22  H    5.129387   4.444713   2.400872   2.999419   4.119322
    23  H    4.823392   4.126515   3.001439   2.433320   3.655304
    24  H    6.503979   4.971048   4.065865   4.448981   3.722189
    25  H    6.922684   5.735443   4.552569   4.603496   4.598596
                   21         22         23         24         25
    21  H    0.000000
    22  H    3.533607   0.000000
    23  H    2.882459   1.775329   0.000000
    24  H    2.630715   2.323110   2.917283   0.000000
    25  H    3.256249   2.324989   2.381618   1.633165   0.000000
 Stoichiometry    C5H16N4
 Framework group  C1[X(C5H16N4)]
 Deg. of freedom    69
 Full point group                 C1      NOp   1
 Largest Abelian subgroup         C1      NOp   1
 Largest concise Abelian subgroup C1      NOp   1
                         Standard orientation:                         
 ---------------------------------------------------------------------
 Center     Atomic      Atomic             Coordinates (Angstroms)
 Number     Number       Type             X           Y           Z
 ---------------------------------------------------------------------
      1          6           0       -4.503097   -0.213519    0.095580
      2          6           0       -3.191306    0.446779   -0.299758
      3          6           0       -2.006148   -0.424572    0.112375
      4          7           0       -0.753176    0.212491   -0.282110
      5          6           0        0.383914   -0.602578    0.139977
      6          7           0        1.631026    0.074595   -0.246292
      7          7           0        1.720917    1.390308    0.423852
      8          6           0        2.770376   -0.755450    0.165093
      9          7           0        3.999316   -0.081661   -0.234702
     10          1           0       -5.350756    0.409796   -0.203707
     11          1           0       -4.553535   -0.361792    1.179199
     12          1           0       -4.609055   -1.189832   -0.388476
     13          1           0       -3.124818    1.431351    0.178980
     14          1           0       -3.182321    0.610943   -1.384140
     15          1           0       -2.093160   -1.405264   -0.369761
     16          1           0       -2.028943   -0.576929    1.198352
     17          1           0       -0.658595    1.098135    0.207153
     18          1           0        0.331691   -1.575174   -0.363268
     19          1           0        0.353234   -0.771123    1.224888
     20          1           0        1.086113    2.038010   -0.048037
     21          1           0        2.657775    1.759748    0.218843
     22          1           0        2.727490   -1.729054   -0.337735
     23          1           0        2.781241   -0.930328    1.246860
     24          1           0        3.969725    0.011657   -1.245269
     25          1           0        4.784905   -0.694236   -0.018720
 ---------------------------------------------------------------------
 Rotational constants (GHZ):           6.0233473           0.5062684           0.4823806
 Standard basis: 6-31G(2df,p) (6D, 7F)
 There are   359 symmetry adapted cartesian basis functions of A   symmetry.
 There are   332 symmetry adapted basis functions of A   symmetry.
   332 basis functions,   508 primitive gaussians,   359 cartesian basis functions
    37 alpha electrons       37 beta electrons
       nuclear repulsion energy       481.8040347473 Hartrees.
 NAtoms=   25 NActive=   25 NUniq=   25 SFac= 1.00D+00 NAtFMM=   60 NAOKFM=F Big=F
 Integral buffers will be    131072 words long.
 Raffenetti 2 integral format.
 Two-electron integral symmetry is turned on.
 One-electron integrals computed using PRISM.
 PrsmSu:  requested number of processors reduced to:  13 ShMem   1 Linda.
 NBasis=   332 RedAO= T EigKep=  2.76D-04  NBF=   332
 NBsUse=   332 1.00D-06 EigRej= -1.00D+00 NBFU=   332
 ExpMin= 1.61D-01 ExpMax= 4.17D+03 ExpMxC= 6.27D+02 IAcc=3 IRadAn=         5 AccDes= 0.00D+00
 Harris functional with IExCor=  402 and IRadAn=       5 diagonalized for initial guess.
 HarFok:  IExCor=  402 AccDes= 0.00D+00 IRadAn=         5 IDoV= 1 UseB2=F ITyADJ=14
 ICtDFT=  3500011 ScaDFX=  1.000000  1.000000  1.000000  1.000000
 FoFCou: FMM=F IPFlag=           0 FMFlag=      100000 FMFlg1=           0
         NFxFlg=           0 DoJE=T BraDBF=F KetDBF=T FulRan=T
         wScrn=  0.000000 ICntrl=       500 IOpCl=  0 I1Cent=   200000004 NGrid=           0
         NMat0=    1 NMatS0=      1 NMatT0=    0 NMatD0=    1 NMtDS0=    0 NMtDT0=    0
 Petite list used in FoFCou.
 Requested convergence on RMS density matrix=1.00D-08 within 128 cycles.
 Requested convergence on MAX density matrix=1.00D-06.
 Requested convergence on             energy=1.00D-06.
 No special actions if energy rises.
 Integral accuracy reduced to 1.0D-05 until final iterations.
 Initial convergence to 1.0D-05 achieved.  Increase integral accuracy.
 SCF Done:  E(RB3LYP) =  -419.139513088     A.U. after   12 cycles
            NFock= 12  Conv=0.43D-08     -V/T= 2.0079

 **********************************************************************

            Population analysis using the SCF density.

 **********************************************************************

 Orbital symmetries:
       Occupied  (A) (A) (A) (A) (A) (A) (A) (A) (A) (A) (A) (A)
                 (A) (A) (A) (A) (A) (A) (A) (A) (A) (A) (A) (A)
                 (A) (A) (A) (A) (A) (A) (A) (A) (A) (A) (A) (A)
                 (A)
       Virtual   (A) (A) (A) (A) (A) (A) (A) (A) (A) (A) (A) (A)
                 (A) (A) (A) (A) (A) (A) (A) (A) (A) (A) (A) (A)
                 (A) (A) (A) (A) (A) (A) (A) (A) (A) (A) (A) (A)
                 (A) (A) (A) (A) (A) (A) (A) (A) (A) (A) (A) (A)
                 (A) (A) (A) (A) (A) (A) (A) (A) (A) (A) (A) (A)
                 (A) (A) (A) (A) (A) (A) (A) (A) (A) (A) (A) (A)
                 (A) (A) (A) (A) (A) (A) (A) (A) (A) (A) (A) (A)
                 (A) (A) (A) (A) (A) (A) (A) (A) (A) (A) (A) (A)
                 (A) (A) (A) (A) (A) (A) (A) (A) (A) (A) (A) (A)
                 (A) (A) (A) (A) (A) (A) (A) (A) (A) (A) (A) (A)
                 (A) (A) (A) (A) (A) (A) (A) (A) (A) (A) (A) (A)
                 (A) (A) (A) (A) (A) (A) (A) (A) (A) (A) (A) (A)
                 (A) (A) (A) (A) (A) (A) (A) (A) (A) (A) (A) (A)
                 (A) (A) (A) (A) (A) (A) (A) (A) (A) (A) (A) (A)
                 (A) (A) (A) (A) (A) (A) (A) (A) (A) (A) (A) (A)
                 (A) (A) (A) (A) (A) (A) (A) (A) (A) (A) (A) (A)
                 (A) (A) (A) (A) (A) (A) (A) (A) (A) (A) (A) (A)
                 (A) (A) (A) (A) (A) (A) (A) (A) (A) (A) (A) (A)
                 (A) (A) (A) (A) (A) (A) (A) (A) (A) (A) (A) (A)
                 (A) (A) (A) (A) (A) (A) (A) (A) (A) (A) (A) (A)
                 (A) (A) (A) (A) (A) (A) (A) (A) (A) (A) (A) (A)
                 (A) (A) (A) (A) (A) (A) (A) (A) (A) (A) (A) (A)
                 (A) (A) (A) (A) (A) (A) (A) (A) (A) (A) (A) (A)
                 (A) (A) (A) (A) (A) (A) (A) (A) (A) (A) (A) (A)
                 (A) (A) (A) (A) (A) (A) (A)
 The electronic state is 1-A.
 Alpha  occ. eigenvalues --  -14.33709 -14.32536 -14.31110 -14.30348 -10.22626
 Alpha  occ. eigenvalues --  -10.21918 -10.19689 -10.17415 -10.16942  -0.96100
 Alpha  occ. eigenvalues --   -0.89538  -0.86805  -0.78492  -0.76333  -0.67474
 Alpha  occ. eigenvalues --   -0.62828  -0.59589  -0.58013  -0.51415  -0.49335
 Alpha  occ. eigenvalues --   -0.48153  -0.45997  -0.44695  -0.43553  -0.41772
 Alpha  occ. eigenvalues --   -0.40558  -0.39926  -0.38249  -0.37470  -0.36790
 Alpha  occ. eigenvalues --   -0.34466  -0.32912  -0.32170  -0.30661  -0.24340
 Alpha  occ. eigenvalues --   -0.22080  -0.18292
 Alpha virt. eigenvalues --    0.07337   0.09117   0.09799   0.11077   0.12211
 Alpha virt. eigenvalues --    0.13443   0.14872   0.15277   0.15423   0.16504
 Alpha virt. eigenvalues --    0.17383   0.18375   0.19219   0.20035   0.20768
 Alpha virt. eigenvalues --    0.21097   0.21639   0.21999   0.22554   0.23944
 Alpha virt. eigenvalues --    0.25277   0.26055   0.29040   0.31297   0.40648
 Alpha virt. eigenvalues --    0.46794   0.47852   0.49724   0.50365   0.52056
 Alpha virt. eigenvalues --    0.52393   0.53196   0.55226   0.55985   0.57649
 Alpha virt. eigenvalues --    0.58213   0.60462   0.60973   0.61428   0.62877
 Alpha virt. eigenvalues --    0.64456   0.66148   0.67669   0.69868   0.70957
 Alpha virt. eigenvalues --    0.71073   0.72146   0.72793   0.73681   0.73982
 Alpha virt. eigenvalues --    0.75263   0.76239   0.76768   0.78371   0.79099
 Alpha virt. eigenvalues --    0.79905   0.80950   0.81535   0.82034   0.82730
 Alpha virt. eigenvalues --    0.84492   0.85635   0.86496   0.87411   0.87796
 Alpha virt. eigenvalues --    0.89004   0.89610   0.90100   0.91244   0.94176
 Alpha virt. eigenvalues --    0.96169   1.00755   1.05921   1.08493   1.09619
 Alpha virt. eigenvalues --    1.16147   1.18700   1.20294   1.21794   1.22809
 Alpha virt. eigenvalues --    1.23661   1.26535   1.28524   1.32074   1.33192
 Alpha virt. eigenvalues --    1.34670   1.35432   1.38039   1.38872   1.41388
 Alpha virt. eigenvalues --    1.42844   1.48166   1.49426   1.52972   1.54297
 Alpha virt. eigenvalues --    1.55515   1.57423   1.57996   1.59515   1.61517
 Alpha virt. eigenvalues --    1.62820   1.64963   1.70925   1.71013   1.73852
 Alpha virt. eigenvalues --    1.76639   1.77611   1.79532   1.81601   1.82944
 Alpha virt. eigenvalues --    1.84419   1.86227   1.89256   1.92802   1.93568
 Alpha virt. eigenvalues --    1.95550   1.96175   2.01755   2.05223   2.06317
 Alpha virt. eigenvalues --    2.10331   2.16139   2.18822   2.19864   2.20758
 Alpha virt. eigenvalues --    2.22076   2.25235   2.27216   2.29545   2.34276
 Alpha virt. eigenvalues --    2.35559   2.37609   2.38236   2.41435   2.45943
 Alpha virt. eigenvalues --    2.49546   2.50601   2.54090   2.56941   2.59121
 Alpha virt. eigenvalues --    2.64222   2.65610   2.67624   2.70373   2.74581
 Alpha virt. eigenvalues --    2.76162   2.76831   2.78189   2.79773   2.80626
 Alpha virt. eigenvalues --    2.82290   2.84004   2.84459   2.85338   2.86617
 Alpha virt. eigenvalues --    2.88370   2.90429   2.90941   2.91249   2.93779
 Alpha virt. eigenvalues --    2.94863   2.95999   2.96912   2.97393   2.98291
 Alpha virt. eigenvalues --    3.02860   3.05014   3.05859   3.07017   3.09490
 Alpha virt. eigenvalues --    3.13306   3.17730   3.18982   3.20943   3.28481
 Alpha virt. eigenvalues --    3.28958   3.30392   3.31130   3.32323   3.36666
 Alpha virt. eigenvalues --    3.39626   3.41201   3.43911   3.46380   3.48028
 Alpha virt. eigenvalues --    3.50545   3.53004   3.54708   3.57724   3.60555
 Alpha virt. eigenvalues --    3.61961   3.62370   3.63992   3.66224   3.68582
 Alpha virt. eigenvalues --    3.72109   3.73779   3.74797   3.76959   3.81102
 Alpha virt. eigenvalues --    3.82082   3.87823   3.90913   3.94625   3.96516
 Alpha virt. eigenvalues --    4.00434   4.02401   4.05536   4.08204   4.12007
 Alpha virt. eigenvalues --    4.14300   4.16243   4.19218   4.22418   4.25120
 Alpha virt. eigenvalues --    4.28212   4.31978   4.34542   4.36702   4.38760
 Alpha virt. eigenvalues --    4.39582   4.40765   4.41282   4.42310   4.44285
 Alpha virt. eigenvalues --    4.45787   4.46990   4.48952   4.50551   4.51848
 Alpha virt. eigenvalues --    4.52174   4.54908   4.56029   4.57006   4.57964
 Alpha virt. eigenvalues --    4.58537   4.59835   4.61504   4.61867   4.62570
 Alpha virt. eigenvalues --    4.63955   4.66401   4.67763   4.69498   4.71322
 Alpha virt. eigenvalues --    4.71806   4.72869   4.74723   4.75576   4.78235
 Alpha virt. eigenvalues --    4.80974   4.81818   4.83118   4.84939   4.86015
 Alpha virt. eigenvalues --    4.88279   4.91007   4.93845   4.94552   4.95965
 Alpha virt. eigenvalues --    4.96770   4.99762   5.03708   5.06610   5.09970
 Alpha virt. eigenvalues --    5.10616   5.19621   5.20973   5.24352   5.28796
 Alpha virt. eigenvalues --    5.29415   5.29715   5.33235   5.35606   5.39756
 Alpha virt. eigenvalues --    5.45166   5.49436   5.53050   5.54770   5.61699
 Alpha virt. eigenvalues --    5.74047   5.90463   8.61235  10.36097  10.99151
 Alpha virt. eigenvalues --   11.20263  11.33741  11.45209  11.53112  11.61540
 Alpha virt. eigenvalues --   11.86844  12.15905  12.19638  14.37690  17.29720
          Condensed to atoms (all electrons):
               1          2          3          4          5          6
     1  C    4.961779   0.383906  -0.038344   0.002642  -0.000213   0.000001
     2  C    0.383906   4.807442   0.437887  -0.037138   0.002679  -0.000091
     3  C   -0.038344   0.437887   4.785885   0.379170  -0.064169   0.002611
     4  N    0.002642  -0.037138   0.379170   6.424414   0.392285  -0.031694
     5  C   -0.000213   0.002679  -0.064169   0.392285   4.825558   0.395186
     6  N    0.000001  -0.000091   0.002611  -0.031694   0.395186   6.359777
     7  N   -0.000000   0.000001   0.000199  -0.007167  -0.058579   0.259046
     8  C   -0.000000   0.000000  -0.000329   0.002504  -0.067157   0.379185
     9  N    0.000000  -0.000000   0.000000   0.000002   0.002481  -0.046975
    10  H    0.374562  -0.021346   0.003123  -0.000087   0.000001  -0.000000
    11  H    0.379191  -0.029685  -0.004303   0.000086   0.000007   0.000000
    12  H    0.380882  -0.030357  -0.004840   0.000127   0.000006   0.000000
    13  H   -0.035008   0.370685  -0.034568  -0.001823   0.000115   0.000010
    14  H   -0.033194   0.366960  -0.029196   0.004853   0.000262  -0.000000
    15  H   -0.004661  -0.025180   0.357890  -0.022257  -0.003956   0.000267
    16  H    0.002462  -0.045986   0.356108  -0.044924  -0.001182  -0.000150
    17  H   -0.000305   0.000173  -0.045806   0.329963  -0.056892  -0.000466
    18  H   -0.000007   0.000181  -0.004895  -0.015959   0.343756  -0.010839
    19  H    0.000050  -0.000009   0.000022  -0.063452   0.345543  -0.058135
    20  H    0.000001   0.000003  -0.000227   0.007330  -0.007571  -0.040143
    21  H    0.000000  -0.000000   0.000002   0.000338   0.005074  -0.032669
    22  H    0.000000   0.000000   0.000006   0.000232  -0.000372  -0.033813
    23  H    0.000000   0.000000   0.000043  -0.000512  -0.007027  -0.036888
    24  H   -0.000000   0.000000   0.000000  -0.000014  -0.000028   0.009782
    25  H   -0.000000   0.000000  -0.000000   0.000001  -0.000325   0.004279
               7          8          9         10         11         12
     1  C   -0.000000  -0.000000   0.000000   0.374562   0.379191   0.380882
     2  C    0.000001   0.000000  -0.000000  -0.021346  -0.029685  -0.030357
     3  C    0.000199  -0.000329   0.000000   0.003123  -0.004303  -0.004840
     4  N   -0.007167   0.002504   0.000002  -0.000087   0.000086   0.000127
     5  C   -0.058579  -0.067157   0.002481   0.000001   0.000007   0.000006
     6  N    0.259046   0.379185  -0.046975  -0.000000   0.000000   0.000000
     7  N    6.699084  -0.057526  -0.011679  -0.000000  -0.000000  -0.000000
     8  C   -0.057526   4.834996   0.374692   0.000000   0.000000   0.000000
     9  N   -0.011679   0.374692   6.579679  -0.000000   0.000000  -0.000000
    10  H   -0.000000   0.000000  -0.000000   0.603299  -0.031948  -0.031866
    11  H   -0.000000   0.000000   0.000000  -0.031948   0.601389  -0.033586
    12  H   -0.000000   0.000000  -0.000000  -0.031866  -0.033586   0.600660
    13  H   -0.000011   0.000000   0.000000  -0.002647  -0.004548   0.005697
    14  H   -0.000001   0.000000   0.000000  -0.002447   0.005615  -0.004362
    15  H   -0.000004  -0.000014   0.000000  -0.000139  -0.000458   0.004983
    16  H   -0.000003   0.000058   0.000000  -0.000105   0.005329  -0.000407
    17  H    0.012841   0.000174  -0.000006   0.000001   0.000001   0.000019
    18  H    0.003961  -0.003554   0.000002   0.000000   0.000000  -0.000003
    19  H    0.006245  -0.004485  -0.000335   0.000000  -0.000002   0.000001
    20  H    0.323153   0.003610   0.000654   0.000000   0.000000  -0.000000
    21  H    0.325409  -0.012139   0.029063  -0.000000   0.000000   0.000000
    22  H    0.004090   0.381852  -0.040772   0.000000   0.000000   0.000000
    23  H    0.004796   0.335963  -0.036056  -0.000000  -0.000000  -0.000000
    24  H   -0.000246  -0.052223   0.329755  -0.000000  -0.000000  -0.000000
    25  H    0.000319  -0.043881   0.336079   0.000000  -0.000000   0.000000
              13         14         15         16         17         18
     1  C   -0.035008  -0.033194  -0.004661   0.002462  -0.000305  -0.000007
     2  C    0.370685   0.366960  -0.025180  -0.045986   0.000173   0.000181
     3  C   -0.034568  -0.029196   0.357890   0.356108  -0.045806  -0.004895
     4  N   -0.001823   0.004853  -0.022257  -0.044924   0.329963  -0.015959
     5  C    0.000115   0.000262  -0.003956  -0.001182  -0.056892   0.343756
     6  N    0.000010  -0.000000   0.000267  -0.000150  -0.000466  -0.010839
     7  N   -0.000011  -0.000001  -0.000004  -0.000003   0.012841   0.003961
     8  C    0.000000   0.000000  -0.000014   0.000058   0.000174  -0.003554
     9  N    0.000000   0.000000   0.000000   0.000000  -0.000006   0.000002
    10  H   -0.002647  -0.002447  -0.000139  -0.000105   0.000001   0.000000
    11  H   -0.004548   0.005615  -0.000458   0.005329   0.000001   0.000000
    12  H    0.005697  -0.004362   0.004983  -0.000407   0.000019  -0.000003
    13  H    0.648084  -0.041052   0.006054  -0.006562   0.005304   0.000006
    14  H   -0.041052   0.626468  -0.006417   0.006824  -0.000603  -0.000018
    15  H    0.006054  -0.006417   0.637704  -0.054114   0.006709   0.005938
    16  H   -0.006562   0.006824  -0.054114   0.699139  -0.007880  -0.001914
    17  H    0.005304  -0.000603   0.006709  -0.007880   0.545815   0.007577
    18  H    0.000006  -0.000018   0.005938  -0.001914   0.007577   0.627078
    19  H   -0.000015   0.000032  -0.001837   0.015220  -0.005141  -0.057797
    20  H   -0.000004   0.000009  -0.000007   0.000089  -0.004415  -0.000334
    21  H    0.000000  -0.000000   0.000001  -0.000002  -0.000512  -0.000182
    22  H   -0.000000   0.000000  -0.000004   0.000001   0.000005   0.004381
    23  H    0.000000  -0.000000   0.000001   0.000004   0.000083  -0.000739
    24  H    0.000000  -0.000000   0.000000  -0.000000   0.000002  -0.000029
    25  H    0.000000   0.000000   0.000000   0.000000   0.000000  -0.000011
              19         20         21         22         23         24
     1  C    0.000050   0.000001   0.000000   0.000000   0.000000  -0.000000
     2  C   -0.000009   0.000003  -0.000000   0.000000   0.000000   0.000000
     3  C    0.000022  -0.000227   0.000002   0.000006   0.000043   0.000000
     4  N   -0.063452   0.007330   0.000338   0.000232  -0.000512  -0.000014
     5  C    0.345543  -0.007571   0.005074  -0.000372  -0.007027  -0.000028
     6  N   -0.058135  -0.040143  -0.032669  -0.033813  -0.036888   0.009782
     7  N    0.006245   0.323153   0.325409   0.004090   0.004796  -0.000246
     8  C   -0.004485   0.003610  -0.012139   0.381852   0.335963  -0.052223
     9  N   -0.000335   0.000654   0.029063  -0.040772  -0.036056   0.329755
    10  H    0.000000   0.000000  -0.000000   0.000000  -0.000000  -0.000000
    11  H   -0.000002   0.000000   0.000000   0.000000  -0.000000  -0.000000
    12  H    0.000001  -0.000000   0.000000   0.000000  -0.000000  -0.000000
    13  H   -0.000015  -0.000004   0.000000  -0.000000   0.000000   0.000000
    14  H    0.000032   0.000009  -0.000000   0.000000  -0.000000  -0.000000
    15  H   -0.001837  -0.000007   0.000001  -0.000004   0.000001   0.000000
    16  H    0.015220   0.000089  -0.000002   0.000001   0.000004  -0.000000
    17  H   -0.005141  -0.004415  -0.000512   0.000005   0.000083   0.000002
    18  H   -0.057797  -0.000334  -0.000182   0.004381  -0.000739  -0.000029
    19  H    0.745240  -0.000122  -0.000220  -0.001065   0.016845   0.000084
    20  H   -0.000122   0.506485  -0.028819  -0.000236  -0.000374  -0.000133
    21  H   -0.000220  -0.028819   0.462590   0.000716  -0.001093  -0.001313
    22  H   -0.001065  -0.000236   0.000716   0.661717  -0.056119  -0.007453
    23  H    0.016845  -0.000374  -0.001093  -0.056119   0.681108   0.008436
    24  H    0.000084  -0.000133  -0.001313  -0.007453   0.008436   0.510204
    25  H    0.000030   0.000005  -0.000760  -0.004326   0.000782  -0.026987
              25
     1  C   -0.000000
     2  C    0.000000
     3  C   -0.000000
     4  N    0.000001
     5  C   -0.000325
     6  N    0.004279
     7  N    0.000319
     8  C   -0.043881
     9  N    0.336079
    10  H    0.000000
    11  H   -0.000000
    12  H    0.000000
    13  H    0.000000
    14  H    0.000000
    15  H    0.000000
    16  H    0.000000
    17  H    0.000000
    18  H   -0.000011
    19  H    0.000030
    20  H    0.000005
    21  H   -0.000760
    22  H   -0.004326
    23  H    0.000782
    24  H   -0.026987
    25  H    0.507033
 Mulliken charges:
               1
     1  C   -0.373742
     2  C   -0.180123
     3  C   -0.096270
     4  N   -0.318919
     5  C   -0.045482
     6  N   -0.118280
     7  N   -0.503927
     8  C   -0.071726
     9  N   -0.516585
    10  H    0.109600
    11  H    0.112911
    12  H    0.113046
    13  H    0.090283
    14  H    0.106268
    15  H    0.099501
    16  H    0.077994
    17  H    0.213359
    18  H    0.103400
    19  H    0.063303
    20  H    0.241045
    21  H    0.254515
    22  H    0.091160
    23  H    0.090746
    24  H    0.230164
    25  H    0.227761
 Sum of Mulliken charges =  -0.00000
 Mulliken charges with hydrogens summed into heavy atoms:
               1
     1  C   -0.038185
     2  C    0.016427
     3  C    0.081226
     4  N   -0.105560
     5  C    0.121220
     6  N   -0.118280
     7  N   -0.008367
     8  C    0.110180
     9  N   -0.058660
 Electronic spatial extent (au):  <R**2>=           2369.1139
 Charge=             -0.0000 electrons
 Dipole moment (field-independent basis, Debye):
    X=              0.4498    Y=             -0.9234    Z=             -0.2623  Tot=              1.0601
 Quadrupole moment (field-independent basis, Debye-Ang):
   XX=            -51.6383   YY=            -53.4077   ZZ=            -60.7311
   XY=             -4.8112   XZ=             -3.6628   YZ=             -0.5484
 Traceless Quadrupole moment (field-independent basis, Debye-Ang):
   XX=              3.6207   YY=              1.8514   ZZ=             -5.4721
   XY=             -4.8112   XZ=             -3.6628   YZ=             -0.5484
 Octapole moment (field-independent basis, Debye-Ang**2):
  XXX=             50.5916  YYY=             11.2258  ZZZ=             -3.5578  XYY=             10.5360
  XXY=            -17.2968  XXZ=            -15.0151  XZZ=              5.6512  YZZ=             -2.0133
  YYZ=             -4.0389  XYZ=             -4.3816
 Hexadecapole moment (field-independent basis, Debye-Ang**3):
 XXXX=          -2620.0590 YYYY=           -234.1637 ZZZZ=           -120.6029 XXXY=           -108.9387
 XXXZ=            -39.6906 YYYX=             12.6849 YYYZ=              1.8393 ZZZX=            -14.1106
 ZZZY=             -2.1558 XXYY=           -481.9228 XXZZ=           -465.4423 YYZZ=            -67.6220
 XXYZ=             -4.1947 YYXZ=             -3.3323 ZZXY=             -3.2966
 N-N= 4.818040347473D+02 E-N=-1.938064295185D+03  KE= 4.158534092413D+02
 PrsmSu:  requested number of processors reduced to:  13 ShMem   1 Linda.
 Calling FoFJK, ICntrl=      2127 FMM=F ISym2X=0 I1Cent= 0 IOpClX= 0 NMat=1 NMatS=1 NMatT=0.
 ***** Axes restored to original set *****
 -------------------------------------------------------------------
 Center     Atomic                   Forces (Hartrees/Bohr)
 Number     Number              X              Y              Z
 -------------------------------------------------------------------
      1        6          -0.003570203    0.004131929   -0.001144833
      2        6          -0.004546441   -0.003491498   -0.000804470
      3        6           0.009161043    0.014632441   -0.003779964
      4        7           0.001492024   -0.013176560   -0.001034487
      5        6           0.013866493    0.015431774   -0.004924185
      6        7           0.001195355   -0.010367949   -0.007697277
      7        7          -0.003193086   -0.000481603    0.011750172
      8        6           0.006443051    0.007506870   -0.006616838
      9        7           0.005516216    0.000292196    0.005183382
     10        1          -0.002472267   -0.000405708    0.000239318
     11        1          -0.001750025   -0.000129716   -0.000228528
     12        1          -0.001352342    0.000125507    0.000067249
     13        1           0.002236836   -0.000368393    0.000331447
     14        1           0.002920546   -0.000854053    0.002012528
     15        1           0.002110445   -0.001454901    0.000439816
     16        1          -0.007004287   -0.002294664    0.003867395
     17        1          -0.005748797    0.001698580   -0.000564432
     18        1           0.003610499    0.000088410   -0.000353425
     19        1          -0.002561938   -0.002109680    0.009021830
     20        1           0.000856924   -0.009826090   -0.005279813
     21        1          -0.008971000   -0.006693489   -0.001103358
     22        1          -0.013137937    0.004079272   -0.003866418
     23        1           0.001534036    0.000712647    0.006304469
     24        1           0.001784895   -0.001174802   -0.001463739
     25        1           0.001579961    0.004129482   -0.000355839
 -------------------------------------------------------------------
 Cartesian Forces:  Max     0.015431774 RMS     0.005533939

 GradGradGradGradGradGradGradGradGradGradGradGradGradGradGradGradGradGrad
 Berny optimization.
 FormGI is forming the generalized inverse of G from B-inverse, IUseBI=4.
 Internal  Forces:  Max     0.015891502 RMS     0.004708685
 Search for a local minimum.
 Step number   1 out of a maximum of  128
 All quantities printed in internal units (Hartrees-Bohrs-Radians)
 Mixed Optimization -- RFO/linear search
 Second derivative matrix not updated -- first step.
 ITU=  0
     Eigenvalues ---    0.00246   0.00400   0.00490   0.00756   0.00786
     Eigenvalues ---    0.00881   0.00899   0.00932   0.03309   0.03381
     Eigenvalues ---    0.03807   0.04490   0.04943   0.04946   0.05460
     Eigenvalues ---    0.05546   0.05592   0.05637   0.05678   0.05976
     Eigenvalues ---    0.06709   0.06720   0.08024   0.09022   0.09419
     Eigenvalues ---    0.09476   0.10462   0.11956   0.12588   0.12902
     Eigenvalues ---    0.12955   0.16000   0.16000   0.16000   0.16000
     Eigenvalues ---    0.16000   0.16000   0.16000   0.16144   0.17728
     Eigenvalues ---    0.21884   0.21942   0.21943   0.21972   0.23642
     Eigenvalues ---    0.29642   0.30282   0.33865   0.34033   0.34037
     Eigenvalues ---    0.34041   0.34059   0.34092   0.34099   0.34144
     Eigenvalues ---    0.34255   0.34257   0.34366   0.34652   0.35653
     Eigenvalues ---    0.35927   0.36799   0.36973   0.37287   0.43128
     Eigenvalues ---    0.43967   0.44444   0.44948   0.45097
 RFO step:  Lambda=-1.72882666D-02 EMin= 2.46063378D-03
 Linear search not attempted -- first point.
 Iteration  1 RMS(Cart)=  0.09067758 RMS(Int)=  0.00526705
 Iteration  2 RMS(Cart)=  0.00680886 RMS(Int)=  0.00098278
 Iteration  3 RMS(Cart)=  0.00006211 RMS(Int)=  0.00098129
 Iteration  4 RMS(Cart)=  0.00000029 RMS(Int)=  0.00098129
 Variable       Old X    -DE/DX   Delta X   Delta X   Delta X     New X
                                 (Linear)    (Quad)   (Total)
    R1        2.87405   0.00920   0.00000   0.02875   0.02875   2.90280
    R2        2.06717   0.00039   0.00000   0.00107   0.00107   2.06824
    R3        2.06902   0.00041   0.00000   0.00115   0.00115   2.07017
    R4        2.06899   0.00036   0.00000   0.00100   0.00100   2.06999
    R5        2.88684   0.00185   0.00000   0.00589   0.00589   2.89272
    R6        2.07267   0.00059   0.00000   0.00165   0.00165   2.07432
    R7        2.07260  -0.00091   0.00000  -0.00255  -0.00255   2.07006
    R8        2.75888   0.00439   0.00000   0.01133   0.01133   2.77021
    R9        2.07163   0.00027   0.00000   0.00075   0.00075   2.07238
   R10        2.07274   0.00598   0.00000   0.01671   0.01671   2.08945
   R11        2.76150   0.00195   0.00000   0.00505   0.00505   2.76656
   R12        1.92036  -0.00087   0.00000  -0.00186  -0.00186   1.91851
   R13        2.77928  -0.00657   0.00000  -0.01758  -0.01758   2.76171
   R14        2.07175  -0.00106   0.00000  -0.00295  -0.00295   2.06880
   R15        2.07559   0.00932   0.00000   0.02619   0.02619   2.10177
   R16        2.79544  -0.01549   0.00000  -0.04259  -0.04259   2.75285
   R17        2.77496  -0.01154   0.00000  -0.03064  -0.03064   2.74431
   R18        1.93194  -0.00432   0.00000  -0.00945  -0.00945   1.92249
   R19        1.94212  -0.00837   0.00000  -0.01865  -0.01865   1.92347
   R20        2.75415   0.00889   0.00000   0.02279   0.02279   2.77694
   R21        2.07231   0.00234   0.00000   0.00655   0.00655   2.07886
   R22        2.07089   0.00546   0.00000   0.01522   0.01522   2.08611
   R23        1.91863   0.00195   0.00000   0.00417   0.00417   1.92281
   R24        1.92627  -0.00308   0.00000  -0.00667  -0.00667   1.91960
    A1        1.92822   0.00299   0.00000   0.01782   0.01774   1.94595
    A2        1.93456   0.00160   0.00000   0.00887   0.00881   1.94337
    A3        1.93445   0.00086   0.00000   0.00406   0.00403   1.93849
    A4        1.88836  -0.00215   0.00000  -0.01060  -0.01071   1.87765
    A5        1.88826  -0.00196   0.00000  -0.01080  -0.01085   1.87741
    A6        1.88846  -0.00158   0.00000  -0.01071  -0.01071   1.87775
    A7        1.92985   0.00774   0.00000   0.03699   0.03700   1.96684
    A8        1.90557  -0.00132   0.00000   0.00336   0.00362   1.90919
    A9        1.90610   0.00002   0.00000   0.01520   0.01548   1.92157
   A10        1.92542  -0.00326   0.00000  -0.02110  -0.02150   1.90392
   A11        1.92384  -0.00420   0.00000  -0.02589  -0.02650   1.89734
   A12        1.87202   0.00083   0.00000  -0.00952  -0.01008   1.86194
   A13        1.92200   0.00570   0.00000   0.02936   0.02891   1.95091
   A14        1.90713   0.00026   0.00000  -0.00330  -0.00310   1.90403
   A15        1.90733  -0.00307   0.00000  -0.00596  -0.00705   1.90028
   A16        1.91734  -0.00495   0.00000  -0.03883  -0.03851   1.87882
   A17        1.92408   0.00251   0.00000   0.03783   0.03747   1.96155
   A18        1.88550  -0.00059   0.00000  -0.02023  -0.01998   1.86552
   A19        1.92451   0.00927   0.00000   0.03718   0.03722   1.96172
   A20        1.90719  -0.00574   0.00000  -0.03592  -0.03626   1.87092
   A21        1.84898   0.00051   0.00000   0.01694   0.01740   1.86638
   A22        1.90407   0.01297   0.00000   0.05852   0.05801   1.96208
   A23        1.90198  -0.00264   0.00000  -0.01547  -0.01446   1.88752
   A24        1.92747  -0.00169   0.00000   0.01585   0.01479   1.94226
   A25        1.90530  -0.00785   0.00000  -0.05797  -0.05770   1.84761
   A26        1.93239  -0.00264   0.00000   0.00237   0.00073   1.93311
   A27        1.89225   0.00160   0.00000  -0.00525  -0.00558   1.88667
   A28        1.91991  -0.00338   0.00000  -0.03539  -0.03575   1.88417
   A29        1.90083   0.00686   0.00000   0.01741   0.01574   1.91657
   A30        1.90571  -0.00661   0.00000  -0.05337  -0.05361   1.85210
   A31        1.89300  -0.01589   0.00000  -0.10125  -0.10311   1.78990
   A32        1.85954  -0.01113   0.00000  -0.07503  -0.07692   1.78262
   A33        1.81957   0.00557   0.00000   0.00200  -0.00470   1.81487
   A34        1.89238   0.00061   0.00000   0.00303   0.00318   1.89556
   A35        1.92095  -0.00980   0.00000  -0.06914  -0.06952   1.85143
   A36        1.95459   0.00188   0.00000  -0.00075  -0.00111   1.95348
   A37        1.89404   0.01113   0.00000   0.09161   0.09200   1.98604
   A38        1.91368  -0.00394   0.00000  -0.02403  -0.02410   1.88958
   A39        1.88739   0.00046   0.00000   0.00261   0.00162   1.88901
   A40        1.86602   0.00173   0.00000   0.01288   0.01269   1.87870
   A41        1.89010   0.00463   0.00000   0.02917   0.02899   1.91909
   A42        1.86355  -0.00164   0.00000  -0.00200  -0.00241   1.86115
    D1       -3.13774   0.00016   0.00000  -0.00058  -0.00065  -3.13838
    D2        1.02400   0.00014   0.00000  -0.00014  -0.00024   1.02376
    D3       -1.01790  -0.00012   0.00000   0.00075   0.00095  -1.01695
    D4        1.05240  -0.00015   0.00000  -0.00473  -0.00484   1.04756
    D5       -1.06905  -0.00017   0.00000  -0.00430  -0.00443  -1.07348
    D6       -3.11095  -0.00043   0.00000  -0.00341  -0.00324  -3.11420
    D7       -1.04488   0.00022   0.00000   0.00019   0.00012  -1.04476
    D8        3.11685   0.00019   0.00000   0.00062   0.00053   3.11738
    D9        1.07495  -0.00006   0.00000   0.00152   0.00172   1.07667
   D10        3.13285  -0.00200   0.00000  -0.02596  -0.02599   3.10686
   D11        1.02536   0.00038   0.00000   0.00574   0.00572   1.03108
   D12       -1.03438   0.00273   0.00000   0.03559   0.03548  -0.99890
   D13       -1.04064  -0.00072   0.00000  -0.01139  -0.01165  -1.05230
   D14        3.13505   0.00166   0.00000   0.02031   0.02006  -3.12807
   D15        1.07531   0.00401   0.00000   0.05016   0.04982   1.12513
   D16        1.02354  -0.00432   0.00000  -0.05216  -0.05180   0.97174
   D17       -1.08395  -0.00193   0.00000  -0.02045  -0.02009  -1.10404
   D18        3.13949   0.00042   0.00000   0.00939   0.00968  -3.13402
   D19        3.11726   0.00122   0.00000   0.01482   0.01511   3.13236
   D20        1.09172  -0.00133   0.00000  -0.00593  -0.00517   1.08654
   D21       -1.06458   0.00200   0.00000   0.00461   0.00442  -1.06016
   D22       -3.09012  -0.00055   0.00000  -0.01614  -0.01586  -3.10598
   D23        1.01134  -0.00025   0.00000  -0.02110  -0.02189   0.98945
   D24       -1.01419  -0.00281   0.00000  -0.04185  -0.04217  -1.05637
   D25       -3.12245  -0.00272   0.00000  -0.06527  -0.06594   3.09479
   D26        1.08195   0.00073   0.00000  -0.02035  -0.02061   1.06134
   D27       -0.99482   0.00140   0.00000  -0.01388  -0.01359  -1.00841
   D28       -1.06080  -0.00441   0.00000  -0.07883  -0.07908  -1.13987
   D29       -3.13958  -0.00097   0.00000  -0.03391  -0.03375   3.10986
   D30        1.06683  -0.00029   0.00000  -0.02745  -0.02672   1.04011
   D31        1.06547   0.00450   0.00000   0.06000   0.06070   1.12617
   D32       -3.12971  -0.00141   0.00000  -0.01582  -0.01542   3.13805
   D33       -3.14100   0.00432   0.00000   0.04163   0.04120  -3.09980
   D34       -1.05300  -0.00159   0.00000  -0.03419  -0.03492  -1.08792
   D35       -1.05918  -0.00025   0.00000   0.00018   0.00036  -1.05882
   D36        1.02882  -0.00616   0.00000  -0.07564  -0.07576   0.95306
   D37       -1.31918  -0.00526   0.00000  -0.22571  -0.22170  -1.54088
   D38        3.01425   0.00085   0.00000  -0.14634  -0.14861   2.86564
   D39        2.87897  -0.00755   0.00000  -0.19280  -0.19053   2.68844
   D40        0.92922  -0.00143   0.00000  -0.11343  -0.11745   0.81178
   D41        3.13153   0.00414   0.00000  -0.00003  -0.00019   3.13134
   D42        1.06223  -0.00403   0.00000  -0.07284  -0.07217   0.99006
   D43       -1.03786   0.00082   0.00000  -0.02852  -0.02880  -1.06666
   D44       -1.05486   0.00020   0.00000  -0.06452  -0.06483  -1.11969
   D45       -3.12416  -0.00797   0.00000  -0.13733  -0.13681   3.02222
   D46        1.05893  -0.00312   0.00000  -0.09301  -0.09343   0.96550
   D47       -1.05794   0.00154   0.00000  -0.01727  -0.01725  -1.07519
   D48       -3.06025   0.00031   0.00000  -0.03565  -0.03586  -3.09612
   D49        1.02832  -0.00350   0.00000  -0.04605  -0.04589   0.98242
   D50       -0.97400  -0.00473   0.00000  -0.06443  -0.06450  -1.03850
   D51        3.08639   0.00129   0.00000  -0.00329  -0.00312   3.08327
   D52        1.08408   0.00007   0.00000  -0.02168  -0.02173   1.06235
         Item               Value     Threshold  Converged?
 Maximum Force            0.015892     0.000450     NO 
 RMS     Force            0.004709     0.000300     NO 
 Maximum Displacement     0.399767     0.001800     NO 
 RMS     Displacement     0.091840     0.001200     NO 
 Predicted change in Energy=-1.085127D-02
 GradGradGradGradGradGradGradGradGradGradGradGradGradGradGradGradGradGrad

                          Input orientation:                          
 ---------------------------------------------------------------------
 Center     Atomic      Atomic             Coordinates (Angstroms)
 Number     Number       Type             X           Y           Z
 ---------------------------------------------------------------------
      1          6           0        0.882769    0.092093   -0.083442
      2          6           0        2.417145    0.095692   -0.010872
      3          6           0        2.975331   -1.111614    0.746804
      4          7           0        4.441165   -1.112915    0.763706
      5          6           0        4.989594   -2.255876    1.495935
      6          7           0        6.450138   -2.291987    1.460008
      7          7           0        6.945848   -1.116824    2.163834
      8          6           0        6.932543   -3.441428    2.205017
      9          7           0        8.400479   -3.459956    2.139926
     10          1           0        0.505165    0.961007   -0.631400
     11          1           0        0.436197    0.111934    0.916696
     12          1           0        0.514757   -0.805303   -0.592493
     13          1           0        2.756523    1.016421    0.481048
     14          1           0        2.841722    0.103809   -1.020638
     15          1           0        2.647768   -2.031340    0.247340
     16          1           0        2.542422   -1.126928    1.764108
     17          1           0        4.736382   -0.276278    1.257244
     18          1           0        4.655336   -3.171871    0.998208
     19          1           0        4.620390   -2.278163    2.544841
     20          1           0        6.984928   -0.417376    1.426120
     21          1           0        7.921199   -1.359355    2.324761
     22          1           0        6.456919   -4.321995    1.748318
     23          1           0        6.633818   -3.399330    3.266918
     24          1           0        8.664609   -3.555166    1.161924
     25          1           0        8.758422   -4.281021    2.619089
 ---------------------------------------------------------------------
                    Distance matrix (angstroms):
                    1          2          3          4          5
     1  C    0.000000
     2  C    1.536095   0.000000
     3  C    2.552848   1.530762   0.000000
     4  N    3.851219   2.481403   1.465931   0.000000
     5  C    4.987324   3.797082   2.434705   1.463999   0.000000
     6  N    6.249934   4.912182   3.738479   2.431259   1.461432
     7  N    6.578195   5.168045   4.215804   2.869462   2.360181
     8  C    7.370386   6.149001   4.818085   3.702204   2.383985
     9  N    8.606764   7.284837   6.073527   4.804035   3.674054
    10  H    1.094466   2.188491   3.506698   4.662571   5.914727
    11  H    1.095489   2.187419   2.823675   4.190875   5.164830
    12  H    1.095393   2.183840   2.818150   4.165403   5.146830
    13  H    2.164251   1.097681   2.155699   2.729833   4.089564
    14  H    2.171629   1.095427   2.149175   2.687474   4.063817
    15  H    2.780936   2.155024   1.096657   2.080002   2.663373
    16  H    2.766568   2.158946   1.105691   2.146212   2.708337
    17  H    4.096763   2.669333   2.014854   1.015232   2.009950
    18  H    5.104477   4.087140   2.670258   2.083305   1.094764
    19  H    5.147406   4.125669   2.701849   2.135969   1.112210
    20  H    6.306717   4.815893   4.125567   2.719062   2.714095
    21  H    7.579290   6.153613   5.197396   3.822075   3.175690
    22  H    7.342388   6.239430   4.840561   3.915472   2.546682
    23  H    7.515950   6.382744   4.996913   4.037510   2.673451
    24  H    8.683919   7.330417   6.205735   4.894961   3.912218
    25  H    9.404983   8.141505   6.855270   5.667279   4.423432
                    6          7          8          9         10
     6  N    0.000000
     7  N    1.456746   0.000000
     8  C    1.452229   2.325007   0.000000
     9  N    2.372819   2.758042   1.469495   0.000000
    10  H    7.092155   7.322097   8.290832   9.463676   0.000000
    11  H    6.499347   6.740976   7.515895   8.813880   1.766998
    12  H    6.453816   7.003807   7.480855   8.757734   1.766765
    13  H    5.054377   4.993290   6.346939   7.392163   2.511817
    14  H    4.991403   5.336165   6.301458   7.320476   2.519086
    15  H    3.999565   4.794036   4.917331   6.222259   3.783791
    16  H    4.089020   4.421543   4.982417   6.316731   3.774699
    17  H    2.653518   2.531830   3.967313   4.933614   4.795941
    18  H    2.051528   3.290645   2.591278   3.925890   6.079492
    19  H    2.127213   2.627095   2.610502   3.981164   6.125015
    20  H    1.949696   1.017338   3.123190   3.430831   6.936905
    21  H    1.944639   1.017855   2.307988   2.162499   8.313875
    22  H    2.050391   3.268766   1.100087   2.161919   8.306416
    23  H    2.127174   2.554211   1.103921   2.096397   8.471706
    24  H    2.566779   3.146979   2.025100   1.017505   9.496755
    25  H    3.260046   3.674892   2.051879   1.015809  10.303436
                   11         12         13         14         15
    11  H    0.000000
    12  H    1.767809   0.000000
    13  H    2.528200   3.081669   0.000000
    14  H    3.088670   2.534671   1.759312   0.000000
    15  H    3.151620   2.599658   3.058642   2.490832   0.000000
    16  H    2.586324   3.125450   2.507195   3.059265   1.769080
    17  H    4.331082   4.639344   2.488653   2.987130   2.909030
    18  H    5.347070   5.027461   4.627606   4.253823   2.427951
    19  H    5.086344   5.372932   4.311325   4.642207   3.038202
    20  H    6.589807   6.788843   4.563808   4.839877   4.775495
    21  H    7.757099   7.979519   5.976409   6.255687   5.707566
    22  H    7.523325   7.290803   6.617975   6.350158   4.691447
    23  H    7.500868   7.685501   6.503334   6.710820   5.184384
    24  H    9.011910   8.778371   7.501232   7.215101   6.273825
    25  H    9.563244   9.505413   8.285947   8.214724   6.930105
                   16         17         18         19         20
    16  H    0.000000
    17  H    2.407068   0.000000
    18  H    3.038552   2.908286   0.000000
    19  H    2.500567   2.383045   1.786619   0.000000
    20  H    4.511492   2.259289   3.632815   3.210157   0.000000
    21  H    5.412910   3.529264   3.963687   3.433363   1.603584
    22  H    5.052919   4.423712   2.265205   2.860863   3.953310
    23  H    4.915462   4.170433   3.018803   2.415016   3.521913
    24  H    6.613632   5.117730   4.030879   4.460819   3.568873
    25  H    7.022674   5.836900   4.548932   4.597855   4.415452
                   21         22         23         24         25
    21  H    0.000000
    22  H    3.354644   0.000000
    23  H    2.589693   1.785707   0.000000
    24  H    2.593537   2.409518   2.929061   0.000000
    25  H    3.053475   2.461064   2.389771   1.630642   0.000000
 Stoichiometry    C5H16N4
 Framework group  C1[X(C5H16N4)]
 Deg. of freedom    69
 Full point group                 C1      NOp   1
 Largest Abelian subgroup         C1      NOp   1
 Largest concise Abelian subgroup C1      NOp   1
                         Standard orientation:                         
 ---------------------------------------------------------------------
 Center     Atomic      Atomic             Coordinates (Angstroms)
 Number     Number       Type             X           Y           Z
 ---------------------------------------------------------------------
      1          6           0       -4.576748   -0.236202    0.051244
      2          6           0       -3.240725    0.442756   -0.285873
      3          6           0       -2.030173   -0.395750    0.132107
      4          7           0       -0.767339    0.248652   -0.240653
      5          6           0        0.400258   -0.536367    0.164016
      6          7           0        1.657577    0.074483   -0.262358
      7          7           0        1.796603    1.347455    0.432135
      8          6           0        2.775046   -0.745440    0.171182
      9          7           0        4.022688   -0.115532   -0.282715
     10          1           0       -5.428084    0.377910   -0.258512
     11          1           0       -4.672436   -0.415635    1.127693
     12          1           0       -4.665481   -1.203667   -0.454743
     13          1           0       -3.191430    1.418567    0.214391
     14          1           0       -3.178508    0.637608   -1.362033
     15          1           0       -2.071987   -1.365454   -0.378367
     16          1           0       -2.094281   -0.600738    1.216737
     17          1           0       -0.720077    1.129517    0.261878
     18          1           0        0.351647   -1.505671   -0.342535
     19          1           0        0.403067   -0.719577    1.261029
     20          1           0        1.317842    1.993045   -0.191546
     21          1           0        2.782773    1.559184    0.295508
     22          1           0        2.602411   -1.745221   -0.254055
     23          1           0        2.815071   -0.839813    1.270333
     24          1           0        4.000132   -0.084128   -1.299485
     25          1           0        4.816695   -0.695306   -0.027211
 ---------------------------------------------------------------------
 Rotational constants (GHZ):           6.2677044           0.4932302           0.4724428
 Standard basis: 6-31G(2df,p) (6D, 7F)
 There are   359 symmetry adapted cartesian basis functions of A   symmetry.
 There are   332 symmetry adapted basis functions of A   symmetry.
   332 basis functions,   508 primitive gaussians,   359 cartesian basis functions
    37 alpha electrons       37 beta electrons
       nuclear repulsion energy       480.7108521166 Hartrees.
 NAtoms=   25 NActive=   25 NUniq=   25 SFac= 1.00D+00 NAtFMM=   60 NAOKFM=F Big=F
 Integral buffers will be    131072 words long.
 Raffenetti 2 integral format.
 Two-electron integral symmetry is turned on.
 One-electron integrals computed using PRISM.
 PrsmSu:  requested number of processors reduced to:  13 ShMem   1 Linda.
 NBasis=   332 RedAO= T EigKep=  2.71D-04  NBF=   332
 NBsUse=   332 1.00D-06 EigRej= -1.00D+00 NBFU=   332
 Initial guess from the checkpoint file:  "CCCNCNpNpCN.chk"
 B after Tr=     0.000000    0.000000   -0.000000
         Rot=    0.999997    0.001149   -0.000175    0.002176 Ang=   0.28 deg.
 ExpMin= 1.61D-01 ExpMax= 4.17D+03 ExpMxC= 6.27D+02 IAcc=2 IRadAn=         4 AccDes= 0.00D+00
 Harris functional with IExCor=  402 and IRadAn=       4 diagonalized for initial guess.
 HarFok:  IExCor=  402 AccDes= 0.00D+00 IRadAn=         4 IDoV= 1 UseB2=F ITyADJ=14
 ICtDFT=  3500011 ScaDFX=  1.000000  1.000000  1.000000  1.000000
 FoFCou: FMM=F IPFlag=           0 FMFlag=      100000 FMFlg1=           0
         NFxFlg=           0 DoJE=T BraDBF=F KetDBF=T FulRan=T
         wScrn=  0.000000 ICntrl=       500 IOpCl=  0 I1Cent=   200000004 NGrid=           0
         NMat0=    1 NMatS0=      1 NMatT0=    0 NMatD0=    1 NMtDS0=    0 NMtDT0=    0
 Petite list used in FoFCou.
 Requested convergence on RMS density matrix=1.00D-08 within 128 cycles.
 Requested convergence on MAX density matrix=1.00D-06.
 Requested convergence on             energy=1.00D-06.
 No special actions if energy rises.
 Integral accuracy reduced to 1.0D-05 until final iterations.
 Initial convergence to 1.0D-05 achieved.  Increase integral accuracy.
 SCF Done:  E(RB3LYP) =  -419.147104359     A.U. after   11 cycles
            NFock= 11  Conv=0.39D-08     -V/T= 2.0079
 PrsmSu:  requested number of processors reduced to:  13 ShMem   1 Linda.
 Calling FoFJK, ICntrl=      2127 FMM=F ISym2X=0 I1Cent= 0 IOpClX= 0 NMat=1 NMatS=1 NMatT=0.
 ***** Axes restored to original set *****
 -------------------------------------------------------------------
 Center     Atomic                   Forces (Hartrees/Bohr)
 Number     Number              X              Y              Z
 -------------------------------------------------------------------
      1        6           0.002186911   -0.000244254    0.000484448
      2        6          -0.001438596   -0.000723798   -0.000153034
      3        6           0.002031097   -0.000011519   -0.001139492
      4        7           0.003319171   -0.002136669    0.002084401
      5        6          -0.002322655   -0.000982540   -0.002054392
      6        7          -0.003950189   -0.002279778    0.000959153
      7        7          -0.002838788    0.008718695   -0.002341449
      8        6           0.000970235   -0.005587225   -0.004895543
      9        7          -0.004500442   -0.001369886   -0.002641909
     10        1           0.000686972   -0.000023268    0.000092645
     11        1           0.000006334   -0.000142408    0.000117914
     12        1          -0.000098339   -0.000183304   -0.000010785
     13        1           0.000400065    0.000560123   -0.000184160
     14        1           0.000494073    0.000275991    0.000048352
     15        1          -0.000850004   -0.001115781    0.000264711
     16        1          -0.000710687   -0.001475975    0.000550260
     17        1           0.001014292    0.001747847    0.000545152
     18        1          -0.002727507   -0.000705368   -0.000308896
     19        1           0.000875463   -0.000009694    0.000868379
     20        1           0.002586160    0.004123422    0.000393068
     21        1           0.003368795    0.001376425    0.003309706
     22        1          -0.000228443   -0.001207136    0.001017487
     23        1           0.001606902    0.000104800    0.001193869
     24        1           0.000457137   -0.000301490    0.000151280
     25        1          -0.000337958    0.001592790    0.001648837
 -------------------------------------------------------------------
 Cartesian Forces:  Max     0.008718695 RMS     0.002068119

 GradGradGradGradGradGradGradGradGradGradGradGradGradGradGradGradGradGrad
 Berny optimization.
 Using GEDIIS/GDIIS optimizer.
 FormGI is forming the generalized inverse of G from B-inverse, IUseBI=4.
 Internal  Forces:  Max     0.013189206 RMS     0.002315680
 Search for a local minimum.
 Step number   2 out of a maximum of  128
 All quantities printed in internal units (Hartrees-Bohrs-Radians)
 Mixed Optimization -- RFO/linear search
 Update second derivatives using D2CorX and points    1    2
 DE= -7.59D-03 DEPred=-1.09D-02 R= 7.00D-01
 TightC=F SS=  1.41D+00  RLast= 5.14D-01 DXNew= 5.0454D-01 1.5421D+00
 Trust test= 7.00D-01 RLast= 5.14D-01 DXMaxT set to 5.05D-01
 ITU=  1  0
 Use linear search instead of GDIIS.
     Eigenvalues ---    0.00273   0.00400   0.00490   0.00755   0.00784
     Eigenvalues ---    0.00881   0.00899   0.00927   0.03169   0.03596
     Eigenvalues ---    0.03964   0.04282   0.04679   0.04888   0.05143
     Eigenvalues ---    0.05479   0.05530   0.05569   0.05574   0.06683
     Eigenvalues ---    0.06698   0.07127   0.08343   0.09288   0.09498
     Eigenvalues ---    0.10000   0.10766   0.12213   0.12600   0.12820
     Eigenvalues ---    0.13344   0.15583   0.15988   0.16000   0.16000
     Eigenvalues ---    0.16000   0.16000   0.16000   0.16530   0.18033
     Eigenvalues ---    0.21799   0.21919   0.21948   0.23287   0.24451
     Eigenvalues ---    0.29661   0.30341   0.33379   0.33975   0.34038
     Eigenvalues ---    0.34041   0.34055   0.34096   0.34100   0.34119
     Eigenvalues ---    0.34255   0.34256   0.34366   0.35401   0.35645
     Eigenvalues ---    0.36261   0.36906   0.37124   0.40163   0.43511
     Eigenvalues ---    0.44372   0.44442   0.45081   0.45211
 RFO step:  Lambda=-4.27249716D-03 EMin= 2.72889607D-03
 Quartic linear search produced a step of -0.12205.
 Iteration  1 RMS(Cart)=  0.07574406 RMS(Int)=  0.00831996
 Iteration  2 RMS(Cart)=  0.01032624 RMS(Int)=  0.00021222
 Iteration  3 RMS(Cart)=  0.00022060 RMS(Int)=  0.00004712
 Iteration  4 RMS(Cart)=  0.00000010 RMS(Int)=  0.00004712
 Variable       Old X    -DE/DX   Delta X   Delta X   Delta X     New X
                                 (Linear)    (Quad)   (Total)
    R1        2.90280  -0.00281  -0.00351  -0.00393  -0.00744   2.89536
    R2        2.06824  -0.00030  -0.00013  -0.00059  -0.00072   2.06752
    R3        2.07017   0.00010  -0.00014   0.00039   0.00025   2.07042
    R4        2.06999   0.00019  -0.00012   0.00058   0.00046   2.07045
    R5        2.89272  -0.00139  -0.00072  -0.00309  -0.00381   2.88891
    R6        2.07432   0.00051  -0.00020   0.00144   0.00123   2.07555
    R7        2.07006   0.00015   0.00031   0.00004   0.00035   2.07041
    R8        2.77021  -0.00271  -0.00138  -0.00459  -0.00597   2.76424
    R9        2.07238   0.00107  -0.00009   0.00266   0.00257   2.07495
   R10        2.08945   0.00080  -0.00204   0.00404   0.00200   2.09145
   R11        2.76656  -0.00670  -0.00062  -0.01429  -0.01491   2.75165
   R12        1.91851   0.00200   0.00023   0.00343   0.00365   1.92216
   R13        2.76171  -0.00296   0.00215  -0.00901  -0.00687   2.75484
   R14        2.06880   0.00156   0.00036   0.00338   0.00374   2.07255
   R15        2.10177   0.00053  -0.00320   0.00458   0.00138   2.10315
   R16        2.75285   0.01319   0.00520   0.02582   0.03102   2.78387
   R17        2.74431   0.00287   0.00374   0.00271   0.00645   2.75076
   R18        1.92249   0.00265   0.00115   0.00378   0.00493   1.92742
   R19        1.92347   0.00342   0.00228   0.00420   0.00648   1.92995
   R20        2.77694  -0.00434  -0.00278  -0.00669  -0.00947   2.76748
   R21        2.07886   0.00064  -0.00080   0.00237   0.00157   2.08043
   R22        2.08611   0.00072  -0.00186   0.00364   0.00178   2.08789
   R23        1.92281   0.00000  -0.00051   0.00052   0.00001   1.92281
   R24        1.91960  -0.00063   0.00081  -0.00199  -0.00117   1.91843
    A1        1.94595  -0.00090  -0.00216  -0.00231  -0.00447   1.94149
    A2        1.94337   0.00006  -0.00108   0.00156   0.00049   1.94386
    A3        1.93849   0.00021  -0.00049   0.00175   0.00126   1.93975
    A4        1.87765   0.00039   0.00131   0.00026   0.00158   1.87923
    A5        1.87741   0.00034   0.00132   0.00016   0.00149   1.87890
    A6        1.87775  -0.00008   0.00131  -0.00148  -0.00018   1.87757
    A7        1.96684  -0.00081  -0.00452   0.00252  -0.00200   1.96484
    A8        1.90919   0.00023  -0.00044   0.00147   0.00100   1.91019
    A9        1.92157   0.00055  -0.00189   0.00612   0.00419   1.92576
   A10        1.90392   0.00033   0.00262  -0.00198   0.00070   1.90462
   A11        1.89734   0.00011   0.00323  -0.00320   0.00011   1.89745
   A12        1.86194  -0.00038   0.00123  -0.00546  -0.00416   1.85778
   A13        1.95091  -0.00325  -0.00353  -0.00693  -0.01039   1.94052
   A14        1.90403   0.00104   0.00038   0.00295   0.00331   1.90734
   A15        1.90028   0.00142   0.00086   0.00666   0.00767   1.90794
   A16        1.87882   0.00109   0.00470  -0.00208   0.00259   1.88141
   A17        1.96155   0.00098  -0.00457   0.01039   0.00588   1.96742
   A18        1.86552  -0.00119   0.00244  -0.01149  -0.00909   1.85643
   A19        1.96172  -0.00258  -0.00454  -0.00242  -0.00696   1.95476
   A20        1.87092   0.00158   0.00443   0.00759   0.01206   1.88299
   A21        1.86638   0.00042  -0.00212   0.00642   0.00425   1.87063
   A22        1.96208  -0.00788  -0.00708  -0.02305  -0.03009   1.93200
   A23        1.88752   0.00098   0.00176   0.00054   0.00232   1.88984
   A24        1.94226   0.00281  -0.00181   0.00911   0.00730   1.94956
   A25        1.84761   0.00391   0.00704   0.01332   0.02034   1.86795
   A26        1.93311   0.00148  -0.00009   0.00034   0.00034   1.93346
   A27        1.88667  -0.00105   0.00068   0.00077   0.00142   1.88809
   A28        1.88417  -0.00260   0.00436  -0.01160  -0.00730   1.87687
   A29        1.91657  -0.00235  -0.00192  -0.00212  -0.00389   1.91268
   A30        1.85210   0.00614   0.00654   0.03014   0.03673   1.88884
   A31        1.78990   0.00703   0.01258   0.02472   0.03728   1.82718
   A32        1.78262   0.00567   0.00939   0.02153   0.03089   1.81352
   A33        1.81487  -0.00177   0.00057  -0.00030   0.00020   1.81507
   A34        1.89556  -0.00113  -0.00039  -0.00414  -0.00459   1.89097
   A35        1.85143   0.00217   0.00849   0.00882   0.01733   1.86876
   A36        1.95348   0.00008   0.00014  -0.00344  -0.00333   1.95015
   A37        1.98604  -0.00042  -0.01123   0.01226   0.00098   1.98702
[...]
 .00000464,0.00023764,-0.00037883,-0.00032621,-0.00009017,0.00000061,-0
 .00009963,-0.00091591,0.00248514,-0.00178307,0.09044240,0.00003116,0.0
 0000270,0.00005537,0.00029165,0.00029986,0.00032062,-0.00268762,0.0002
 4351,-0.00109549,-0.00743369,-0.03026591,-0.00818377,-0.06738481,-0.21
 665057,-0.09080491,-0.00344823,-0.00046066,0.00024295,0.00026443,0.001
 70051,0.00008875,0.00115478,-0.00097248,0.00059393,0.00011271,0.000743
 27,0.00012747,0.00001439,-0.00000491,0.00000809,0.00000258,-0.00000504
 ,0.00000089,0.00006572,0.00000139,0.00003084,-0.00008855,0.00038372,-0
 .00003320,-0.00004337,0.00000084,-0.00003964,0.00115155,0.00050053,0.0
 0061259,0.00042640,-0.00001628,-0.00016044,0.00303136,-0.00337647,0.00
 272540,0.07433753,0.24742125,0.00001636,-0.00013631,-0.00001254,0.0003
 3667,0.00031751,0.00009818,0.00046878,0.00047361,0.00099086,0.00625447
 ,0.01801257,0.00860421,-0.03917852,-0.09733436,-0.10455485,0.00254588,
 0.00325112,0.00073142,-0.00006010,-0.00018321,0.00156687,-0.00054371,-
 0.00123896,-0.00029555,0.00037784,0.00058963,0.00003205,0.00003495,0.0
 0000244,0.00000043,-0.00000092,-0.00000619,-0.00000378,-0.00002853,-0.
 00000415,0.00001008,-0.00008941,-0.00001873,-0.00012116,0.00000057,0.0
 0003452,-0.00001873,0.00011443,-0.00040394,0.00009219,-0.00019420,-0.0
 0023315,-0.00038817,-0.00158099,0.00360087,-0.00063074,0.04192071,0.09
 718372,0.10649185,0.00000313,0.00003480,0.00004704,-0.00003055,0.00017
 301,-0.00001487,0.00446862,0.00003309,-0.00180146,0.00247678,0.0047139
 1,-0.01426745,-0.06325772,-0.00189128,0.04821665,-0.03332338,0.0066625
 5,0.03627816,0.00467328,0.00231610,-0.00134310,0.00172718,-0.00518582,
 0.00603322,-0.00026450,0.00026846,-0.00109295,-0.00002060,0.00001738,-
 0.00001095,-0.00003668,-0.00000274,0.00000679,-0.00000181,-0.00001121,
 -0.00000010,-0.00001207,0.00000532,0.00000005,-0.00015575,-0.00001643,
 0.00011643,-0.00004261,0.00001209,0.00009594,0.00030124,-0.00063736,0.
 00164974,0.00001061,-0.00047967,0.00044948,0.00479065,-0.00082076,-0.0
 0930931,0.07771169,0.00003095,-0.00017759,-0.00011227,0.00040197,0.000
 11686,-0.00002339,-0.00515552,-0.00008812,0.00076404,0.00042488,-0.009
 08302,0.03706825,-0.00038911,-0.05388844,-0.01269929,0.00134573,0.0016
 5239,0.00017151,0.00077788,0.00203840,0.00175354,0.00022619,0.00094947
 ,-0.00183274,0.00000951,-0.00008773,0.00007416,0.00007901,-0.00003159,
 0.00002614,0.00006636,0.00000938,0.00000082,0.00000542,0.00002011,0.00
 001269,-0.00004508,-0.00000119,-0.00001497,-0.00003032,0.00012081,-0.0
 0023139,0.00051575,-0.00001666,-0.00003707,0.00092399,0.00038671,-0.00
 147616,0.00018767,0.00207931,0.00028700,0.00662643,0.00009499,-0.02448
 276,-0.00607132,0.05590457,-0.00001724,0.00020607,-0.00002818,-0.00068
 274,-0.00003735,0.00047140,0.00395150,0.00023002,0.00022906,-0.0013739
 1,0.01426368,-0.02261373,0.05076634,-0.01105829,-0.23416313,0.00954893
 ,-0.00292071,-0.00454270,-0.00048768,0.00166511,0.00312876,-0.00127069
 ,0.00139853,0.00050025,0.00016169,-0.00015960,0.00093333,-0.00010616,0
 .00002946,-0.00001630,-0.00009214,0.00001462,0.00002275,-0.00001268,-0
 .00001659,-0.00001163,0.00003458,-0.00000597,-0.00002448,0.00016975,-0
 .00032798,0.00030780,-0.00014371,-0.00027889,-0.00008943,-0.00239688,-
 0.00003336,0.00047330,-0.00121237,-0.00040368,0.00131785,0.00412782,-0
 .00170517,-0.01345846,-0.06187844,0.00064249,0.26658235,-0.00003972,-0
 .00001469,0.00001108,-0.00001426,0.00001782,-0.00007211,-0.00068866,0.
 00056506,-0.00038109,0.00136122,0.00083426,-0.00053525,0.00092089,-0.0
 0473575,0.00199795,-0.00573297,-0.01244403,0.00676418,-0.05788513,-0.0
 6537183,0.07023945,-0.00257460,0.00064154,-0.00114026,0.00040868,0.000
 43299,0.00072733,0.00003228,-0.00002461,0.00001510,0.00001915,0.000006
 94,-0.00001235,0.00002561,0.00001990,0.00000654,-0.00002998,0.00004941
 ,0.00003846,-0.00003096,0.00000518,-0.00004140,0.00028813,0.00010674,0
 .00006239,0.00046595,-0.00000708,-0.00014261,-0.00267297,0.00026597,0.
 00142543,-0.00044664,0.00011873,-0.00056872,0.00013294,0.00061269,-0.0
 0019436,0.06126552,0.00000962,-0.00003206,-0.00000810,0.00001267,0.000
 09390,0.00003564,-0.00011524,-0.00009228,-0.00016798,0.00015654,0.0002
 7245,0.00021180,-0.00115203,-0.00153660,0.00035604,-0.00876103,-0.0291
 0879,0.02274544,-0.03942724,-0.13718750,0.14187573,-0.00431760,-0.0058
 7045,-0.00124526,-0.00005600,0.00073448,-0.00019146,0.00001179,-0.0000
 0271,0.00000654,-0.00000493,0.00000314,0.00000339,-0.00001747,-0.00000
 752,-0.00000516,0.00001346,-0.00004919,-0.00003944,-0.00000016,0.00000
 814,0.00001021,-0.00005654,-0.00003508,0.00000841,0.00003753,0.0000119
 5,-0.00002520,0.00055679,0.00040295,-0.00020617,-0.00023466,-0.0000644
 4,-0.00001113,0.00003754,-0.00034092,-0.00036373,0.05417302,0.18064719
 ,-0.00000105,-0.00001316,-0.00002059,-0.00001107,0.00004295,0.00006824
 ,0.00010703,-0.00023278,-0.00027671,-0.00008141,0.00085875,0.00017557,
 0.00022619,0.00003900,-0.00004979,-0.00390959,-0.02109432,0.01586305,0
 .04279685,0.19104510,-0.29037899,-0.00207898,-0.00290682,-0.00074923,0
 .00041339,0.00011831,0.00021272,0.00000281,-0.00000019,0.00000566,0.00
 000610,0.00000422,-0.00000166,-0.00000823,-0.00000300,-0.00000058,0.00
 000937,-0.00002882,-0.00001433,-0.00000487,0.00000224,-0.00002164,-0.0
 0008931,-0.00003609,-0.00000170,0.00010326,0.00000423,0.00002436,0.000
 30623,-0.00020697,-0.00024721,-0.00009412,-0.00009897,0.00007784,-0.00
 036668,-0.00009658,0.00014766,-0.04623857,-0.17395700,0.29124490,0.000
 00345,0.00001434,-0.00000686,-0.00001328,-0.00001354,0.00002832,0.0000
 3703,-0.00008639,-0.00020321,0.00047871,-0.00033944,0.00034620,-0.0011
 6731,-0.00317154,-0.00285417,-0.01786010,0.00222389,-0.00114429,-0.332
 17893,0.07214900,-0.14551048,0.00135790,0.00050117,-0.00117055,-0.0000
 0603,0.00171609,0.00028343,-0.00000743,0.00000121,-0.00000188,-0.00000
 023,-0.00000230,0.00000039,0.00000574,0.00000131,0.00000407,-0.0000022
 0,0.00002456,0.00000011,-0.00000260,-0.00000040,-0.00000786,-0.0000573
 7,0.00008521,0.00003594,0.00000705,0.00000311,0.00001866,0.00011478,-0
 .00019487,0.00021980,-0.00108924,0.00017177,-0.00012650,0.00025780,-0.
 00011907,-0.00009613,0.00521904,-0.00172039,0.00882170,0.34672832,0.00
 000097,0.00000143,0.00000212,-0.00000406,0.00001977,0.00001603,-0.0001
 2692,0.00026369,-0.00000975,0.00105974,-0.00035044,0.00007387,0.000022
 08,-0.00670798,-0.00366221,-0.03764671,-0.00049210,-0.01817298,0.09207
 895,-0.07864578,0.05717980,-0.00772927,-0.00228099,-0.00143218,-0.0006
 8683,-0.00092445,0.00040473,-0.00000074,-0.00000021,0.00000103,0.00000
 285,0.00000187,-0.00000006,-0.00000031,-0.00000446,-0.00000233,-0.0000
 1561,0.00001358,-0.00000569,-0.00000496,0.00000422,-0.00000990,0.00011
 412,0.00007310,0.00003735,0.00006741,-0.00001040,-0.00001054,-0.000510
 31,0.00040416,0.00029316,-0.00217867,-0.00022505,0.00005967,0.00018663
 ,0.00021016,0.00024757,0.02424310,-0.00606554,0.00818937,-0.07070401,0
 .09177325,-0.00002190,-0.00003120,0.00002164,0.00002406,0.00004646,-0.
 00002751,-0.00030503,0.00018276,0.00016615,0.00079522,0.00014952,0.000
 51080,0.00124240,-0.00127933,-0.00196046,-0.01715564,-0.00331759,-0.01
 157323,-0.09185820,0.03298112,-0.06756958,-0.00112455,0.00193820,0.005
 44169,-0.00014712,0.00155757,-0.00317219,0.00002584,-0.00001459,0.0000
 0976,0.00000532,0.00000570,-0.00000765,0.00000158,0.00000467,-0.000002
 52,-0.00001188,-0.00000171,0.00000197,-0.00000081,-0.00000353,0.000002
 86,0.00016022,0.00000869,0.00001233,0.00005780,-0.00000792,-0.00005931
 ,-0.00089607,0.00050456,-0.00063463,-0.00020012,0.00020914,0.00043007,
 0.00018528,0.00000160,0.00005217,-0.03222423,0.01114829,-0.01696763,0.
 14052689,-0.04466823,0.09635540,0.00000047,-0.00000554,-0.00000140,0.0
 0001001,0.00000077,0.00000242,0.00003401,-0.00004162,0.00000709,0.0004
 2104,0.00020716,0.00027676,-0.00037497,0.00147977,-0.00014385,0.006204
 72,0.00702299,0.00504779,0.00039126,0.00311848,-0.00197169,-0.09288177
 ,-0.08561804,-0.03786489,-0.03164899,-0.02596571,-0.01000770,-0.000000
 87,0.00000356,-0.00000189,0.00000031,-0.00000090,0.00000084,0.00000042
 ,0.00000024,0.00000129,0.00000075,0.00000006,-0.00000017,-0.00000118,-
 0.00000014,-0.00000212,-0.00000006,-0.00000506,0.00000270,0.00000117,0
 .00000198,-0.00000187,-0.00006440,0.00017384,-0.00002266,-0.00028440,0
 .00075995,-0.00032210,-0.00000948,-0.00010998,-0.00014147,0.00010065,0
 .00089143,0.00016711,-0.00108105,0.00075573,0.00000741,0.11247466,-0.0
 0000263,-0.00000177,-0.00000526,0.00000419,-0.00000351,0.00001177,0.00
 005768,-0.00006406,-0.00003803,0.00060511,0.00088309,0.00036397,-0.002
 23416,-0.00133883,-0.00125750,-0.01186837,-0.03004580,-0.00864142,0.00
 270840,-0.00321434,0.00454786,-0.08010420,-0.20622087,-0.06852293,-0.0
 0070679,0.00732270,0.00178098,-0.00000308,0.00000525,-0.00000239,0.000
 00094,-0.00000303,0.00000051,0.00000737,0.00000298,0.00000700,-0.00000
 754,0.00002572,0.00000363,-0.00000263,-0.00000345,-0.00000638,0.000069
 12,0.00001462,0.00005126,0.00001266,0.00000135,-0.00000751,-0.00047355
 ,0.00031246,-0.00008573,0.00116256,0.00064525,0.00069863,0.00037519,-0
 .00000969,-0.00020317,-0.00020608,-0.00149679,-0.00108966,0.00029526,0
 .00061557,0.00058303,0.09323406,0.23266498,0.00000058,-0.00000209,-0.0
 0000014,0.00001458,0.00000205,0.00000331,0.00001515,-0.00007750,0.0000
 0144,0.00041175,0.00006170,0.00005820,-0.00016511,0.00047427,0.0002999
 1,0.00730080,0.01851868,0.00486972,-0.00136472,0.00345467,0.00016289,-
 0.03770550,-0.07719374,-0.08822280,0.00091192,0.00395319,0.00578112,-0
 .00000089,0.00000336,-0.00000117,0.00000011,-0.00000253,-0.00000085,-0
 .00000092,-0.00000079,0.00000283,0.00000093,0.00000336,-0.00000383,0.0
 0000093,0.00000561,-0.00000361,-0.00001029,0.00000429,0.00001532,0.000
 00939,-0.00000589,-0.00000494,0.00004782,0.00007417,-0.00004908,-0.000
 21852,0.00008679,0.00028984,-0.00025081,-0.00021392,-0.00019711,-0.000
 07079,0.00052505,0.00055949,0.00027672,0.00019127,-0.00062673,0.043981
 92,0.07352635,0.08710231,0.00000397,0.00000873,-0.00000616,-0.00000613
 ,-0.00001258,0.00002202,0.00000934,0.00003215,0.00008847,-0.00072037,0
 .00022838,0.00045240,0.00427322,-0.00029018,-0.00366380,0.00047259,0.0
 0284144,-0.01583130,-0.00006091,-0.00078623,0.00121863,-0.05838110,0.0
 0222932,0.03463529,-0.01581941,0.00265624,0.03840583,-0.00000731,0.000
 00476,-0.00000348,-0.00000014,-0.00000079,0.00000108,-0.00000134,-0.00
 000301,-0.00000079,-0.00000094,-0.00000046,-0.00000198,0.00000671,-0.0
 0000504,0.00000037,-0.00000112,-0.00001047,-0.00000322,-0.00010004,0.0
 0001627,-0.00000057,0.00004003,0.00005766,0.00004538,-0.00008462,0.000
 05251,0.00004445,0.00031815,-0.00024711,0.00157204,-0.00007412,-0.0001
 7454,-0.00010464,-0.00038765,0.00031965,0.00072845,0.00424873,-0.00176
 967,-0.01274823,0.07242459,-0.00000406,-0.00002132,0.00000450,0.000017
 09,0.00004080,-0.00000685,-0.00000413,-0.00012268,-0.00026592,0.000738
 96,-0.00016079,-0.00006490,-0.00481245,0.00021150,0.00129046,0.0018151
 3,-0.00509742,0.03497527,0.00065481,0.00597804,0.00005237,0.00273633,-
 0.05775119,-0.02805596,-0.00017759,0.00148795,-0.00019157,0.00001191,-
 0.00000551,0.00000680,-0.00000102,0.00000354,0.00000065,0.00000099,0.0
 0000335,0.00000030,0.00000049,-0.00000483,-0.00000262,-0.00000739,-0.0
 0000308,0.00000236,-0.00000345,0.00001281,0.00001598,0.00010912,0.0000
 0012,0.00001439,0.00002799,0.00001177,0.00005521,0.00032338,-0.0000027
 7,-0.00008122,0.00039108,0.00017781,-0.00125560,0.00023321,0.00004137,
 -0.00050183,-0.00048891,-0.00016632,0.00010170,0.00367667,-0.00166499,
 -0.02520010,-0.00586085,0.05526325,0.00002419,0.00004223,-0.00002811,-
 0.00005546,-0.00005814,0.00002251,0.00014331,0.00019119,0.00004809,-0.
 00078413,-0.00020940,0.00089194,0.00457973,-0.00038403,-0.00015675,-0.
 00610450,0.01229969,-0.02869276,-0.00059139,-0.00000002,0.00440792,0.0
 4399192,-0.02712299,-0.25614679,0.00393477,-0.00085799,-0.00358875,-0.
 00003118,0.00001244,-0.00001112,-0.00000942,-0.00000491,0.00001167,-0.
 00000377,-0.00000706,-0.00000129,0.00000344,0.00000847,-0.00000484,0.0
 0000585,0.00000152,0.00000794,-0.00000666,-0.00001292,-0.00000473,-0.0
 0012887,0.00001501,0.00003689,0.00019420,0.00004716,-0.00008459,-0.000
 06832,-0.00021625,0.00008951,-0.00244066,0.00033182,0.00115455,0.00024
 597,-0.00064203,0.00035909,0.00057461,0.00081742,-0.00060776,0.0015699
 2,-0.00246460,-0.01114470,-0.04639564,0.01890937,0.29160609,-0.0000074
 8,-0.00001036,0.00000631,0.00000724,0.00001826,-0.00000698,-0.00006279
 ,-0.00002140,-0.00000120,0.00010021,-0.00003628,-0.00022128,-0.0005454
 4,0.00004022,-0.00006562,0.00278277,-0.00058616,-0.00078694,-0.0000138
 9,-0.00043972,-0.00010537,-0.01371883,0.00961906,0.04329516,-0.0686748
 3,0.03227248,0.06409506,0.00001076,-0.00000720,0.00000500,0.00000152,0
 .00000261,-0.00000282,-0.00000069,0.00000240,-0.00000116,0.00000058,-0
 .00000631,-0.00000052,-0.00000042,0.00000107,0.00000086,-0.00000531,-0
 .00000127,-0.00000442,0.00002237,-0.00000438,-0.00001048,-0.00001816,-
 0.00002151,0.00001078,-0.00010263,-0.00005222,-0.00001894,0.00046283,-
 0.00007141,-0.00038863,0.00005569,0.00003802,0.00006481,-0.00016963,0.
 00027368,-0.00027293,0.00199081,-0.00056286,0.00001262,-0.00744857,0.0
 0057705,0.00047259,0.08150695,0.00000582,0.00000190,0.00000356,0.00000
 683,-0.00000068,-0.00001233,0.00004195,0.00001792,0.00005490,-0.000071
 85,-0.00009079,0.00005908,0.00058343,-0.00000266,0.00048487,-0.0006582
 8,0.00018382,-0.00055020,-0.00002882,-0.00142281,0.00059809,-0.0069030
 5,-0.00189920,0.00004390,0.04855208,-0.05174408,-0.11237728,-0.0000005
 0,-0.00000080,-0.00000087,-0.00000450,0.00000018,0.00000318,-0.0000031
 3,-0.00000227,-0.00000368,0.00000009,-0.00000543,-0.00000346,0.0000014
 3,0.00000048,0.00001002,-0.00000460,-0.00000586,-0.00001197,-0.0000245
 7,-0.00000335,0.00001108,0.00006009,0.00000227,-0.00001839,-0.00011659
 ,-0.00011156,-0.00007126,-0.00036479,-0.00001969,0.00018289,0.00053574
 ,-0.00039424,0.00000440,-0.00006312,0.00132926,-0.00124610,0.00091117,
 0.00096670,0.00175476,0.00039942,0.00141793,0.00000507,-0.03477661,0.0
 4884548,-0.00000112,0.00000079,0.00000009,-0.00000530,0.00000113,0.000
 00615,-0.00000843,0.00000193,0.00000061,0.00003504,0.00000543,-0.00004
 463,-0.00041399,-0.00001942,0.00016476,0.00038737,-0.00103465,0.001314
 25,-0.00026402,0.00013590,-0.00042036,-0.00037625,-0.00313292,-0.00444
 803,0.08407180,-0.06762862,-0.38213412,0.00000061,-0.00000195,0.000001
 02,0.00000157,-0.00000002,-0.00000303,-0.00000084,0.00000067,0.0000007
 4,0.00000133,-0.00000057,-0.00000092,0.00000096,0.00000222,-0.00000420
 ,-0.00000097,-0.00000091,0.00000448,0.00001095,-0.00000303,-0.00000295
 ,0.00001101,0.00000242,-0.00000810,0.00002947,0.00004802,0.00003073,-0
 .00010903,0.00009525,-0.00017628,0.00010434,-0.00001726,0.00009957,0.0
 0030785,-0.00040303,-0.00014240,-0.00115867,0.00071329,0.00129613,0.00
 138882,0.00059363,0.00178139,-0.08992739,0.08257501,0.40417794,0.00000
 094,0.00002816,-0.00001540,-0.00007532,-0.00003274,0.00000833,0.000054
 68,0.00024208,-0.00005594,-0.00070039,-0.00013305,0.00002067,0.0002863
 8,0.00190888,-0.00061574,-0.00863774,-0.00173895,0.00100179,0.00093774
 ,-0.00079575,0.00006759,-0.01441172,0.02825635,-0.02594790,-0.10094448
 ,0.10147667,-0.07197855,-0.00001117,-0.00000079,-0.00000104,0.00000058
 ,0.00000041,0.00000119,-0.00000116,-0.00000194,-0.00000192,0.00000122,
 -0.00000037,0.00000216,0.00000177,0.00000095,-0.00000393,0.00000308,-0
 .00001213,-0.00000704,-0.00000961,-0.00000096,0.00001208,-0.00002826,0
 .00001522,0.00001504,0.00004784,-0.00002796,-0.00009318,-0.00017978,0.
 00000449,0.00016259,-0.00010575,0.00009941,-0.00003632,-0.00018677,0.0
 0048350,0.00045801,0.00046817,-0.00059102,-0.00044945,0.00129645,0.000
 04564,0.00087950,0.00382692,-0.00807765,0.00591490,0.11836639,-0.00000
 981,-0.00003124,0.00001512,0.00004420,0.00004586,-0.00001695,-0.000154
 97,-0.00008366,0.00002678,0.00049752,0.00001130,0.00011665,-0.00078344
 ,-0.00051758,-0.00008759,0.00242433,-0.00126615,-0.00005999,0.00178347
 ,0.00001564,0.00025849,-0.01163058,-0.00359667,-0.00146656,0.13546185,
 -0.20958112,0.18919150,0.00002100,-0.00001092,0.00000808,0.00000170,0.
 00000485,-0.00000438,0.00000045,0.00000501,-0.00000136,-0.00000185,-0.
 00000900,-0.00000033,-0.00000245,-0.00000308,0.00000376,0.00001697,0.0
 0000733,0.00000032,0.00003989,0.00000524,-0.00002316,-0.00007484,0.000
 05828,0.00000677,0.00002561,0.00011831,-0.00001892,0.00025422,-0.00001
 634,-0.00011034,-0.00005823,0.00006854,-0.00004237,-0.00028296,0.00116
 364,0.00114721,-0.00049088,0.00060646,0.00005699,0.00031440,0.00035064
 ,-0.00070104,-0.00624715,0.00293747,-0.01193330,-0.12114845,0.20971718
 ,-0.00000486,-0.00001749,0.00001036,0.00003586,0.00001888,-0.00001338,
 -0.00004143,-0.00006181,0.00002630,0.00043256,-0.00004269,0.00007488,0
 .00001004,-0.00031744,0.00103775,0.00078663,-0.00066448,-0.00005950,0.
 00113560,-0.00026145,0.00039763,0.00112940,-0.00356970,0.00311147,-0.0
 7822391,0.15229832,-0.19159699,0.00001133,-0.00000448,0.00000375,0.000
 00125,0.00000212,-0.00000180,0.00000010,0.00000121,-0.00000135,-0.0000
 0183,-0.00000456,-0.00000016,-0.00000207,0.00000088,0.00000078,0.00000
 548,0.00000411,-0.00000269,0.00003016,0.00000026,-0.00001499,-0.000030
 11,0.00002759,0.00000869,0.00001210,0.00000329,-0.00005215,-0.00019299
 ,-0.00000873,0.00000018,-0.00001649,-0.00004662,-0.00010811,-0.0003227
 6,0.00086352,0.00034677,0.00057524,0.00003630,-0.00018756,0.00015658,-
 0.00039640,0.00005461,-0.01614848,0.02850475,-0.02149287,0.09066258,-0
 .17636537,0.20845838\\-0.00001015,-0.00000537,0.00000166,0.00001249,0.
 00001076,-0.00000534,0.00000919,-0.00000264,0.00000913,0.00000311,-0.0
 0001080,0.00000153,-0.00000235,-0.00000488,-0.00000146,-0.00000202,0.0
 0004301,0.00001043,-0.00001194,-0.00002458,-0.00001988,-0.00001809,-0.
 00004427,0.00000224,0.00001512,0.00001617,0.00000744,0.00000116,-0.000
 00004,0.00000028,0.00000086,0.00000019,-0.00000056,0.00000133,-0.00000
 023,-0.00000048,-0.00000236,-0.00000187,0.00000120,-0.00000248,-0.0000
 0044,0.00000100,-0.00000104,0.00000131,-0.00000224,-0.00000291,-0.0000
 0071,0.00000172,-0.00000051,0.00000862,-0.00000440,0.00000453,0.000000
 03,-0.00000346,-0.00000141,0.00000294,0.00000343,0.00000462,0.00000572
 ,0.00000404,-0.00000625,0.00000443,0.00000069,0.00000408,0.00000557,0.
 00000038,0.00000900,0.00000736,-0.00000762,-0.00000502,-0.00000454,-0.
 00000092,0.00000104,-0.00000574,0.00000118\\\@


 NOBODY LOSES ALL THE TIME
 I HAD AN UNCLE NAMED
 SOL WHO WAS A BORN FAILURE AND
 NEARLY EVERYBODY SAID HE SHOULD HAVE GONE
 INTO VAUDEVILLE PERHAPS BECAUSE MY UNCLE SOL COULD
 SING MCCANN HE WAS A DIVER ON XMAS EVE LIKE HELL ITSELF WHICH
 MAY OR MAY NOT ACCOUNT FOR THE FACT THAT MY UNCLE
 SOL INDULGED IN THAT POSSIBLY MOST INEXCUSABLE
 OF ALL TO USE A HIGHFALOOTIN PHRASE
 LUXURIES THAT IS OR TO
 WIT FARMING AND BE
 IT NEEDLESSLY
 ADDED
 MY UNCLE SOL'S FARM     
 FAILED BECAUSE THE CHICKENS
 ATE THE VEGETABLES SO
 MY UNCLE SOL HAD A
 CHICKEN FARM TILL THE
 SKUNKS ATE THE CHICKENS WHEN 
 MY UNCLE SOL
 HAD A SKUNK FARM BUT
 THE SKUNKS CAUGHT COLD AND
 DIED AND SO
 MY UNCLE SOL IMITATED THE
 SKUNKS IN A SUBTLE MANNER
 OR BY DROWNING HIMSELF IN THE WATERTANK
 BUT SOMEBODY WHO'D GIVEN MY UNCLE SOL A VICTOR     
 VICTROLA AND RECORDS WHILE HE LIVED PRESENTED TO
 HIM UPON THE AUSPICIOUS OCCASION OF HIS DECEASE A
 SCRUMPTIOUS NOT TO MENTION SPLENDIFEROUS FUNERAL WITH
 TALL BOYS IN BLACK GLOVES AND FLOWERS AND EVERYTHING AND
 I REMEMBER WE ALL CRIED LIKE THE MISSOURI
 WHEN MY UNCLE SOL'S COFFIN LURCHED BECAUSE     
 SOMEBODY PRESSED A BUTTON
 (AND DOWN WENT
 MY UNCLE
 SOL
 AND STARTED A WORM FARM)
           E. E. CUMMINGS
 Job cpu time:       0 days  2 hours 56 minutes 34.7 seconds.
 Elapsed time:       0 days  0 hours 44 minutes 10.6 seconds.
 File lengths (MBytes):  RWF=    206 Int=      0 D2E=      0 Chk=     10 Scr=      1
 Normal termination of Gaussian 16 at Mon May 31 15:49:47 2021.
### All Done ###
