### Starting Gaussian ###
 Entering Gaussian System, Link 0=g16
 Initial command:
 /cluster/software/gaussian/gaussian-16-A.03/avx2/g16/l1.exe "/local/scratch/cz9n3/Gau-16357.inp" -scrdir="/local/scratch/cz9n3/"
 Entering Link 1 = /cluster/software/gaussian/gaussian-16-A.03/avx2/g16/l1.exe PID=     16358.
  
 Copyright (c) 1988,1990,1992,1993,1995,1998,2003,2009,2016,
            Gaussian, Inc.  All Rights Reserved.
  
 This is part of the Gaussian(R) 16 program.  It is based on
 the Gaussian(R) 09 system (copyright 2009, Gaussian, Inc.),
 the Gaussian(R) 03 system (copyright 2003, Gaussian, Inc.),
 the Gaussian(R) 98 system (copyright 1998, Gaussian, Inc.),
 the Gaussian(R) 94 system (copyright 1995, Gaussian, Inc.),
 the Gaussian 92(TM) system (copyright 1992, Gaussian, Inc.),
 the Gaussian 90(TM) system (copyright 1990, Gaussian, Inc.),
 the Gaussian 88(TM) system (copyright 1988, Gaussian, Inc.),
 the Gaussian 86(TM) system (copyright 1986, Carnegie Mellon
 University), and the Gaussian 82(TM) system (copyright 1983,
 Carnegie Mellon University). Gaussian is a federally registered
 trademark of Gaussian, Inc.
  
 This software contains proprietary and confidential information,
 including trade secrets, belonging to Gaussian, Inc.
  
 This software is provided under written license and may be
 used, copied, transmitted, or stored only in accord with that
 written license.
  
 The following legend is applicable only to US Government
 contracts under FAR:
  
                    RESTRICTED RIGHTS LEGEND
  
 Use, reproduction and disclosure by the US Government is
 subject to restrictions as set forth in subparagraphs (a)
 and (c) of the Commercial Computer Software - Restricted
 Rights clause in FAR 52.227-19.
  
 Gaussian, Inc.
 340 Quinnipiac St., Bldg. 40, Wallingford CT 06492
  
  
 ---------------------------------------------------------------
 Warning -- This program may not be used in any manner that
 competes with the business of Gaussian, Inc. or will provide
 assistance to any competitor of Gaussian, Inc.  The licensee
 of this program is prohibited from giving any competitor of
 Gaussian, Inc. access to this program.  By using this program,
 the user acknowledges that Gaussian, Inc. is engaged in the
 business of creating and licensing software in the field of
 computational chemistry and represents and warrants to the
 licensee that it is not a competitor of Gaussian, Inc. and that
 it will not use this program in any manner prohibited above.
 ---------------------------------------------------------------
  

 Cite this work as:
 Gaussian 16, Revision A.03,
 M. J. Frisch, G. W. Trucks, H. B. Schlegel, G. E. Scuseria, 
 M. A. Robb, J. R. Cheeseman, G. Scalmani, V. Barone, 
 G. A. Petersson, H. Nakatsuji, X. Li, M. Caricato, A. V. Marenich, 
 J. Bloino, B. G. Janesko, R. Gomperts, B. Mennucci, H. P. Hratchian, 
 J. V. Ortiz, A. F. Izmaylov, J. L. Sonnenberg, D. Williams-Young, 
 F. Ding, F. Lipparini, F. Egidi, J. Goings, B. Peng, A. Petrone, 
 T. Henderson, D. Ranasinghe, V. G. Zakrzewski, J. Gao, N. Rega, 
 G. Zheng, W. Liang, M. Hada, M. Ehara, K. Toyota, R. Fukuda, 
 J. Hasegawa, M. Ishida, T. Nakajima, Y. Honda, O. Kitao, H. Nakai, 
 T. Vreven, K. Throssell, J. A. Montgomery, Jr., J. E. Peralta, 
 F. Ogliaro, M. J. Bearpark, J. J. Heyd, E. N. Brothers, K. N. Kudin, 
 V. N. Staroverov, T. A. Keith, R. Kobayashi, J. Normand, 
 K. Raghavachari, A. P. Rendell, J. C. Burant, S. S. Iyengar, 
 J. Tomasi, M. Cossi, J. M. Millam, M. Klene, C. Adamo, R. Cammi, 
 J. W. Ochterski, R. L. Martin, K. Morokuma, O. Farkas, 
 J. B. Foresman, and D. J. Fox, Gaussian, Inc., Wallingford CT, 2016.
 
 ******************************************
 Gaussian 16:  ES64L-G16RevA.03 25-Dec-2016
                 1-Jun-2021 
 ******************************************
 %chk=CCCNpCpCpdNpNC.chk
 %NProcShared=20
 Will use up to   20 processors via shared memory.
 -----------------------------
 # opt freq b3lyp/6-31g(2df,p)
 -----------------------------
 1/18=20,19=15,26=3,38=1/1,3;
 2/9=110,12=2,17=6,18=5,40=1/2;
 3/5=1,6=6,7=104,11=2,25=1,30=1,71=1,74=-5/1,2,3;
 4//1;
 5/5=2,38=5/2;
 6/7=2,8=2,9=2,10=2,28=1/1;
 7//1,2,3,16;
 1/18=20,19=15,26=3/3(2);
 2/9=110/2;
 99//99;
 2/9=110/2;
 3/5=1,6=6,7=104,11=2,25=1,30=1,71=1,74=-5/1,2,3;
 4/5=5,16=3,69=1/1;
 5/5=2,38=5/2;
 7//1,2,3,16;
 1/18=20,19=15,26=3/3(-5);
 2/9=110/2;
 6/7=2,8=2,9=2,10=2,19=2,28=1/1;
 99/9=1/99;
 -------------------
 Title Card Required
 -------------------
 Symbolic Z-matrix:
 Charge =  0 Multiplicity = 1
 C                     0.93772   0.05465  -0.07982 
 C                     2.45572   0.0418   -0.08591 
 C                     3.06634   1.30841   0.51493 
 N                     4.54692   1.37      0.54414 
 C                     5.30112   0.2386    0.00744 
 C                     5.17868   2.48564   1.07337 
 N                     4.56029   3.51461   1.56148 
 N                     6.53881   2.49105   1.07593 
 C                     7.34696   3.5758    1.59051 
 H                     0.56211  -0.87502  -0.52082 
 H                     0.54919   0.8909   -0.66799 
 H                     0.54919   0.12816   0.93991 
 H                     2.78573  -0.07432  -1.12494 
 H                     2.78573  -0.83635   0.48146 
 H                     2.69483   1.41267   1.54292 
 H                     2.69483   2.1705   -0.05465 
 H                     4.69869  -0.58281  -0.38221 
 H                     5.92711  -0.20469   0.78829 
 H                     5.92711   0.5629   -0.82985 
 H                     3.5565    3.39423   1.50437 
 H                     7.05377   1.71051   0.70567 
 H                     6.7588    4.40976   1.98611 
 H                     7.98892   3.97184   0.79761 
 H                     7.98892   3.21227   2.39882 
 

 GradGradGradGradGradGradGradGradGradGradGradGradGradGradGradGradGradGrad
 Berny optimization.
 Initialization pass.
                           ----------------------------
                           !    Initial Parameters    !
                           ! (Angstroms and Degrees)  !
 --------------------------                            --------------------------
 ! Name  Definition              Value          Derivative Info.                !
 --------------------------------------------------------------------------------
 ! R1    R(1,2)                  1.5181         estimate D2E/DX2                !
 ! R2    R(1,10)                 1.0954         estimate D2E/DX2                !
 ! R3    R(1,11)                 1.0937         estimate D2E/DX2                !
 ! R4    R(1,12)                 1.0937         estimate D2E/DX2                !
 ! R5    R(2,3)                  1.5291         estimate D2E/DX2                !
 ! R6    R(2,13)                 1.0963         estimate D2E/DX2                !
 ! R7    R(2,14)                 1.0963         estimate D2E/DX2                !
 ! R8    R(3,4)                  1.4821         estimate D2E/DX2                !
 ! R9    R(3,15)                 1.098          estimate D2E/DX2                !
 ! R10   R(3,16)                 1.098          estimate D2E/DX2                !
 ! R11   R(4,5)                  1.4618         estimate D2E/DX2                !
 ! R12   R(4,6)                  1.387          estimate D2E/DX2                !
 ! R13   R(5,17)                 1.0906         estimate D2E/DX2                !
 ! R14   R(5,18)                 1.0946         estimate D2E/DX2                !
 ! R15   R(5,19)                 1.0946         estimate D2E/DX2                !
 ! R16   R(6,7)                  1.2959         estimate D2E/DX2                !
 ! R17   R(6,8)                  1.3601         estimate D2E/DX2                !
 ! R18   R(7,20)                 1.0126         estimate D2E/DX2                !
 ! R19   R(8,9)                  1.4473         estimate D2E/DX2                !
 ! R20   R(8,21)                 1.0057         estimate D2E/DX2                !
 ! R21   R(9,22)                 1.0945         estimate D2E/DX2                !
 ! R22   R(9,23)                 1.0944         estimate D2E/DX2                !
 ! R23   R(9,24)                 1.0944         estimate D2E/DX2                !
 ! A1    A(2,1,10)             109.5172         estimate D2E/DX2                !
 ! A2    A(2,1,11)             111.0718         estimate D2E/DX2                !
 ! A3    A(2,1,12)             111.0715         estimate D2E/DX2                !
 ! A4    A(10,1,11)            108.0959         estimate D2E/DX2                !
 ! A5    A(10,1,12)            108.0953         estimate D2E/DX2                !
 ! A6    A(11,1,12)            108.8936         estimate D2E/DX2                !
 ! A7    A(1,2,3)              112.9997         estimate D2E/DX2                !
 ! A8    A(1,2,13)             107.7999         estimate D2E/DX2                !
 ! A9    A(1,2,14)             107.8004         estimate D2E/DX2                !
 ! A10   A(3,2,13)             109.8723         estimate D2E/DX2                !
 ! A11   A(3,2,14)             109.8725         estimate D2E/DX2                !
 ! A12   A(13,2,14)            108.3617         estimate D2E/DX2                !
 ! A13   A(2,3,4)              116.1724         estimate D2E/DX2                !
 ! A14   A(2,3,15)             108.1445         estimate D2E/DX2                !
 ! A15   A(2,3,16)             108.1443         estimate D2E/DX2                !
 ! A16   A(4,3,15)             108.3964         estimate D2E/DX2                !
 ! A17   A(4,3,16)             108.3962         estimate D2E/DX2                !
 ! A18   A(15,3,16)            107.2548         estimate D2E/DX2                !
 ! A19   A(3,4,5)              118.4237         estimate D2E/DX2                !
 ! A20   A(3,4,6)              119.7316         estimate D2E/DX2                !
 ! A21   A(5,4,6)              121.8447         estimate D2E/DX2                !
 ! A22   A(4,5,17)             115.4105         estimate D2E/DX2                !
 ! A23   A(4,5,18)             110.2791         estimate D2E/DX2                !
 ! A24   A(4,5,19)             110.2794         estimate D2E/DX2                !
 ! A25   A(17,5,18)            105.4118         estimate D2E/DX2                !
 ! A26   A(17,5,19)            105.4117         estimate D2E/DX2                !
 ! A27   A(18,5,19)            109.7926         estimate D2E/DX2                !
 ! A28   A(4,6,7)              124.4032         estimate D2E/DX2                !
 ! A29   A(4,6,8)              117.3477         estimate D2E/DX2                !
 ! A30   A(7,6,8)              118.2491         estimate D2E/DX2                !
 ! A31   A(6,7,20)             110.9402         estimate D2E/DX2                !
 ! A32   A(6,8,9)              124.1972         estimate D2E/DX2                !
 ! A33   A(6,8,21)             120.5463         estimate D2E/DX2                !
 ! A34   A(9,8,21)             115.2565         estimate D2E/DX2                !
 ! A35   A(8,9,22)             113.5495         estimate D2E/DX2                !
 ! A36   A(8,9,23)             109.9494         estimate D2E/DX2                !
 ! A37   A(8,9,24)             109.9498         estimate D2E/DX2                !
 ! A38   A(22,9,23)            107.5393         estimate D2E/DX2                !
 ! A39   A(22,9,24)            107.5401         estimate D2E/DX2                !
 ! A40   A(23,9,24)            108.1347         estimate D2E/DX2                !
 ! D1    D(10,1,2,3)          -179.9997         estimate D2E/DX2                !
 ! D2    D(10,1,2,13)           58.3908         estimate D2E/DX2                !
 ! D3    D(10,1,2,14)          -58.3896         estimate D2E/DX2                !
 ! D4    D(11,1,2,3)            60.6773         estimate D2E/DX2                !
 ! D5    D(11,1,2,13)          -60.9322         estimate D2E/DX2                !
 ! D6    D(11,1,2,14)         -177.7125         estimate D2E/DX2                !
 ! D7    D(12,1,2,3)           -60.6776         estimate D2E/DX2                !
 ! D8    D(12,1,2,13)          177.7129         estimate D2E/DX2                !
 ! D9    D(12,1,2,14)           60.9325         estimate D2E/DX2                !
 ! D10   D(1,2,3,4)           -179.9995         estimate D2E/DX2                !
 ! D11   D(1,2,3,15)            57.9205         estimate D2E/DX2                !
 ! D12   D(1,2,3,16)           -57.9201         estimate D2E/DX2                !
 ! D13   D(13,2,3,4)           -59.5657         estimate D2E/DX2                !
 ! D14   D(13,2,3,15)          178.3544         estimate D2E/DX2                !
 ! D15   D(13,2,3,16)           62.5138         estimate D2E/DX2                !
 ! D16   D(14,2,3,4)            59.5658         estimate D2E/DX2                !
 ! D17   D(14,2,3,15)          -62.5141         estimate D2E/DX2                !
 ! D18   D(14,2,3,16)         -178.3547         estimate D2E/DX2                !
 ! D19   D(2,3,4,5)             -0.0003         estimate D2E/DX2                !
 ! D20   D(2,3,4,6)           -179.9997         estimate D2E/DX2                !
 ! D21   D(15,3,4,5)           121.9466         estimate D2E/DX2                !
 ! D22   D(15,3,4,6)           -58.0529         estimate D2E/DX2                !
 ! D23   D(16,3,4,5)          -121.9467         estimate D2E/DX2                !
 ! D24   D(16,3,4,6)            58.0538         estimate D2E/DX2                !
 ! D25   D(3,4,5,17)             0.0002         estimate D2E/DX2                !
 ! D26   D(3,4,5,18)          -119.2874         estimate D2E/DX2                !
 ! D27   D(3,4,5,19)           119.2879         estimate D2E/DX2                !
 ! D28   D(6,4,5,17)           179.9997         estimate D2E/DX2                !
 ! D29   D(6,4,5,18)            60.7121         estimate D2E/DX2                !
 ! D30   D(6,4,5,19)           -60.7126         estimate D2E/DX2                !
 ! D31   D(3,4,6,7)             -0.0006         estimate D2E/DX2                !
 ! D32   D(3,4,6,8)           -180.0            estimate D2E/DX2                !
 ! D33   D(5,4,6,7)            180.0            estimate D2E/DX2                !
 ! D34   D(5,4,6,8)              0.0005         estimate D2E/DX2                !
 ! D35   D(4,6,7,20)             0.0            estimate D2E/DX2                !
 ! D36   D(8,6,7,20)           179.9994         estimate D2E/DX2                !
 ! D37   D(4,6,8,9)           -179.9998         estimate D2E/DX2                !
 ! D38   D(4,6,8,21)            -0.0007         estimate D2E/DX2                !
 ! D39   D(7,6,8,9)              0.0007         estimate D2E/DX2                !
 ! D40   D(7,6,8,21)           179.9998         estimate D2E/DX2                !
 ! D41   D(6,8,9,22)            -0.0009         estimate D2E/DX2                !
 ! D42   D(6,8,9,23)          -120.5264         estimate D2E/DX2                !
 ! D43   D(6,8,9,24)           120.5259         estimate D2E/DX2                !
 ! D44   D(21,8,9,22)          180.0            estimate D2E/DX2                !
 ! D45   D(21,8,9,23)           59.4745         estimate D2E/DX2                !
 ! D46   D(21,8,9,24)          -59.4732         estimate D2E/DX2                !
 --------------------------------------------------------------------------------
 Trust Radius=3.00D-01 FncErr=1.00D-07 GrdErr=1.00D-06 EigMax=2.50D+02 EigMin=1.00D-04
 Number of steps in this run=    119 maximum allowed number of steps=    144.
 GradGradGradGradGradGradGradGradGradGradGradGradGradGradGradGradGradGrad

                          Input orientation:                          
 ---------------------------------------------------------------------
 Center     Atomic      Atomic             Coordinates (Angstroms)
 Number     Number       Type             X           Y           Z
 ---------------------------------------------------------------------
      1          6           0        0.937720    0.054650   -0.079820
      2          6           0        2.455720    0.041800   -0.085910
      3          6           0        3.066340    1.308410    0.514930
      4          7           0        4.546920    1.370000    0.544140
      5          6           0        5.301120    0.238600    0.007440
      6          6           0        5.178680    2.485640    1.073370
      7          7           0        4.560290    3.514610    1.561480
      8          7           0        6.538810    2.491050    1.075930
      9          6           0        7.346960    3.575800    1.590510
     10          1           0        0.562110   -0.875020   -0.520820
     11          1           0        0.549190    0.890900   -0.667990
     12          1           0        0.549190    0.128160    0.939910
     13          1           0        2.785730   -0.074320   -1.124940
     14          1           0        2.785730   -0.836350    0.481460
     15          1           0        2.694830    1.412670    1.542920
     16          1           0        2.694830    2.170500   -0.054650
     17          1           0        4.698690   -0.582810   -0.382210
     18          1           0        5.927110   -0.204690    0.788290
     19          1           0        5.927110    0.562900   -0.829850
     20          1           0        3.556500    3.394230    1.504370
     21          1           0        7.053770    1.710510    0.705670
     22          1           0        6.758800    4.409760    1.986110
     23          1           0        7.988920    3.971840    0.797610
     24          1           0        7.988920    3.212270    2.398820
 ---------------------------------------------------------------------
                    Distance matrix (angstroms):
                    1          2          3          4          5
     1  C    0.000000
     2  C    1.518067   0.000000
     3  C    2.540997   1.529106   0.000000
     4  N    3.891760   2.556207   1.482148   0.000000
     5  C    4.368147   2.853725   2.529087   1.461824   0.000000
     6  C    5.022480   3.838072   2.481875   1.387032   2.490058
     7  N    5.271452   4.382182   2.862599   2.373713   3.700826
     8  N    6.216431   4.901053   3.710985   2.346738   2.783357
     9  C    7.501124   6.262888   4.962019   3.714925   4.222378
    10  H    1.095377   2.148363   3.480131   4.696058   4.896675
    11  H    1.093715   2.166713   2.812412   4.204835   4.843815
    12  H    1.093713   2.166707   2.812409   4.204836   4.843814
    13  H    2.126981   1.096346   2.163298   2.823770   2.776219
    14  H    2.126983   1.096341   2.163298   2.823774   2.776220
    15  H    2.750443   2.142322   1.098022   2.104666   3.244825
    16  H    2.750435   2.142315   1.098016   2.104658   3.244817
    17  H    3.826577   2.347093   2.654457   2.166708   1.090625
    18  H    5.070985   3.588249   3.247800   2.108123   1.094576
    19  H    5.070984   3.588250   3.247803   2.108123   1.094572
    20  H    4.529952   3.870335   2.360062   2.449588   3.904164
    21  H    6.384742   4.955124   4.012189   2.535022   2.392870
    22  H    7.557779   6.472159   5.041528   4.026392   4.841337
    23  H    8.113796   6.844131   5.604066   4.322173   4.667517
    24  H    8.113793   6.844126   5.604063   4.322171   4.667513
                    6          7          8          9         10
     6  C    0.000000
     7  N    1.295931   0.000000
     8  N    1.360143   2.279907   0.000000
     9  C    2.481395   2.787493   1.447267   0.000000
    10  H    5.928591   6.292080   7.042796   8.384611   0.000000
    11  H    5.196894   5.286144   6.440286   7.649783   1.772089
    12  H    5.196893   5.286144   6.440287   7.649783   1.772080
    13  H    4.136686   4.821445   5.050798   6.442194   2.439378
    14  H    4.136688   4.821448   5.050801   6.442195   2.439374
    15  H    2.746134   2.810416   4.019598   5.130664   3.747138
    16  H    2.746134   2.810418   4.019595   5.130666   3.747132
    17  H    3.429940   4.537173   3.867923   5.310273   4.149204
    18  H    2.807008   4.037228   2.779196   4.117236   5.562943
    19  H    2.807013   4.037233   2.779197   4.117242   5.562943
    20  H    1.908603   1.012594   3.145388   3.795784   5.594127
    21  H    2.062036   3.194469   1.005743   2.085236   7.094427
    22  H    2.651813   2.411442   2.135011   1.094496   8.521301
    23  H    3.190969   3.542324   2.091177   1.094372   8.965925
    24  H    3.190965   3.542323   2.091176   1.094364   8.965921
                   11         12         13         14         15
    11  H    0.000000
    12  H    1.779639   0.000000
    13  H    2.478420   3.050691   0.000000
    14  H    3.050695   2.478420   1.777979   0.000000
    15  H    3.124762   2.572423   3.055631   2.488584   0.000000
    16  H    2.572418   3.124752   2.488574   3.055622   1.768201
    17  H    4.412691   4.412690   2.114149   2.114149   3.421041
    18  H    5.678300   5.390343   3.680450   3.218914   3.692283
    19  H    5.390344   5.678298   3.218912   3.680449   4.098754
    20  H    4.475458   4.475460   4.420203   4.420208   2.161144
    21  H    6.698378   6.698377   4.975230   4.975232   4.448601
    22  H    7.614846   7.614847   6.750622   6.750624   5.069006
    23  H    8.184727   8.375184   6.865915   7.091673   5.927244
    24  H    8.375181   8.184726   7.091667   6.865914   5.656723
                   16         17         18         19         20
    16  H    0.000000
    17  H    3.421033   0.000000
    18  H    4.098745   1.738408   0.000000
    19  H    3.692282   1.738404   1.790969   0.000000
    20  H    2.161142   4.547596   4.368614   4.368616   0.000000
    21  H    4.448599   3.462543   2.223551   2.223554   3.962793
    22  H    5.069008   5.897351   4.839383   4.839387   3.393833
    23  H    5.656727   5.741291   4.657741   4.303552   4.525427
    24  H    5.927241   5.741287   4.303543   4.657739   4.525428
                   21         22         23         24
    21  H    0.000000
    22  H    3.002080   0.000000
    23  H    2.448790   1.765645   0.000000
    24  H    2.448785   1.765646   1.772236   0.000000
 Stoichiometry    C6H15N3
 Framework group  C1[X(C6H15N3)]
 Deg. of freedom    66
 Full point group                 C1      NOp   1
 Largest Abelian subgroup         C1      NOp   1
 Largest concise Abelian subgroup C1      NOp   1
                         Standard orientation:                         
 ---------------------------------------------------------------------
 Center     Atomic      Atomic             Coordinates (Angstroms)
 Number     Number       Type             X           Y           Z
 ---------------------------------------------------------------------
      1          6           0        3.851910   -0.521404   -0.000002
      2          6           0        2.606020    0.345939    0.000003
      3          6           0        1.311477   -0.467893    0.000003
      4          7           0        0.050061    0.310306   -0.000003
      5          6           0        0.132881    1.769783   -0.000001
      6          6           0       -1.167765   -0.353588    0.000002
      7          7           0       -1.298868   -1.642871   -0.000000
      8          7           0       -2.294639    0.408084   -0.000004
      9          6           0       -3.638898   -0.128151    0.000004
     10          1           0        4.742133    0.116838    0.000004
     11          1           0        3.889074   -1.156267   -0.889823
     12          1           0        3.889076   -1.156267    0.889816
     13          1           0        2.643555    0.986451   -0.888990
     14          1           0        2.643557    0.986453    0.888989
     15          1           0        1.316929   -1.119036    0.884104
     16          1           0        1.316933   -1.119030   -0.884097
     17          1           0        1.142928    2.181207    0.000001
     18          1           0       -0.347088    2.177002    0.895487
     19          1           0       -0.347086    2.177007   -0.895483
     20          1           0       -0.394615   -2.098582   -0.000006
     21          1           0       -2.233081    1.411941    0.000001
     22          1           0       -3.673317   -1.222106   -0.000001
     23          1           0       -4.179313    0.218819   -0.886119
     24          1           0       -4.179310    0.218822    0.886117
 ---------------------------------------------------------------------
 Rotational constants (GHZ):           4.0254141           0.7355963           0.6343776
 Standard basis: 6-31G(2df,p) (6D, 7F)
 There are   354 symmetry adapted cartesian basis functions of A   symmetry.
 There are   327 symmetry adapted basis functions of A   symmetry.
   327 basis functions,   501 primitive gaussians,   354 cartesian basis functions
    36 alpha electrons       36 beta electrons
       nuclear repulsion energy       477.3555897409 Hartrees.
 NAtoms=   24 NActive=   24 NUniq=   24 SFac= 1.00D+00 NAtFMM=   60 NAOKFM=F Big=F
 Integral buffers will be    131072 words long.
 Raffenetti 2 integral format.
 Two-electron integral symmetry is turned on.
 One-electron integrals computed using PRISM.
 PrsmSu:  requested number of processors reduced to:  13 ShMem   1 Linda.
 NBasis=   327 RedAO= T EigKep=  2.04D-04  NBF=   327
 NBsUse=   327 1.00D-06 EigRej= -1.00D+00 NBFU=   327
 ExpMin= 1.61D-01 ExpMax= 4.17D+03 ExpMxC= 6.27D+02 IAcc=3 IRadAn=         5 AccDes= 0.00D+00
 Harris functional with IExCor=  402 and IRadAn=       5 diagonalized for initial guess.
 HarFok:  IExCor=  402 AccDes= 0.00D+00 IRadAn=         5 IDoV= 1 UseB2=F ITyADJ=14
 ICtDFT=  3500011 ScaDFX=  1.000000  1.000000  1.000000  1.000000
 FoFCou: FMM=F IPFlag=           0 FMFlag=      100000 FMFlg1=           0
         NFxFlg=           0 DoJE=T BraDBF=F KetDBF=T FulRan=T
         wScrn=  0.000000 ICntrl=       500 IOpCl=  0 I1Cent=   200000004 NGrid=           0
         NMat0=    1 NMatS0=      1 NMatT0=    0 NMatD0=    1 NMtDS0=    0 NMtDT0=    0
 Petite list used in FoFCou.
 Requested convergence on RMS density matrix=1.00D-08 within 128 cycles.
 Requested convergence on MAX density matrix=1.00D-06.
 Requested convergence on             energy=1.00D-06.
 No special actions if energy rises.
 Integral accuracy reduced to 1.0D-05 until final iterations.
 Initial convergence to 1.0D-05 achieved.  Increase integral accuracy.
 SCF Done:  E(RB3LYP) =  -401.935858756     A.U. after   13 cycles
            NFock= 13  Conv=0.37D-08     -V/T= 2.0080

 **********************************************************************

            Population analysis using the SCF density.

 **********************************************************************

 Orbital symmetries:
       Occupied  (A) (A) (A) (A) (A) (A) (A) (A) (A) (A) (A) (A)
                 (A) (A) (A) (A) (A) (A) (A) (A) (A) (A) (A) (A)
                 (A) (A) (A) (A) (A) (A) (A) (A) (A) (A) (A) (A)
       Virtual   (A) (A) (A) (A) (A) (A) (A) (A) (A) (A) (A) (A)
                 (A) (A) (A) (A) (A) (A) (A) (A) (A) (A) (A) (A)
                 (A) (A) (A) (A) (A) (A) (A) (A) (A) (A) (A) (A)
                 (A) (A) (A) (A) (A) (A) (A) (A) (A) (A) (A) (A)
                 (A) (A) (A) (A) (A) (A) (A) (A) (A) (A) (A) (A)
                 (A) (A) (A) (A) (A) (A) (A) (A) (A) (A) (A) (A)
                 (A) (A) (A) (A) (A) (A) (A) (A) (A) (A) (A) (A)
                 (A) (A) (A) (A) (A) (A) (A) (A) (A) (A) (A) (A)
                 (A) (A) (A) (A) (A) (A) (A) (A) (A) (A) (A) (A)
                 (A) (A) (A) (A) (A) (A) (A) (A) (A) (A) (A) (A)
                 (A) (A) (A) (A) (A) (A) (A) (A) (A) (A) (A) (A)
                 (A) (A) (A) (A) (A) (A) (A) (A) (A) (A) (A) (A)
                 (A) (A) (A) (A) (A) (A) (A) (A) (A) (A) (A) (A)
                 (A) (A) (A) (A) (A) (A) (A) (A) (A) (A) (A) (A)
                 (A) (A) (A) (A) (A) (A) (A) (A) (A) (A) (A) (A)
                 (A) (A) (A) (A) (A) (A) (A) (A) (A) (A) (A) (A)
                 (A) (A) (A) (A) (A) (A) (A) (A) (A) (A) (A) (A)
                 (A) (A) (A) (A) (A) (A) (A) (A) (A) (A) (A) (A)
                 (A) (A) (A) (A) (A) (A) (A) (A) (A) (A) (A) (A)
                 (A) (A) (A) (A) (A) (A) (A) (A) (A) (A) (A) (A)
                 (A) (A) (A) (A) (A) (A) (A) (A) (A) (A) (A) (A)
                 (A) (A) (A) (A) (A) (A) (A) (A) (A) (A) (A) (A)
                 (A) (A) (A) (A) (A) (A) (A) (A) (A) (A) (A) (A)
                 (A) (A) (A) (A) (A) (A) (A) (A) (A) (A) (A) (A)
                 (A) (A) (A)
 The electronic state is 1-A.
 Alpha  occ. eigenvalues --  -14.33826 -14.32705 -14.24199 -10.25274 -10.21705
 Alpha  occ. eigenvalues --  -10.21600 -10.19570 -10.19353 -10.18263  -0.96672
 Alpha  occ. eigenvalues --   -0.89287  -0.81992  -0.78954  -0.70979  -0.69463
 Alpha  occ. eigenvalues --   -0.65715  -0.59485  -0.56025  -0.52604  -0.48697
 Alpha  occ. eigenvalues --   -0.47615  -0.44685  -0.43626  -0.42905  -0.42142
 Alpha  occ. eigenvalues --   -0.41147  -0.39958  -0.38386  -0.36776  -0.36048
 Alpha  occ. eigenvalues --   -0.35276  -0.34212  -0.33107  -0.23227  -0.21944
 Alpha  occ. eigenvalues --   -0.18759
 Alpha virt. eigenvalues --    0.07457   0.08961   0.09155   0.11318   0.12686
 Alpha virt. eigenvalues --    0.12920   0.14206   0.14601   0.15117   0.16088
 Alpha virt. eigenvalues --    0.17203   0.18090   0.18528   0.18536   0.18712
 Alpha virt. eigenvalues --    0.19376   0.19702   0.21360   0.23740   0.25213
 Alpha virt. eigenvalues --    0.26614   0.32207   0.36109   0.36974   0.42605
 Alpha virt. eigenvalues --    0.45938   0.46294   0.47486   0.50426   0.51050
 Alpha virt. eigenvalues --    0.51924   0.52100   0.53811   0.56957   0.58013
 Alpha virt. eigenvalues --    0.58788   0.60189   0.60603   0.61151   0.62612
 Alpha virt. eigenvalues --    0.63133   0.64477   0.65722   0.69569   0.69967
 Alpha virt. eigenvalues --    0.70439   0.71127   0.71875   0.73789   0.73808
 Alpha virt. eigenvalues --    0.74820   0.75220   0.75707   0.77042   0.78005
 Alpha virt. eigenvalues --    0.78350   0.78555   0.79945   0.81182   0.81635
 Alpha virt. eigenvalues --    0.85278   0.85381   0.86351   0.88400   0.88967
 Alpha virt. eigenvalues --    0.90384   0.92015   0.92757   0.97607   0.99076
 Alpha virt. eigenvalues --    1.02605   1.04145   1.04168   1.13474   1.17322
 Alpha virt. eigenvalues --    1.17758   1.18419   1.21142   1.23176   1.23666
 Alpha virt. eigenvalues --    1.25589   1.27551   1.30014   1.30267   1.32336
 Alpha virt. eigenvalues --    1.34149   1.36676   1.38392   1.41502   1.41628
 Alpha virt. eigenvalues --    1.44012   1.46550   1.49718   1.50370   1.51085
 Alpha virt. eigenvalues --    1.54495   1.56501   1.60885   1.61906   1.63451
 Alpha virt. eigenvalues --    1.64412   1.66896   1.70243   1.71862   1.77378
 Alpha virt. eigenvalues --    1.80688   1.82528   1.82989   1.86409   1.87251
 Alpha virt. eigenvalues --    1.89901   1.91859   1.92336   1.94861   1.96323
 Alpha virt. eigenvalues --    1.98372   1.98482   2.00925   2.03278   2.03716
 Alpha virt. eigenvalues --    2.14962   2.16606   2.18936   2.22130   2.24180
 Alpha virt. eigenvalues --    2.24895   2.26388   2.28839   2.29807   2.35121
 Alpha virt. eigenvalues --    2.37304   2.37425   2.43587   2.46728   2.49775
 Alpha virt. eigenvalues --    2.50802   2.54310   2.56780   2.59286   2.60260
 Alpha virt. eigenvalues --    2.64148   2.66992   2.70441   2.73661   2.75089
 Alpha virt. eigenvalues --    2.75173   2.77590   2.80346   2.81384   2.82613
 Alpha virt. eigenvalues --    2.84164   2.84611   2.85559   2.87542   2.89494
 Alpha virt. eigenvalues --    2.90721   2.91288   2.91683   2.93026   2.97131
 Alpha virt. eigenvalues --    2.97664   3.00304   3.02930   3.06298   3.08565
 Alpha virt. eigenvalues --    3.09713   3.12007   3.12296   3.13504   3.16796
 Alpha virt. eigenvalues --    3.18700   3.20392   3.21978   3.28028   3.29458
 Alpha virt. eigenvalues --    3.32266   3.33895   3.36334   3.39726   3.40124
 Alpha virt. eigenvalues --    3.41569   3.44980   3.48564   3.49636   3.51899
 Alpha virt. eigenvalues --    3.58329   3.58789   3.60473   3.62780   3.62869
 Alpha virt. eigenvalues --    3.65104   3.67824   3.69213   3.71088   3.72894
 Alpha virt. eigenvalues --    3.73533   3.73882   3.81606   3.81923   3.82280
 Alpha virt. eigenvalues --    3.84686   3.85939   3.90004   3.94411   3.95067
 Alpha virt. eigenvalues --    4.00309   4.02729   4.05006   4.06033   4.10443
 Alpha virt. eigenvalues --    4.14505   4.14721   4.19258   4.20523   4.26387
 Alpha virt. eigenvalues --    4.27369   4.32395   4.32970   4.33959   4.35531
 Alpha virt. eigenvalues --    4.37703   4.39754   4.41604   4.42053   4.44016
 Alpha virt. eigenvalues --    4.45994   4.47311   4.49182   4.50730   4.50796
 Alpha virt. eigenvalues --    4.52161   4.55198   4.56316   4.57771   4.61955
 Alpha virt. eigenvalues --    4.62395   4.64376   4.65013   4.66235   4.68171
 Alpha virt. eigenvalues --    4.68281   4.69256   4.72884   4.73533   4.76052
 Alpha virt. eigenvalues --    4.76613   4.76789   4.78587   4.80566   4.82079
 Alpha virt. eigenvalues --    4.83563   4.84370   4.88354   4.89949   4.91138
 Alpha virt. eigenvalues --    4.91722   4.94258   4.96566   5.00611   5.05218
 Alpha virt. eigenvalues --    5.07104   5.12244   5.13416   5.17909   5.18589
 Alpha virt. eigenvalues --    5.21001   5.28709   5.33179   5.36236   5.37885
 Alpha virt. eigenvalues --    5.42450   5.45932   5.60659   5.65852   5.70867
 Alpha virt. eigenvalues --    5.81974   5.95266   6.04751   6.22990  10.46117
 Alpha virt. eigenvalues --   11.04832  11.21055  11.34825  11.44358  11.47412
 Alpha virt. eigenvalues --   11.52342  11.84140  12.17840  13.14346  16.63419
 Alpha virt. eigenvalues --   22.50738
          Condensed to atoms (all electrons):
               1          2          3          4          5          6
     1  C    4.959586   0.408267  -0.036123   0.001727   0.000486  -0.000038
     2  C    0.408267   4.820886   0.411351  -0.028758  -0.006810   0.002120
     3  C   -0.036123   0.411351   4.814446   0.410525  -0.080859  -0.049079
     4  N    0.001727  -0.028758   0.410525   6.148625   0.394209   0.471190
     5  C    0.000486  -0.006810  -0.080859   0.394209   4.986589  -0.050734
     6  C   -0.000038   0.002120  -0.049079   0.471190  -0.050734   4.331571
     7  N    0.000004   0.001436  -0.005319  -0.056314   0.005269   0.622386
     8  N    0.000001  -0.000027   0.002738  -0.034722  -0.010194   0.366563
     9  C   -0.000000  -0.000001  -0.000148   0.002340  -0.000275  -0.043065
    10  H    0.376739  -0.020745   0.002897  -0.000070   0.000015   0.000000
    11  H    0.378093  -0.027074  -0.003719   0.000069  -0.000007  -0.000001
    12  H    0.378093  -0.027075  -0.003719   0.000069  -0.000007  -0.000001
    13  H   -0.035959   0.368028  -0.027195  -0.001243  -0.002106   0.000065
    14  H   -0.035959   0.368029  -0.027196  -0.001243  -0.002106   0.000065
    15  H   -0.003277  -0.033370   0.353128  -0.032576   0.003890  -0.002674
    16  H   -0.003277  -0.033370   0.353127  -0.032576   0.003890  -0.002674
    17  H   -0.000206   0.002409  -0.011828  -0.011315   0.375082   0.002299
    18  H   -0.000021   0.000231   0.004152  -0.035565   0.367542  -0.003782
    19  H   -0.000021   0.000231   0.004152  -0.035565   0.367543  -0.003782
    20  H    0.000020   0.000258   0.010052  -0.018301   0.000501  -0.085634
    21  H   -0.000000  -0.000002   0.000210  -0.004795   0.009452  -0.041956
    22  H   -0.000000  -0.000000  -0.000020   0.000138  -0.000003   0.001263
    23  H    0.000000  -0.000000   0.000002   0.000026   0.000009   0.002388
    24  H    0.000000  -0.000000   0.000002   0.000026   0.000009   0.002388
               7          8          9         10         11         12
     1  C    0.000004   0.000001  -0.000000   0.376739   0.378093   0.378093
     2  C    0.001436  -0.000027  -0.000001  -0.020745  -0.027074  -0.027075
     3  C   -0.005319   0.002738  -0.000148   0.002897  -0.003719  -0.003719
     4  N   -0.056314  -0.034722   0.002340  -0.000070   0.000069   0.000069
     5  C    0.005269  -0.010194  -0.000275   0.000015  -0.000007  -0.000007
     6  C    0.622386   0.366563  -0.043065   0.000000  -0.000001  -0.000001
     7  N    6.690090  -0.022504  -0.014004   0.000000  -0.000002  -0.000002
     8  N   -0.022504   6.393223   0.372345  -0.000000  -0.000000  -0.000000
     9  C   -0.014004   0.372345   4.914092   0.000000   0.000000   0.000000
    10  H    0.000000  -0.000000   0.000000   0.592167  -0.031231  -0.031232
    11  H   -0.000002  -0.000000   0.000000  -0.031231   0.588580  -0.031533
    12  H   -0.000002  -0.000000   0.000000  -0.031232  -0.031533   0.588581
    13  H   -0.000017  -0.000003   0.000000  -0.003073  -0.004843   0.005719
    14  H   -0.000017  -0.000003   0.000000  -0.003073   0.005719  -0.004843
    15  H    0.003952  -0.000039   0.000003  -0.000118  -0.000529   0.005079
    16  H    0.003952  -0.000039   0.000003  -0.000118   0.005079  -0.000529
    17  H   -0.000211   0.000182   0.000003   0.000015   0.000022   0.000022
    18  H    0.000003   0.002744   0.000112  -0.000000  -0.000000   0.000002
    19  H    0.000003   0.002744   0.000112  -0.000000   0.000002  -0.000000
    20  H    0.359200   0.005305   0.000045  -0.000001   0.000002   0.000002
    21  H    0.003442   0.363890  -0.042862  -0.000000   0.000000   0.000000
    22  H    0.019275  -0.017370   0.375234   0.000000   0.000000   0.000000
    23  H    0.000894  -0.037293   0.378566  -0.000000  -0.000000   0.000000
    24  H    0.000894  -0.037292   0.378567  -0.000000   0.000000  -0.000000
              13         14         15         16         17         18
     1  C   -0.035959  -0.035959  -0.003277  -0.003277  -0.000206  -0.000021
     2  C    0.368028   0.368029  -0.033370  -0.033370   0.002409   0.000231
     3  C   -0.027195  -0.027196   0.353128   0.353127  -0.011828   0.004152
     4  N   -0.001243  -0.001243  -0.032576  -0.032576  -0.011315  -0.035565
     5  C   -0.002106  -0.002106   0.003890   0.003890   0.375082   0.367542
     6  C    0.000065   0.000065  -0.002674  -0.002674   0.002299  -0.003782
     7  N   -0.000017  -0.000017   0.003952   0.003952  -0.000211   0.000003
     8  N   -0.000003  -0.000003  -0.000039  -0.000039   0.000182   0.002744
     9  C    0.000000   0.000000   0.000003   0.000003   0.000003   0.000112
    10  H   -0.003073  -0.003073  -0.000118  -0.000118   0.000015  -0.000000
    11  H   -0.004843   0.005719  -0.000529   0.005079   0.000022  -0.000000
    12  H    0.005719  -0.004843   0.005079  -0.000529   0.000022   0.000002
    13  H    0.633672  -0.044659   0.006230  -0.007115   0.003651   0.000229
    14  H   -0.044659   0.633671  -0.007115   0.006230   0.003651  -0.000293
    15  H    0.006230  -0.007115   0.655027  -0.063292   0.000419   0.000594
    16  H   -0.007115   0.006230  -0.063292   0.655026   0.000419  -0.000411
    17  H    0.003651   0.003651   0.000419   0.000419   0.559664  -0.032051
    18  H    0.000229  -0.000293   0.000594  -0.000411  -0.032051   0.626141
    19  H   -0.000293   0.000229  -0.000411   0.000594  -0.032051  -0.053041
    20  H    0.000015   0.000015   0.003255   0.003255  -0.000024  -0.000008
    21  H    0.000001   0.000001  -0.000006  -0.000006  -0.000329   0.002773
    22  H    0.000000   0.000000  -0.000000  -0.000000   0.000001  -0.000004
    23  H    0.000000  -0.000000   0.000000  -0.000001   0.000000   0.000039
    24  H   -0.000000   0.000000  -0.000001   0.000000   0.000000  -0.000088
              19         20         21         22         23         24
     1  C   -0.000021   0.000020  -0.000000  -0.000000   0.000000   0.000000
     2  C    0.000231   0.000258  -0.000002  -0.000000  -0.000000  -0.000000
     3  C    0.004152   0.010052   0.000210  -0.000020   0.000002   0.000002
     4  N   -0.035565  -0.018301  -0.004795   0.000138   0.000026   0.000026
     5  C    0.367543   0.000501   0.009452  -0.000003   0.000009   0.000009
     6  C   -0.003782  -0.085634  -0.041956   0.001263   0.002388   0.002388
     7  N    0.000003   0.359200   0.003442   0.019275   0.000894   0.000894
     8  N    0.002744   0.005305   0.363890  -0.017370  -0.037293  -0.037292
     9  C    0.000112   0.000045  -0.042862   0.375234   0.378566   0.378567
    10  H   -0.000000  -0.000001  -0.000000   0.000000  -0.000000  -0.000000
    11  H    0.000002   0.000002   0.000000   0.000000  -0.000000   0.000000
    12  H   -0.000000   0.000002   0.000000   0.000000   0.000000  -0.000000
    13  H   -0.000293   0.000015   0.000001   0.000000   0.000000  -0.000000
    14  H    0.000229   0.000015   0.000001   0.000000  -0.000000   0.000000
    15  H   -0.000411   0.003255  -0.000006  -0.000000   0.000000  -0.000001
    16  H    0.000594   0.003255  -0.000006  -0.000000  -0.000001   0.000000
    17  H   -0.032051  -0.000024  -0.000329   0.000001   0.000000   0.000000
    18  H   -0.053041  -0.000008   0.002773  -0.000004   0.000039  -0.000088
    19  H    0.626139  -0.000008   0.002773  -0.000004  -0.000088   0.000039
    20  H   -0.000008   0.527464  -0.000367  -0.000835  -0.000007  -0.000007
    21  H    0.002773  -0.000367   0.470478   0.003464  -0.001106  -0.001106
    22  H   -0.000004  -0.000835   0.003464   0.495215  -0.027662  -0.027663
    23  H   -0.000088  -0.000007  -0.001106  -0.027662   0.619271  -0.045635
    24  H    0.000039  -0.000007  -0.001106  -0.027663  -0.045635   0.619268
 Mulliken charges:
               1
     1  C   -0.388136
     2  C   -0.206017
     3  C   -0.121576
     4  N   -0.135903
     5  C   -0.361387
     6  C    0.481121
     7  N   -0.612411
     8  N   -0.350250
     9  C   -0.321069
    10  H    0.117829
    11  H    0.121374
    12  H    0.121374
    13  H    0.108896
    14  H    0.108897
    15  H    0.111831
    16  H    0.111831
    17  H    0.140172
    18  H    0.120702
    19  H    0.120703
    20  H    0.195803
    21  H    0.236050
    22  H    0.178970
    23  H    0.110597
    24  H    0.110599
 Sum of Mulliken charges =  -0.00000
 Mulliken charges with hydrogens summed into heavy atoms:
               1
     1  C   -0.027559
     2  C    0.011776
     3  C    0.102086
     4  N   -0.135903
     5  C    0.020189
     6  C    0.481121
     7  N   -0.416608
     8  N   -0.114200
     9  C    0.079097
 Electronic spatial extent (au):  <R**2>=           1850.9092
 Charge=             -0.0000 electrons
 Dipole moment (field-independent basis, Debye):
    X=              1.9880    Y=              3.3424    Z=              0.0000  Tot=              3.8889
 Quadrupole moment (field-independent basis, Debye-Ang):
   XX=            -52.7550   YY=            -58.1554   ZZ=            -58.1372
   XY=             -6.0401   XZ=             -0.0000   YZ=              0.0000
 Traceless Quadrupole moment (field-independent basis, Debye-Ang):
   XX=              3.5942   YY=             -1.8062   ZZ=             -1.7880
   XY=             -6.0401   XZ=             -0.0000   YZ=              0.0000
 Octapole moment (field-independent basis, Debye-Ang**2):
  XXX=            -14.7932  YYY=             13.2350  ZZZ=             -0.0000  XYY=              5.8012
  XXY=             12.3954  XXZ=              0.0003  XZZ=              1.0760  YZZ=              1.3103
  YYZ=             -0.0001  XYZ=             -0.0000
 Hexadecapole moment (field-independent basis, Debye-Ang**3):
 XXXX=          -1922.6549 YYYY=           -410.8624 ZZZZ=            -90.6778 XXXY=             -0.0495
 XXXZ=             -0.0002 YYYX=            -26.0544 YYYZ=              0.0000 ZZZX=             -0.0001
 ZZZY=              0.0000 XXYY=           -405.0921 XXZZ=           -346.1300 YYZZ=            -82.6123
 XXYZ=              0.0004 YYXZ=             -0.0000 ZZXY=             -5.3169
 N-N= 4.773555897409D+02 E-N=-1.887659552970D+03  KE= 3.987279378353D+02
 PrsmSu:  requested number of processors reduced to:  13 ShMem   1 Linda.
 Calling FoFJK, ICntrl=      2127 FMM=F ISym2X=0 I1Cent= 0 IOpClX= 0 NMat=1 NMatS=1 NMatT=0.
 ***** Axes restored to original set *****
 -------------------------------------------------------------------
 Center     Atomic                   Forces (Hartrees/Bohr)
 Number     Number              X              Y              Z
 -------------------------------------------------------------------
      1        6          -0.004071245    0.000884133    0.000419626
      2        6           0.006823980   -0.001563875   -0.000745467
      3        6           0.007928729    0.007069230    0.003355858
      4        7          -0.010853883   -0.024590515   -0.011664597
      5        6           0.008540605    0.006884439    0.003268054
      6        6          -0.021969278    0.013596784    0.006448651
      7        7           0.000350911   -0.003382953   -0.001604406
      8        7           0.012528527   -0.006672705   -0.003164593
      9        6           0.004434187    0.002875516    0.001357961
     10        1          -0.001256752    0.001417833    0.000671887
     11        1          -0.002036046    0.000631938    0.000703907
     12        1          -0.002036831    0.000945628    0.000045692
     13        1           0.002055361   -0.001689984    0.000934983
     14        1           0.002055804   -0.000347291   -0.001898527
     15        1          -0.001547444    0.001531662    0.000602331
     16        1          -0.001549019    0.001438393    0.000803652
     17        1          -0.004684237    0.007139013    0.003386603
     18        1           0.005270672   -0.001310735   -0.000117762
     19        1           0.005271776   -0.000919298   -0.000942091
     20        1          -0.000234465    0.001305457    0.000619464
     21        1          -0.004155948    0.001244689    0.000590548
     22        1          -0.005619816   -0.008278696   -0.003926488
     23        1           0.002376009    0.001469586   -0.000782716
     24        1           0.002378402    0.000321753    0.001637428
 -------------------------------------------------------------------
 Cartesian Forces:  Max     0.024590515 RMS     0.005872110

 GradGradGradGradGradGradGradGradGradGradGradGradGradGradGradGradGradGrad
 Berny optimization.
 FormGI is forming the generalized inverse of G from B-inverse, IUseBI=4.
 Internal  Forces:  Max     0.023600317 RMS     0.004710703
 Search for a local minimum.
 Step number   1 out of a maximum of  119
 All quantities printed in internal units (Hartrees-Bohrs-Radians)
 Mixed Optimization -- RFO/linear search
 Second derivative matrix not updated -- first step.
 ITU=  0
     Eigenvalues ---    0.00381   0.00527   0.00605   0.00874   0.01033
     Eigenvalues ---    0.01067   0.01555   0.01863   0.02219   0.02251
     Eigenvalues ---    0.03068   0.03643   0.03784   0.04923   0.05400
     Eigenvalues ---    0.05603   0.05818   0.06897   0.07173   0.07295
     Eigenvalues ---    0.07575   0.08379   0.09866   0.12214   0.13182
     Eigenvalues ---    0.16000   0.16000   0.16000   0.16000   0.16000
     Eigenvalues ---    0.16000   0.16000   0.16000   0.16000   0.16000
     Eigenvalues ---    0.16000   0.21988   0.22000   0.22046   0.25000
     Eigenvalues ---    0.25000   0.25000   0.25000   0.29506   0.30554
     Eigenvalues ---    0.33902   0.33902   0.34089   0.34090   0.34199
     Eigenvalues ---    0.34289   0.34290   0.34298   0.34312   0.34313
     Eigenvalues ---    0.34325   0.34387   0.34387   0.34740   0.36737
     Eigenvalues ---    0.38605   0.45541   0.46693   0.47839   0.52919
     Eigenvalues ---    0.68336
 RFO step:  Lambda=-1.04364924D-02 EMin= 3.80925656D-03
 Linear search not attempted -- first point.
 Iteration  1 RMS(Cart)=  0.07638494 RMS(Int)=  0.00164763
 Iteration  2 RMS(Cart)=  0.00304432 RMS(Int)=  0.00019110
 Iteration  3 RMS(Cart)=  0.00000182 RMS(Int)=  0.00019110
 Iteration  4 RMS(Cart)=  0.00000000 RMS(Int)=  0.00019110
 Variable       Old X    -DE/DX   Delta X   Delta X   Delta X     New X
                                 (Linear)    (Quad)   (Total)
    R1        2.86873   0.00944   0.00000   0.02988   0.02988   2.89861
    R2        2.06996  -0.00104   0.00000  -0.00296  -0.00296   2.06700
    R3        2.06682   0.00083   0.00000   0.00234   0.00234   2.06916
    R4        2.06682   0.00083   0.00000   0.00234   0.00234   2.06916
    R5        2.88959  -0.00090   0.00000  -0.00293  -0.00293   2.88666
    R6        2.07179  -0.00009   0.00000  -0.00025  -0.00025   2.07154
    R7        2.07178  -0.00009   0.00000  -0.00024  -0.00024   2.07154
    R8        2.80085  -0.00688   0.00000  -0.01946  -0.01946   2.78139
    R9        2.07496   0.00123   0.00000   0.00353   0.00353   2.07849
   R10        2.07495   0.00124   0.00000   0.00354   0.00354   2.07849
   R11        2.76245  -0.00375   0.00000  -0.00993  -0.00993   2.75251
   R12        2.62111  -0.00207   0.00000  -0.00424  -0.00424   2.61687
   R13        2.06098  -0.00400   0.00000  -0.01118  -0.01118   2.04981
   R14        2.06845   0.00346   0.00000   0.00980   0.00980   2.07824
   R15        2.06844   0.00346   0.00000   0.00980   0.00980   2.07824
   R16        2.44895  -0.00208   0.00000  -0.00299  -0.00299   2.44596
   R17        2.57030   0.01190   0.00000   0.02205   0.02205   2.59235
   R18        1.91353   0.00004   0.00000   0.00009   0.00009   1.91362
   R19        2.73494  -0.00132   0.00000  -0.00334  -0.00334   2.73160
   R20        1.90058  -0.00331   0.00000  -0.00694  -0.00694   1.89364
   R21        2.06830  -0.00471   0.00000  -0.01332  -0.01332   2.05498
   R22        2.06806   0.00249   0.00000   0.00705   0.00705   2.07511
   R23        2.06805   0.00250   0.00000   0.00706   0.00706   2.07511
    A1        1.91144   0.00193   0.00000   0.01355   0.01346   1.92489
    A2        1.93857   0.00175   0.00000   0.00911   0.00906   1.94763
    A3        1.93856   0.00175   0.00000   0.00911   0.00907   1.94763
    A4        1.88663  -0.00158   0.00000  -0.00708  -0.00718   1.87945
    A5        1.88662  -0.00158   0.00000  -0.00708  -0.00717   1.87945
    A6        1.90055  -0.00247   0.00000  -0.01860  -0.01860   1.88195
    A7        1.97222  -0.00866   0.00000  -0.03572  -0.03557   1.93665
    A8        1.88146   0.00364   0.00000   0.02080   0.02074   1.90220
    A9        1.88147   0.00364   0.00000   0.02080   0.02073   1.90220
   A10        1.91763   0.00211   0.00000   0.00608   0.00627   1.92390
   A11        1.91764   0.00211   0.00000   0.00607   0.00627   1.92391
   A12        1.89127  -0.00266   0.00000  -0.01737  -0.01760   1.87367
   A13        2.02759   0.00391   0.00000   0.02129   0.02120   2.04879
   A14        1.88748  -0.00100   0.00000  -0.00339  -0.00349   1.88399
   A15        1.88747  -0.00100   0.00000  -0.00339  -0.00349   1.88399
   A16        1.89187  -0.00079   0.00000   0.00058   0.00052   1.89240
   A17        1.89187  -0.00079   0.00000   0.00058   0.00053   1.89240
   A18        1.87195  -0.00064   0.00000  -0.01891  -0.01895   1.85300
   A19        2.06688   0.02360   0.00000   0.09062   0.09062   2.15750
   A20        2.08971  -0.01318   0.00000  -0.05060  -0.05060   2.03911
   A21        2.12659  -0.01042   0.00000  -0.04002  -0.04002   2.08658
   A22        2.01429  -0.01313   0.00000  -0.07835  -0.07787   1.93642
   A23        1.92473   0.00521   0.00000   0.03120   0.03113   1.95586
   A24        1.92474   0.00521   0.00000   0.03119   0.03112   1.95586
   A25        1.83978   0.00369   0.00000   0.02046   0.02091   1.86069
   A26        1.83978   0.00369   0.00000   0.02046   0.02091   1.86069
   A27        1.91624  -0.00495   0.00000  -0.02653  -0.02707   1.88918
   A28        2.17124   0.00800   0.00000   0.03073   0.03073   2.20197
   A29        2.04810  -0.01564   0.00000  -0.06005  -0.06005   1.98805
   A30        2.06384   0.00764   0.00000   0.02932   0.02932   2.09316
   A31        1.93627   0.00280   0.00000   0.01643   0.01643   1.95270
   A32        2.16765  -0.00353   0.00000  -0.01534  -0.01534   2.15231
   A33        2.10393  -0.00095   0.00000  -0.00830  -0.00830   2.09563
   A34        2.01161   0.00449   0.00000   0.02364   0.02364   2.03525
   A35        1.98181  -0.01547   0.00000  -0.09736  -0.09726   1.88456
   A36        1.91898   0.00447   0.00000   0.02942   0.02893   1.94791
   A37        1.91899   0.00447   0.00000   0.02941   0.02893   1.94791
   A38        1.87692   0.00428   0.00000   0.01885   0.01895   1.89587
   A39        1.87693   0.00428   0.00000   0.01884   0.01894   1.89587
   A40        1.88731  -0.00158   0.00000   0.00415   0.00319   1.89049
    D1       -3.14159  -0.00000   0.00000  -0.00000  -0.00000  -3.14159
    D2        1.01911   0.00034   0.00000   0.00066   0.00079   1.01990
    D3       -1.01909  -0.00034   0.00000  -0.00067  -0.00080  -1.01989
    D4        1.05902  -0.00037   0.00000  -0.00558  -0.00561   1.05341
    D5       -1.06347  -0.00003   0.00000  -0.00492  -0.00482  -1.06829
    D6       -3.10167  -0.00071   0.00000  -0.00625  -0.00640  -3.10807
    D7       -1.05902   0.00037   0.00000   0.00559   0.00561  -1.05341
    D8        3.10167   0.00071   0.00000   0.00625   0.00640   3.10808
    D9        1.06347   0.00003   0.00000   0.00492   0.00482   1.06829
   D10       -3.14158  -0.00000   0.00000  -0.00001  -0.00001  -3.14159
   D11        1.01090  -0.00090   0.00000  -0.01289  -0.01288   0.99803
   D12       -1.01090   0.00090   0.00000   0.01288   0.01287  -0.99802
   D13       -1.03962   0.00034   0.00000   0.00693   0.00696  -1.03266
   D14        3.11287  -0.00056   0.00000  -0.00595  -0.00591   3.10696
   D15        1.09107   0.00123   0.00000   0.01982   0.01984   1.11091
   D16        1.03962  -0.00034   0.00000  -0.00694  -0.00696   1.03266
   D17       -1.09108  -0.00123   0.00000  -0.01982  -0.01983  -1.11091
   D18       -3.11288   0.00056   0.00000   0.00595   0.00592  -3.10696
   D19       -0.00000   0.00000   0.00000   0.00000   0.00000  -0.00000
   D20       -3.14159   0.00000   0.00000   0.00000   0.00000  -3.14159
   D21        2.12837   0.00080   0.00000   0.01086   0.01089   2.13926
   D22       -1.01321   0.00080   0.00000   0.01086   0.01089  -1.00233
   D23       -2.12837  -0.00080   0.00000  -0.01087  -0.01090  -2.13927
   D24        1.01323  -0.00080   0.00000  -0.01087  -0.01089   1.00234
   D25        0.00000   0.00000   0.00000   0.00000   0.00000   0.00001
   D26       -2.08196   0.00033   0.00000   0.00393   0.00431  -2.07765
   D27        2.08197  -0.00033   0.00000  -0.00393  -0.00431   2.07766
   D28        3.14159   0.00000   0.00000   0.00000   0.00000   3.14159
   D29        1.05963   0.00033   0.00000   0.00393   0.00431   1.06394
   D30       -1.05963  -0.00033   0.00000  -0.00393  -0.00431  -1.06395
   D31       -0.00001   0.00000   0.00000   0.00001   0.00001  -0.00000
   D32       -3.14159  -0.00000   0.00000  -0.00001  -0.00001   3.14159
   D33        3.14159   0.00000   0.00000   0.00001   0.00001  -3.14159
   D34        0.00001  -0.00000   0.00000  -0.00001  -0.00001   0.00000
   D35       -0.00000   0.00000   0.00000  -0.00000  -0.00000  -0.00000
   D36        3.14158   0.00000   0.00000   0.00001   0.00001   3.14159
   D37       -3.14159   0.00000   0.00000   0.00000   0.00000  -3.14159
   D38       -0.00001   0.00000   0.00000   0.00000   0.00000  -0.00001
   D39        0.00001  -0.00000   0.00000  -0.00001  -0.00001   0.00001
   D40        3.14159  -0.00000   0.00000  -0.00001  -0.00001   3.14158
   D41       -0.00002   0.00000   0.00000   0.00000   0.00000  -0.00001
   D42       -2.10358   0.00178   0.00000   0.02065   0.02107  -2.08251
   D43        2.10357  -0.00178   0.00000  -0.02066  -0.02108   2.08249
   D44        3.14159   0.00000   0.00000   0.00001   0.00001  -3.14159
   D45        1.03803   0.00178   0.00000   0.02066   0.02107   1.05910
   D46       -1.03800  -0.00178   0.00000  -0.02066  -0.02108  -1.05908
         Item               Value     Threshold  Converged?
 Maximum Force            0.023600     0.000450     NO 
 RMS     Force            0.004711     0.000300     NO 
 Maximum Displacement     0.257833     0.001800     NO 
 RMS     Displacement     0.076874     0.001200     NO 
 Predicted change in Energy=-5.491053D-03
 GradGradGradGradGradGradGradGradGradGradGradGradGradGradGradGradGradGrad

                          Input orientation:                          
 ---------------------------------------------------------------------
 Center     Atomic      Atomic             Coordinates (Angstroms)
 Number     Number       Type             X           Y           Z
 ---------------------------------------------------------------------
      1          6           0        0.918087    0.119533   -0.049034
      2          6           0        2.448193    0.022399   -0.095116
      3          6           0        3.093307    1.273427    0.498328
      4          7           0        4.563858    1.329253    0.524804
      5          6           0        5.420451    0.264870    0.019899
      6          6           0        5.136503    2.468419    1.065191
      7          7           0        4.500908    3.487151    1.548448
      8          7           0        6.508258    2.457184    1.059863
      9          6           0        7.313170    3.541974    1.574466
     10          1           0        0.467839   -0.781117   -0.476266
     11          1           0        0.551451    0.978151   -0.621112
     12          1           0        0.551456    0.219663    0.977844
     13          1           0        2.765958   -0.110684   -1.135786
     14          1           0        2.765964   -0.867752    0.460162
     15          1           0        2.722374    1.390444    1.527149
     16          1           0        2.722366    2.144234   -0.061899
     17          1           0        4.829203   -0.556780   -0.369864
     18          1           0        6.063549   -0.156017    0.806505
     19          1           0        6.063549    0.607802   -0.803686
     20          1           0        3.496994    3.367280    1.491583
     21          1           0        7.002484    1.669586    0.686260
     22          1           0        6.640904    4.314242    1.940801
     23          1           0        7.953588    3.975445    0.794852
     24          1           0        7.953574    3.212403    2.403378
 ---------------------------------------------------------------------
                    Distance matrix (angstroms):
                    1          2          3          4          5
     1  C    0.000000
     2  C    1.533879   0.000000
     3  C    2.522431   1.527553   0.000000
     4  N    3.883859   2.562851   1.471849   0.000000
     5  C    4.505237   2.984349   2.581023   1.456568   0.000000
     6  C    4.955179   3.815277   2.433925   1.384789   2.455379
     7  N    5.170049   4.349649   2.825715   2.389212   3.683085
     8  N    6.159893   4.873016   3.657662   2.310673   2.659152
     9  C    7.432762   6.232409   4.910359   3.681935   4.091268
    10  H    1.093810   2.170879   3.473337   4.715207   5.086123
    11  H    1.094952   2.188096   2.793092   4.187577   4.962542
    12  H    1.094953   2.188096   2.793091   4.187577   4.962541
    13  H    2.156075   1.096212   2.166391   2.839616   2.919415
    14  H    2.156075   1.096212   2.166392   2.839618   2.919412
    15  H    2.712014   2.139735   1.099890   2.097500   3.289125
    16  H    2.712012   2.139734   1.099889   2.097500   3.289128
    17  H    3.982105   2.465794   2.667723   2.104271   1.084711
    18  H    5.223376   3.730355   3.310683   2.129426   1.099759
    19  H    5.223379   3.730358   3.310685   2.129425   1.099759
    20  H    4.424040   3.847834   2.352390   2.495279   3.935795
    21  H    6.321646   4.905644   3.933691   2.467547   2.218127
    22  H    7.369238   6.335906   4.890064   3.902477   4.645081
    23  H    8.067124   6.835788   5.568766   4.308774   4.559134
    24  H    8.067109   6.835775   5.568755   4.308766   4.559126
                    6          7          8          9         10
     6  C    0.000000
     7  N    1.294347   0.000000
     8  N    1.371811   2.308463   0.000000
     9  C    2.479872   2.812918   1.445500   0.000000
    10  H    5.893386   6.211539   7.023742   8.351837   0.000000
    11  H    5.107564   5.157545   6.363707   7.557420   1.767200
    12  H    5.107562   5.157541   6.363703   7.557413   1.767198
    13  H    4.137095   4.812440   5.041789   6.431525   2.483103
    14  H    4.137094   4.812439   5.041786   6.431519   2.483100
    15  H    2.683925   2.749512   3.960961   5.070181   3.716487
    16  H    2.683930   2.749518   3.960968   5.070192   3.716487
    17  H    3.362386   4.487880   3.734612   5.172069   4.368426
    18  H    2.795353   4.032989   2.662852   3.978248   5.774792
    19  H    2.795355   4.032993   2.662855   3.978257   5.774797
    20  H    1.917747   1.012642   3.175274   3.821071   5.500674
    21  H    2.064850   3.210108   1.002073   2.095537   7.075238
    22  H    2.537120   2.327575   2.059687   1.087447   8.361318
    23  H    3.206272   3.567540   2.112895   1.098103   8.959747
    24  H    3.206266   3.567533   2.112895   1.098102   8.959731
                   11         12         13         14         15
    11  H    0.000000
    12  H    1.769735   0.000000
    13  H    2.520812   3.079055   0.000000
    14  H    3.079055   2.520815   1.766410   0.000000
    15  H    3.081868   2.526924   3.057206   2.497961   0.000000
    16  H    2.526923   3.081865   2.497957   3.057206   1.758770
    17  H    4.551736   4.551735   2.245577   2.245574   3.439341
    18  H    5.805829   5.527536   3.827356   3.391251   3.751576
    19  H    5.527542   5.805831   3.391256   3.827354   4.148346
    20  H    4.341387   4.341384   4.419696   4.419698   2.123484
    21  H    6.618393   6.618387   4.943416   4.943410   4.370853
    22  H    7.400968   7.400962   6.637813   6.637809   4.906586
    23  H    8.110509   8.302466   6.880067   7.104929   5.880824
    24  H    8.302459   8.110486   7.104924   6.880046   5.608276
                   16         17         18         19         20
    16  H    0.000000
    17  H    3.439343   0.000000
    18  H    4.148347   1.751589   0.000000
    19  H    3.751583   1.751589   1.782172   0.000000
    20  H    2.123486   4.542907   4.412500   4.412503   0.000000
    21  H    4.370862   3.285613   2.056425   2.056435   3.977332
    22  H    4.906595   5.687555   4.647922   4.647929   3.314016
    23  H    5.608300   5.626670   4.543277   4.179545   4.551541
    24  H    5.880825   5.626660   4.179528   4.543281   4.551533
                   21         22         23         24
    21  H    0.000000
    22  H    2.949376   0.000000
    23  H    2.496674   1.775140   0.000000
    24  H    2.496668   1.775142   1.780335   0.000000
 Stoichiometry    C6H15N3
 Framework group  C1[X(C6H15N3)]
 Deg. of freedom    66
 Full point group                 C1      NOp   1
 Largest Abelian subgroup         C1      NOp   1
 Largest concise Abelian subgroup C1      NOp   1
                         Standard orientation:                         
 ---------------------------------------------------------------------
 Center     Atomic      Atomic             Coordinates (Angstroms)
 Number     Number       Type             X           Y           Z
 ---------------------------------------------------------------------
      1          6           0        3.828213   -0.537932    0.000006
      2          6           0        2.609932    0.394041    0.000002
      3          6           0        1.309188   -0.406887   -0.000003
      4          7           0        0.047443    0.350963   -0.000007
      5          6           0       -0.019271    1.806002   -0.000002
      6          6           0       -1.124651   -0.386490   -0.000005
      7          7           0       -1.214635   -1.677705   -0.000003
      8          7           0       -2.263061    0.378944   -0.000002
      9          6           0       -3.595945   -0.180419    0.000009
     10          1           0        4.752809    0.046486    0.000012
     11          1           0        3.842268   -1.182704   -0.884863
     12          1           0        3.842261   -1.182707    0.884872
     13          1           0        2.656322    1.041711   -0.883204
     14          1           0        2.656318    1.041713    0.883206
     15          1           0        1.317972   -1.067463    0.879383
     16          1           0        1.317980   -1.067463   -0.879387
     17          1           0        0.974917    2.239811    0.000000
     18          1           0       -0.532436    2.195997    0.891085
     19          1           0       -0.532435    2.196002   -0.891087
     20          1           0       -0.303458   -2.119520   -0.000006
     21          1           0       -2.195863    1.378761    0.000006
     22          1           0       -3.505161   -1.264070    0.000003
     23          1           0       -4.162271    0.124076   -0.890153
     24          1           0       -4.162255    0.124073    0.890181
 ---------------------------------------------------------------------
 Rotational constants (GHZ):           3.8943462           0.7513317           0.6424830
 Standard basis: 6-31G(2df,p) (6D, 7F)
 There are   354 symmetry adapted cartesian basis functions of A   symmetry.
 There are   327 symmetry adapted basis functions of A   symmetry.
   327 basis functions,   501 primitive gaussians,   354 cartesian basis functions
    36 alpha electrons       36 beta electrons
       nuclear repulsion energy       478.5190144244 Hartrees.
 NAtoms=   24 NActive=   24 NUniq=   24 SFac= 1.00D+00 NAtFMM=   60 NAOKFM=F Big=F
 Integral buffers will be    131072 words long.
 Raffenetti 2 integral format.
 Two-electron integral symmetry is turned on.
 One-electron integrals computed using PRISM.
 PrsmSu:  requested number of processors reduced to:  13 ShMem   1 Linda.
 NBasis=   327 RedAO= T EigKep=  1.96D-04  NBF=   327
 NBsUse=   327 1.00D-06 EigRej= -1.00D+00 NBFU=   327
 Initial guess from the checkpoint file:  "CCCNpCpCpdNpNC.chk"
 B after Tr=    -0.000000    0.000000    0.000000
         Rot=    0.999965   -0.000000    0.000000   -0.008404 Ang=  -0.96 deg.
 ExpMin= 1.61D-01 ExpMax= 4.17D+03 ExpMxC= 6.27D+02 IAcc=2 IRadAn=         4 AccDes= 0.00D+00
 Harris functional with IExCor=  402 and IRadAn=       4 diagonalized for initial guess.
 HarFok:  IExCor=  402 AccDes= 0.00D+00 IRadAn=         4 IDoV= 1 UseB2=F ITyADJ=14
 ICtDFT=  3500011 ScaDFX=  1.000000  1.000000  1.000000  1.000000
 FoFCou: FMM=F IPFlag=           0 FMFlag=      100000 FMFlg1=           0
         NFxFlg=           0 DoJE=T BraDBF=F KetDBF=T FulRan=T
         wScrn=  0.000000 ICntrl=       500 IOpCl=  0 I1Cent=   200000004 NGrid=           0
         NMat0=    1 NMatS0=      1 NMatT0=    0 NMatD0=    1 NMtDS0=    0 NMtDT0=    0
 Petite list used in FoFCou.
 Requested convergence on RMS density matrix=1.00D-08 within 128 cycles.
 Requested convergence on MAX density matrix=1.00D-06.
 Requested convergence on             energy=1.00D-06.
 No special actions if energy rises.
 Integral accuracy reduced to 1.0D-05 until final iterations.
 Initial convergence to 1.0D-05 achieved.  Increase integral accuracy.
 SCF Done:  E(RB3LYP) =  -401.940245106     A.U. after   11 cycles
            NFock= 11  Conv=0.38D-08     -V/T= 2.0081
 PrsmSu:  requested number of processors reduced to:  13 ShMem   1 Linda.
 Calling FoFJK, ICntrl=      2127 FMM=F ISym2X=0 I1Cent= 0 IOpClX= 0 NMat=1 NMatS=1 NMatT=0.
 ***** Axes restored to original set *****
 -------------------------------------------------------------------
 Center     Atomic                   Forces (Hartrees/Bohr)
 Number     Number              X              Y              Z
 -------------------------------------------------------------------
      1        6           0.000306527   -0.001034596   -0.000490358
      2        6           0.001891297    0.000103925    0.000048714
      3        6           0.003999704    0.001477842    0.000701532
      4        7          -0.003919231   -0.009498422   -0.004505833
      5        6          -0.004125668    0.000444432    0.000210858
      6        6          -0.006391374    0.007824741    0.003712346
      7        7           0.004254867   -0.003939712   -0.001869023
      8        7           0.009475508    0.002210593    0.001048428
      9        6           0.000102908    0.001138645    0.000539116
     10        1          -0.000469202    0.000164381    0.000077768
     11        1           0.000408753    0.000260946    0.000123487
     12        1           0.000408950    0.000260856    0.000123840
     13        1           0.000491359   -0.000658083   -0.000013957
     14        1           0.000491499   -0.000427286   -0.000500504
     15        1          -0.000207053    0.000096063    0.000150245
     16        1          -0.000207010    0.000177350   -0.000020785
     17        1          -0.003066531   -0.000990491   -0.000469877
     18        1          -0.000337321    0.000082394   -0.000004889
     19        1          -0.000337121    0.000048380    0.000066812
     20        1           0.001143854    0.000427696    0.000202826
     21        1          -0.002245236    0.001478363    0.000701265
     22        1          -0.001563059    0.000851072    0.000404034
     23        1          -0.000053333   -0.000362250    0.000119147
     24        1          -0.000053085   -0.000136840   -0.000355193
 -------------------------------------------------------------------
 Cartesian Forces:  Max     0.009498422 RMS     0.002480863

 GradGradGradGradGradGradGradGradGradGradGradGradGradGradGradGradGradGrad
 Berny optimization.
 Using GEDIIS/GDIIS optimizer.
 FormGI is forming the generalized inverse of G from B-inverse, IUseBI=4.
 Internal  Forces:  Max     0.011510713 RMS     0.002783462
 Search for a local minimum.
 Step number   2 out of a maximum of  119
 All quantities printed in internal units (Hartrees-Bohrs-Radians)
 Mixed Optimization -- RFO/linear search
 Update second derivatives using D2CorX and points    1    2
 DE= -4.39D-03 DEPred=-5.49D-03 R= 7.99D-01
 TightC=F SS=  1.41D+00  RLast= 2.26D-01 DXNew= 5.0454D-01 6.7696D-01
 Trust test= 7.99D-01 RLast= 2.26D-01 DXMaxT set to 5.05D-01
 ITU=  1  0
 Use linear search instead of GDIIS.
     Eigenvalues ---    0.00381   0.00527   0.00605   0.00874   0.01000
     Eigenvalues ---    0.01067   0.01546   0.01863   0.02219   0.02267
     Eigenvalues ---    0.03068   0.03630   0.03783   0.04933   0.05402
     Eigenvalues ---    0.05510   0.05679   0.07012   0.07277   0.07299
     Eigenvalues ---    0.07725   0.08080   0.10080   0.12002   0.13255
     Eigenvalues ---    0.13322   0.16000   0.16000   0.16000   0.16000
     Eigenvalues ---    0.16000   0.16000   0.16000   0.16000   0.16000
     Eigenvalues ---    0.16072   0.21129   0.21978   0.22223   0.24319
     Eigenvalues ---    0.25000   0.25000   0.29503   0.30298   0.32677
     Eigenvalues ---    0.33856   0.33902   0.33984   0.34090   0.34091
     Eigenvalues ---    0.34200   0.34289   0.34293   0.34310   0.34313
     Eigenvalues ---    0.34386   0.34387   0.34629   0.36333   0.38525
     Eigenvalues ---    0.39434   0.45559   0.46635   0.52068   0.52472
     Eigenvalues ---    0.68775
 RFO step:  Lambda=-1.98025002D-03 EMin= 3.80925656D-03
 Quartic linear search produced a step of -0.14051.
 Iteration  1 RMS(Cart)=  0.04515486 RMS(Int)=  0.00072029
 Iteration  2 RMS(Cart)=  0.00099357 RMS(Int)=  0.00002073
 Iteration  3 RMS(Cart)=  0.00000032 RMS(Int)=  0.00002073
 Variable       Old X    -DE/DX   Delta X   Delta X   Delta X     New X
                                 (Linear)    (Quad)   (Total)
    R1        2.89861  -0.00068  -0.00420   0.00801   0.00381   2.90242
    R2        2.06700   0.00003   0.00042  -0.00091  -0.00050   2.06651
    R3        2.06916   0.00000  -0.00033   0.00078   0.00045   2.06961
    R4        2.06916   0.00000  -0.00033   0.00078   0.00045   2.06961
    R5        2.88666  -0.00016   0.00041  -0.00142  -0.00101   2.88565
    R6        2.07154   0.00024   0.00004   0.00051   0.00054   2.07208
    R7        2.07154   0.00024   0.00003   0.00051   0.00054   2.07208
    R8        2.78139  -0.00713   0.00273  -0.02415  -0.02142   2.75997
    R9        2.07849   0.00022  -0.00050   0.00172   0.00123   2.07972
   R10        2.07849   0.00022  -0.00050   0.00173   0.00123   2.07972
   R11        2.75251  -0.00425   0.00140  -0.01317  -0.01177   2.74074
   R12        2.61687   0.01150   0.00060   0.01913   0.01973   2.63660
   R13        2.04981   0.00259   0.00157   0.00266   0.00423   2.05404
   R14        2.07824  -0.00023  -0.00138   0.00267   0.00129   2.07953
   R15        2.07824  -0.00023  -0.00138   0.00267   0.00129   2.07953
   R16        2.44596  -0.00604   0.00042  -0.00854  -0.00812   2.43784
   R17        2.59235   0.00561  -0.00310   0.01633   0.01323   2.60558
   R18        1.91362  -0.00120  -0.00001  -0.00221  -0.00223   1.91139
   R19        2.73160   0.00050   0.00047  -0.00000   0.00047   2.73206
   R20        1.89364  -0.00253   0.00097  -0.00692  -0.00594   1.88770
   R21        2.05498   0.00171   0.00187  -0.00017   0.00171   2.05668
   R22        2.07511  -0.00026  -0.00099   0.00169   0.00070   2.07582
   R23        2.07511  -0.00026  -0.00099   0.00170   0.00070   2.07582
    A1        1.92489   0.00105  -0.00189   0.01176   0.00988   1.93477
    A2        1.94763  -0.00068  -0.00127  -0.00146  -0.00274   1.94489
    A3        1.94763  -0.00068  -0.00127  -0.00146  -0.00274   1.94489
    A4        1.87945   0.00001   0.00101  -0.00077   0.00025   1.87970
    A5        1.87945   0.00001   0.00101  -0.00076   0.00025   1.87970
    A6        1.88195   0.00033   0.00261  -0.00766  -0.00507   1.87688
    A7        1.93665  -0.00094   0.00500  -0.01431  -0.00932   1.92733
    A8        1.90220   0.00046  -0.00291   0.00995   0.00705   1.90925
    A9        1.90220   0.00046  -0.00291   0.00995   0.00705   1.90925
   A10        1.92390   0.00030  -0.00088   0.00333   0.00244   1.92635
   A11        1.92391   0.00030  -0.00088   0.00333   0.00244   1.92635
   A12        1.87367  -0.00057   0.00247  -0.01197  -0.00949   1.86419
   A13        2.04879  -0.00715  -0.00298  -0.02234  -0.02529   2.02350
   A14        1.88399   0.00201   0.00049   0.00548   0.00599   1.88997
   A15        1.88399   0.00201   0.00049   0.00548   0.00599   1.88997
   A16        1.89240   0.00226  -0.00007   0.00795   0.00786   1.90026
   A17        1.89240   0.00226  -0.00007   0.00795   0.00786   1.90026
   A18        1.85300  -0.00093   0.00266  -0.00313  -0.00053   1.85247
   A19        2.15750  -0.01067  -0.01273  -0.00619  -0.01893   2.13858
   A20        2.03911  -0.00084   0.00711  -0.01969  -0.01258   2.02653
   A21        2.08658   0.01151   0.00562   0.02588   0.03150   2.11808
   A22        1.93642  -0.00294   0.01094  -0.04372  -0.03283   1.90359
   A23        1.95586   0.00034  -0.00437   0.01333   0.00892   1.96478
   A24        1.95586   0.00034  -0.00437   0.01332   0.00891   1.96478
   A25        1.86069   0.00103  -0.00294   0.01061   0.00762   1.86831
   A26        1.86069   0.00103  -0.00294   0.01061   0.00762   1.86831
   A27        1.88918   0.00032   0.00380  -0.00374   0.00004   1.88922
   A28        2.20197  -0.00156  -0.00432   0.00492   0.00061   2.20257
   A29        1.98805   0.01056   0.00844   0.01597   0.02441   2.01246
   A30        2.09316  -0.00900  -0.00412  -0.02089  -0.02501   2.06815
   A31        1.95270   0.00061  -0.00231   0.00875   0.00644   1.95914
   A32        2.15231  -0.00377   0.00216  -0.01967  -0.01751   2.13480
   A33        2.09563   0.00080   0.00117  -0.00127  -0.00011   2.09552
   A34        2.03525   0.00297  -0.00332   0.02094   0.01762   2.05286
   A35        1.88456  -0.00081   0.01367  -0.03711  -0.02346   1.86109
   A36        1.94791  -0.00010  -0.00407   0.00923   0.00521   1.95312
   A37        1.94791  -0.00010  -0.00406   0.00922   0.00521   1.95312
   A38        1.89587   0.00050  -0.00266   0.00881   0.00613   1.90199
   A39        1.89587   0.00050  -0.00266   0.00880   0.00612   1.90199
   A40        1.89049   0.00005  -0.00045   0.00125   0.00091   1.89140
    D1       -3.14159  -0.00000   0.00000  -0.00000  -0.00000  -3.14159
    D2        1.01990  -0.00008  -0.00011  -0.00159  -0.00171   1.01819
    D3       -1.01989   0.00008   0.00011   0.00158   0.00170  -1.01818
    D4        1.05341  -0.00026   0.00079  -0.00592  -0.00512   1.04829
    D5       -1.06829  -0.00034   0.00068  -0.00751  -0.00683  -1.07512
    D6       -3.10807  -0.00018   0.00090  -0.00433  -0.00342  -3.11149
    D7       -1.05341   0.00026  -0.00079   0.00592   0.00512  -1.04829
    D8        3.10808   0.00018  -0.00090   0.00433   0.00342   3.11149
    D9        1.06829   0.00034  -0.00068   0.00751   0.00683   1.07512
   D10       -3.14159   0.00000   0.00000  -0.00000  -0.00000   3.14159
   D11        0.99803   0.00046   0.00181   0.00093   0.00274   1.00076
   D12       -0.99802  -0.00046  -0.00181  -0.00093  -0.00274  -1.00076
   D13       -1.03266   0.00016  -0.00098   0.00532   0.00434  -1.02832
   D14        3.10696   0.00063   0.00083   0.00624   0.00707   3.11403
   D15        1.11091  -0.00030  -0.00279   0.00439   0.00160   1.11251
   D16        1.03266  -0.00016   0.00098  -0.00531  -0.00433   1.02833
   D17       -1.11091   0.00030   0.00279  -0.00439  -0.00160  -1.11250
   D18       -3.10696  -0.00063  -0.00083  -0.00624  -0.00707  -3.11403
   D19       -0.00000   0.00000  -0.00000  -0.00000  -0.00000  -0.00000
   D20       -3.14159  -0.00000  -0.00000  -0.00000  -0.00000  -3.14159
   D21        2.13926  -0.00063  -0.00153  -0.00230  -0.00386   2.13540
   D22       -1.00233  -0.00063  -0.00153  -0.00231  -0.00386  -1.00619
   D23       -2.13927   0.00063   0.00153   0.00230   0.00386  -2.13540
   D24        1.00234   0.00063   0.00153   0.00230   0.00386   1.00619
   D25        0.00001   0.00000  -0.00000   0.00000   0.00000   0.00001
   D26       -2.07765   0.00046  -0.00061   0.00729   0.00667  -2.07097
   D27        2.07766  -0.00046   0.00061  -0.00729  -0.00667   2.07099
   D28        3.14159   0.00000  -0.00000   0.00000   0.00000   3.14159
   D29        1.06394   0.00046  -0.00061   0.00729   0.00667   1.07061
   D30       -1.06395  -0.00046   0.00061  -0.00728  -0.00667  -1.07061
   D31       -0.00000  -0.00000  -0.00000   0.00000  -0.00000  -0.00000
   D32        3.14159   0.00000   0.00000   0.00000   0.00000   3.14159
   D33       -3.14159  -0.00000  -0.00000  -0.00000  -0.00000  -3.14159
   D34        0.00000   0.00000   0.00000   0.00000   0.00000   0.00000
   D35       -0.00000   0.00000   0.00000   0.00000   0.00000  -0.00000
   D36        3.14159  -0.00000  -0.00000  -0.00000  -0.00000   3.14159
   D37       -3.14159  -0.00000  -0.00000  -0.00000  -0.00000  -3.14159
   D38       -0.00001  -0.00000  -0.00000  -0.00000  -0.00000  -0.00001
   D39        0.00001   0.00000   0.00000  -0.00000   0.00000   0.00001
   D40        3.14158   0.00000   0.00000  -0.00000   0.00000   3.14158
   D41       -0.00001   0.00000  -0.00000   0.00000   0.00000  -0.00001
   D42       -2.08251  -0.00003  -0.00296   0.00731   0.00430  -2.07821
   D43        2.08249   0.00003   0.00296  -0.00731  -0.00431   2.07819
   D44       -3.14159   0.00000  -0.00000   0.00000   0.00000  -3.14159
   D45        1.05910  -0.00003  -0.00296   0.00731   0.00430   1.06340
   D46       -1.05908   0.00003   0.00296  -0.00731  -0.00431  -1.06339
         Item               Value     Threshold  Converged?
 Maximum Force            0.011511     0.000450     NO 
 RMS     Force            0.002783     0.000300     NO 
 Maximum Displacement     0.204747     0.001800     NO 
[...]
 1543,0.00224032,-0.00312444,0.00020540,-0.00061205,-0.00091389,0.00000
 635,0.00011680,0.00012624,0.00028197,0.00006947,0.00007464,0.00008824,
 -0.00003969,0.00009201,-0.00033689,-0.00000113,-0.00003949,0.00005824,
 0.00023787,0.00064605,-0.00014358,-0.00089410,-0.00258898,-0.00116257,
 0.00462818,-0.00648634,0.00400775,0.08991790,0.00151345,0.00061927,0.0
 0073091,0.00634160,-0.02557408,0.01475722,0.05816768,-0.19741675,0.100
 56874,0.00557305,0.00399593,-0.00310876,-0.00009919,-0.00006191,0.0013
 5522,-0.00064313,-0.00043947,-0.00157870,0.00035114,0.00018189,0.00073
 872,-0.00050827,0.00020861,0.00035870,-0.00003084,-0.00003613,0.000003
 98,0.00004642,0.00054566,-0.00043268,-0.00123129,0.00053218,-0.0004067
 4,-0.00013432,0.00002374,-0.00007882,0.00066170,0.00135659,-0.00016409
 ,-0.00240191,-0.00371222,-0.00284452,-0.00099951,0.00167320,-0.0012030
 1,-0.06561081,0.21874678,0.00053801,0.00003768,0.00018380,0.00333446,-
 0.01245159,0.00704310,-0.03658019,0.10159761,-0.11895835,-0.00357666,-
 0.00584180,0.00609354,0.00077506,-0.00046515,-0.00089653,-0.00107521,0
 .00327987,0.00234108,0.00105133,-0.00113352,0.00004054,0.00024923,-0.0
 0046814,-0.00037145,-0.00001188,0.00004116,-0.00006185,0.00029940,-0.0
 0011829,0.00003751,0.00021701,0.00023090,0.00022765,-0.00018402,0.0000
 4676,-0.00004314,0.00063541,0.00046623,0.00114248,-0.00125658,-0.00305
 558,0.00014466,-0.00755902,0.02593976,-0.01853281,0.04347763,-0.107433
 65,0.12380130,-0.00076043,0.00023402,0.00011100,-0.00424803,0.00157479
 ,0.00074708,0.00056087,-0.00002167,-0.00001027,0.01420554,0.01872283,0
 .00888164,-0.14703069,-0.12679745,-0.06014980,-0.00522508,0.00152762,0
 .00072469,0.00094129,0.00134220,0.00063668,-0.00038663,-0.00024751,-0.
 00011745,0.00062492,-0.00005685,-0.00002696,0.00011615,0.00001959,0.00
 000929,0.00007997,-0.00005564,0.00002414,0.00007997,-0.00001651,-0.000
 05836,-0.00192031,0.00024253,-0.00040048,-0.00192028,-0.00015671,0.000
 44118,0.00003364,-0.00010330,-0.00007886,0.00003364,-0.00012643,-0.000
 03011,0.16468419,-0.00005616,0.00043309,0.00051482,-0.00129070,0.00057
 708,-0.00071717,-0.00248111,-0.00041091,-0.00042412,-0.01359221,-0.023
 74144,-0.01061342,-0.11422159,-0.19320130,-0.07031707,0.00508321,0.000
 25918,0.00034513,-0.00070389,-0.00199163,-0.00113024,-0.00008328,0.000
 55947,-0.00016851,-0.00003038,0.00036549,0.00007477,0.00003456,-0.0000
 2758,-0.00001938,-0.00015812,0.00001166,-0.00002324,-0.00028721,0.0000
 1909,0.00003750,0.00025140,0.00026729,0.00094318,-0.00059664,0.0004841
 3,0.00004197,0.00016318,0.00002159,0.00001662,0.00014742,-0.00005753,-
 0.00005954,0.12812794,0.21348728,-0.00002664,0.00051482,-0.00040795,-0
 .00061227,-0.00071717,0.00174870,-0.00117697,-0.00042415,0.00028200,-0
 .00644765,-0.01061333,-0.00640251,-0.05418417,-0.07031712,-0.07832767,
 0.00241131,0.00034520,-0.00030476,-0.00033389,-0.00113026,-0.00014514,
 -0.00003951,-0.00016848,0.00083478,-0.00001441,0.00007477,0.00024332,0
 .00001639,-0.00001938,0.00000408,-0.00024169,0.00004357,0.00000744,0.0
 0003044,-0.00002931,0.00000002,-0.00097574,0.00021909,-0.00032055,0.00
 081198,0.00076604,-0.00053743,0.00005706,-0.00012417,-0.00002247,0.000
 09028,0.00008125,0.00005665,0.06078100,0.08008362,0.08265832,0.0000016
 0,-0.00014212,0.00002533,-0.00018472,0.00069856,-0.00017727,0.00102125
 ,0.00314108,-0.00222251,-0.01648958,0.01556850,-0.00499008,-0.12479727
 ,0.04805988,-0.09941218,-0.00341502,-0.00368922,-0.00142307,0.00047181
 ,0.00058294,0.00076708,0.00117099,-0.00030654,0.00039327,0.00019165,-0
 .00025845,-0.00015106,-0.00007940,-0.00004827,-0.00001059,0.00003615,-
 0.00000855,0.00003478,-0.00004993,0.00004151,0.00001297,-0.00004692,-0
 .00003454,0.00026566,-0.00000557,-0.00028086,-0.00004979,-0.00004597,0
 .00006586,0.00013471,-0.00154339,0.00029071,0.00008399,-0.01023801,0.0
 0711017,-0.01524634,0.14255165,0.00000801,0.00020445,0.00029469,-0.000
 32357,-0.00008786,-0.00072359,-0.00199250,-0.00336375,0.00216979,0.022
 01933,-0.01706137,0.00580215,0.04704015,-0.07889401,0.06669458,0.00553
 399,0.00391895,0.00320511,-0.00039777,-0.00092727,-0.00134929,-0.00207
 957,0.00112052,-0.00059344,-0.00055410,-0.00014202,-0.00029787,0.00006
 900,0.00002547,-0.00000738,-0.00008116,0.00000359,-0.00003751,-0.00011
 153,0.00000614,0.00001502,-0.00010330,0.00007054,0.00050124,0.00012285
 ,0.00013099,-0.00004365,-0.00009143,-0.00006011,-0.00003795,0.00155087
 ,-0.00025412,0.00013147,-0.01245265,0.01041919,-0.01741375,-0.06276696
 ,0.09110878,0.00002568,0.00006607,0.00010308,-0.00021299,0.00014124,-0
 .00043070,0.00059816,-0.00135965,-0.00008700,0.01013805,-0.00560564,0.
 01619084,-0.10147685,0.06696053,-0.18337462,-0.00119133,-0.00054073,0.
 00140489,0.00063742,0.00010286,-0.00073589,-0.00036351,-0.00005879,0.0
 0013243,0.00045749,-0.00029835,-0.00023938,0.00000490,0.00000100,-0.00
 000883,-0.00003930,-0.00000952,-0.00001191,-0.00005262,0.00001358,0.00
 002565,-0.00001563,0.00001877,0.00028727,0.00007083,0.00003721,0.00005
 202,-0.00010887,0.00002644,0.00001451,0.00053593,-0.00015058,-0.000069
 21,-0.00453461,0.00407494,-0.00785521,0.10917668,-0.07122425,0.1936598
 9,0.00000160,-0.00007029,-0.00012608,-0.00018472,0.00030465,0.00065315
 ,0.00102124,0.00026588,0.00383867,-0.01648980,0.00598410,0.01521385,-0
 .12479943,-0.04658852,0.10011141,-0.00341497,-0.00343591,-0.00195688,0
 .00047180,0.00096283,-0.00003380,0.00117094,0.00011064,-0.00048626,0.0
 0019165,-0.00028050,-0.00010460,-0.00007940,-0.00003874,-0.00003068,-0
 .00004993,0.00003630,0.00002394,0.00003615,0.00002153,-0.00002862,-0.0
 0000556,-0.00021623,-0.00018600,-0.00004692,0.00018388,-0.00019481,-0.
 00154340,0.00024895,0.00017202,-0.00004597,0.00014599,-0.00003421,-0.0
 1023813,-0.00730971,0.01515150,0.01095500,0.00565504,-0.01399893,0.142
 55413,0.00002496,0.00032040,-0.00002864,-0.00036966,-0.00057881,0.0005
 4226,-0.00079721,-0.00100152,-0.00328931,0.02178163,0.00297948,-0.0219
 7564,-0.04883283,-0.07607835,0.06466039,0.00257826,0.00371640,-0.00037
 527,0.00024201,-0.00142314,0.00050791,-0.00159713,0.00020833,0.0006863
 3,0.00000377,-0.00049255,-0.00001204,0.00004744,0.00000177,0.00002035,
 -0.00011131,0.00003185,-0.00000742,-0.00008178,-0.00002874,0.00001690,
 0.00013257,0.00008047,0.00007849,-0.00007746,0.00045531,-0.00029552,0.
 00139617,-0.00015257,-0.00023354,-0.00014215,-0.00002099,-0.00000552,-
 0.01138973,-0.00707691,0.01836630,-0.00726436,-0.00335598,0.00748959,0
 .04484700,0.08282767,-0.00001005,0.00019997,-0.00001287,-0.00011587,-0
 .00032255,0.00006026,-0.00192154,0.00024015,-0.00244929,0.01063968,-0.
 01056786,-0.00384986,0.10062779,0.06439428,-0.18618879,0.00503950,0.00
 337049,0.00160740,-0.00071131,-0.00094419,-0.00024000,-0.00138061,0.00
 015170,0.00104469,-0.00071855,-0.00001157,0.00011111,0.00005034,0.0000
 1198,0.00001487,-0.00005309,-0.00000598,-0.00000006,-0.00003799,-0.000
 01109,0.00002043,0.00005033,-0.00000239,0.00010254,-0.00007011,0.00018
 695,-0.00009751,0.00086205,0.00004853,-0.00017075,-0.00000195,-0.00006
 990,-0.00002461,-0.00677570,-0.00312227,0.00964109,0.01323580,0.011415
 79,-0.01879863,-0.11767857,-0.06445960,0.20193925,0.00014719,0.0000159
 5,0.00000757,0.00064770,-0.00058085,-0.00027554,0.00026456,-0.00333472
 ,-0.00158188,-0.00083009,-0.00239030,-0.00113386,-0.00044800,0.0002344
 0,0.00011119,-0.02667574,-0.01171177,-0.00555576,-0.43166829,-0.015614
 13,-0.00740800,0.00139210,0.00390843,0.00185392,0.00034125,0.00021335,
 0.00010122,-0.00003567,0.00000191,0.00000091,-0.00001419,0.00002045,-0
 .00003512,-0.00001419,-0.00001426,0.00003805,-0.00003276,-0.00012542,-
 0.00009026,-0.00003276,-0.00014925,-0.00004004,-0.00026341,-0.00108446
 ,-0.00068881,-0.00026340,-0.00121953,-0.00040414,0.00008248,-0.0001283
 1,-0.00006087,0.00006806,-0.00015117,0.00002717,0.00006806,-0.00007459
 ,-0.00013426,0.45821723,-0.00019182,0.00016430,0.00001907,-0.00053076,
 -0.00058088,0.00028744,0.00071409,-0.00242059,-0.00262846,-0.00183091,
 0.00024960,0.00190543,0.00059504,0.00002793,0.00076049,0.04411279,-0.0
 0822474,-0.00169313,-0.07389104,-0.03021688,-0.00732155,0.00109099,-0.
 00333976,-0.00456787,-0.00152427,-0.00042198,-0.00016974,0.00012290,0.
 00001976,0.00002219,0.00001640,-0.00004148,0.00003133,-0.00001592,-0.0
 0002606,-0.00003295,0.00015288,0.00032289,0.00019157,0.00006001,0.0001
 6646,0.00002248,-0.00161908,-0.00230111,0.00050030,-0.00041363,-0.0002
 0542,-0.00068901,-0.00011933,0.00023832,0.00014512,-0.00000639,-0.0000
 2377,-0.00008026,-0.00027262,0.00010671,0.00017353,0.03185975,0.044289
 92,-0.00009099,0.00001907,0.00013315,-0.00025177,0.00028745,-0.0010504
 9,0.00033873,-0.00262850,0.00187361,-0.00086851,0.00190543,-0.00286329
 ,0.00028227,0.00076049,-0.00121448,0.02092576,-0.00169332,-0.00545850,
 -0.03505285,-0.00732135,-0.01825618,0.00051743,-0.00456789,0.00412276,
 -0.00072302,-0.00016975,-0.00014462,0.00005830,0.00002219,-0.00001649,
 -0.00003395,-0.00002035,-0.00002473,0.00003418,0.00001873,-0.00004016,
 -0.00004740,-0.00010532,-0.00000839,0.00014839,0.00031936,0.00014805,0
 .00078849,0.00102291,-0.00005130,-0.00175277,-0.00121160,-0.00214699,-
 0.00005660,0.00014511,0.00000123,-0.00034680,0.00028012,0.00003052,0.0
 0021444,-0.00018684,-0.00009996,0.01511452,0.01357669,0.02211004,-0.00
 004212,0.00000021,0.00000010,0.00027605,0.00000646,0.00000306,-0.00060
 558,0.00001684,0.00000801,-0.00027691,-0.00037810,-0.00017934,-0.00161
 587,-0.00013037,-0.00006190,-0.00658360,0.03090112,0.01465788,-0.00712
 627,-0.00074229,-0.00035218,-0.16883799,0.15478536,0.07342166,0.013056
 34,-0.01760294,-0.00834993,0.00003215,0.00001037,0.00000492,0.00003609
 ,-0.00001736,0.00001110,0.00003609,-0.00000239,-0.00002047,-0.00002645
 ,-0.00002557,-0.00011837,-0.00002645,-0.00010785,0.00005508,0.00022436
 ,0.00004415,-0.00013441,0.00022437,-0.00007616,0.00011922,0.00074755,-
 0.00007201,-0.00003414,0.00032677,-0.00111759,0.00042015,0.00032678,-0
 .00038159,-0.00113129,-0.00111070,0.00102652,0.00048701,0.17358715,-0.
 00002202,-0.00005324,-0.00003536,-0.00002791,0.00011495,0.00008079,-0.
 00003367,-0.00033819,0.00024297,-0.00039129,-0.00252394,-0.00069509,-0
 .00450675,-0.00003590,-0.00229191,0.00280948,0.00247051,0.00510799,-0.
 00255759,0.00135694,0.00048195,0.16002253,-0.30248298,-0.14693380,0.01
 226605,-0.01504610,-0.00600169,-0.00001470,-0.00000089,-0.00000459,0.0
 0002720,-0.00001040,0.00000796,0.00002454,0.00000101,-0.00000783,0.000
 01264,0.00000563,-0.00007741,-0.00000958,-0.00007351,0.00004847,-0.000
 01816,0.00001301,-0.00002969,0.00018851,-0.00011258,0.00003792,-0.0001
 3732,-0.00059447,0.00035106,-0.00083608,-0.00300634,0.00043014,-0.0006
 6232,-0.00064113,-0.00077669,-0.00037313,0.00101209,-0.00131798,-0.162
 99019,0.32132892,-0.00001045,-0.00003537,0.00000453,-0.00001323,0.0000
 8079,-0.00001703,-0.00001598,0.00024297,-0.00073513,-0.00018570,-0.000
 69515,-0.00138846,-0.00213792,-0.00229178,0.00370820,0.00133332,0.0051
 0783,-0.00587462,-0.00121325,0.00048197,0.00056968,0.07590506,-0.14693
 282,-0.06242273,0.00581876,-0.00600251,-0.00524047,-0.00000698,-0.0000
 0459,0.00000660,0.00000948,0.00000149,0.00000091,0.00001507,-0.0000013
 6,-0.00001050,-0.00002270,-0.00001618,-0.00004988,0.00002414,-0.000012
 76,0.00002927,0.00025824,-0.00006467,-0.00011931,-0.00017743,0.0000728
 9,0.00000628,-0.00006510,0.00035105,-0.00116798,-0.00017221,0.00115531
 ,-0.00035799,-0.00053859,-0.00150190,-0.00272329,-0.00017696,-0.001318
 01,0.00316529,-0.07731351,0.15193343,0.07310053,-0.00001295,0.00004329
 ,0.00002054,-0.00005972,-0.00007484,-0.00003550,-0.00026926,0.00008387
 ,0.00003979,0.00003344,0.00187362,0.00088879,0.00056097,-0.00032881,-0
 .00015598,0.00317729,-0.00299057,-0.00141862,-0.00475129,-0.00122772,-
 0.00058238,0.01282419,-0.01548330,-0.00734452,-0.16206376,0.13008034,0
 .06170398,0.00002723,0.00001700,0.00000806,-0.00000829,-0.00000596,-0.
 00000855,-0.00000829,-0.00001039,0.00000080,0.00000054,0.00002796,0.00
 003631,0.00000054,0.00004581,-0.00000132,-0.00002290,-0.00009019,0.000
 01840,-0.00002290,-0.00004281,-0.00008149,-0.00017860,0.00021072,0.000
 09996,-0.00010272,0.00013719,-0.00013230,-0.00010272,-0.00001567,0.000
 18994,0.00036484,0.00101615,0.00048200,-0.00275838,-0.00311835,-0.0014
 7927,0.17274122,-0.00000340,0.00001814,0.00000679,-0.00004631,-0.00000
 396,-0.00000327,0.00004132,0.00011420,0.00002231,0.00007083,0.00034140
 ,0.00006681,0.00008805,-0.00039881,-0.00018225,0.00434900,-0.00190310,
 -0.00154216,0.00101928,0.00100869,0.00102537,0.01476709,-0.02698911,-0
 .01270528,0.11624520,-0.17800695,-0.06115589,0.00000766,0.00000257,0.0
 0000157,-0.00000596,-0.00000152,-0.00000218,-0.00000764,-0.00000276,0.
 00000207,0.00000968,0.00001590,0.00003145,0.00000987,0.00003242,-0.000
 00730,-0.00005017,-0.00001685,0.00003645,-0.00006191,-0.00001021,-0.00
 004621,-0.00013182,0.00004463,0.00000608,-0.00008211,0.00014679,-0.000
 13348,-0.00007492,-0.00000674,0.00017762,0.00040599,0.00066385,0.00052
 675,-0.00358338,-0.00235047,-0.00096468,-0.13020587,0.20167507,-0.0000
 0161,0.00000679,0.00000704,-0.00002197,-0.00000327,0.00000139,0.000019
 60,0.00002231,0.00007775,0.00003360,0.00006680,0.00023226,0.00004177,-
 0.00018226,-0.00010106,0.00206299,-0.00154216,0.00061640,0.00048350,0.
 00102537,-0.00066648,0.00700521,-0.01270574,-0.00623188,0.05514112,-0.
 06115578,-0.07809160,0.00000363,0.00000157,0.,-0.00000501,0.00000106,-
 0.00000267,-0.00000145,-0.00000116,-0.00000143,0.00000484,0.00000619,0
 .00001269,0.00000444,0.00001796,-0.00000382,-0.00003896,-0.00004079,-0
 .00000223,-0.00001420,0.00003102,-0.00000887,-0.00006253,0.00000608,0.
 00003470,-0.00002967,0.00005222,-0.00004279,-0.00004482,-0.00000808,0.
 00011073,0.00019258,0.00052674,-0.00019671,-0.00169985,-0.00096464,-0.
 00077463,-0.06176342,0.07280468,0.08272860,0.00001852,-0.00007178,-0.0
 0002774,-0.00009399,0.00012061,0.00003522,0.00032961,-0.00020130,-0.00
 025517,-0.00123308,-0.00039324,-0.00047125,-0.00038147,0.00020279,0.00
 032536,0.00328225,-0.00315918,0.00178131,-0.00112478,0.00105490,-0.000
 77484,-0.01684178,-0.01301403,0.00683795,-0.12744598,-0.05112032,0.102
 14640,-0.00004408,-0.00001670,-0.00000561,-0.00000238,0.00001237,0.000
 00250,0.00000046,0.00000977,0.00000453,0.00000316,-0.00002353,-0.00001
 530,0.00000398,-0.00001451,-0.00000974,-0.00004014,-0.00000950,-0.0000
 1966,-0.00009757,0.00005371,0.00000769,-0.00002202,-0.00005003,-0.0000
 4597,0.00009806,0.00007898,0.00001052,0.00010551,0.00002354,-0.0000090
 4,-0.00010212,-0.00029869,0.00017548,0.00006830,0.00045826,-0.00051657
 ,-0.00968440,-0.00896104,0.01532599,0.14229612,0.00000912,-0.00006609,
 -0.00002363,-0.00010163,0.00013552,0.00003370,0.00028924,-0.00005931,-
 0.00038530,-0.00145756,-0.00044240,-0.00081540,-0.00047526,0.00036544,
 0.00032270,0.00630904,-0.00483338,0.00135981,-0.00031639,0.00134177,0.
 00168929,-0.02773996,-0.01655507,0.00904306,-0.04952954,-0.08147676,0.
 06863920,-0.00003765,-0.00001454,-0.00000321,0.00000344,0.00000761,0.0
 0000290,-0.00000041,0.00000640,0.00000382,0.00000484,-0.00000858,-0.00
 000917,0.00000969,-0.00001358,-0.00000043,-0.00002510,0.00000771,0.000
 04012,-0.00013905,-0.00002640,-0.00001377,0.00000398,-0.00003340,-0.00
 006379,0.00010994,0.00010441,0.00007507,0.00009123,0.00002760,-0.00008
 469,0.00014839,0.00039026,-0.00007791,-0.00005236,0.00017255,0.0004371
 1,0.01061537,0.01151706,-0.01678563,0.06785532,0.09280859,-0.00000553,
 -0.00001391,-0.00000303,-0.00004940,0.00001993,-0.00000299,-0.00001416
 ,-0.00000654,-0.00024920,-0.00056577,0.00022729,-0.00046168,-0.0000375
 8,0.00011078,0.00003184,0.00019037,-0.00264816,0.00026060,0.00034028,0
 .00044734,0.00070021,-0.01298052,-0.00730294,0.01563421,0.10585804,0.0
 7023238,-0.18538953,-0.00000204,0.00000234,0.00000307,0.00000328,-0.00
 000299,-0.00000003,-0.00000293,-0.00000132,0.00000155,0.00000237,0.000
 00703,0.00000500,0.00000346,-0.00000260,0.00000343,0.00000209,0.000002
 01,0.00003371,-0.00003087,-0.00002611,-0.00000227,0.00001923,0.0000084
 9,-0.00001981,0.00002867,0.00000535,0.00003372,-0.00000313,-0.00006673
 ,-0.00003347,0.00006374,0.00022073,-0.00012600,0.00067437,0.00048493,0
 .00045631,0.00352238,0.00460119,-0.00755212,-0.11120767,-0.07419975,0.
 19532112,0.00001852,-0.00006689,-0.00003804,-0.00009399,0.00010357,0.0
 0007113,0.00032961,-0.00032496,0.00000553,-0.00123308,-0.00061376,-0.0
 0000642,-0.00038147,0.00038027,-0.00004878,0.00328239,-0.00061901,-0.0
 0357356,-0.00112476,0.00006731,0.00130721,-0.01684153,-0.00293701,-0.0
 1440529,-0.12744038,0.04676738,-0.10420866,-0.00004408,-0.00001491,-0.
 00000938,0.00000046,0.00000969,0.00000470,-0.00000238,0.00000976,0.000
 00800,0.00000398,-0.00001672,-0.00000508,0.00000316,-0.00002673,-0.000
 00855,-0.00009757,0.00003993,0.00003673,-0.00004014,-0.00002124,0.0000
 0508,-0.00002202,-0.00006725,-0.00000967,0.00010551,0.00000788,0.00002
 395,0.00009805,0.00005812,0.00005452,-0.00010212,-0.00005305,-0.000342
 33,0.00006832,-0.00011015,0.00068176,-0.00968405,0.00620054,-0.0166358
 0,0.01090782,-0.00557469,0.01419133,0.14228975,0.00000149,-0.00004666,
 -0.00002979,-0.00010254,0.00007871,0.00006633,0.00017201,-0.00036517,0
 .00024331,-0.00136022,-0.00074213,0.00047210,-0.00032977,0.00037773,0.
 00010074,0.00413880,-0.00240914,-0.00462822,0.00006334,0.00200379,-0.0
 0009344,-0.02760112,0.00360442,-0.02377070,0.05064815,-0.07576440,0.06
 556743,-0.00002540,-0.00000440,-0.00000594,-0.00000253,0.00000472,0.00
 000005,0.00000472,0.00000298,0.00000079,0.00000881,-0.00000486,-0.0000
 0971,0.00000490,-0.00000148,0.00000123,-0.00011188,-0.00003146,-0.0000
 2197,-0.00001426,0.00004395,-0.00002758,0.00001741,-0.00005234,0.00002
 397,0.00005529,-0.00008322,0.00002379,0.00009175,0.00010142,0.00000780
 ,0.00014325,0.00015059,0.00041650,0.00048914,0.00079455,-0.00002308,0.
 00944315,-0.00589024,0.01882072,0.00746361,-0.00335541,0.00790125,-0.0
 4319810,0.08158808,0.00001056,-0.00003950,-0.00002246,-0.00004746,0.00
 008010,0.00005382,0.00023297,-0.00013545,0.00005667,-0.00077092,-0.000
 57060,-0.00016199,-0.00034431,0.00031267,0.00001955,0.00476578,-0.0006
 2031,-0.00216352,-0.00046039,0.00114853,0.00003823,-0.01327206,-0.0074
 2429,-0.00452573,-0.10532470,0.06397424,-0.19110721,-0.00002786,-0.000
 01149,-0.00000707,0.00000153,0.00000520,0.00000324,0.00000059,0.000006
 68,0.00000460,0.00000532,-0.00000755,-0.00000529,0.00000225,-0.0000149
 7,-0.00000210,-0.00008816,-0.00000963,0.00000280,-0.00002077,0.0000105
 2,-0.00000252,-0.00000908,-0.00004832,-0.00000086,0.00007263,0.0000058
 2,0.00007734,0.00006701,0.00007752,0.00003673,0.00007460,0.00011787,0.
 00011365,-0.00046717,-0.00007093,-0.00016558,0.00599239,-0.00256643,0.
 00985474,-0.01329439,0.01081591,-0.01864464,0.12290164,-0.06503558,0.2
 0654763\\-0.00002589,-0.00003596,-0.00001705,-0.00002807,0.00002958,0.
 00001404,-0.00000149,-0.00003164,-0.00001503,0.00004332,0.00007736,0.0
 0003667,-0.00002741,-0.00004816,-0.00002283,-0.00009489,0.00003364,0.0
 0001599,0.00009963,-0.00005365,-0.00002553,0.00002469,0.00000959,0.000
 00478,-0.00000181,0.00004169,0.00001974,0.00000337,0.00001173,0.000005
 56,0.00000826,0.00000530,-0.00000376,0.00000826,0.00000045,0.00000647,
 -0.00000550,0.00000369,-0.00000194,-0.00000552,0.00000084,0.00000408,-
 0.00000696,-0.00000848,-0.00000361,-0.00000693,-0.00000817,-0.00000427
 ,0.00004853,0.00001003,0.00000477,-0.00000044,0.00000066,-0.00000256,-
 0.00000043,-0.00000158,0.00000209,0.00000554,-0.00000223,-0.00000104,-
 0.00001424,-0.00001916,-0.00000920,-0.00000240,-0.00000589,-0.00000278
 ,-0.00000980,-0.00000850,0.00000551,-0.00000980,-0.00000114,-0.0000101
 2\\\@


 UNDER MOST GREENE GRASSE LY MOST GREATE SNAKES.
 -- PROVERBS AND REASONS OF THE YEAR 1585
           AS REPRINTED IN PAISLEY MAGAZINE 1828.
 Job cpu time:       0 days  2 hours  0 minutes 55.5 seconds.
 Elapsed time:       0 days  0 hours 30 minutes 14.6 seconds.
 File lengths (MBytes):  RWF=    192 Int=      0 D2E=      0 Chk=     10 Scr=      1
 Normal termination of Gaussian 16 at Tue Jun  1 20:41:22 2021.
### All Done ###
