### Starting Gaussian ###
 Entering Gaussian System, Link 0=g16
 Initial command:
 /cluster/software/gaussian/gaussian-16-A.03/avx2/g16/l1.exe "/local/scratch/cz9n3/Gau-5858.inp" -scrdir="/local/scratch/cz9n3/"
 Entering Link 1 = /cluster/software/gaussian/gaussian-16-A.03/avx2/g16/l1.exe PID=      5859.
  
 Copyright (c) 1988,1990,1992,1993,1995,1998,2003,2009,2016,
            Gaussian, Inc.  All Rights Reserved.
  
 This is part of the Gaussian(R) 16 program.  It is based on
 the Gaussian(R) 09 system (copyright 2009, Gaussian, Inc.),
 the Gaussian(R) 03 system (copyright 2003, Gaussian, Inc.),
 the Gaussian(R) 98 system (copyright 1998, Gaussian, Inc.),
 the Gaussian(R) 94 system (copyright 1995, Gaussian, Inc.),
 the Gaussian 92(TM) system (copyright 1992, Gaussian, Inc.),
 the Gaussian 90(TM) system (copyright 1990, Gaussian, Inc.),
 the Gaussian 88(TM) system (copyright 1988, Gaussian, Inc.),
 the Gaussian 86(TM) system (copyright 1986, Carnegie Mellon
 University), and the Gaussian 82(TM) system (copyright 1983,
 Carnegie Mellon University). Gaussian is a federally registered
 trademark of Gaussian, Inc.
  
 This software contains proprietary and confidential information,
 including trade secrets, belonging to Gaussian, Inc.
  
 This software is provided under written license and may be
 used, copied, transmitted, or stored only in accord with that
 written license.
  
 The following legend is applicable only to US Government
 contracts under FAR:
  
                    RESTRICTED RIGHTS LEGEND
  
 Use, reproduction and disclosure by the US Government is
 subject to restrictions as set forth in subparagraphs (a)
 and (c) of the Commercial Computer Software - Restricted
 Rights clause in FAR 52.227-19.
  
 Gaussian, Inc.
 340 Quinnipiac St., Bldg. 40, Wallingford CT 06492
  
  
 ---------------------------------------------------------------
 Warning -- This program may not be used in any manner that
 competes with the business of Gaussian, Inc. or will provide
 assistance to any competitor of Gaussian, Inc.  The licensee
 of this program is prohibited from giving any competitor of
 Gaussian, Inc. access to this program.  By using this program,
 the user acknowledges that Gaussian, Inc. is engaged in the
 business of creating and licensing software in the field of
 computational chemistry and represents and warrants to the
 licensee that it is not a competitor of Gaussian, Inc. and that
 it will not use this program in any manner prohibited above.
 ---------------------------------------------------------------
  

 Cite this work as:
 Gaussian 16, Revision A.03,
 M. J. Frisch, G. W. Trucks, H. B. Schlegel, G. E. Scuseria, 
 M. A. Robb, J. R. Cheeseman, G. Scalmani, V. Barone, 
 G. A. Petersson, H. Nakatsuji, X. Li, M. Caricato, A. V. Marenich, 
 J. Bloino, B. G. Janesko, R. Gomperts, B. Mennucci, H. P. Hratchian, 
 J. V. Ortiz, A. F. Izmaylov, J. L. Sonnenberg, D. Williams-Young, 
 F. Ding, F. Lipparini, F. Egidi, J. Goings, B. Peng, A. Petrone, 
 T. Henderson, D. Ranasinghe, V. G. Zakrzewski, J. Gao, N. Rega, 
 G. Zheng, W. Liang, M. Hada, M. Ehara, K. Toyota, R. Fukuda, 
 J. Hasegawa, M. Ishida, T. Nakajima, Y. Honda, O. Kitao, H. Nakai, 
 T. Vreven, K. Throssell, J. A. Montgomery, Jr., J. E. Peralta, 
 F. Ogliaro, M. J. Bearpark, J. J. Heyd, E. N. Brothers, K. N. Kudin, 
 V. N. Staroverov, T. A. Keith, R. Kobayashi, J. Normand, 
 K. Raghavachari, A. P. Rendell, J. C. Burant, S. S. Iyengar, 
 J. Tomasi, M. Cossi, J. M. Millam, M. Klene, C. Adamo, R. Cammi, 
 J. W. Ochterski, R. L. Martin, K. Morokuma, O. Farkas, 
 J. B. Foresman, and D. J. Fox, Gaussian, Inc., Wallingford CT, 2016.
 
 ******************************************
 Gaussian 16:  ES64L-G16RevA.03 25-Dec-2016
                 1-Jun-2021 
 ******************************************
 %chk=CCCpCpCNdCpCpC.chk
 %NProcShared=20
 Will use up to   20 processors via shared memory.
 -----------------------------
 # opt freq b3lyp/6-31g(2df,p)
 -----------------------------
 1/18=20,19=15,26=3,38=1/1,3;
 2/9=110,12=2,17=6,18=5,40=1/2;
 3/5=1,6=6,7=104,11=2,25=1,30=1,71=1,74=-5/1,2,3;
 4//1;
 5/5=2,38=5/2;
 6/7=2,8=2,9=2,10=2,28=1/1;
 7//1,2,3,16;
 1/18=20,19=15,26=3/3(2);
 2/9=110/2;
 99//99;
 2/9=110/2;
 3/5=1,6=6,7=104,11=2,25=1,30=1,71=1,74=-5/1,2,3;
 4/5=5,16=3,69=1/1;
 5/5=2,38=5/2;
 7//1,2,3,16;
 1/18=20,19=15,26=3/3(-5);
 2/9=110/2;
 6/7=2,8=2,9=2,10=2,19=2,28=1/1;
 99/9=1/99;
 -------------------
 Title Card Required
 -------------------
 Symbolic Z-matrix:
 Charge =  0 Multiplicity = 1
 C                     0.91703  -0.11167  -0.08331 
 C                     2.4366   -0.06427  -0.02804 
 C                     2.96006   1.17149   0.72878 
 C                     2.46482   1.18346   2.17857 
 C                     4.49376   1.18123   0.69315 
 N                     4.99059   2.3796    1.36554 
 C                     6.26765   2.5318    1.48403 
 C                     7.3111    1.58403   0.94317 
 C                     6.76834   3.75554   2.2146 
 H                     0.58002  -0.98708  -0.64455 
 H                     0.52234   0.7869   -0.56737 
 H                     0.48034  -0.18454   0.91647 
 H                     2.82565  -0.06212  -1.05445 
 H                     2.80958  -0.98099   0.44619 
 H                     2.59344   2.07615   0.22588 
 H                     2.79707   0.28355   2.7072 
 H                     1.37434   1.22965   2.23121 
 H                     2.8375    2.05696   2.72106 
 H                     4.82884   1.17405  -0.35115 
 H                     4.86534   0.27891   1.19536 
 H                     6.88699   0.71849   0.43395 
 H                     7.92921   1.22204   1.76837 
 H                     7.93694   2.12143   0.22632 
 H                     5.9345    4.36419   2.57662 
 H                     7.38041   4.3576    1.53783 
 H                     7.3768    3.44663   3.06943 
 

 GradGradGradGradGradGradGradGradGradGradGradGradGradGradGradGradGradGrad
 Berny optimization.
 Initialization pass.
                           ----------------------------
                           !    Initial Parameters    !
                           ! (Angstroms and Degrees)  !
 --------------------------                            --------------------------
 ! Name  Definition              Value          Derivative Info.                !
 --------------------------------------------------------------------------------
 ! R1    R(1,2)                  1.5213         estimate D2E/DX2                !
 ! R2    R(1,10)                 1.0931         estimate D2E/DX2                !
 ! R3    R(1,11)                 1.0943         estimate D2E/DX2                !
 ! R4    R(1,12)                 1.0934         estimate D2E/DX2                !
 ! R5    R(2,3)                  1.5407         estimate D2E/DX2                !
 ! R6    R(2,13)                 1.0977         estimate D2E/DX2                !
 ! R7    R(2,14)                 1.0974         estimate D2E/DX2                !
 ! R8    R(3,4)                  1.5321         estimate D2E/DX2                !
 ! R9    R(3,5)                  1.5341         estimate D2E/DX2                !
 ! R10   R(3,15)                 1.0981         estimate D2E/DX2                !
 ! R11   R(4,16)                 1.0953         estimate D2E/DX2                !
 ! R12   R(4,17)                 1.0927         estimate D2E/DX2                !
 ! R13   R(4,18)                 1.0937         estimate D2E/DX2                !
 ! R14   R(5,6)                  1.4612         estimate D2E/DX2                !
 ! R15   R(5,19)                 1.0968         estimate D2E/DX2                !
 ! R16   R(5,20)                 1.0975         estimate D2E/DX2                !
 ! R17   R(6,7)                  1.2915         estimate D2E/DX2                !
 ! R18   R(7,8)                  1.5098         estimate D2E/DX2                !
 ! R19   R(7,9)                  1.5106         estimate D2E/DX2                !
 ! R20   R(8,21)                 1.0901         estimate D2E/DX2                !
 ! R21   R(8,22)                 1.0927         estimate D2E/DX2                !
 ! R22   R(8,23)                 1.0929         estimate D2E/DX2                !
 ! R23   R(9,24)                 1.094          estimate D2E/DX2                !
 ! R24   R(9,25)                 1.0932         estimate D2E/DX2                !
 ! R25   R(9,26)                 1.0938         estimate D2E/DX2                !
 ! A1    A(2,1,10)             110.5823         estimate D2E/DX2                !
 ! A2    A(2,1,11)             110.533          estimate D2E/DX2                !
 ! A3    A(2,1,12)             111.5787         estimate D2E/DX2                !
 ! A4    A(10,1,11)            108.6195         estimate D2E/DX2                !
 ! A5    A(10,1,12)            107.0352         estimate D2E/DX2                !
 ! A6    A(11,1,12)            108.3691         estimate D2E/DX2                !
 ! A7    A(1,2,3)              112.4695         estimate D2E/DX2                !
 ! A8    A(1,2,13)             108.6699         estimate D2E/DX2                !
 ! A9    A(1,2,14)             109.2169         estimate D2E/DX2                !
 ! A10   A(3,2,13)             109.7141         estimate D2E/DX2                !
 ! A11   A(3,2,14)             110.0139         estimate D2E/DX2                !
 ! A12   A(13,2,14)            106.5736         estimate D2E/DX2                !
 ! A13   A(2,3,4)              111.1778         estimate D2E/DX2                !
 ! A14   A(2,3,5)              109.4711         estimate D2E/DX2                !
 ! A15   A(2,3,15)             108.8075         estimate D2E/DX2                !
 ! A16   A(4,3,5)              110.1866         estimate D2E/DX2                !
 ! A17   A(4,3,15)             108.6041         estimate D2E/DX2                !
 ! A18   A(5,3,15)             108.537          estimate D2E/DX2                !
 ! A19   A(3,4,16)             110.6242         estimate D2E/DX2                !
 ! A20   A(3,4,17)             111.6229         estimate D2E/DX2                !
 ! A21   A(3,4,18)             111.436          estimate D2E/DX2                !
 ! A22   A(16,4,17)            108.3124         estimate D2E/DX2                !
 ! A23   A(16,4,18)            108.2663         estimate D2E/DX2                !
 ! A24   A(17,4,18)            106.4032         estimate D2E/DX2                !
 ! A25   A(3,5,6)              109.5386         estimate D2E/DX2                !
 ! A26   A(3,5,19)             109.1171         estimate D2E/DX2                !
 ! A27   A(3,5,20)             108.822          estimate D2E/DX2                !
 ! A28   A(6,5,19)             109.8552         estimate D2E/DX2                !
 ! A29   A(6,5,20)             110.4017         estimate D2E/DX2                !
 ! A30   A(19,5,20)            109.0801         estimate D2E/DX2                !
 ! A31   A(5,6,7)              118.3641         estimate D2E/DX2                !
 ! A32   A(6,7,8)              125.2058         estimate D2E/DX2                !
 ! A33   A(6,7,9)              117.8763         estimate D2E/DX2                !
 ! A34   A(8,7,9)              116.9173         estimate D2E/DX2                !
 ! A35   A(7,8,21)             113.3831         estimate D2E/DX2                !
 ! A36   A(7,8,22)             109.169          estimate D2E/DX2                !
 ! A37   A(7,8,23)             108.7878         estimate D2E/DX2                !
 ! A38   A(21,8,22)            108.0476         estimate D2E/DX2                !
 ! A39   A(21,8,23)            107.868          estimate D2E/DX2                !
 ! A40   A(22,8,23)            109.5309         estimate D2E/DX2                !
 ! A41   A(7,9,24)             110.9844         estimate D2E/DX2                !
 ! A42   A(7,9,25)             109.4093         estimate D2E/DX2                !
 ! A43   A(7,9,26)             109.4848         estimate D2E/DX2                !
 ! A44   A(24,9,25)            108.9778         estimate D2E/DX2                !
 ! A45   A(24,9,26)            108.8147         estimate D2E/DX2                !
 ! A46   A(25,9,26)            109.1413         estimate D2E/DX2                !
 ! D1    D(10,1,2,3)           178.7688         estimate D2E/DX2                !
 ! D2    D(10,1,2,13)           57.0961         estimate D2E/DX2                !
 ! D3    D(10,1,2,14)          -58.7934         estimate D2E/DX2                !
 ! D4    D(11,1,2,3)            58.4483         estimate D2E/DX2                !
 ! D5    D(11,1,2,13)          -63.2244         estimate D2E/DX2                !
 ! D6    D(11,1,2,14)         -179.1139         estimate D2E/DX2                !
 ! D7    D(12,1,2,3)           -62.2161         estimate D2E/DX2                !
 ! D8    D(12,1,2,13)          176.1112         estimate D2E/DX2                !
 ! D9    D(12,1,2,14)           60.2217         estimate D2E/DX2                !
 ! D10   D(1,2,3,4)             60.3459         estimate D2E/DX2                !
 ! D11   D(1,2,3,5)           -177.6827         estimate D2E/DX2                !
 ! D12   D(1,2,3,15)           -59.2171         estimate D2E/DX2                !
 ! D13   D(13,2,3,4)          -178.5775         estimate D2E/DX2                !
 ! D14   D(13,2,3,5)           -56.6061         estimate D2E/DX2                !
 ! D15   D(13,2,3,15)           61.8595         estimate D2E/DX2                !
 ! D16   D(14,2,3,4)           -61.6411         estimate D2E/DX2                !
 ! D17   D(14,2,3,5)            60.3303         estimate D2E/DX2                !
 ! D18   D(14,2,3,15)          178.7959         estimate D2E/DX2                !
 ! D19   D(2,3,4,16)            59.2584         estimate D2E/DX2                !
 ! D20   D(2,3,4,17)           -61.4261         estimate D2E/DX2                !
 ! D21   D(2,3,4,18)           179.7592         estimate D2E/DX2                !
 ! D22   D(5,3,4,16)           -62.2962         estimate D2E/DX2                !
 ! D23   D(5,3,4,17)           177.0192         estimate D2E/DX2                !
 ! D24   D(5,3,4,18)            58.2046         estimate D2E/DX2                !
 ! D25   D(15,3,4,16)          178.9426         estimate D2E/DX2                !
 ! D26   D(15,3,4,17)           58.258          estimate D2E/DX2                !
 ! D27   D(15,3,4,18)          -60.5567         estimate D2E/DX2                !
 ! D28   D(2,3,5,6)            177.8176         estimate D2E/DX2                !
 ! D29   D(2,3,5,19)            57.5235         estimate D2E/DX2                !
 ! D30   D(2,3,5,20)           -61.4013         estimate D2E/DX2                !
 ! D31   D(4,3,5,6)            -59.6183         estimate D2E/DX2                !
 ! D32   D(4,3,5,19)          -179.9124         estimate D2E/DX2                !
 ! D33   D(4,3,5,20)            61.1628         estimate D2E/DX2                !
 ! D34   D(15,3,5,6)            59.184          estimate D2E/DX2                !
 ! D35   D(15,3,5,19)          -61.1101         estimate D2E/DX2                !
 ! D36   D(15,3,5,20)          179.9651         estimate D2E/DX2                !
 ! D37   D(3,5,6,7)            177.1245         estimate D2E/DX2                !
 ! D38   D(19,5,6,7)           -63.0325         estimate D2E/DX2                !
 ! D39   D(20,5,6,7)            57.3067         estimate D2E/DX2                !
 ! D40   D(5,6,7,8)              1.9629         estimate D2E/DX2                !
 ! D41   D(5,6,7,9)           -178.3411         estimate D2E/DX2                !
 ! D42   D(6,7,8,21)            -0.7317         estimate D2E/DX2                !
 ! D43   D(6,7,8,22)          -121.2392         estimate D2E/DX2                !
 ! D44   D(6,7,8,23)           119.2807         estimate D2E/DX2                !
 ! D45   D(9,7,8,21)           179.5697         estimate D2E/DX2                !
 ! D46   D(9,7,8,22)            59.0621         estimate D2E/DX2                !
 ! D47   D(9,7,8,23)           -60.418          estimate D2E/DX2                !
 ! D48   D(6,7,9,24)             1.1259         estimate D2E/DX2                !
 ! D49   D(6,7,9,25)          -119.1675         estimate D2E/DX2                !
 ! D50   D(6,7,9,26)           121.2655         estimate D2E/DX2                !
 ! D51   D(8,7,9,24)          -179.1527         estimate D2E/DX2                !
 ! D52   D(8,7,9,25)            60.5539         estimate D2E/DX2                !
 ! D53   D(8,7,9,26)           -59.013          estimate D2E/DX2                !
 --------------------------------------------------------------------------------
 Trust Radius=3.00D-01 FncErr=1.00D-07 GrdErr=1.00D-06 EigMax=2.50D+02 EigMin=1.00D-04
 Number of steps in this run=    134 maximum allowed number of steps=    156.
 GradGradGradGradGradGradGradGradGradGradGradGradGradGradGradGradGradGrad

                          Input orientation:                          
 ---------------------------------------------------------------------
 Center     Atomic      Atomic             Coordinates (Angstroms)
 Number     Number       Type             X           Y           Z
 ---------------------------------------------------------------------
      1          6           0        0.917030   -0.111670   -0.083310
      2          6           0        2.436600   -0.064270   -0.028040
      3          6           0        2.960060    1.171490    0.728780
      4          6           0        2.464820    1.183460    2.178570
      5          6           0        4.493760    1.181230    0.693150
      6          7           0        4.990590    2.379600    1.365540
      7          6           0        6.267650    2.531800    1.484030
      8          6           0        7.311100    1.584030    0.943170
      9          6           0        6.768340    3.755540    2.214600
     10          1           0        0.580020   -0.987080   -0.644550
     11          1           0        0.522340    0.786900   -0.567370
     12          1           0        0.480340   -0.184540    0.916470
     13          1           0        2.825650   -0.062120   -1.054450
     14          1           0        2.809580   -0.980990    0.446190
     15          1           0        2.593440    2.076150    0.225880
     16          1           0        2.797070    0.283550    2.707200
     17          1           0        1.374340    1.229650    2.231210
     18          1           0        2.837500    2.056960    2.721060
     19          1           0        4.828840    1.174050   -0.351150
     20          1           0        4.865340    0.278910    1.195360
     21          1           0        6.886990    0.718490    0.433950
     22          1           0        7.929210    1.222040    1.768370
     23          1           0        7.936940    2.121430    0.226320
     24          1           0        5.934500    4.364190    2.576620
     25          1           0        7.380410    4.357600    1.537830
     26          1           0        7.376800    3.446630    3.069430
 ---------------------------------------------------------------------
                    Distance matrix (angstroms):
                    1          2          3          4          5
     1  C    0.000000
     2  C    1.521313   0.000000
     3  C    2.545577   1.540743   0.000000
     4  C    3.031356   2.535104   1.532089   0.000000
     5  C    3.881685   2.510636   1.534145   2.514573   0.000000
     6  N    4.989938   3.799662   2.447048   2.910547   1.461177
     7  C    6.170383   4.868560   3.655270   4.094133   2.365632
     8  C    6.694266   5.236496   4.375809   5.017280   2.856950
     9  C    7.380619   6.195511   4.836111   5.013699   3.757073
    10  H    1.093119   2.162996   3.494288   4.029109   4.669943
    11  H    1.094314   2.163275   2.787542   3.386838   4.185282
    12  H    1.093420   2.175665   2.832500   2.720750   4.245320
    13  H    2.142055   1.097671   2.172503   3.483402   2.717097
    14  H    2.148914   1.097444   2.176160   2.793715   2.751844
    15  H    2.773537   2.161127   1.098057   2.150915   2.151846
    16  H    3.387875   2.780729   2.174661   1.095298   2.782262
    17  H    2.713904   2.811910   2.185220   1.092726   3.478326
    18  H    4.031830   3.495410   2.183634   1.093704   2.760891
    19  H    4.126387   2.713052   2.158378   3.462393   1.096765
    20  H    4.168537   2.741032   2.155107   2.747255   1.097483
    21  H    6.049557   4.542259   3.963952   4.776556   2.451298
    22  H    7.374156   5.920342   5.076983   5.479901   3.600011
    23  H    7.373042   5.924164   5.091580   5.885165   3.599638
    24  H    7.230737   6.215369   4.738685   4.723787   3.969184
    25  H    8.023575   6.815141   5.508662   5.886318   4.374421
    26  H    8.020592   6.806344   5.492039   5.481160   4.369286
                    6          7          8          9         10
     6  N    0.000000
     7  C    1.291544   0.000000
     8  C    2.489196   1.509830   0.000000
     9  C    2.403021   1.510617   2.574214   0.000000
    10  H    5.901536   7.018725   7.378272   8.304366   0.000000
    11  H    5.122313   6.345195   7.000315   7.454173   1.776595
    12  H    5.207575   6.418223   7.056050   7.533148   1.758064
    13  H    4.062673   5.001966   5.178760   6.387959   2.463011
    14  H    4.110423   5.037366   5.204805   6.421353   2.482073
    15  H    2.671560   3.910291   4.797187   4.919873   3.767610
    16  H    3.317380   4.312273   5.017920   5.297958   4.214741
    17  H    3.892176   5.118433   6.085208   5.956142   3.716831
    18  H    2.564630   3.677179   4.837112   4.311981   5.068503
    19  H    2.103934   2.698434   2.829304   4.124176   4.775881
    20  H    2.111290   2.669329   2.783645   4.092336   4.832387
    21  H    2.687653   2.185027   1.090107   3.522565   6.621933
    22  H    3.183976   2.134737   1.092727   2.822297   8.044438
    23  H    3.169456   2.129969   1.092862   2.826517   8.034023
    24  H    2.509239   2.159258   3.506063   1.093985   8.226936
    25  H    3.106993   2.138849   2.837449   1.093217   8.920409
    26  H    3.120223   2.140238   2.827468   1.093793   8.924553
                   11         12         13         14         15
    11  H    0.000000
    12  H    1.774046   0.000000
    13  H    2.502662   3.065941   0.000000
    14  H    3.063365   2.506163   1.759688   0.000000
    15  H    2.565320   3.170619   2.503071   3.072679   0.000000
    16  H    4.018777   2.965309   3.777607   2.590634   3.067870
    17  H    2.958713   2.127842   3.817137   3.183259   2.494818
    18  H    4.217439   3.719821   4.329563   3.795386   2.507161
    19  H    4.329270   4.728856   2.456729   3.058980   2.478661
    20  H    4.714543   4.418234   3.055860   2.524827   3.054749
    21  H    6.443298   6.487947   4.395358   4.417426   4.507894
    22  H    7.778609   7.628228   5.971910   5.728186   5.619539
    23  H    7.575434   7.835476   5.703819   5.996930   5.343692
    24  H    7.209241   7.293484   6.514740   6.547886   4.682284
    25  H    8.013419   8.284207   6.855631   7.112293   5.462720
    26  H    8.202689   8.085901   7.073237   6.880749   5.731014
                   16         17         18         19         20
    16  H    0.000000
    17  H    1.773649   0.000000
    18  H    1.773925   1.750780   0.000000
    19  H    3.778172   4.313380   3.766091   0.000000
    20  H    2.561918   3.763505   3.098606   1.787261   0.000000
    21  H    4.699392   5.820716   4.839498   2.249422   2.204551
    22  H    5.301040   6.571195   5.246925   3.755924   3.256552
    23  H    5.995901   6.919724   5.677338   3.300195   3.710612
    24  H    5.148994   5.544340   3.864658   4.468928   4.443028
    25  H    6.242781   6.807182   5.227907   4.495970   4.804017
    26  H    5.577653   6.453459   4.760020   4.832917   4.455785
                   21         22         23         24         25
    21  H    0.000000
    22  H    1.766483   0.000000
    23  H    1.764581   1.785184   0.000000
    24  H    4.334674   3.808575   3.816235   0.000000
    25  H    3.834728   3.191562   2.651460   1.780389   0.000000
    26  H    3.824711   2.635662   3.186406   1.779047   1.782043
                   26
    26  H    0.000000
 Stoichiometry    C8H17N
 Framework group  C1[X(C8H17N)]
 Deg. of freedom    72
 Full point group                 C1      NOp   1
 Largest Abelian subgroup         C1      NOp   1
 Largest concise Abelian subgroup C1      NOp   1
                         Standard orientation:                         
 ---------------------------------------------------------------------
 Center     Atomic      Atomic             Coordinates (Angstroms)
 Number     Number       Type             X           Y           Z
 ---------------------------------------------------------------------
      1          6           0       -3.853683   -0.170482   -0.286131
      2          6           0       -2.492887   -0.794205   -0.014839
      3          6           0       -1.334839    0.195323   -0.246464
      4          6           0       -1.454356    1.412882    0.675796
      5          6           0        0.002542   -0.518334   -0.010447
      6          7           0        1.103038    0.404287   -0.280109
      7          6           0        2.311040   -0.006156   -0.079221
      8          6           0        2.694379   -1.392947    0.378435
      9          6           0        3.438355    0.968908   -0.324929
     10          1           0       -4.649826   -0.903864   -0.133761
     11          1           0       -3.909248    0.196752   -1.315487
     12          1           0       -4.054719    0.665544    0.389304
     13          1           0       -2.370036   -1.667498   -0.668405
     14          1           0       -2.466315   -1.168744    1.016373
     15          1           0       -1.367212    0.540529   -1.288344
     16          1           0       -1.444485    1.103490    1.726442
     17          1           0       -2.376254    1.969476    0.490437
     18          1           0       -0.631851    2.116243    0.517820
     19          1           0        0.070338   -1.384715   -0.679536
     20          1           0        0.040126   -0.864910    1.030198
     21          1           0        1.837464   -2.045784    0.545270
     22          1           0        3.252058   -1.320246    1.315324
     23          1           0        3.323738   -1.854613   -0.386497
     24          1           0        3.052159    1.943687   -0.637117
     25          1           0        4.092429    0.577997   -1.108829
     26          1           0        4.017073    1.096717    0.594383
 ---------------------------------------------------------------------
 Rotational constants (GHZ):           3.8590392           0.6490851           0.5888640
 Standard basis: 6-31G(2df,p) (6D, 7F)
 There are   364 symmetry adapted cartesian basis functions of A   symmetry.
 There are   337 symmetry adapted basis functions of A   symmetry.
   337 basis functions,   515 primitive gaussians,   364 cartesian basis functions
    36 alpha electrons       36 beta electrons
       nuclear repulsion energy       461.3859932615 Hartrees.
 NAtoms=   26 NActive=   26 NUniq=   26 SFac= 1.00D+00 NAtFMM=   60 NAOKFM=F Big=F
 Integral buffers will be    131072 words long.
 Raffenetti 2 integral format.
 Two-electron integral symmetry is turned on.
 One-electron integrals computed using PRISM.
 PrsmSu:  requested number of processors reduced to:  13 ShMem   1 Linda.
 NBasis=   337 RedAO= T EigKep=  2.60D-04  NBF=   337
 NBsUse=   337 1.00D-06 EigRej= -1.00D+00 NBFU=   337
 ExpMin= 1.61D-01 ExpMax= 4.17D+03 ExpMxC= 6.27D+02 IAcc=3 IRadAn=         5 AccDes= 0.00D+00
 Harris functional with IExCor=  402 and IRadAn=       5 diagonalized for initial guess.
 HarFok:  IExCor=  402 AccDes= 0.00D+00 IRadAn=         5 IDoV= 1 UseB2=F ITyADJ=14
 ICtDFT=  3500011 ScaDFX=  1.000000  1.000000  1.000000  1.000000
 FoFCou: FMM=F IPFlag=           0 FMFlag=      100000 FMFlg1=           0
         NFxFlg=           0 DoJE=T BraDBF=F KetDBF=T FulRan=T
         wScrn=  0.000000 ICntrl=       500 IOpCl=  0 I1Cent=   200000004 NGrid=           0
         NMat0=    1 NMatS0=      1 NMatT0=    0 NMatD0=    1 NMtDS0=    0 NMtDT0=    0
 Petite list used in FoFCou.
 Requested convergence on RMS density matrix=1.00D-08 within 128 cycles.
 Requested convergence on MAX density matrix=1.00D-06.
 Requested convergence on             energy=1.00D-06.
 No special actions if energy rises.
 Integral accuracy reduced to 1.0D-05 until final iterations.
 Initial convergence to 1.0D-05 achieved.  Increase integral accuracy.
 SCF Done:  E(RB3LYP) =  -369.865818491     A.U. after   13 cycles
            NFock= 13  Conv=0.56D-08     -V/T= 2.0087

 **********************************************************************

            Population analysis using the SCF density.

 **********************************************************************

 Orbital symmetries:
       Occupied  (A) (A) (A) (A) (A) (A) (A) (A) (A) (A) (A) (A)
                 (A) (A) (A) (A) (A) (A) (A) (A) (A) (A) (A) (A)
                 (A) (A) (A) (A) (A) (A) (A) (A) (A) (A) (A) (A)
       Virtual   (A) (A) (A) (A) (A) (A) (A) (A) (A) (A) (A) (A)
                 (A) (A) (A) (A) (A) (A) (A) (A) (A) (A) (A) (A)
                 (A) (A) (A) (A) (A) (A) (A) (A) (A) (A) (A) (A)
                 (A) (A) (A) (A) (A) (A) (A) (A) (A) (A) (A) (A)
                 (A) (A) (A) (A) (A) (A) (A) (A) (A) (A) (A) (A)
                 (A) (A) (A) (A) (A) (A) (A) (A) (A) (A) (A) (A)
                 (A) (A) (A) (A) (A) (A) (A) (A) (A) (A) (A) (A)
                 (A) (A) (A) (A) (A) (A) (A) (A) (A) (A) (A) (A)
                 (A) (A) (A) (A) (A) (A) (A) (A) (A) (A) (A) (A)
                 (A) (A) (A) (A) (A) (A) (A) (A) (A) (A) (A) (A)
                 (A) (A) (A) (A) (A) (A) (A) (A) (A) (A) (A) (A)
                 (A) (A) (A) (A) (A) (A) (A) (A) (A) (A) (A) (A)
                 (A) (A) (A) (A) (A) (A) (A) (A) (A) (A) (A) (A)
                 (A) (A) (A) (A) (A) (A) (A) (A) (A) (A) (A) (A)
                 (A) (A) (A) (A) (A) (A) (A) (A) (A) (A) (A) (A)
                 (A) (A) (A) (A) (A) (A) (A) (A) (A) (A) (A) (A)
                 (A) (A) (A) (A) (A) (A) (A) (A) (A) (A) (A) (A)
                 (A) (A) (A) (A) (A) (A) (A) (A) (A) (A) (A) (A)
                 (A) (A) (A) (A) (A) (A) (A) (A) (A) (A) (A) (A)
                 (A) (A) (A) (A) (A) (A) (A) (A) (A) (A) (A) (A)
                 (A) (A) (A) (A) (A) (A) (A) (A) (A) (A) (A) (A)
                 (A) (A) (A) (A) (A) (A) (A) (A) (A) (A) (A) (A)
                 (A) (A) (A) (A) (A) (A) (A) (A) (A) (A) (A) (A)
                 (A) (A) (A) (A) (A) (A) (A) (A) (A) (A) (A) (A)
                 (A) (A) (A) (A) (A) (A) (A) (A) (A) (A) (A) (A)
                 (A)
 The electronic state is 1-A.
 Alpha  occ. eigenvalues --  -14.30343 -10.22335 -10.19175 -10.18471 -10.17682
 Alpha  occ. eigenvalues --  -10.17103 -10.16938 -10.16346 -10.15481  -0.90376
 Alpha  occ. eigenvalues --   -0.80104  -0.75353  -0.71298  -0.70051  -0.66151
 Alpha  occ. eigenvalues --   -0.61208  -0.54775  -0.51037  -0.46702  -0.46448
 Alpha  occ. eigenvalues --   -0.44523  -0.44397  -0.42104  -0.41228  -0.39603
 Alpha  occ. eigenvalues --   -0.39187  -0.37771  -0.36651  -0.36466  -0.35461
 Alpha  occ. eigenvalues --   -0.34463  -0.31515  -0.31132  -0.30290  -0.26532
 Alpha  occ. eigenvalues --   -0.23302
 Alpha virt. eigenvalues --    0.00710   0.08927   0.09883   0.12158   0.13185
 Alpha virt. eigenvalues --    0.14059   0.14675   0.15558   0.16555   0.16673
 Alpha virt. eigenvalues --    0.17259   0.18013   0.18187   0.18532   0.19519
 Alpha virt. eigenvalues --    0.19743   0.20732   0.21709   0.22441   0.23565
 Alpha virt. eigenvalues --    0.25357   0.26585   0.26639   0.28795   0.31375
 Alpha virt. eigenvalues --    0.39410   0.43482   0.46441   0.47300   0.48185
 Alpha virt. eigenvalues --    0.49106   0.49897   0.50729   0.51569   0.53347
 Alpha virt. eigenvalues --    0.53725   0.55161   0.56048   0.59399   0.60386
 Alpha virt. eigenvalues --    0.61852   0.62838   0.63490   0.63900   0.66227
 Alpha virt. eigenvalues --    0.67484   0.69361   0.70741   0.71007   0.71389
 Alpha virt. eigenvalues --    0.73401   0.73551   0.74174   0.74282   0.75578
 Alpha virt. eigenvalues --    0.75872   0.76205   0.77013   0.77038   0.78644
 Alpha virt. eigenvalues --    0.79066   0.79831   0.81841   0.81957   0.84330
 Alpha virt. eigenvalues --    0.84747   0.85200   0.87524   0.87830   0.88957
 Alpha virt. eigenvalues --    0.90559   0.90622   0.93510   0.95813   1.01985
 Alpha virt. eigenvalues --    1.04466   1.09302   1.11263   1.12955   1.15298
 Alpha virt. eigenvalues --    1.18907   1.19935   1.20804   1.22873   1.24485
 Alpha virt. eigenvalues --    1.25764   1.26770   1.30686   1.36332   1.37988
 Alpha virt. eigenvalues --    1.39145   1.41305   1.43070   1.44721   1.46968
 Alpha virt. eigenvalues --    1.47549   1.48566   1.51012   1.54288   1.54814
 Alpha virt. eigenvalues --    1.55622   1.57277   1.58860   1.59718   1.60593
 Alpha virt. eigenvalues --    1.62984   1.64719   1.70661   1.74802   1.75848
 Alpha virt. eigenvalues --    1.78198   1.79646   1.82277   1.84637   1.85986
 Alpha virt. eigenvalues --    1.86198   1.87425   1.91920   1.93617   1.94457
 Alpha virt. eigenvalues --    1.94968   1.95297   1.97551   1.98966   2.00064
 Alpha virt. eigenvalues --    2.01626   2.09161   2.12369   2.17743   2.18240
 Alpha virt. eigenvalues --    2.22564   2.25603   2.26686   2.27576   2.32455
 Alpha virt. eigenvalues --    2.33988   2.35889   2.36166   2.36212   2.40472
 Alpha virt. eigenvalues --    2.42786   2.44170   2.46221   2.48080   2.50260
 Alpha virt. eigenvalues --    2.55020   2.57819   2.61795   2.64494   2.68991
 Alpha virt. eigenvalues --    2.71627   2.72813   2.74988   2.77690   2.78170
 Alpha virt. eigenvalues --    2.80777   2.81783   2.82651   2.83194   2.84290
 Alpha virt. eigenvalues --    2.85879   2.86821   2.87885   2.88684   2.89905
 Alpha virt. eigenvalues --    2.91526   2.92038   2.93036   2.94011   2.94360
 Alpha virt. eigenvalues --    2.97924   2.99094   2.99771   3.02647   3.03618
 Alpha virt. eigenvalues --    3.06663   3.07797   3.12330   3.13343   3.14731
 Alpha virt. eigenvalues --    3.17122   3.18543   3.21027   3.24258   3.26582
 Alpha virt. eigenvalues --    3.30757   3.31270   3.33441   3.33953   3.36647
 Alpha virt. eigenvalues --    3.39457   3.41976   3.42874   3.46221   3.47941
 Alpha virt. eigenvalues --    3.48797   3.50855   3.52097   3.54503   3.57358
 Alpha virt. eigenvalues --    3.60003   3.60548   3.62175   3.64699   3.66450
 Alpha virt. eigenvalues --    3.67133   3.68263   3.69156   3.72145   3.73276
 Alpha virt. eigenvalues --    3.74636   3.76714   3.79058   3.82050   3.83756
 Alpha virt. eigenvalues --    3.91389   3.92991   3.95218   3.96432   3.96840
 Alpha virt. eigenvalues --    3.99336   4.00587   4.04768   4.07751   4.10866
 Alpha virt. eigenvalues --    4.12354   4.13682   4.18781   4.22067   4.33114
 Alpha virt. eigenvalues --    4.37590   4.38749   4.40492   4.40982   4.42559
 Alpha virt. eigenvalues --    4.42956   4.45404   4.46277   4.46699   4.48533
 Alpha virt. eigenvalues --    4.53167   4.53904   4.54983   4.57351   4.57703
 Alpha virt. eigenvalues --    4.60673   4.62618   4.63889   4.65617   4.67203
 Alpha virt. eigenvalues --    4.67870   4.68825   4.69495   4.70169   4.72525
 Alpha virt. eigenvalues --    4.73280   4.74525   4.76695   4.77575   4.79619
 Alpha virt. eigenvalues --    4.81262   4.81409   4.82704   4.84429   4.84822
 Alpha virt. eigenvalues --    4.87728   4.88627   4.91130   4.91376   4.92372
 Alpha virt. eigenvalues --    4.97761   5.01338   5.04235   5.07313   5.11625
 Alpha virt. eigenvalues --    5.14852   5.17869   5.24326   5.29481   5.34802
 Alpha virt. eigenvalues --    5.39727   5.44806   5.45919   5.50026   5.54207
 Alpha virt. eigenvalues --    5.57295   5.67075   5.69426   5.82247   5.87206
 Alpha virt. eigenvalues --    5.95676  10.72445  11.16012  11.32596  11.59307
 Alpha virt. eigenvalues --   11.68956  11.75816  12.01334  12.18754  12.54231
 Alpha virt. eigenvalues --   16.16467
          Condensed to atoms (all electrons):
               1          2          3          4          5          6
     1  C    4.959093   0.408573  -0.029944  -0.004970   0.001683  -0.000057
     2  C    0.408573   4.842501   0.398932  -0.039458  -0.034248   0.002667
     3  C   -0.029944   0.398932   4.644373   0.404542   0.449524  -0.044506
     4  C   -0.004970  -0.039458   0.404542   5.008598  -0.031144  -0.010029
     5  C    0.001683  -0.034248   0.449524  -0.031144   4.876299   0.377400
     6  N   -0.000057   0.002667  -0.044506  -0.010029   0.377400   6.314441
     7  C    0.000001  -0.000101  -0.001222   0.001007  -0.110417   0.736455
     8  C    0.000000   0.000033   0.000571  -0.000031  -0.023981  -0.071122
     9  C   -0.000000   0.000002  -0.000164   0.000035   0.009435  -0.022943
    10  H    0.371856  -0.022390   0.002852   0.000286  -0.000130   0.000001
    11  H    0.377280  -0.029194  -0.003613  -0.000930   0.000226   0.000002
    12  H    0.380644  -0.027737  -0.005893   0.001099   0.000174   0.000001
    13  H   -0.036675   0.361217  -0.029461   0.005603  -0.002476   0.000156
    14  H   -0.038497   0.361238  -0.026384  -0.008811  -0.004278   0.000079
    15  H   -0.004185  -0.043047   0.352607  -0.047019  -0.034763   0.002812
    16  H   -0.000301  -0.005470  -0.030364   0.368374  -0.005234  -0.000051
    17  H    0.000493  -0.005388  -0.024832   0.372803   0.003320   0.000282
    18  H    0.000174   0.004897  -0.023152   0.367169  -0.006187   0.015374
    19  H    0.000015  -0.001728  -0.036814   0.006272   0.340761  -0.024964
    20  H    0.000004  -0.003317  -0.034225  -0.009867   0.339570  -0.028318
    21  H   -0.000000   0.000048  -0.000332   0.000017   0.002621  -0.010754
    22  H   -0.000000  -0.000001  -0.000007   0.000001   0.000183   0.001337
    23  H   -0.000000  -0.000001  -0.000023   0.000001   0.000050   0.001076
    24  H    0.000000   0.000000  -0.000018  -0.000037  -0.000424   0.003454
    25  H    0.000000  -0.000000  -0.000000   0.000000  -0.000293  -0.001236
    26  H    0.000000  -0.000000   0.000005  -0.000001  -0.000268  -0.001177
               7          8          9         10         11         12
     1  C    0.000001   0.000000  -0.000000   0.371856   0.377280   0.380644
     2  C   -0.000101   0.000033   0.000002  -0.022390  -0.029194  -0.027737
     3  C   -0.001222   0.000571  -0.000164   0.002852  -0.003613  -0.005893
     4  C    0.001007  -0.000031   0.000035   0.000286  -0.000930   0.001099
     5  C   -0.110417  -0.023981   0.009435  -0.000130   0.000226   0.000174
     6  N    0.736455  -0.071122  -0.022943   0.000001   0.000002   0.000001
     7  C    4.440028   0.372399   0.355390  -0.000000   0.000000   0.000000
     8  C    0.372399   5.182218  -0.107288  -0.000000  -0.000000  -0.000000
     9  C    0.355390  -0.107288   5.133818   0.000000   0.000000   0.000000
    10  H   -0.000000  -0.000000   0.000000   0.613030  -0.031748  -0.032612
    11  H    0.000000  -0.000000   0.000000  -0.031748   0.602935  -0.033934
    12  H    0.000000  -0.000000   0.000000  -0.032612  -0.033934   0.593552
    13  H    0.000027  -0.000003  -0.000000  -0.003064  -0.004201   0.005710
    14  H    0.000019  -0.000004  -0.000000  -0.002124   0.005851  -0.004260
    15  H    0.000968   0.000021  -0.000030  -0.000054   0.005383  -0.000091
    16  H    0.000038   0.000004  -0.000005  -0.000040   0.000105   0.000813
    17  H   -0.000016   0.000001  -0.000001  -0.000110   0.000885   0.003664
    18  H    0.000877   0.000091  -0.000142  -0.000000  -0.000037  -0.000215
    19  H   -0.001082   0.002331  -0.000346   0.000002  -0.000008   0.000002
    20  H   -0.001928   0.002389  -0.000338   0.000006   0.000011   0.000002
    21  H   -0.017766   0.370679   0.004382   0.000000   0.000000   0.000000
    22  H   -0.020147   0.363224   0.000326  -0.000000  -0.000000   0.000000
    23  H   -0.021590   0.364515   0.000374  -0.000000   0.000000   0.000000
    24  H   -0.005924   0.006021   0.349752   0.000000  -0.000000  -0.000000
    25  H   -0.023751   0.003258   0.362095  -0.000000   0.000000  -0.000000
    26  H   -0.023068   0.002552   0.362804  -0.000000  -0.000000   0.000000
              13         14         15         16         17         18
     1  C   -0.036675  -0.038497  -0.004185  -0.000301   0.000493   0.000174
     2  C    0.361217   0.361238  -0.043047  -0.005470  -0.005388   0.004897
     3  C   -0.029461  -0.026384   0.352607  -0.030364  -0.024832  -0.023152
     4  C    0.005603  -0.008811  -0.047019   0.368374   0.372803   0.367169
     5  C   -0.002476  -0.004278  -0.034763  -0.005234   0.003320  -0.006187
     6  N    0.000156   0.000079   0.002812  -0.000051   0.000282   0.015374
     7  C    0.000027   0.000019   0.000968   0.000038  -0.000016   0.000877
     8  C   -0.000003  -0.000004   0.000021   0.000004   0.000001   0.000091
     9  C   -0.000000  -0.000000  -0.000030  -0.000005  -0.000001  -0.000142
    10  H   -0.003064  -0.002124  -0.000054  -0.000040  -0.000110  -0.000000
    11  H   -0.004201   0.005851   0.005383   0.000105   0.000885  -0.000037
    12  H    0.005710  -0.004260  -0.000091   0.000813   0.003664  -0.000215
    13  H    0.658913  -0.041633  -0.003924  -0.000007  -0.000015  -0.000172
    14  H   -0.041633   0.653880   0.006729   0.005592   0.000054  -0.000052
    15  H   -0.003924   0.006729   0.687754   0.006287  -0.002774  -0.001983
    16  H   -0.000007   0.005592   0.006287   0.619776  -0.033871  -0.030701
    17  H   -0.000015   0.000054  -0.002774  -0.033871   0.609571  -0.030967
    18  H   -0.000172  -0.000052  -0.001983  -0.030701  -0.030967   0.575371
    19  H    0.005919  -0.000434  -0.004349  -0.000001  -0.000180   0.000297
    20  H   -0.000319   0.005772   0.007349   0.006232  -0.000024   0.000638
    21  H    0.000011   0.000006   0.000019  -0.000000  -0.000000   0.000005
    22  H   -0.000000   0.000000   0.000000  -0.000000  -0.000000  -0.000003
    23  H    0.000000   0.000000  -0.000000   0.000000  -0.000000  -0.000000
    24  H    0.000000   0.000000   0.000014   0.000001  -0.000000   0.000228
    25  H    0.000000  -0.000000  -0.000001  -0.000000   0.000000   0.000001
    26  H   -0.000000   0.000000   0.000001   0.000000  -0.000000  -0.000001
              19         20         21         22         23         24
     1  C    0.000015   0.000004  -0.000000  -0.000000  -0.000000   0.000000
     2  C   -0.001728  -0.003317   0.000048  -0.000001  -0.000001   0.000000
     3  C   -0.036814  -0.034225  -0.000332  -0.000007  -0.000023  -0.000018
     4  C    0.006272  -0.009867   0.000017   0.000001   0.000001  -0.000037
     5  C    0.340761   0.339570   0.002621   0.000183   0.000050  -0.000424
     6  N   -0.024964  -0.028318  -0.010754   0.001337   0.001076   0.003454
     7  C   -0.001082  -0.001928  -0.017766  -0.020147  -0.021590  -0.005924
     8  C    0.002331   0.002389   0.370679   0.363224   0.364515   0.006021
     9  C   -0.000346  -0.000338   0.004382   0.000326   0.000374   0.349752
    10  H    0.000002   0.000006   0.000000  -0.000000  -0.000000   0.000000
    11  H   -0.000008   0.000011   0.000000  -0.000000   0.000000  -0.000000
    12  H    0.000002   0.000002   0.000000   0.000000   0.000000  -0.000000
    13  H    0.005919  -0.000319   0.000011  -0.000000   0.000000   0.000000
    14  H   -0.000434   0.005772   0.000006   0.000000   0.000000   0.000000
    15  H   -0.004349   0.007349   0.000019   0.000000  -0.000000   0.000014
    16  H   -0.000001   0.006232  -0.000000  -0.000000   0.000000   0.000001
    17  H   -0.000180  -0.000024  -0.000000  -0.000000  -0.000000  -0.000000
    18  H    0.000297   0.000638   0.000005  -0.000003  -0.000000   0.000228
    19  H    0.660118  -0.043175   0.003934  -0.000347   0.000803   0.000046
    20  H   -0.043175   0.660270   0.004126   0.000833  -0.000388   0.000053
    21  H    0.003934   0.004126   0.568574  -0.029434  -0.028852  -0.000156
    22  H   -0.000347   0.000833  -0.029434   0.577513  -0.027714  -0.000122
    23  H    0.000803  -0.000388  -0.028852  -0.027714   0.576565  -0.000115
    24  H    0.000046   0.000053  -0.000156  -0.000122  -0.000115   0.561544
    25  H    0.000083  -0.000020  -0.000020  -0.000505   0.002317  -0.025634
    26  H   -0.000018   0.000090  -0.000022   0.002420  -0.000455  -0.026078
              25         26
     1  C    0.000000   0.000000
     2  C   -0.000000  -0.000000
     3  C   -0.000000   0.000005
     4  C    0.000000  -0.000001
     5  C   -0.000293  -0.000268
     6  N   -0.001236  -0.001177
     7  C   -0.023751  -0.023068
     8  C    0.003258   0.002552
     9  C    0.362095   0.362804
    10  H   -0.000000  -0.000000
    11  H    0.000000  -0.000000
    12  H   -0.000000   0.000000
    13  H    0.000000  -0.000000
    14  H   -0.000000   0.000000
    15  H   -0.000001   0.000001
    16  H   -0.000000   0.000000
    17  H    0.000000  -0.000000
    18  H    0.000001  -0.000001
    19  H    0.000083  -0.000018
    20  H   -0.000020   0.000090
    21  H   -0.000020  -0.000022
    22  H   -0.000505   0.002420
    23  H    0.002317  -0.000455
    24  H   -0.025634  -0.026078
    25  H    0.593054  -0.032345
    26  H   -0.032345   0.592650
 Mulliken charges:
               1
     1  C   -0.385185
     2  C   -0.168029
     3  C    0.037551
     4  C   -0.383507
     5  C   -0.147404
     6  N   -0.240378
     7  C    0.319802
     8  C   -0.467877
     9  C   -0.447158
    10  H    0.104238
    11  H    0.110988
    12  H    0.119081
    13  H    0.084395
    14  H    0.087257
    15  H    0.072276
    16  H    0.098821
    17  H    0.107106
    18  H    0.128492
    19  H    0.092862
    20  H    0.094572
    21  H    0.132915
    22  H    0.132443
    23  H    0.133438
    24  H    0.137395
    25  H    0.122996
    26  H    0.122913
 Sum of Mulliken charges =  -0.00000
 Mulliken charges with hydrogens summed into heavy atoms:
               1
     1  C   -0.050879
     2  C    0.003623
     3  C    0.109827
     4  C   -0.049088
     5  C    0.040029
     6  N   -0.240378
     7  C    0.319802
     8  C   -0.069081
     9  C   -0.063855
 Electronic spatial extent (au):  <R**2>=           2041.2999
 Charge=             -0.0000 electrons
 Dipole moment (field-independent basis, Debye):
    X=              1.2303    Y=             -1.3667    Z=              0.4198  Tot=              1.8862
 Quadrupole moment (field-independent basis, Debye-Ang):
   XX=            -54.4899   YY=            -59.1342   ZZ=            -58.2873
   XY=             -1.3305   XZ=              0.5935   YZ=              0.2806
 Traceless Quadrupole moment (field-independent basis, Debye-Ang):
   XX=              2.8139   YY=             -1.8304   ZZ=             -0.9835
   XY=             -1.3305   XZ=              0.5935   YZ=              0.2806
 Octapole moment (field-independent basis, Debye-Ang**2):
  XXX=             27.1672  YYY=             -0.1474  ZZZ=              0.1105  XYY=              2.2265
  XXY=             -1.8334  XXZ=              0.5539  XZZ=              2.8536  YZZ=             -1.3752
  YYZ=             -1.2839  XYZ=              1.2689
 Hexadecapole moment (field-independent basis, Debye-Ang**3):
 XXXX=          -2248.7433 YYYY=           -396.5626 ZZZZ=           -150.3363 XXXY=             -2.3108
 XXXZ=             -6.7229 YYYX=              2.7378 YYYZ=             -0.2196 ZZZX=              3.5047
 ZZZY=             -1.7227 XXYY=           -439.0752 XXZZ=           -391.4008 YYZZ=            -92.4353
 XXYZ=              2.9484 YYXZ=             -1.3188 ZZXY=             -1.3148
 N-N= 4.613859932615D+02 E-N=-1.778912416417D+03  KE= 3.666584811226D+02
 PrsmSu:  requested number of processors reduced to:  13 ShMem   1 Linda.
 Calling FoFJK, ICntrl=      2127 FMM=F ISym2X=0 I1Cent= 0 IOpClX= 0 NMat=1 NMatS=1 NMatT=0.
 ***** Axes restored to original set *****
 -------------------------------------------------------------------
 Center     Atomic                   Forces (Hartrees/Bohr)
 Number     Number              X              Y              Z
 -------------------------------------------------------------------
      1        6          -0.003582486   -0.004430180   -0.001418610
      2        6          -0.001166013    0.004945655   -0.000190736
      3        6           0.002405560   -0.009277342    0.002431093
      4        6          -0.002526723    0.005527565    0.002005157
      5        6          -0.007778219    0.010828990    0.001678409
      6        7           0.027321766    0.001495952    0.002870554
      7        6          -0.030783033   -0.000778644   -0.001326889
      8        6          -0.001973618    0.001259205    0.001344100
      9        6          -0.003694000   -0.003533053   -0.002735285
     10        1          -0.001897403    0.000193527   -0.001826668
     11        1          -0.002062281   -0.000098263   -0.000211341
     12        1          -0.000980297    0.000431093   -0.000841423
     13        1           0.001723267    0.000059460    0.000249708
     14        1           0.001806092    0.000215825    0.000828145
     15        1           0.001175441    0.000168287   -0.000484240
     16        1          -0.000248951   -0.001092845    0.000998412
     17        1          -0.000374651   -0.001491024    0.000327722
     18        1           0.002925556   -0.001179059   -0.001528441
     19        1           0.000852219   -0.003435976   -0.001378226
     20        1           0.000457131   -0.002485276   -0.001898621
     21        1          -0.000022855    0.001050821    0.000664907
     22        1           0.005140745    0.000420150   -0.000773928
     23        1           0.005153075   -0.000388607    0.000868413
     24        1           0.000456855   -0.002620713   -0.001862458
     25        1           0.004004058    0.002089724    0.001752210
     26        1           0.003668765    0.002124730    0.000458035
 -------------------------------------------------------------------
 Cartesian Forces:  Max     0.030783033 RMS     0.005429153

 GradGradGradGradGradGradGradGradGradGradGradGradGradGradGradGradGradGrad
 Berny optimization.
 FormGI is forming the generalized inverse of G from B-inverse, IUseBI=4.
 Internal  Forces:  Max     0.018040663 RMS     0.003439501
 Search for a local minimum.
 Step number   1 out of a maximum of  134
 All quantities printed in internal units (Hartrees-Bohrs-Radians)
 Mixed Optimization -- RFO/linear search
 Second derivative matrix not updated -- first step.
 ITU=  0
     Eigenvalues ---    0.00230   0.00314   0.00341   0.00484   0.00626
     Eigenvalues ---    0.00636   0.00883   0.01017   0.03126   0.03539
     Eigenvalues ---    0.03705   0.04627   0.04800   0.04824   0.05113
     Eigenvalues ---    0.05454   0.05475   0.05576   0.05664   0.05931
     Eigenvalues ---    0.07033   0.07275   0.07447   0.07491   0.08309
     Eigenvalues ---    0.11043   0.12182   0.13657   0.16000   0.16000
     Eigenvalues ---    0.16000   0.16000   0.16000   0.16000   0.16000
     Eigenvalues ---    0.16000   0.16000   0.16000   0.16000   0.16000
     Eigenvalues ---    0.16298   0.16595   0.21903   0.22061   0.25000
     Eigenvalues ---    0.25000   0.25000   0.28453   0.29044   0.29231
     Eigenvalues ---    0.30240   0.31289   0.31368   0.33898   0.33941
     Eigenvalues ---    0.33962   0.33966   0.34042   0.34207   0.34319
     Eigenvalues ---    0.34356   0.34378   0.34388   0.34420   0.34443
     Eigenvalues ---    0.34455   0.34484   0.34499   0.34499   0.34800
     Eigenvalues ---    0.36817   0.69597
 RFO step:  Lambda=-6.96254301D-03 EMin= 2.30000000D-03
 Linear search not attempted -- first point.
 Iteration  1 RMS(Cart)=  0.10242461 RMS(Int)=  0.00238920
 Iteration  2 RMS(Cart)=  0.00490557 RMS(Int)=  0.00017803
 Iteration  3 RMS(Cart)=  0.00000949 RMS(Int)=  0.00017794
 Iteration  4 RMS(Cart)=  0.00000000 RMS(Int)=  0.00017794
 Variable       Old X    -DE/DX   Delta X   Delta X   Delta X     New X
                                 (Linear)    (Quad)   (Total)
    R1        2.87487   0.00879   0.00000   0.02841   0.02841   2.90328
    R2        2.06570   0.00137   0.00000   0.00389   0.00389   2.06959
    R3        2.06795   0.00076   0.00000   0.00216   0.00216   2.07011
    R4        2.06627  -0.00041   0.00000  -0.00116  -0.00116   2.06511
    R5        2.91158   0.00271   0.00000   0.00931   0.00931   2.92089
    R6        2.07430   0.00038   0.00000   0.00109   0.00109   2.07539
    R7        2.07387   0.00079   0.00000   0.00228   0.00228   2.07615
    R8        2.89523   0.00179   0.00000   0.00599   0.00599   2.90122
    R9        2.89911   0.00285   0.00000   0.00957   0.00957   2.90869
   R10        2.07503  -0.00003   0.00000  -0.00009  -0.00009   2.07493
   R11        2.06981   0.00130   0.00000   0.00374   0.00374   2.07355
   R12        2.06495   0.00033   0.00000   0.00093   0.00093   2.06588
   R13        2.06680  -0.00070   0.00000  -0.00200  -0.00200   2.06480
   R14        2.76122   0.00465   0.00000   0.01240   0.01240   2.77363
   R15        2.07258   0.00160   0.00000   0.00459   0.00459   2.07718
   R16        2.07394   0.00133   0.00000   0.00384   0.00384   2.07778
   R17        2.44067  -0.01804   0.00000  -0.02566  -0.02566   2.41500
   R18        2.85316   0.00351   0.00000   0.01095   0.01095   2.86411
   R19        2.85465  -0.00125   0.00000  -0.00392  -0.00392   2.85073
   R20        2.06000  -0.00114   0.00000  -0.00320  -0.00320   2.05680
   R21        2.06495   0.00218   0.00000   0.00621   0.00621   2.07116
   R22        2.06521   0.00219   0.00000   0.00623   0.00623   2.07144
   R23        2.06733  -0.00242   0.00000  -0.00691  -0.00691   2.06042
   R24        2.06588   0.00231   0.00000   0.00657   0.00657   2.07245
   R25        2.06697   0.00180   0.00000   0.00513   0.00513   2.07210
    A1        1.93003   0.00160   0.00000   0.00995   0.00990   1.93992
    A2        1.92916   0.00187   0.00000   0.00889   0.00887   1.93804
    A3        1.94742   0.00118   0.00000   0.00898   0.00891   1.95632
    A4        1.89577  -0.00229   0.00000  -0.01736  -0.01737   1.87840
    A5        1.86812  -0.00088   0.00000  -0.00089  -0.00099   1.86713
    A6        1.89140  -0.00172   0.00000  -0.01099  -0.01102   1.88038
    A7        1.96296   0.01139   0.00000   0.05617   0.05605   2.01902
    A8        1.89665  -0.00297   0.00000  -0.00944  -0.00897   1.88768
    A9        1.90620  -0.00187   0.00000   0.00829   0.00823   1.91443
   A10        1.91487  -0.00421   0.00000  -0.02711  -0.02731   1.88756
   A11        1.92010  -0.00436   0.00000  -0.01916  -0.02012   1.89999
   A12        1.86006   0.00153   0.00000  -0.01222  -0.01271   1.84735
   A13        1.94042   0.00360   0.00000   0.03741   0.03723   1.97765
   A14        1.91063  -0.00036   0.00000   0.00622   0.00565   1.91628
   A15        1.89905  -0.00125   0.00000  -0.01525  -0.01535   1.88370
   A16        1.92312  -0.00111   0.00000   0.00389   0.00333   1.92645
   A17        1.89550  -0.00023   0.00000  -0.00228  -0.00221   1.89329
   A18        1.89433  -0.00075   0.00000  -0.03205  -0.03210   1.86223
   A19        1.93076   0.00084   0.00000   0.00077   0.00070   1.93145
   A20        1.94819   0.00122   0.00000   0.01150   0.01154   1.95973
   A21        1.94492  -0.00342   0.00000  -0.02047  -0.02051   1.92442
   A22        1.89041  -0.00110   0.00000  -0.00659  -0.00660   1.88381
   A23        1.88960   0.00037   0.00000  -0.00571  -0.00585   1.88375
   A24        1.85709   0.00216   0.00000   0.02094   0.02101   1.87810
   A25        1.91181   0.00478   0.00000   0.02802   0.02786   1.93967
   A26        1.90445  -0.00115   0.00000  -0.00764  -0.00789   1.89657
   A27        1.89930  -0.00161   0.00000  -0.00916  -0.00948   1.88982
   A28        1.91734  -0.00070   0.00000   0.00553   0.00551   1.92285
   A29        1.92687  -0.00004   0.00000   0.01257   0.01251   1.93939
   A30        1.90381  -0.00134   0.00000  -0.02992  -0.03013   1.87367
   A31        2.06584   0.01690   0.00000   0.06577   0.06577   2.13161
   A32        2.18525   0.01111   0.00000   0.04324   0.04323   2.22849
   A33        2.05733  -0.00196   0.00000  -0.00764  -0.00764   2.04969
   A34        2.04059  -0.00915   0.00000  -0.03563  -0.03564   2.00495
   A35        1.97891  -0.00120   0.00000  -0.00166  -0.00174   1.97717
   A36        1.90536   0.00342   0.00000   0.01778   0.01775   1.92311
   A37        1.89870   0.00331   0.00000   0.01721   0.01718   1.91588
   A38        1.88579  -0.00021   0.00000   0.00402   0.00395   1.88973
   A39        1.88265  -0.00010   0.00000   0.00488   0.00481   1.88746
   A40        1.91168  -0.00555   0.00000  -0.04484  -0.04482   1.86686
   A41        1.93704  -0.00405   0.00000  -0.02208  -0.02196   1.91509
   A42        1.90955   0.00447   0.00000   0.02574   0.02573   1.93529
   A43        1.91087   0.00354   0.00000   0.02011   0.02009   1.93096
   A44        1.90202   0.00015   0.00000   0.00308   0.00321   1.90523
   A45        1.89917   0.00062   0.00000   0.00579   0.00590   1.90507
   A46        1.90487  -0.00484   0.00000  -0.03332  -0.03346   1.87142
    D1        3.12010  -0.00092   0.00000  -0.03425  -0.03446   3.08565
    D2        0.99652  -0.00096   0.00000  -0.03008  -0.03020   0.96631
    D3       -1.02614  -0.00012   0.00000  -0.01484  -0.01458  -1.04072
    D4        1.02012  -0.00032   0.00000  -0.02483  -0.02500   0.99511
    D5       -1.10347  -0.00036   0.00000  -0.02066  -0.02075  -1.12422
    D6       -3.12613   0.00048   0.00000  -0.00541  -0.00513  -3.13126
    D7       -1.08588  -0.00021   0.00000  -0.02298  -0.02314  -1.10902
    D8        3.07372  -0.00025   0.00000  -0.01881  -0.01889   3.05483
    D9        1.05107   0.00059   0.00000  -0.00356  -0.00327   1.04780
   D10        1.05323   0.00109   0.00000   0.05344   0.05329   1.10652
   D11       -3.10115   0.00181   0.00000   0.08719   0.08732  -3.01383
   D12       -1.03353  -0.00003   0.00000   0.04311   0.04321  -0.99033
   D13       -3.11676   0.00197   0.00000   0.05999   0.05950  -3.05726
   D14       -0.98796   0.00269   0.00000   0.09375   0.09353  -0.89443
   D15        1.07965   0.00085   0.00000   0.04967   0.04942   1.12907
   D16       -1.07584  -0.00123   0.00000   0.01788   0.01800  -1.05784
   D17        1.05296  -0.00050   0.00000   0.05163   0.05203   1.10500
   D18        3.12058  -0.00235   0.00000   0.00755   0.00792   3.12850
   D19        1.03425   0.00033   0.00000  -0.01298  -0.01295   1.02130
   D20       -1.07209   0.00034   0.00000  -0.01289  -0.01285  -1.08493
   D21        3.13739  -0.00093   0.00000  -0.03336  -0.03324   3.10415
   D22       -1.08727  -0.00087   0.00000  -0.04854  -0.04869  -1.13597
   D23        3.08957  -0.00086   0.00000  -0.04844  -0.04859   3.04098
   D24        1.01586  -0.00213   0.00000  -0.06891  -0.06898   0.94688
   D25        3.12314   0.00083   0.00000  -0.01047  -0.01045   3.11269
   D26        1.01679   0.00084   0.00000  -0.01038  -0.01034   1.00645
   D27       -1.05691  -0.00043   0.00000  -0.03085  -0.03073  -1.08765
   D28        3.10350  -0.00244   0.00000  -0.06856  -0.06847   3.03504
   D29        1.00397  -0.00379   0.00000  -0.08770  -0.08753   0.91645
   D30       -1.07165  -0.00058   0.00000  -0.04178  -0.04178  -1.11344
   D31       -1.04054   0.00109   0.00000  -0.01511  -0.01521  -1.05574
   D32       -3.14006  -0.00026   0.00000  -0.03425  -0.03427   3.10886
   D33        1.06749   0.00296   0.00000   0.01166   0.01148   1.07897
   D34        1.03296  -0.00029   0.00000  -0.03496  -0.03495   0.99801
   D35       -1.06657  -0.00164   0.00000  -0.05410  -0.05401  -1.12058
   D36        3.14098   0.00158   0.00000  -0.00819  -0.00826   3.13272
   D37        3.09141  -0.00014   0.00000  -0.00584  -0.00577   3.08563
   D38       -1.10013   0.00098   0.00000   0.00555   0.00571  -1.09442
   D39        1.00019  -0.00116   0.00000  -0.02006  -0.02028   0.97991
   D40        0.03426  -0.00156   0.00000  -0.03923  -0.03915  -0.00489
   D41       -3.11264  -0.00171   0.00000  -0.04617  -0.04626   3.12429
   D42       -0.01277  -0.00007   0.00000  -0.00228  -0.00232  -0.01509
   D43       -2.11602  -0.00142   0.00000  -0.01886  -0.01894  -2.13496
   D44        2.08184   0.00134   0.00000   0.01480   0.01479   2.09664
   D45        3.13408   0.00007   0.00000   0.00453   0.00457   3.13865
   D46        1.03083  -0.00129   0.00000  -0.01206  -0.01206   1.01877
   D47       -1.05449   0.00147   0.00000   0.02160   0.02168  -1.03281
   D48        0.01965  -0.00002   0.00000  -0.00201  -0.00210   0.01755
   D49       -2.07987  -0.00056   0.00000  -0.00862  -0.00859  -2.08846
   D50        2.11648   0.00049   0.00000   0.00429   0.00412   2.12060
   D51       -3.12680  -0.00010   0.00000  -0.00813  -0.00806  -3.13487
   D52        1.05687  -0.00064   0.00000  -0.01474  -0.01456   1.04231
   D53       -1.02997   0.00041   0.00000  -0.00183  -0.00185  -1.03182
         Item               Value     Threshold  Converged?
 Maximum Force            0.018041     0.000450     NO 
 RMS     Force            0.003440     0.000300     NO 
 Maximum Displacement     0.319356     0.001800     NO 
 RMS     Displacement     0.102078     0.001200     NO 
 Predicted change in Energy=-3.821998D-03
 GradGradGradGradGradGradGradGradGradGradGradGradGradGradGradGradGradGrad

                          Input orientation:                          
 ---------------------------------------------------------------------
 Center     Atomic      Atomic             Coordinates (Angstroms)
 Number     Number       Type             X           Y           Z
 ---------------------------------------------------------------------
      1          6           0        0.844240   -0.082062   -0.175803
      2          6           0        2.372254   -0.049479   -0.019351
      3          6           0        2.936645    1.133559    0.799782
      4          6           0        2.479298    1.130768    2.265333
      5          6           0        4.473675    1.137955    0.717993
      6          7           0        5.034638    2.330272    1.364494
      7          6           0        6.294460    2.516576    1.470925
      8          6           0        7.409093    1.608049    0.992087
      9          6           0        6.755130    3.790495    2.134707
     10          1           0        0.530006   -0.915103   -0.813546
     11          1           0        0.475854    0.842834   -0.632841
     12          1           0        0.335450   -0.205007    0.783491
     13          1           0        2.818299   -0.014768   -1.022340
     14          1           0        2.718416   -0.990139    0.430503
     15          1           0        2.593039    2.064503    0.329783
     16          1           0        2.779417    0.199953    2.762851
     17          1           0        1.394765    1.229233    2.361340
     18          1           0        2.935897    1.963413    2.805786
     19          1           0        4.769749    1.105789   -0.340087
     20          1           0        4.846817    0.218225    1.191057
     21          1           0        7.048067    0.696049    0.520325
     22          1           0        8.055692    1.327978    1.831558
     23          1           0        8.036982    2.141036    0.268734
     24          1           0        5.890248    4.374357    2.450778
     25          1           0        7.363528    4.391274    1.447938
     26          1           0        7.377602    3.567268    3.009364
 ---------------------------------------------------------------------
                    Distance matrix (angstroms):
                    1          2          3          4          5
     1  C    0.000000
     2  C    1.536348   0.000000
     3  C    2.609149   1.545669   0.000000
     4  C    3.178603   2.573756   1.535257   0.000000
     5  C    3.931935   2.523815   1.539211   2.524253   0.000000
     6  N    5.074574   3.829690   2.480443   2.963120   1.467740
     7  C    6.258557   4.918258   3.692979   4.136062   2.404737
     8  C    6.878789   5.398162   4.501656   5.113886   2.985430
     9  C    7.434633   6.212485   4.839645   5.037256   3.774663
    10  H    1.095179   2.184932   3.548486   4.179093   4.702465
    11  H    1.095456   2.183787   2.862240   3.534984   4.230180
    12  H    1.092807   2.194838   2.925447   2.928521   4.351177
    13  H    2.148967   1.098248   2.157032   3.497995   2.664170
    14  H    2.169043   1.098653   2.166583   2.814609   2.773512
    15  H    2.814543   2.153963   1.098008   2.152011   2.132133
    16  H    3.529891   2.822879   2.179446   1.097275   2.816346
    17  H    2.908550   2.873722   2.196591   1.093218   3.491219
    18  H    4.177185   3.514374   2.170878   1.092644   2.721216
    19  H    4.104583   2.680578   2.158783   3.469150   1.099194
    20  H    4.240177   2.767709   2.153994   2.755349   1.099512
    21  H    6.291066   4.765531   4.144068   4.909957   2.619513
    22  H    7.617266   6.133898   5.225610   5.596715   3.755926
    23  H    7.541572   6.080336   5.225941   5.991235   3.728963
    24  H    7.226396   6.168317   4.685332   4.710609   3.934910
    25  H    8.071455   6.840032   5.534447   5.929143   4.412273
    26  H    8.133125   6.878043   5.525151   5.521186   4.425464
                    6          7          8          9         10
     6  N    0.000000
     7  C    1.277963   0.000000
     8  C    2.509647   1.515622   0.000000
     9  C    2.384444   1.508540   2.548788   0.000000
    10  H    5.963893   7.086900   7.546419   8.341883   0.000000
    11  H    5.194644   6.409635   7.162105   7.468422   1.768030
    12  H    5.370993   6.587062   7.305279   7.681283   1.758583
    13  H    4.013521   4.970691   5.269425   6.320254   2.467890
    14  H    4.154799   5.115430   5.391513   6.484893   2.518417
    15  H    2.665082   3.899628   4.882763   4.853844   3.800178
    16  H    3.402894   4.403561   5.152887   5.393779   4.369647
    17  H    3.931242   5.143647   6.179846   5.945161   3.927580
    18  H    2.572279   3.656199   4.839965   4.286620   5.212843
    19  H    2.115448   2.755872   2.998848   4.156199   4.720549
    20  H    2.127463   2.730643   2.921721   4.158515   4.892619
    21  H    2.727123   2.187665   1.088413   3.502519   6.845446
    22  H    3.217065   2.155170   1.096011   2.801313   8.286370
    23  H    3.201651   2.150041   1.096157   2.801021   8.177163
    24  H    2.467867   2.138890   3.476654   1.090328   8.207703
    25  H    3.111016   2.158223   2.820677   1.096693   8.942537
    26  H    3.118531   2.154981   2.812283   1.096506   9.033043
                   11         12         13         14         15
    11  H    0.000000
    12  H    1.767394   0.000000
    13  H    2.524725   3.075997   0.000000
    14  H    3.085381   2.533685   1.752735   0.000000
    15  H    2.627088   3.233146   2.490451   3.058872   0.000000
    16  H    4.153363   3.170936   3.791476   2.619139   3.071010
    17  H    3.155760   2.380924   3.875987   3.225801   2.502151
    18  H    4.373976   3.943862   4.310635   3.796411   2.501671
    19  H    4.311888   4.758531   2.351441   3.032275   2.471017
    20  H    4.777243   4.549469   3.011362   2.562943   3.038099
    21  H    6.674228   6.777933   4.558071   4.647276   4.664359
    22  H    7.985146   7.940442   6.113754   5.985243   5.713000
    23  H    7.724560   8.067372   5.792152   6.173943   5.444824
    24  H    7.162124   7.389601   6.384656   6.551324   4.550344
    25  H    8.022538   8.423845   6.795189   7.181354   5.424178
    26  H    8.265732   8.293158   7.062072   7.009173   5.685992
                   16         17         18         19         20
    16  H    0.000000
    17  H    1.771409   0.000000
    18  H    1.770910   1.763985   0.000000
    19  H    3.796076   4.324750   3.740995   0.000000
    20  H    2.597117   3.782640   3.050351   1.771471   0.000000
    21  H    4.847310   5.969376   4.872318   2.469600   2.350255
    22  H    5.475292   6.682692   5.250256   3.944975   3.455238
    23  H    6.134364   7.023492   5.699934   3.480979   3.837321
    24  H    5.215392   5.487183   3.829735   4.441619   4.466439
    25  H    6.349035   6.816080   5.228974   4.551828   4.879975
    26  H    5.704638   6.456058   4.726789   4.906995   4.574626
                   21         22         23         24         25
    21  H    0.000000
    22  H    1.770303   0.000000
    23  H    1.768965   1.761769   0.000000
    24  H    4.312440   3.788536   3.789129   0.000000
    25  H    3.822913   3.163864   2.628237   1.782282   0.000000
    26  H    3.814159   2.619438   3.159109   1.782030   1.765569
                   26
    26  H    0.000000
 Stoichiometry    C8H17N
 Framework group  C1[X(C8H17N)]
 Deg. of freedom    72
 Full point group                 C1      NOp   1
 Largest Abelian subgroup         C1      NOp   1
 Largest concise Abelian subgroup C1      NOp   1
                         Standard orientation:                         
 ---------------------------------------------------------------------
 Center     Atomic      Atomic             Coordinates (Angstroms)
 Number     Number       Type             X           Y           Z
 ---------------------------------------------------------------------
      1          6           0       -3.920990   -0.220233   -0.377388
      2          6           0       -2.531962   -0.770928   -0.020035
      3          6           0       -1.356753    0.220039   -0.181159
      4          6           0       -1.453697    1.434513    0.753010
      5          6           0       -0.021665   -0.515454    0.032756
      6          7           0        1.118471    0.362967   -0.254870
      7          6           0        2.327501   -0.015723   -0.087447
      8          6           0        2.816326   -1.359223    0.415711
      9          6           0        3.418202    0.965661   -0.438092
     10          1           0       -4.688168   -0.997047   -0.291279
     11          1           0       -3.942633    0.154678   -1.406464
     12          1           0       -4.220472    0.598477    0.281591
     13          1           0       -2.334640   -1.642362   -0.658639
     14          1           0       -2.538117   -1.149945    1.011152
     15          1           0       -1.356734    0.578453   -1.219022
     16          1           0       -1.486118    1.114481    1.802077
     17          1           0       -2.344100    2.037894    0.557463
     18          1           0       -0.581937    2.080714    0.625229
     19          1           0        0.003668   -1.396636   -0.623829
     20          1           0        0.009722   -0.878446    1.070146
     21          1           0        2.008773   -2.045571    0.663558
     22          1           0        3.439314   -1.225238    1.307437
     23          1           0        3.445897   -1.833706   -0.345910
     24          1           0        2.975288    1.900696   -0.782114
     25          1           0        4.067420    0.563784   -1.225332
     26          1           0        4.051768    1.167096    0.433886
 ---------------------------------------------------------------------
 Rotational constants (GHZ):           3.7801952           0.6285350           0.5751733
 Standard basis: 6-31G(2df,p) (6D, 7F)
 There are   364 symmetry adapted cartesian basis functions of A   symmetry.
 There are   337 symmetry adapted basis functions of A   symmetry.
   337 basis functions,   515 primitive gaussians,   364 cartesian basis functions
    36 alpha electrons       36 beta electrons
       nuclear repulsion energy       457.5623863253 Hartrees.
 NAtoms=   26 NActive=   26 NUniq=   26 SFac= 1.00D+00 NAtFMM=   60 NAOKFM=F Big=F
 Integral buffers will be    131072 words long.
 Raffenetti 2 integral format.
 Two-electron integral symmetry is turned on.
 One-electron integrals computed using PRISM.
 PrsmSu:  requested number of processors reduced to:  13 ShMem   1 Linda.
 NBasis=   337 RedAO= T EigKep=  2.58D-04  NBF=   337
 NBsUse=   337 1.00D-06 EigRej= -1.00D+00 NBFU=   337
 Initial guess from the checkpoint file:  "CCCpCpCNdCpCpC.chk"
 B after Tr=     0.000000   -0.000000    0.000000
         Rot=    0.999975    0.006332   -0.001571   -0.002886 Ang=   0.82 deg.
 ExpMin= 1.61D-01 ExpMax= 4.17D+03 ExpMxC= 6.27D+02 IAcc=2 IRadAn=         4 AccDes= 0.00D+00
 Harris functional with IExCor=  402 and IRadAn=       4 diagonalized for initial guess.
 HarFok:  IExCor=  402 AccDes= 0.00D+00 IRadAn=         4 IDoV= 1 UseB2=F ITyADJ=14
 ICtDFT=  3500011 ScaDFX=  1.000000  1.000000  1.000000  1.000000
 FoFCou: FMM=F IPFlag=           0 FMFlag=      100000 FMFlg1=           0
         NFxFlg=           0 DoJE=T BraDBF=F KetDBF=T FulRan=T
         wScrn=  0.000000 ICntrl=       500 IOpCl=  0 I1Cent=   200000004 NGrid=           0
         NMat0=    1 NMatS0=      1 NMatT0=    0 NMatD0=    1 NMtDS0=    0 NMtDT0=    0
 Petite list used in FoFCou.
 Requested convergence on RMS density matrix=1.00D-08 within 128 cycles.
 Requested convergence on MAX density matrix=1.00D-06.
 Requested convergence on             energy=1.00D-06.
 No special actions if energy rises.
 Integral accuracy reduced to 1.0D-05 until final iterations.
 Initial convergence to 1.0D-05 achieved.  Increase integral accuracy.
 SCF Done:  E(RB3LYP) =  -369.868551052     A.U. after   11 cycles
            NFock= 11  Conv=0.59D-08     -V/T= 2.0090
 PrsmSu:  requested number of processors reduced to:  13 ShMem   1 Linda.
 Calling FoFJK, ICntrl=      2127 FMM=F ISym2X=0 I1Cent= 0 IOpClX= 0 NMat=1 NMatS=1 NMatT=0.
 ***** Axes restored to original set *****
 -------------------------------------------------------------------
 Center     Atomic                   Forces (Hartrees/Bohr)
 Number     Number              X              Y              Z
 -------------------------------------------------------------------
      1        6           0.002061149    0.000419018    0.001198662
      2        6           0.000494779    0.001740984    0.000002402
      3        6          -0.001413620   -0.000877145   -0.000120331
      4        6          -0.000286209    0.000238845   -0.000977854
      5        6           0.002128492    0.003666343    0.002209690
      6        7           0.004935579   -0.002128963   -0.001794253
      7        6          -0.009916484   -0.001439114   -0.001604055
      8        6          -0.001991685   -0.000401238   -0.000365849
      9        6          -0.000737416    0.000150494    0.000962323
     10        1           0.000982398    0.000278233   -0.000293937
     11        1          -0.000089478    0.000225165    0.000063600
     12        1          -0.000179263    0.000498339    0.001222617
     13        1           0.000500828   -0.000329102   -0.000061328
     14        1          -0.000570610   -0.000523980    0.000287229
     15        1          -0.000608649    0.000994381    0.000414929
     16        1          -0.000308155   -0.000391544    0.000159786
     17        1          -0.000642061   -0.000713401   -0.000663607
     18        1           0.001002233   -0.000000199   -0.000476280
     19        1           0.001143445   -0.000600191    0.000003743
     20        1           0.001735142   -0.001030132   -0.000262189
     21        1          -0.001112377   -0.001167623   -0.000549108
     22        1           0.000477308    0.000576514   -0.000052440
     23        1           0.000688751    0.000100917    0.000420313
     24        1           0.000024346    0.000239550    0.000012582
     25        1           0.000739339   -0.000110923    0.000320990
     26        1           0.000942219    0.000584774   -0.000057635
 -------------------------------------------------------------------
 Cartesian Forces:  Max     0.009916484 RMS     0.001589284

 GradGradGradGradGradGradGradGradGradGradGradGradGradGradGradGradGradGrad
 Berny optimization.
 Using GEDIIS/GDIIS optimizer.
 FormGI is forming the generalized inverse of G from B-inverse, IUseBI=4.
 Internal  Forces:  Max     0.011021554 RMS     0.001711184
 Search for a local minimum.
 Step number   2 out of a maximum of  134
 All quantities printed in internal units (Hartrees-Bohrs-Radians)
 Mixed Optimization -- RFO/linear search
 Update second derivatives using D2CorX and points    1    2
 DE= -2.73D-03 DEPred=-3.82D-03 R= 7.15D-01
 TightC=F SS=  1.41D+00  RLast= 3.14D-01 DXNew= 5.0454D-01 9.4085D-01
 Trust test= 7.15D-01 RLast= 3.14D-01 DXMaxT set to 5.05D-01
 ITU=  1  0
 Use linear search instead of GDIIS.
     Eigenvalues ---    0.00238   0.00317   0.00345   0.00487   0.00626
     Eigenvalues ---    0.00636   0.00882   0.01038   0.03139   0.03254
     Eigenvalues ---    0.03454   0.04580   0.04795   0.04880   0.05047
     Eigenvalues ---    0.05370   0.05467   0.05562   0.05588   0.05906
     Eigenvalues ---    0.06898   0.07192   0.07278   0.07331   0.08832
     Eigenvalues ---    0.11179   0.12586   0.13796   0.15031   0.16000
     Eigenvalues ---    0.16000   0.16000   0.16000   0.16000   0.16000
     Eigenvalues ---    0.16000   0.16000   0.16000   0.16000   0.16106
     Eigenvalues ---    0.16632   0.17190   0.21950   0.22451   0.24750
     Eigenvalues ---    0.24999   0.27537   0.28947   0.29132   0.29634
     Eigenvalues ---    0.31090   0.31323   0.32368   0.33909   0.33941
     Eigenvalues ---    0.33958   0.33981   0.34035   0.34188   0.34293
     Eigenvalues ---    0.34328   0.34370   0.34389   0.34418   0.34447
     Eigenvalues ---    0.34471   0.34477   0.34494   0.34526   0.34943
     Eigenvalues ---    0.40349   0.65967
 RFO step:  Lambda=-7.23714007D-04 EMin= 2.38333627D-03
 Quartic linear search produced a step of -0.15855.
 Iteration  1 RMS(Cart)=  0.02837027 RMS(Int)=  0.00019659
 Iteration  2 RMS(Cart)=  0.00040411 RMS(Int)=  0.00002869
 Iteration  3 RMS(Cart)=  0.00000007 RMS(Int)=  0.00002869
 Variable       Old X    -DE/DX   Delta X   Delta X   Delta X     New X
                                 (Linear)    (Quad)   (Total)
    R1        2.90328  -0.00301  -0.00450  -0.00119  -0.00569   2.89759
    R2        2.06959  -0.00032  -0.00062   0.00020  -0.00042   2.06917
    R3        2.07011   0.00019  -0.00034   0.00102   0.00067   2.07079
    R4        2.06511   0.00110   0.00018   0.00239   0.00257   2.06768
    R5        2.92089  -0.00422  -0.00148  -0.01007  -0.01154   2.90935
    R6        2.07539   0.00025  -0.00017   0.00089   0.00072   2.07610
    R7        2.07615   0.00039  -0.00036   0.00153   0.00117   2.07732
    R8        2.90122  -0.00180  -0.00095  -0.00364  -0.00459   2.89663
    R9        2.90869  -0.00091  -0.00152  -0.00020  -0.00172   2.90697
   R10        2.07493   0.00086   0.00001   0.00209   0.00211   2.07704
   R11        2.07355   0.00032  -0.00059   0.00173   0.00113   2.07468
   R12        2.06588   0.00051  -0.00015   0.00148   0.00134   2.06722
   R13        2.06480   0.00018   0.00032  -0.00006   0.00026   2.06506
   R14        2.77363  -0.00639  -0.00197  -0.01141  -0.01337   2.76025
   R15        2.07718   0.00032  -0.00073   0.00195   0.00122   2.07840
   R16        2.07778   0.00134  -0.00061   0.00427   0.00366   2.08144
   R17        2.41500  -0.01102   0.00407  -0.01977  -0.01570   2.39930
   R18        2.86411  -0.00072  -0.00174   0.00084  -0.00090   2.86322
   R19        2.85073   0.00157   0.00062   0.00321   0.00384   2.85456
   R20        2.05680   0.00159   0.00051   0.00301   0.00352   2.06032
[...]
 2,-0.00042745,0.00007721,-0.00025077,-0.00007178,-0.00080502,-0.000170
 91,0.00222107,0.00020680,0.00011877,-0.00029535,0.07819196,0.00004794,
 -0.00015715,-0.00011185,-0.00078862,0.00015053,0.00090385,0.00163922,0
 .00001580,-0.00131699,-0.00070834,0.00045503,0.00006831,0.00017954,-0.
 04554279,0.00273630,0.00089292,-0.00844814,-0.03012170,0.00493908,0.00
 090838,-0.00262231,-0.00051759,0.00154890,-0.00150670,-0.00057718,-0.0
 0143881,0.00233749,-0.00006304,-0.00002071,-0.00000873,0.00005179,-0.0
 0001181,0.00000641,0.00003999,-0.00000716,0.00002102,-0.00036370,0.000
 12603,-0.00025542,-0.00000824,-0.00004001,0.00011373,-0.00025589,0.000
 24968,-0.00045995,0.00018879,0.00020525,-0.00039029,-0.00024289,0.0003
 0278,0.00008153,-0.00012992,-0.00015585,0.00003914,0.00389304,0.051299
 04,0.00007703,0.00008226,0.00055834,-0.00109629,-0.00016915,0.00027699
 ,0.00050055,0.00068498,-0.00314984,0.00094988,-0.00048220,0.00131062,0
 .06990586,0.00367744,-0.26320216,-0.00343070,-0.00965920,-0.01628963,0
 .00580038,-0.00110792,0.00049789,-0.00014527,0.00182313,-0.00042287,-0
 .00084103,-0.00085162,0.00118601,0.00007407,0.00001733,0.00002051,-0.0
 0000380,0.00000783,-0.00003444,-0.00026414,-0.00004830,0.00003410,0.00
 003586,0.00034643,0.00079984,0.00005982,-0.00005146,-0.00004759,0.0003
 1081,-0.00029762,0.00055014,-0.00016291,-0.00005146,0.00028007,-0.0000
 3255,-0.00016752,-0.00036497,-0.00027952,-0.00003663,0.00011114,-0.074
 63552,0.00489138,0.29172684,-0.00007165,-0.00032052,0.00005891,0.00115
 254,0.00181556,0.00046302,-0.01501806,0.02783370,-0.01576496,0.0021033
 7,0.00054790,-0.00173122,-0.07856459,0.06874975,-0.03998119,0.00426033
 ,-0.01076300,0.00677722,-0.00019920,-0.00192713,0.00013169,0.00032572,
 -0.00246183,0.00096195,-0.00036106,0.00072592,-0.00102317,-0.00007552,
 -0.00013280,0.00001038,0.00027307,-0.00013141,0.00011931,-0.00002299,-
 0.00000063,0.00001924,-0.00003908,-0.00013431,-0.00004051,-0.00002360,
 -0.00111259,-0.00000439,-0.00673528,-0.00028853,0.00024218,-0.00000062
 ,-0.00075983,0.00083586,0.00036673,-0.00034663,-0.00005261,0.00005805,
 0.00013220,0.00025372,0.00345991,-0.00730127,0.00481311,0.08943594,-0.
 00000024,0.00038239,-0.00007741,-0.00004361,0.00042562,0.00001157,0.00
 136898,-0.00140386,0.00143846,-0.00043428,0.00029831,-0.00007990,0.069
 27628,-0.19990126,0.08758522,-0.00056423,-0.03219722,0.00370885,0.0078
 1140,-0.00082879,0.00018996,-0.00037120,0.00043444,0.00260490,-0.00101
 660,0.00103933,-0.00234890,0.00007382,0.00000690,0.00000787,-0.0001737
 8,-0.00009648,-0.00003508,0.00002123,0.00000029,0.00000484,0.00005716,
 0.00002888,-0.00005697,0.00010806,0.00050682,0.00020893,-0.00005171,0.
 00067920,-0.00020891,0.00046346,0.00026802,-0.00054161,-0.00010250,0.0
 0024542,-0.00020824,0.00000472,-0.00012152,0.00014578,0.00066632,0.000
 52259,0.00110246,-0.07513787,0.22916355,-0.00001829,-0.00028743,0.0000
 2240,0.00002203,0.00053179,-0.00005985,0.00098156,-0.00015918,0.000085
 81,0.00052706,-0.00130852,0.00079472,-0.03886649,0.08743678,-0.0958992
 7,0.00326668,-0.01611995,0.00616032,0.00155849,-0.00107372,0.00251096,
 -0.00051003,-0.00072913,0.00085547,-0.00005507,0.00062226,-0.00135193,
 -0.00006924,0.00000262,-0.00002805,0.00011718,-0.00001997,0.00000440,0
 .00001042,0.00000058,0.00000748,-0.00003052,0.00013801,0.00001928,-0.0
 0032788,-0.00042914,0.00015936,0.00006602,-0.00071185,0.00093206,-0.00
 025023,0.00013884,0.00038653,-0.00009295,-0.00001368,0.00005653,-0.000
 06309,0.00000900,0.00000902,-0.01103547,0.02501912,-0.01377893,0.04464
 997,-0.09355462,0.09950121,-0.00000287,-0.00001142,0.00001095,-0.00002
 660,0.00001309,-0.00003443,-0.00015117,-0.00030986,0.00024641,-0.00002
 025,0.00010451,0.00005388,-0.00007996,0.00375986,-0.00164287,-0.001282
 13,-0.00287128,0.00361207,0.00363243,0.02010893,-0.01286318,-0.0487287
 7,-0.02313872,0.01105964,-0.00143192,0.00016615,0.00152893,0.00000449,
 0.00000629,0.00000013,0.00000670,0.00000038,0.00000079,0.00000338,0.00
 000241,-0.00000522,0.00000341,0.00000083,0.00000712,-0.00001317,-0.000
 03648,0.00000893,0.00014502,-0.00004195,0.00000938,-0.00003281,-0.0000
 4723,0.00000738,0.00000459,-0.00003224,-0.00001987,0.00005162,-0.00003
 022,-0.00008167,-0.00001231,-0.00073868,-0.00022566,-0.00029578,-0.001
 07338,0.00045604,0.05024894,0.00000701,0.00001062,-0.00001044,0.000057
 35,-0.00000360,0.00003074,-0.00014687,0.00044863,-0.00014073,0.0000332
 3,-0.00007629,-0.00005243,-0.00069990,0.00121511,0.00144512,-0.0028072
 7,0.00016579,-0.00327281,0.00067298,-0.01999097,0.00685188,-0.02693300
 ,-0.25310790,0.10452422,0.00296663,-0.00079425,-0.00058960,0.00000171,
 -0.00000188,0.00000183,-0.00000110,0.00000132,0.00000126,0.00000538,-0
 .00000005,0.00000162,0.00000098,-0.00000696,-0.00001980,0.00000491,0.0
 0000454,-0.00000576,-0.00018264,-0.00005946,-0.00000889,0.00001723,0.0
 0003865,0.00000611,0.00000117,0.00002692,0.00000232,-0.00001415,0.0000
 0288,0.00004772,0.00036626,0.00005527,0.00031546,0.00082336,0.00013915
 ,0.00018699,0.02679004,0.27704874,-0.00000915,0.00000392,0.00000361,-0
 .00001949,-0.00001969,-0.00002883,-0.00005980,-0.00031831,0.00002738,0
 .00002985,-0.00001265,0.00002965,0.00061452,0.00026448,0.00104772,-0.0
 0109527,0.00102347,-0.00067392,-0.00139939,-0.01299484,0.00499048,0.01
 191485,0.10112282,-0.08834177,0.00122263,-0.00060118,-0.00126311,0.000
 00653,0.00000640,0.00000255,0.00000975,-0.00000663,0.00000003,0.000011
 59,-0.00000084,-0.00000426,-0.00001164,0.00000735,-0.00002252,-0.00001
 563,-0.00001437,0.00001662,0.00015830,-0.00002829,-0.00000339,0.000003
 88,0.00002249,0.00000699,0.00000611,-0.00000051,-0.00003279,-0.0000029
 5,-0.00002079,-0.00000541,0.00033393,0.00063252,-0.00039394,-0.0003320
 6,-0.00028771,0.00029300,-0.01464732,-0.11135297,0.09731292,0.00001830
 ,-0.00004231,-0.00002043,-0.00006236,0.00003939,0.00005980,0.00012851,
 -0.00005538,-0.00006969,-0.00007639,0.00002536,0.00000347,0.00083072,0
 .00150086,0.00086983,-0.00376241,0.00397629,0.00208083,-0.01957599,-0.
 01144708,-0.00615848,-0.27551451,-0.08248946,-0.04457622,0.00120668,-0
 .00137862,-0.00075631,-0.00003175,-0.00001565,-0.00001731,-0.00000311,
 0.00000987,0.00000163,-0.00000465,0.00000637,0.00000754,0.00000663,0.0
 0000087,-0.00000162,-0.00000357,-0.00001628,-0.00000680,-0.00001242,-0
 .00002725,0.00003092,-0.00000007,-0.00002732,0.00000595,-0.00005586,-0
 .00003470,0.00001448,0.00007558,-0.00001091,-0.00010767,0.00021736,0.0
 0007048,-0.00007078,0.00025661,-0.00002002,0.00008923,-0.00213422,-0.0
 0060293,-0.00042019,0.29982769,0.00000550,0.00001269,0.00000111,0.0000
 5741,0.00001345,0.00000632,0.00008077,0.00040593,-0.00003203,-0.000003
 27,-0.00002916,-0.00005409,-0.00107175,-0.00153548,-0.00032931,0.00494
 675,-0.00304952,-0.00282039,0.02056964,0.00901293,0.00643712,-0.086290
 25,-0.07820218,-0.01707143,0.00058255,0.00027051,-0.00015955,-0.000001
 23,-0.00000550,-0.00000038,-0.00000372,0.00000110,0.00000038,-0.000006
 00,-0.00000074,0.00000412,0.00000306,-0.00000143,0.00001080,0.00001339
 ,0.00001480,-0.00000239,-0.00018367,0.00000545,-0.00001675,0.00001975,
 0.00002312,-0.00000121,0.00000386,0.00002650,0.00002710,-0.00005359,0.
 00000760,0.00009643,-0.00014943,-0.00008062,0.00026472,-0.00001323,0.0
 0058048,-0.00032420,-0.02630688,-0.00875668,-0.00681988,0.09040658,0.0
 8356552,0.00000056,0.00000027,0.00001322,0.00003226,0.00002931,-0.0000
 3815,0.00012635,-0.00001639,0.00036284,-0.00013731,0.00002086,-0.00002
 809,-0.00058809,-0.00040721,-0.00093109,0.00266727,-0.00280148,0.00079
 930,0.01102380,0.00645815,0.00052669,-0.04666874,-0.01707148,-0.056081
 71,0.00031546,-0.00018881,0.00052665,0.00000057,-0.00000105,-0.0000015
 5,-0.00000124,0.00000082,-0.00000117,-0.00000599,0.00000100,0.00000165
 ,0.00000669,-0.00000056,0.00002139,0.00000234,0.00000168,0.00000464,0.
 00000529,0.00004188,-0.00002011,0.00000035,-0.00000426,0.00000214,-0.0
 0001380,-0.00001035,0.00004353,-0.00002114,-0.00000915,0.00002351,0.00
 019318,0.00001634,0.00051693,-0.00026870,-0.00005802,-0.00010219,0.014
 25038,0.00459002,0.00227315,0.04888713,0.02038908,0.05694113,-0.000003
 38,0.00000762,-0.00002087,-0.00005505,-0.00006021,0.00004342,-0.000079
 55,0.00004925,-0.00040943,0.00016385,-0.00000407,0.00006163,0.00009465
 ,0.00036690,0.00397444,-0.00114473,0.00158376,-0.00418754,0.00338616,0
 .00045538,0.02384682,-0.04896973,-0.00355897,-0.02545758,-0.00144737,0
 .00136262,-0.00066714,0.00000276,0.00000368,0.00000424,0.00000068,-0.0
 0000216,0.00000200,0.00001381,-0.00000078,-0.00000396,-0.00001838,-0.0
 0001274,-0.00005042,-0.00000504,0.00000785,-0.00001057,0.00007772,0.00
 000759,0.00003829,-0.00000390,0.00000563,0.00000400,0.00001556,-0.0000
 2008,-0.00006392,-0.00000234,-0.00000210,-0.00003778,-0.00019556,-0.00
 005679,-0.00117823,-0.00023216,-0.00058971,-0.00035421,-0.00017359,0.0
 0010412,0.00376787,-0.00208933,-0.00258982,-0.02980088,0.05036669,-0.0
 0000855,0.00000196,0.00000999,0.00001150,0.00000365,-0.00002896,-0.000
 11022,-0.00004549,0.00002309,-0.00002382,-0.00000745,0.00005223,0.0002
 1428,0.00186391,-0.00030883,-0.00241610,-0.00133792,0.00209128,-0.0008
 4705,-0.00537896,-0.02266472,-0.00487672,-0.04392375,-0.03709845,0.002
 67729,-0.00168370,-0.00005347,0.00000727,0.00000469,0.00000279,0.00001
 102,-0.00000580,0.00000040,0.00000792,-0.00000082,-0.00000408,-0.00000
 838,0.00000833,-0.00001188,-0.00000632,-0.00002071,0.00001871,0.000036
 41,-0.00004841,-0.00001277,-0.00000436,0.00000714,0.00000502,-0.000005
 37,-0.00001332,-0.00002351,0.00000191,-0.00003591,-0.00002620,0.000183
 07,0.00017786,-0.00023308,0.00049347,0.00012539,0.00062296,0.00317069,
 0.00365544,0.02954771,-0.00065703,-0.00211137,-0.01119513,0.00246223,0
 .04963360,0.00000427,0.00000145,0.00001029,0.00004843,0.00003119,-0.00
 002272,0.00006252,0.00023309,0.00038431,-0.00019436,-0.00000928,-0.000
 04887,-0.00083119,0.00084368,0.00071888,-0.00173205,-0.00214353,0.0009
 3304,0.00122330,-0.00272152,-0.00954241,-0.02886812,-0.03372629,-0.297
 91087,0.00180314,-0.00001743,-0.00038391,0.00000083,-0.00000105,-0.000
 00007,-0.00000173,0.00000127,-0.00000119,-0.00001006,-0.00000027,0.000
 00469,0.00000624,-0.00000604,0.00002509,0.00000993,0.00000151,-0.00000
 506,-0.00005283,0.00001185,-0.00001396,0.00000149,-0.00001285,0.000013
 15,-0.00002222,-0.00002978,0.00006486,-0.00001928,0.00000578,0.0000065
 1,0.00092736,0.00010212,0.00009541,0.00002875,0.00034871,-0.00056807,-
 0.00195950,-0.00191973,-0.01452139,-0.00026765,0.00019012,-0.00440997,
 0.03018656,0.03889590,0.32504183,-0.00000616,0.00002148,0.00001275,0.0
 0003600,-0.00002141,-0.00002526,-0.00004751,0.00007408,0.00004460,-0.0
 0000577,-0.00000203,0.00001061,0.00023404,-0.00004080,-0.00003981,0.00
 046858,-0.00066829,-0.00034710,0.00874351,-0.00685263,-0.00370515,-0.0
 0060692,-0.00143602,-0.00079379,-0.21114996,0.12076814,0.06525645,0.00
 001297,0.00000543,0.00000569,0.00000116,-0.00000401,-0.00000055,0.0000
 0205,-0.00000188,-0.00000319,-0.00000239,0.00000052,0.00000188,0.00000
 110,0.00000595,0.00000271,-0.00000670,-0.00000315,-0.00000564,0.000002
 05,0.00001636,0.00000084,0.00001540,0.00000486,-0.00000714,-0.00001635
 ,-0.00001846,0.00002169,-0.00000125,0.00001290,0.00001355,0.00000175,0
 .00002054,0.00000752,0.00022984,-0.00015244,-0.00002510,0.00035944,-0.
 00018808,-0.00009988,0.00023963,-0.00011097,-0.00011369,0.22548247,-0.
 00000244,0.00001330,0.00000422,0.00001561,-0.00002470,-0.00000721,0.00
 000132,0.00003624,0.00000503,-0.00005787,-0.00005481,-0.00002864,-0.00
 028856,0.00018632,0.00020024,0.00125295,0.00327019,0.00232045,0.024081
 14,-0.01718728,-0.00875643,-0.00264130,-0.00258081,-0.00305136,0.11549
 415,-0.13226296,-0.04524114,0.00000731,0.00000506,0.00000627,-0.000001
 34,-0.00000161,-0.00000251,-0.00000580,-0.00000477,0.00000081,-0.00000
 044,0.00000716,0.00001971,0.00000152,0.00001021,-0.00000147,-0.0000330
 9,-0.00000198,-0.00000709,0.00000488,0.00002207,0.00000228,0.00001194,
 0.00001406,0.00001560,-0.00003328,-0.00001837,0.00002027,0.00002525,0.
 00012956,0.00019925,0.00001091,0.00019199,0.00000722,0.00034111,-0.000
 49938,-0.00029736,-0.00033035,0.00023724,0.00020298,0.00051818,-0.0010
 5334,-0.00039087,-0.12897210,0.14323813,-0.00000025,-0.00000071,0.0000
 0872,0.00001079,-0.00000179,-0.00001895,-0.00000100,-0.00002569,0.0000
 1710,-0.00000440,0.00001649,0.00000732,-0.00015750,0.00020856,-0.00011
 685,0.00066130,0.00233112,0.00028401,0.01310382,-0.00883758,-0.0056967
 7,-0.00143341,-0.00302769,0.00134775,0.06237514,-0.04522118,-0.0729974
 9,0.00000327,0.00000278,0.00000127,-0.00000346,0.00000204,-0.00000289,
 0.00000069,0.00000042,-0.00000179,-0.00000065,-0.00000352,0.00000168,-
 0.00000027,0.00001136,0.00000115,-0.00002647,0.00001287,-0.00001787,0.
 00000363,0.00001830,-0.00000551,-0.00000274,-0.00000308,-0.00000249,-0
 .00000856,-0.00001334,0.00002906,-0.00001466,-0.00000439,0.00003208,0.
 00003471,0.00020658,0.00002719,0.00039169,-0.00074815,-0.00059213,-0.0
 0017989,0.00020240,-0.00002825,0.00007835,0.00004321,-0.00004970,-0.06
 969756,0.05223176,0.07476083,0.00000628,-0.00003919,-0.00000219,-0.000
 07538,0.00004912,0.00001740,0.00005539,-0.00012208,-0.00003380,-0.0000
 1464,0.00005437,0.00002581,0.00007921,0.00060028,-0.00174701,-0.000092
 99,-0.00321558,-0.00004742,-0.00972227,-0.00623311,0.00582240,0.000097
 40,0.00092576,-0.00065329,-0.12761244,-0.07539304,0.09657145,-0.000019
 15,-0.00000789,-0.00000948,-0.00000452,0.00000802,-0.00000028,-0.00000
 371,0.00000529,0.00000069,0.00000743,-0.00000095,0.00000608,0.00000153
 ,-0.00000324,0.,-0.00002339,0.00001722,-0.00000320,-0.00000117,-0.0000
 1488,-0.00000618,-0.00002997,-0.00001715,0.00000337,0.00003831,-0.0000
 0744,-0.00003688,-0.00021800,-0.00043476,-0.00023041,0.00017333,0.0001
 3725,0.00015360,0.00002047,-0.00008932,0.00011793,0.00020485,0.0000993
 3,0.00002376,0.00003549,-0.00025175,-0.00009507,-0.01203151,-0.0139676
 7,0.01451071,0.13881707,0.00001012,-0.00006390,-0.00001102,-0.00014310
 ,0.00005828,0.00005524,0.00016001,-0.00021227,-0.00020841,-0.00005311,
 0.00004839,0.00002529,-0.00005875,0.00120669,-0.00210989,-0.00070403,-
 0.00330731,-0.00037191,-0.01637552,-0.01298504,0.01825570,-0.00033191,
 0.00127554,-0.00140105,-0.07577234,-0.11850553,0.08497307,-0.00003599,
 -0.00001440,-0.00001471,-0.00000344,0.00001027,-0.00000050,-0.00001192
 ,0.00000423,0.00000473,0.00000669,0.00001513,0.00002303,-0.00000224,-0
 .00001238,0.00000102,-0.00000191,0.00001855,-0.00000353,0.00000260,-0.
 00000951,0.00000161,-0.00005135,-0.00002558,0.00001119,0.00004580,-0.0
 0003815,-0.00005963,-0.00040594,-0.00052444,-0.00035668,-0.00000678,0.
 00006760,0.00020405,-0.00004557,0.00058178,0.00029089,0.00078173,-0.00
 036332,0.00007501,0.00026867,-0.00026183,-0.00001568,0.00960834,0.0108
 4040,-0.01217733,0.08744004,0.12686253,-0.00000254,-0.00002198,0.00000
 094,-0.00006437,0.00001155,0.00001272,0.00006340,-0.00006772,-0.000124
 04,-0.00003334,0.00000769,0.00001387,-0.00036068,0.00066219,-0.0015138
 4,-0.00107670,-0.00187837,-0.00000502,-0.00968932,-0.00895246,0.011525
 42,0.00033411,0.00064606,-0.00001717,0.09519709,0.08322718,-0.14484024
 ,-0.00000802,-0.00000073,-0.00000025,-0.00000002,0.00000134,-0.0000009
 7,-0.00000773,-0.00000123,0.00000050,0.00000073,0.00000850,0.00001928,
 0.00000239,-0.00000506,0.,-0.00001275,0.00000145,-0.00000447,-0.000002
 08,-0.00000592,0.00000089,-0.00000809,-0.00001082,0.00000708,0.0000037
 2,-0.00001019,-0.00001720,-0.00013815,-0.00024439,-0.00022382,0.000042
 17,0.00021013,0.00010064,-0.00034397,0.00024654,0.00004422,-0.00010363
 ,0.00012600,-0.00005460,0.00007879,-0.00002899,0.00000634,0.00328036,0
 .00477139,-0.00614186,-0.10250076,-0.09261299,0.15841460,0.00000833,-0
 .00001717,-0.00002924,-0.00007634,0.00002334,0.00004572,0.00009489,-0.
 00008551,-0.00008374,-0.00000445,-0.00002439,-0.00004240,0.00003720,-0
 .00120832,0.00144089,-0.00015438,-0.00176675,-0.00267822,-0.00968437,0
 .00154294,-0.00842945,0.00011005,-0.00003159,0.00111873,-0.12680815,0.
 03994573,-0.11549421,-0.00001903,-0.00000712,-0.00000592,-0.00000273,0
 .00000213,0.00000155,-0.00000638,0.00000021,0.00000720,0.00000452,0.00
 000422,0.00000387,0.00000300,0.00000070,-0.00000521,0.00001047,0.00001
 994,0.00002898,-0.00000291,-0.00003106,0.00000106,-0.00001036,0.000004
 33,0.00002799,0.00001072,0.00004526,-0.00003471,0.00016622,0.00023125,
 0.00005590,-0.00022778,-0.00043008,-0.00023234,0.00003469,-0.00022273,
 -0.00015974,0.00019427,0.00007236,0.00007040,0.00002310,0.00004958,-0.
 00013508,-0.01195548,0.00456797,-0.01964328,0.01031240,-0.00432011,0.0
 1534938,0.13794250,0.00001224,-0.00003538,-0.00004270,-0.00011786,0.00
 004681,0.00004338,0.00016797,-0.00032208,-0.00002988,-0.00001371,-0.00
 000763,-0.00007045,-0.00046639,-0.00137160,0.00225054,-0.00141335,-0.0
 0202270,-0.00269585,-0.01690173,0.00854559,-0.02293096,0.00009149,0.00
 001413,0.00145443,0.03863985,-0.06040972,0.04575802,-0.00002857,-0.000
 00759,-0.00000968,-0.00000769,0.00000654,-0.00000142,-0.00000368,0.000
 00199,0.00000694,0.00000738,0.00000299,-0.00000130,-0.00000078,0.00001
 284,0.00000136,0.00000640,0.00003989,0.00000602,0.00000214,-0.00000675
 ,0.00000078,-0.00002435,0.00000314,0.00003000,0.00002839,0.00001460,-0
 .00001588,0.00003567,0.00028078,0.00010016,-0.00029441,-0.00055724,-0.
 00018885,0.00021962,-0.00009743,-0.00014600,0.00033748,-0.00004132,-0.
 00006351,-0.00030605,0.00044682,0.00032764,0.00793368,-0.00451193,0.01
 477661,0.01046138,-0.00466573,0.01392080,-0.03836511,0.06464097,0.0000
 1235,-0.00003040,-0.00002586,-0.00008096,0.00004120,0.00003813,0.00012
 394,-0.00017836,-0.00003533,-0.00001624,0.00001303,-0.00003081,0.00010
 699,-0.00041490,0.00099158,-0.00007429,-0.00126075,-0.00129533,-0.0084
 4904,0.00437081,-0.01002869,-0.00045426,-0.00058698,0.00124370,-0.1150
 5912,0.04744809,-0.20379433,-0.00002572,-0.00001045,-0.00001209,-0.000
 00325,0.00000530,0.00000032,-0.00000487,0.00000318,0.00000709,0.000003
 84,0.00000551,0.00000393,-0.00000105,-0.00000202,0.00000232,0.00001408
 ,0.00001889,0.00001089,0.00000184,-0.00001491,0.00000297,-0.00003187,-
 0.00000679,0.00001667,0.00003421,0.00000192,-0.00003592,-0.00003493,0.
 00007344,-0.00008870,-0.00024339,-0.00031686,-0.00013809,0.00017998,-0
 .00013052,-0.00016486,0.00070585,-0.00012411,-0.00035987,0.00015608,0.
 00037680,0.00017377,0.00620522,-0.00222338,0.00915438,-0.01188723,0.00
 542250,-0.01720303,0.12882184,-0.05248022,0.22156716\\0.00000381,-0.00
 000043,0.00000105,-0.00000162,-0.00000114,-0.00000388,0.00000604,0.000
 00208,0.00000471,-0.00000105,0.00000523,-0.00000686,-0.00000411,0.0000
 0234,0.00000429,-0.00000878,-0.00000594,-0.00000061,0.00001662,0.00000
 642,-0.00000264,-0.00000740,0.00000271,0.00000056,-0.00000834,-0.00000
 243,0.00000252,-0.00000103,0.00000145,-0.00000114,-0.00000205,0.000000
 43,-0.00000068,0.00000019,-0.00000051,-0.00000138,0.00000077,0.0000008
 7,0.00000098,0.00000075,0.00000096,0.00000043,-0.00000081,0.00000042,-
 0.00000185,-0.00000006,-0.00000278,0.00000344,0.00000052,-0.00000339,0
 .00000075,-0.00000059,-0.00000307,0.00000063,0.00000091,0.00000129,-0.
 00000217,0.00000198,-0.00000143,-0.00000118,-0.00000069,0.00000066,0.0
 0000117,0.00000161,-0.00000151,0.00000059,0.00000174,0.00000092,0.0000
 0062,0.00000113,-0.00000100,0.00000069,0.00000024,-0.00000003,0.000000
 06,0.00000021,-0.00000212,-0.00000008\\\@


 OUR LITTLE SYSTEMS HAVE THEIR DAY,    
   THEY HAVE THEIR DAY AND CEASE TO BE.
   THEY ARE BUT BROKEN LIGHTS OF THEE, 
 AND THOU, OH LORD, ART MORE THAN THEY.
          -------------------          
 LET KNOWLEDGE GROW FROM MORE TO MORE, 
   BUT MORE OF REVERENCE IN US DWELL.  
   THAT MIND AND SOUL, ACCORDING WELL, 
 MAY MAKE ONE MUSIC AS BEFORE.....     
          -------------------          
                    LORD TENNYSON      
 Job cpu time:       0 days  2 hours 49 minutes  6.4 seconds.
 Elapsed time:       0 days  0 hours 42 minutes 39.0 seconds.
 File lengths (MBytes):  RWF=    214 Int=      0 D2E=      0 Chk=     10 Scr=      1
 Normal termination of Gaussian 16 at Tue Jun  1 07:12:47 2021.
### All Done ###
