### Starting Gaussian ###
 Entering Gaussian System, Link 0=g16
 Initial command:
 /cluster/software/gaussian/gaussian-16-A.03/avx2/g16/l1.exe "/local/scratch/yxie/Gau-27684.inp" -scrdir="/local/scratch/yxie/"
 Entering Link 1 = /cluster/software/gaussian/gaussian-16-A.03/avx2/g16/l1.exe PID=     27685.
  
 Copyright (c) 1988,1990,1992,1993,1995,1998,2003,2009,2016,
            Gaussian, Inc.  All Rights Reserved.
  
 This is part of the Gaussian(R) 16 program.  It is based on
 the Gaussian(R) 09 system (copyright 2009, Gaussian, Inc.),
 the Gaussian(R) 03 system (copyright 2003, Gaussian, Inc.),
 the Gaussian(R) 98 system (copyright 1998, Gaussian, Inc.),
 the Gaussian(R) 94 system (copyright 1995, Gaussian, Inc.),
 the Gaussian 92(TM) system (copyright 1992, Gaussian, Inc.),
 the Gaussian 90(TM) system (copyright 1990, Gaussian, Inc.),
 the Gaussian 88(TM) system (copyright 1988, Gaussian, Inc.),
 the Gaussian 86(TM) system (copyright 1986, Carnegie Mellon
 University), and the Gaussian 82(TM) system (copyright 1983,
 Carnegie Mellon University). Gaussian is a federally registered
 trademark of Gaussian, Inc.
  
 This software contains proprietary and confidential information,
 including trade secrets, belonging to Gaussian, Inc.
  
 This software is provided under written license and may be
 used, copied, transmitted, or stored only in accord with that
 written license.
  
 The following legend is applicable only to US Government
 contracts under FAR:
  
                    RESTRICTED RIGHTS LEGEND
  
 Use, reproduction and disclosure by the US Government is
 subject to restrictions as set forth in subparagraphs (a)
 and (c) of the Commercial Computer Software - Restricted
 Rights clause in FAR 52.227-19.
  
 Gaussian, Inc.
 340 Quinnipiac St., Bldg. 40, Wallingford CT 06492
  
  
 ---------------------------------------------------------------
 Warning -- This program may not be used in any manner that
 competes with the business of Gaussian, Inc. or will provide
 assistance to any competitor of Gaussian, Inc.  The licensee
 of this program is prohibited from giving any competitor of
 Gaussian, Inc. access to this program.  By using this program,
 the user acknowledges that Gaussian, Inc. is engaged in the
 business of creating and licensing software in the field of
 computational chemistry and represents and warrants to the
 licensee that it is not a competitor of Gaussian, Inc. and that
 it will not use this program in any manner prohibited above.
 ---------------------------------------------------------------
  

 Cite this work as:
 Gaussian 16, Revision A.03,
 M. J. Frisch, G. W. Trucks, H. B. Schlegel, G. E. Scuseria, 
 M. A. Robb, J. R. Cheeseman, G. Scalmani, V. Barone, 
 G. A. Petersson, H. Nakatsuji, X. Li, M. Caricato, A. V. Marenich, 
 J. Bloino, B. G. Janesko, R. Gomperts, B. Mennucci, H. P. Hratchian, 
 J. V. Ortiz, A. F. Izmaylov, J. L. Sonnenberg, D. Williams-Young, 
 F. Ding, F. Lipparini, F. Egidi, J. Goings, B. Peng, A. Petrone, 
 T. Henderson, D. Ranasinghe, V. G. Zakrzewski, J. Gao, N. Rega, 
 G. Zheng, W. Liang, M. Hada, M. Ehara, K. Toyota, R. Fukuda, 
 J. Hasegawa, M. Ishida, T. Nakajima, Y. Honda, O. Kitao, H. Nakai, 
 T. Vreven, K. Throssell, J. A. Montgomery, Jr., J. E. Peralta, 
 F. Ogliaro, M. J. Bearpark, J. J. Heyd, E. N. Brothers, K. N. Kudin, 
 V. N. Staroverov, T. A. Keith, R. Kobayashi, J. Normand, 
 K. Raghavachari, A. P. Rendell, J. C. Burant, S. S. Iyengar, 
 J. Tomasi, M. Cossi, J. M. Millam, M. Klene, C. Adamo, R. Cammi, 
 J. W. Ochterski, R. L. Martin, K. Morokuma, O. Farkas, 
 J. B. Foresman, and D. J. Fox, Gaussian, Inc., Wallingford CT, 2016.
 
 ******************************************
 Gaussian 16:  ES64L-G16RevA.03 25-Dec-2016
                31-May-2021 
 ******************************************
 %chk=CCCpCpCNN.chk
 %NProcShared=20
 Will use up to   20 processors via shared memory.
 -----------------------------
 # opt freq b3lyp/6-31g(2df,p)
 -----------------------------
 1/18=20,19=15,26=3,38=1/1,3;
 2/9=110,12=2,17=6,18=5,40=1/2;
 3/5=1,6=6,7=104,11=2,25=1,30=1,71=1,74=-5/1,2,3;
 4//1;
 5/5=2,38=5/2;
 6/7=2,8=2,9=2,10=2,28=1/1;
 7//1,2,3,16;
 1/18=20,19=15,26=3/3(2);
 2/9=110/2;
 99//99;
 2/9=110/2;
 3/5=1,6=6,7=104,11=2,25=1,30=1,71=1,74=-5/1,2,3;
 4/5=5,16=3,69=1/1;
 5/5=2,38=5/2;
 7//1,2,3,16;
 1/18=20,19=15,26=3/3(-5);
 2/9=110/2;
 6/7=2,8=2,9=2,10=2,19=2,28=1/1;
 99/9=1/99;
 -------------------
 Title Card Required
 -------------------
 Symbolic Z-matrix:
 Charge =  0 Multiplicity = 1
 C                     0.90406  -0.08286   0.03251 
 C                     2.42484  -0.05714  -0.05802 
 C                     2.94936  -0.21461  -1.50176 
 C                     2.42227   0.91088  -2.40187 
 C                     4.49502  -0.25108  -1.49114 
 N                     5.04039  -0.47251  -2.83895 
 N                     6.47746  -0.45894  -2.81429 
 H                     0.58174  -0.00153   1.07459 
 H                     0.50645  -1.01537  -0.37995 
 H                     0.45184   0.75378  -0.50729 
 H                     2.82119  -0.86801   0.5663 
 H                     2.79342   0.88145   0.37406 
 H                     2.58352  -1.17301  -1.8947 
 H                     2.76259   1.88688  -2.04031 
 H                     1.33027   0.91949  -2.44112 
 H                     2.75151   0.79458  -3.43758 
 H                     4.82911  -1.06263  -0.83195 
 H                     4.87887   0.69027  -1.07703 
 H                     4.68457   0.2345   -3.48584 
 H                     6.85135  -1.22567  -2.25457 
 H                     6.86029   0.40984  -2.43008 
 

 GradGradGradGradGradGradGradGradGradGradGradGradGradGradGradGradGradGrad
 Berny optimization.
 Initialization pass.
                           ----------------------------
                           !    Initial Parameters    !
                           ! (Angstroms and Degrees)  !
 --------------------------                            --------------------------
 ! Name  Definition              Value          Derivative Info.                !
 --------------------------------------------------------------------------------
 ! R1    R(1,2)                  1.5237         estimate D2E/DX2                !
 ! R2    R(1,8)                  1.0938         estimate D2E/DX2                !
 ! R3    R(1,9)                  1.0944         estimate D2E/DX2                !
 ! R4    R(1,10)                 1.0936         estimate D2E/DX2                !
 ! R5    R(2,3)                  1.5441         estimate D2E/DX2                !
 ! R6    R(2,11)                 1.0974         estimate D2E/DX2                !
 ! R7    R(2,12)                 1.097          estimate D2E/DX2                !
 ! R8    R(3,4)                  1.5345         estimate D2E/DX2                !
 ! R9    R(3,5)                  1.5461         estimate D2E/DX2                !
 ! R10   R(3,13)                 1.0985         estimate D2E/DX2                !
 ! R11   R(4,14)                 1.095          estimate D2E/DX2                !
 ! R12   R(4,15)                 1.0927         estimate D2E/DX2                !
 ! R13   R(4,16)                 1.093          estimate D2E/DX2                !
 ! R14   R(5,6)                  1.4707         estimate D2E/DX2                !
 ! R15   R(5,17)                 1.0976         estimate D2E/DX2                !
 ! R16   R(5,18)                 1.0977         estimate D2E/DX2                !
 ! R17   R(6,7)                  1.4373         estimate D2E/DX2                !
 ! R18   R(6,19)                 1.0222         estimate D2E/DX2                !
 ! R19   R(7,20)                 1.0203         estimate D2E/DX2                !
 ! R20   R(7,21)                 1.0242         estimate D2E/DX2                !
 ! A1    A(2,1,8)              110.4544         estimate D2E/DX2                !
 ! A2    A(2,1,9)              110.7688         estimate D2E/DX2                !
 ! A3    A(2,1,10)             111.7465         estimate D2E/DX2                !
 ! A4    A(8,1,9)              108.3814         estimate D2E/DX2                !
 ! A5    A(8,1,10)             106.9495         estimate D2E/DX2                !
 ! A6    A(9,1,10)             108.3973         estimate D2E/DX2                !
 ! A7    A(1,2,3)              113.1333         estimate D2E/DX2                !
 ! A8    A(1,2,11)             108.3123         estimate D2E/DX2                !
 ! A9    A(1,2,12)             109.049          estimate D2E/DX2                !
 ! A10   A(3,2,11)             109.504          estimate D2E/DX2                !
 ! A11   A(3,2,12)             109.961          estimate D2E/DX2                !
 ! A12   A(11,2,12)            106.6636         estimate D2E/DX2                !
 ! A13   A(2,3,4)              110.914          estimate D2E/DX2                !
 ! A14   A(2,3,5)              109.6072         estimate D2E/DX2                !
 ! A15   A(2,3,13)             108.0767         estimate D2E/DX2                !
 ! A16   A(4,3,5)              111.39           estimate D2E/DX2                !
 ! A17   A(4,3,13)             108.402          estimate D2E/DX2                !
 ! A18   A(5,3,13)             108.349          estimate D2E/DX2                !
 ! A19   A(3,4,14)             110.6886         estimate D2E/DX2                !
 ! A20   A(3,4,15)             111.7221         estimate D2E/DX2                !
 ! A21   A(3,4,16)             111.9825         estimate D2E/DX2                !
 ! A22   A(14,4,15)            108.3855         estimate D2E/DX2                !
 ! A23   A(14,4,16)            108.3063         estimate D2E/DX2                !
 ! A24   A(15,4,16)            105.535          estimate D2E/DX2                !
 ! A25   A(3,5,6)              111.5899         estimate D2E/DX2                !
 ! A26   A(3,5,17)             109.0172         estimate D2E/DX2                !
 ! A27   A(3,5,18)             109.3866         estimate D2E/DX2                !
 ! A28   A(6,5,17)             109.0373         estimate D2E/DX2                !
 ! A29   A(6,5,18)             110.1918         estimate D2E/DX2                !
 ! A30   A(17,5,18)            107.5212         estimate D2E/DX2                !
 ! A31   A(5,6,7)              110.7077         estimate D2E/DX2                !
 ! A32   A(5,6,19)             110.2874         estimate D2E/DX2                !
 ! A33   A(7,6,19)             110.6308         estimate D2E/DX2                !
 ! A34   A(6,7,20)             111.636          estimate D2E/DX2                !
 ! A35   A(6,7,21)             112.8402         estimate D2E/DX2                !
 ! A36   A(20,7,21)            107.1388         estimate D2E/DX2                !
 ! D1    D(8,1,2,3)            178.1304         estimate D2E/DX2                !
 ! D2    D(8,1,2,11)            56.5412         estimate D2E/DX2                !
 ! D3    D(8,1,2,12)           -59.1691         estimate D2E/DX2                !
 ! D4    D(9,1,2,3)             58.0377         estimate D2E/DX2                !
 ! D5    D(9,1,2,11)           -63.5515         estimate D2E/DX2                !
 ! D6    D(9,1,2,12)          -179.2618         estimate D2E/DX2                !
 ! D7    D(10,1,2,3)           -62.9381         estimate D2E/DX2                !
 ! D8    D(10,1,2,11)          175.4727         estimate D2E/DX2                !
 ! D9    D(10,1,2,12)           59.7625         estimate D2E/DX2                !
 ! D10   D(1,2,3,4)             59.5106         estimate D2E/DX2                !
 ! D11   D(1,2,3,5)           -177.0813         estimate D2E/DX2                !
 ! D12   D(1,2,3,13)           -59.1894         estimate D2E/DX2                !
 ! D13   D(11,2,3,4)          -179.5729         estimate D2E/DX2                !
 ! D14   D(11,2,3,5)           -56.1647         estimate D2E/DX2                !
 ! D15   D(11,2,3,13)           61.7271         estimate D2E/DX2                !
 ! D16   D(12,2,3,4)           -62.6818         estimate D2E/DX2                !
 ! D17   D(12,2,3,5)            60.7263         estimate D2E/DX2                !
 ! D18   D(12,2,3,13)          178.6181         estimate D2E/DX2                !
 ! D19   D(2,3,4,14)            61.263          estimate D2E/DX2                !
 ! D20   D(2,3,4,15)           -59.6257         estimate D2E/DX2                !
 ! D21   D(2,3,4,16)          -177.7719         estimate D2E/DX2                !
 ! D22   D(5,3,4,14)           -61.1145         estimate D2E/DX2                !
 ! D23   D(5,3,4,15)           177.9968         estimate D2E/DX2                !
 ! D24   D(5,3,4,16)            59.8506         estimate D2E/DX2                !
 ! D25   D(13,3,4,14)          179.7665         estimate D2E/DX2                !
 ! D26   D(13,3,4,15)           58.8778         estimate D2E/DX2                !
 ! D27   D(13,3,4,16)          -59.2685         estimate D2E/DX2                !
 ! D28   D(2,3,5,6)            176.9533         estimate D2E/DX2                !
 ! D29   D(2,3,5,17)            56.46           estimate D2E/DX2                !
 ! D30   D(2,3,5,18)           -60.8538         estimate D2E/DX2                !
 ! D31   D(4,3,5,6)            -59.9193         estimate D2E/DX2                !
 ! D32   D(4,3,5,17)           179.5874         estimate D2E/DX2                !
 ! D33   D(4,3,5,18)            62.2736         estimate D2E/DX2                !
 ! D34   D(13,3,5,6)            59.2314         estimate D2E/DX2                !
 ! D35   D(13,3,5,17)          -61.262          estimate D2E/DX2                !
 ! D36   D(13,3,5,18)         -178.5758         estimate D2E/DX2                !
 ! D37   D(3,5,6,7)            178.0967         estimate D2E/DX2                !
 ! D38   D(3,5,6,19)            55.3223         estimate D2E/DX2                !
 ! D39   D(17,5,6,7)           -61.4218         estimate D2E/DX2                !
 ! D40   D(17,5,6,19)          175.8038         estimate D2E/DX2                !
 ! D41   D(18,5,6,7)            56.3682         estimate D2E/DX2                !
 ! D42   D(18,5,6,19)          -66.4063         estimate D2E/DX2                !
 ! D43   D(5,6,7,20)            63.7851         estimate D2E/DX2                !
 ! D44   D(5,6,7,21)           -56.9496         estimate D2E/DX2                !
 ! D45   D(19,6,7,20)         -173.6403         estimate D2E/DX2                !
 ! D46   D(19,6,7,21)           65.6251         estimate D2E/DX2                !
 --------------------------------------------------------------------------------
 Trust Radius=3.00D-01 FncErr=1.00D-07 GrdErr=1.00D-06 EigMax=2.50D+02 EigMin=1.00D-04
 Number of steps in this run=    112 maximum allowed number of steps=    126.
 GradGradGradGradGradGradGradGradGradGradGradGradGradGradGradGradGradGrad

                          Input orientation:                          
 ---------------------------------------------------------------------
 Center     Atomic      Atomic             Coordinates (Angstroms)
 Number     Number       Type             X           Y           Z
 ---------------------------------------------------------------------
      1          6           0        0.904060   -0.082860    0.032510
      2          6           0        2.424840   -0.057140   -0.058020
      3          6           0        2.949360   -0.214610   -1.501760
      4          6           0        2.422270    0.910880   -2.401870
      5          6           0        4.495020   -0.251080   -1.491140
      6          7           0        5.040390   -0.472510   -2.838950
      7          7           0        6.477460   -0.458940   -2.814290
      8          1           0        0.581740   -0.001530    1.074590
      9          1           0        0.506450   -1.015370   -0.379950
     10          1           0        0.451840    0.753780   -0.507290
     11          1           0        2.821190   -0.868010    0.566300
     12          1           0        2.793420    0.881450    0.374060
     13          1           0        2.583520   -1.173010   -1.894700
     14          1           0        2.762590    1.886880   -2.040310
     15          1           0        1.330270    0.919490   -2.441120
     16          1           0        2.751510    0.794580   -3.437580
     17          1           0        4.829110   -1.062630   -0.831950
     18          1           0        4.878870    0.690270   -1.077030
     19          1           0        4.684570    0.234500   -3.485840
     20          1           0        6.851350   -1.225670   -2.254570
     21          1           0        6.860290    0.409840   -2.430080
 ---------------------------------------------------------------------
                    Distance matrix (angstroms):
                    1          2          3          4          5
     1  C    0.000000
     2  C    1.523689   0.000000
     3  C    2.560194   1.544119   0.000000
     4  C    3.036229   2.535883   1.534519   0.000000
     5  C    3.904459   2.525290   1.546127   2.544774   0.000000
     6  N    5.050380   3.840209   2.495395   2.993219   1.470732
     7  N    6.269649   4.917540   3.772257   4.300124   2.392488
     8  H    1.093817   2.164005   3.505511   4.038046   4.686044
     9  H    1.094437   2.168424   2.804903   3.386586   4.210412
    10  H    1.093551   2.179946   2.857334   2.738012   4.280772
    11  H    2.139341   1.097442   2.172609   3.483335   2.723117
    12  H    2.148542   1.097039   2.178156   2.800787   2.767135
    13  H    2.779056   2.154934   1.098531   2.150772   2.160243
    14  H    3.410365   2.796920   2.177425   1.095043   2.806025
    15  H    2.702814   2.798402   2.188614   1.092739   3.505473
    16  H    4.027964   3.500509   2.192033   1.092987   2.814580
    17  H    4.136817   2.718546   2.168235   3.486011   1.097616
    18  H    4.198562   2.760302   2.173065   2.799777   1.097710
    19  H    5.174143   4.115991   2.673804   2.598169   2.061685
    20  H    6.473562   5.077823   4.100548   4.919684   2.661755
    21  H    6.464037   5.051530   4.067811   4.466303   2.629244
                    6          7          8          9         10
     6  N    0.000000
     7  N    1.437346   0.000000
     8  H    5.951233   7.077579   0.000000
     9  H    5.186327   6.472139   1.774606   0.000000
    10  H    5.291051   6.565138   1.757758   1.774567   0.000000
    11  H    4.083748   4.996402   2.454441   2.505020   3.065390
    12  H    4.147953   5.053155   2.482322   3.065402   2.505209
    13  H    2.723696   4.064272   3.767781   2.575566   3.190844
    14  H    3.375340   4.461185   4.245563   4.033611   2.995602
    15  H    3.982577   5.341619   3.710632   2.944620   2.130445
    16  H    2.683812   3.980265   5.069652   4.203013   3.725150
    17  H    2.102601   2.647862   4.775037   4.346484   4.750289
    18  H    2.117193   2.625690   4.855243   4.744806   4.463993
    19  H    1.022222   2.036245   6.138929   5.354009   5.201674
    20  H    2.046540   1.020272   7.203460   6.619379   6.922784
    21  H    2.063432   1.024185   7.202231   6.826825   6.699526
                   11         12         13         14         15
    11  H    0.000000
    12  H    1.760210   0.000000
    13  H    2.491191   3.067920   0.000000
    14  H    3.793055   2.615535   3.068582   0.000000
    15  H    3.802969   3.172931   2.499553   1.774270   0.000000
    16  H    4.335910   3.812860   2.506015   1.773585   1.740247
    17  H    2.454531   3.062342   2.486824   3.798717   4.331294
    18  H    3.059872   2.547806   3.067414   2.615038   3.808654
    19  H    4.594296   4.346702   2.987846   2.917863   3.579383
    20  H    4.932283   5.274130   4.283299   5.143135   5.926115
    21  H    5.188981   4.962363   4.591602   4.373181   5.553466
                   16         17         18         19         20
    16  H    0.000000
    17  H    3.815096   0.000000
    18  H    3.179424   1.770649   0.000000
    19  H    2.013142   2.957460   2.459237   0.000000
    20  H    4.721187   2.477879   2.991338   2.888435   0.000000
    21  H    4.247959   2.974539   2.415659   2.424692   1.644925
                   21
    21  H    0.000000
 Stoichiometry    C5H14N2
 Framework group  C1[X(C5H14N2)]
 Deg. of freedom    57
 Full point group                 C1      NOp   1
 Largest Abelian subgroup         C1      NOp   1
 Largest concise Abelian subgroup C1      NOp   1
                         Standard orientation:                         
 ---------------------------------------------------------------------
 Center     Atomic      Atomic             Coordinates (Angstroms)
 Number     Number       Type             X           Y           Z
 ---------------------------------------------------------------------
      1          6           0       -3.049144   -0.320242   -0.173720
      2          6           0       -1.667905   -0.800491    0.254264
      3          6           0       -0.524154    0.089742   -0.278297
      4          6           0       -0.676705    1.533386    0.219066
      5          6           0        0.838031   -0.509959    0.140410
      6          7           0        1.961746    0.265682   -0.406123
      7          7           0        3.217058   -0.281585    0.030516
      8          1           0       -3.822082   -0.998805    0.198508
      9          1           0       -3.124149   -0.276957   -1.264726
     10          1           0       -3.275534    0.671572    0.227408
     11          1           0       -1.532190   -1.827347   -0.108403
     12          1           0       -1.628128   -0.845899    1.349641
     13          1           0       -0.577771    0.093473   -1.375513
     14          1           0       -0.632729    1.572535    1.312525
     15          1           0       -1.622853    1.974538   -0.103837
     16          1           0        0.102601    2.187938   -0.179512
     17          1           0        0.902778   -1.541989   -0.227672
     18          1           0        0.899325   -0.545330    1.235837
     19          1           0        1.881721    1.247100   -0.131621
     20          1           0        3.358740   -1.227647   -0.324237
     21          1           0        3.297901   -0.326467    1.050518
 ---------------------------------------------------------------------
 Rotational constants (GHZ):           6.2842433           1.1299363           1.0163254
 Standard basis: 6-31G(2df,p) (6D, 7F)
 There are   287 symmetry adapted cartesian basis functions of A   symmetry.
 There are   266 symmetry adapted basis functions of A   symmetry.
   266 basis functions,   406 primitive gaussians,   287 cartesian basis functions
    29 alpha electrons       29 beta electrons
       nuclear repulsion energy       327.1563417749 Hartrees.
 NAtoms=   21 NActive=   21 NUniq=   21 SFac= 1.00D+00 NAtFMM=   60 NAOKFM=F Big=F
 Integral buffers will be    131072 words long.
 Raffenetti 2 integral format.
 Two-electron integral symmetry is turned on.
 One-electron integrals computed using PRISM.
 PrsmSu:  requested number of processors reduced to:  13 ShMem   1 Linda.
 NBasis=   266 RedAO= T EigKep=  3.59D-04  NBF=   266
 NBsUse=   266 1.00D-06 EigRej= -1.00D+00 NBFU=   266
 ExpMin= 1.61D-01 ExpMax= 4.17D+03 ExpMxC= 6.27D+02 IAcc=3 IRadAn=         5 AccDes= 0.00D+00
 Harris functional with IExCor=  402 and IRadAn=       5 diagonalized for initial guess.
 HarFok:  IExCor=  402 AccDes= 0.00D+00 IRadAn=         5 IDoV= 1 UseB2=F ITyADJ=14
 ICtDFT=  3500011 ScaDFX=  1.000000  1.000000  1.000000  1.000000
 FoFCou: FMM=F IPFlag=           0 FMFlag=      100000 FMFlg1=           0
         NFxFlg=           0 DoJE=T BraDBF=F KetDBF=T FulRan=T
         wScrn=  0.000000 ICntrl=       500 IOpCl=  0 I1Cent=   200000004 NGrid=           0
         NMat0=    1 NMatS0=      1 NMatT0=    0 NMatD0=    1 NMtDS0=    0 NMtDT0=    0
 Petite list used in FoFCou.
 Requested convergence on RMS density matrix=1.00D-08 within 128 cycles.
 Requested convergence on MAX density matrix=1.00D-06.
 Requested convergence on             energy=1.00D-06.
 No special actions if energy rises.
 Integral accuracy reduced to 1.0D-05 until final iterations.
 Initial convergence to 1.0D-05 achieved.  Increase integral accuracy.
 SCF Done:  E(RB3LYP) =  -308.450054532     A.U. after   12 cycles
            NFock= 12  Conv=0.30D-08     -V/T= 2.0086

 **********************************************************************

            Population analysis using the SCF density.

 **********************************************************************

 Orbital symmetries:
       Occupied  (A) (A) (A) (A) (A) (A) (A) (A) (A) (A) (A) (A)
                 (A) (A) (A) (A) (A) (A) (A) (A) (A) (A) (A) (A)
                 (A) (A) (A) (A) (A)
       Virtual   (A) (A) (A) (A) (A) (A) (A) (A) (A) (A) (A) (A)
                 (A) (A) (A) (A) (A) (A) (A) (A) (A) (A) (A) (A)
                 (A) (A) (A) (A) (A) (A) (A) (A) (A) (A) (A) (A)
                 (A) (A) (A) (A) (A) (A) (A) (A) (A) (A) (A) (A)
                 (A) (A) (A) (A) (A) (A) (A) (A) (A) (A) (A) (A)
                 (A) (A) (A) (A) (A) (A) (A) (A) (A) (A) (A) (A)
                 (A) (A) (A) (A) (A) (A) (A) (A) (A) (A) (A) (A)
                 (A) (A) (A) (A) (A) (A) (A) (A) (A) (A) (A) (A)
                 (A) (A) (A) (A) (A) (A) (A) (A) (A) (A) (A) (A)
                 (A) (A) (A) (A) (A) (A) (A) (A) (A) (A) (A) (A)
                 (A) (A) (A) (A) (A) (A) (A) (A) (A) (A) (A) (A)
                 (A) (A) (A) (A) (A) (A) (A) (A) (A) (A) (A) (A)
                 (A) (A) (A) (A) (A) (A) (A) (A) (A) (A) (A) (A)
                 (A) (A) (A) (A) (A) (A) (A) (A) (A) (A) (A) (A)
                 (A) (A) (A) (A) (A) (A) (A) (A) (A) (A) (A) (A)
                 (A) (A) (A) (A) (A) (A) (A) (A) (A) (A) (A) (A)
                 (A) (A) (A) (A) (A) (A) (A) (A) (A) (A) (A) (A)
                 (A) (A) (A) (A) (A) (A) (A) (A) (A) (A) (A) (A)
                 (A) (A) (A) (A) (A) (A) (A) (A) (A) (A) (A) (A)
                 (A) (A) (A) (A) (A) (A) (A) (A) (A)
 The electronic state is 1-A.
 Alpha  occ. eigenvalues --  -14.33184 -14.32529 -10.19675 -10.18460 -10.17784
 Alpha  occ. eigenvalues --  -10.17408 -10.17083  -0.94263  -0.81328  -0.75956
 Alpha  occ. eigenvalues --   -0.71496  -0.66886  -0.61137  -0.55715  -0.50211
 Alpha  occ. eigenvalues --   -0.47177  -0.46078  -0.44525  -0.42237  -0.41751
 Alpha  occ. eigenvalues --   -0.40025  -0.37516  -0.36534  -0.35093  -0.32843
 Alpha  occ. eigenvalues --   -0.32178  -0.31947  -0.24673  -0.20937
 Alpha virt. eigenvalues --    0.07760   0.08763   0.10561   0.11974   0.13010
 Alpha virt. eigenvalues --    0.14232   0.15590   0.15917   0.17054   0.17648
 Alpha virt. eigenvalues --    0.17684   0.19928   0.21102   0.22122   0.23109
 Alpha virt. eigenvalues --    0.23481   0.24635   0.25619   0.27293   0.29822
 Alpha virt. eigenvalues --    0.44648   0.47002   0.48184   0.48963   0.51514
 Alpha virt. eigenvalues --    0.52804   0.53767   0.56586   0.57430   0.58554
 Alpha virt. eigenvalues --    0.59030   0.60569   0.61759   0.63987   0.65743
 Alpha virt. eigenvalues --    0.69146   0.69701   0.71169   0.72210   0.73083
 Alpha virt. eigenvalues --    0.73443   0.74676   0.75263   0.76669   0.76984
 Alpha virt. eigenvalues --    0.78452   0.79472   0.81375   0.81612   0.83673
 Alpha virt. eigenvalues --    0.84941   0.86489   0.86690   0.87330   0.89880
 Alpha virt. eigenvalues --    0.90919   0.91340   0.93401   0.99226   1.06725
 Alpha virt. eigenvalues --    1.07618   1.10160   1.12519   1.15056   1.21870
 Alpha virt. eigenvalues --    1.23341   1.25127   1.31243   1.33025   1.34901
 Alpha virt. eigenvalues --    1.37519   1.40909   1.41685   1.43772   1.47690
 Alpha virt. eigenvalues --    1.48914   1.51339   1.54282   1.56173   1.56540
 Alpha virt. eigenvalues --    1.59507   1.61474   1.67532   1.68531   1.72080
 Alpha virt. eigenvalues --    1.72262   1.76889   1.78131   1.81056   1.85860
 Alpha virt. eigenvalues --    1.87125   1.91762   1.92564   1.95039   1.95585
 Alpha virt. eigenvalues --    1.97390   1.99465   2.04634   2.11253   2.17048
 Alpha virt. eigenvalues --    2.21403   2.22118   2.24663   2.25813   2.26574
 Alpha virt. eigenvalues --    2.30265   2.33158   2.37069   2.39871   2.42805
 Alpha virt. eigenvalues --    2.46648   2.50049   2.52093   2.56112   2.58716
 Alpha virt. eigenvalues --    2.67740   2.68601   2.72776   2.74328   2.76580
 Alpha virt. eigenvalues --    2.79335   2.79644   2.81100   2.82396   2.83435
 Alpha virt. eigenvalues --    2.85876   2.86423   2.87569   2.90107   2.91489
 Alpha virt. eigenvalues --    2.92927   2.94282   2.96313   2.97193   2.99260
 Alpha virt. eigenvalues --    3.00780   3.04012   3.06547   3.07991   3.11200
 Alpha virt. eigenvalues --    3.14101   3.15128   3.16810   3.23368   3.29893
 Alpha virt. eigenvalues --    3.32860   3.35102   3.36956   3.39998   3.44215
 Alpha virt. eigenvalues --    3.46568   3.47124   3.51503   3.55454   3.57978
 Alpha virt. eigenvalues --    3.59262   3.61104   3.65381   3.65956   3.69793
 Alpha virt. eigenvalues --    3.70895   3.71476   3.75660   3.78185   3.79397
 Alpha virt. eigenvalues --    3.85191   3.86697   3.91734   3.93302   3.94794
 Alpha virt. eigenvalues --    3.98389   4.03785   4.06596   4.10389   4.17555
 Alpha virt. eigenvalues --    4.19284   4.23610   4.27385   4.28821   4.34401
 Alpha virt. eigenvalues --    4.36042   4.39123   4.39771   4.43469   4.44855
 Alpha virt. eigenvalues --    4.46548   4.50178   4.50439   4.52451   4.55091
 Alpha virt. eigenvalues --    4.55517   4.57271   4.59724   4.61225   4.65495
 Alpha virt. eigenvalues --    4.66617   4.67189   4.69538   4.72382   4.73224
 Alpha virt. eigenvalues --    4.74792   4.77026   4.78737   4.79219   4.81251
 Alpha virt. eigenvalues --    4.81980   4.83331   4.86768   4.87512   4.88709
 Alpha virt. eigenvalues --    4.90782   4.91831   4.97081   5.03973   5.04542
 Alpha virt. eigenvalues --    5.05655   5.14959   5.19174   5.25467   5.26542
 Alpha virt. eigenvalues --    5.30900   5.38967   5.42784   5.45907   5.48759
 Alpha virt. eigenvalues --    5.55356   5.67686   5.84374   7.65666  11.07479
 Alpha virt. eigenvalues --   11.27579  11.46560  11.58484  11.78198  12.16491
 Alpha virt. eigenvalues --   12.45820  13.88794
          Condensed to atoms (all electrons):
               1          2          3          4          5          6
     1  C    4.961981   0.406343  -0.030822  -0.004600   0.001493  -0.000051
     2  C    0.406343   4.826958   0.405075  -0.040405  -0.030416   0.001944
     3  C   -0.030822   0.405075   4.641654   0.405167   0.390218  -0.028661
     4  C   -0.004600  -0.040405   0.405167   5.016552  -0.031501  -0.004195
     5  C    0.001493  -0.030416   0.390218  -0.031501   4.915152   0.392873
     6  N   -0.000051   0.001944  -0.028661  -0.004195   0.392873   6.438677
     7  N    0.000001  -0.000140   0.005847   0.000291  -0.092304   0.326642
     8  H    0.372677  -0.021696   0.002971   0.000252  -0.000115   0.000000
     9  H    0.377608  -0.029194  -0.003460  -0.000920   0.000190   0.000000
    10  H    0.380500  -0.027977  -0.005969   0.000764   0.000124   0.000001
    11  H   -0.036557   0.364729  -0.028780   0.005271  -0.003039   0.000111
    12  H   -0.038732   0.364351  -0.028261  -0.008734  -0.004301   0.000031
    13  H   -0.003787  -0.039267   0.357667  -0.050041  -0.037185   0.002975
    14  H   -0.000272  -0.005137  -0.026990   0.369587  -0.004640  -0.000634
    15  H    0.001064  -0.006343  -0.022494   0.375136   0.003821   0.000144
    16  H    0.000187   0.004660  -0.023081   0.368034  -0.005436  -0.000065
    17  H   -0.000003  -0.006776  -0.013097   0.005406   0.345383  -0.022820
    18  H    0.000107  -0.000952  -0.023260  -0.012401   0.334253  -0.053808
    19  H    0.000003  -0.000214  -0.003561   0.006935  -0.059125   0.341472
    20  H    0.000000  -0.000011   0.000046   0.000012  -0.003040  -0.040624
    21  H    0.000000   0.000033   0.000398  -0.000140  -0.003207  -0.063257
               7          8          9         10         11         12
     1  C    0.000001   0.372677   0.377608   0.380500  -0.036557  -0.038732
     2  C   -0.000140  -0.021696  -0.029194  -0.027977   0.364729   0.364351
     3  C    0.005847   0.002971  -0.003460  -0.005969  -0.028780  -0.028261
     4  C    0.000291   0.000252  -0.000920   0.000764   0.005271  -0.008734
     5  C   -0.092304  -0.000115   0.000190   0.000124  -0.003039  -0.004301
     6  N    0.326642   0.000000   0.000000   0.000001   0.000111   0.000031
     7  N    6.571300  -0.000000   0.000000   0.000000  -0.000002  -0.000000
     8  H   -0.000000   0.605572  -0.031366  -0.032104  -0.003170  -0.002015
     9  H    0.000000  -0.031366   0.599715  -0.034089  -0.004014   0.005757
    10  H    0.000000  -0.032104  -0.034089   0.594987   0.005632  -0.004260
    11  H   -0.000002  -0.003170  -0.004014   0.005632   0.648335  -0.040324
    12  H   -0.000000  -0.002015   0.005757  -0.004260  -0.040324   0.647955
    13  H    0.000120  -0.000055   0.005226  -0.000090  -0.004177   0.006612
    14  H   -0.000039  -0.000036   0.000101   0.000729  -0.000028   0.005285
    15  H   -0.000001  -0.000168   0.000926   0.003757   0.000007   0.000040
    16  H    0.000035  -0.000001  -0.000041  -0.000191  -0.000188  -0.000059
    17  H   -0.000098  -0.000001   0.000001   0.000004   0.005240  -0.000403
    18  H    0.004069   0.000004   0.000007   0.000006  -0.000427   0.005424
    19  H   -0.027806   0.000000   0.000000  -0.000001   0.000003   0.000003
    20  H    0.349724   0.000000   0.000000  -0.000000  -0.000000   0.000000
    21  H    0.333497   0.000000  -0.000000   0.000000   0.000000   0.000001
              13         14         15         16         17         18
     1  C   -0.003787  -0.000272   0.001064   0.000187  -0.000003   0.000107
     2  C   -0.039267  -0.005137  -0.006343   0.004660  -0.006776  -0.000952
     3  C    0.357667  -0.026990  -0.022494  -0.023081  -0.013097  -0.023260
     4  C   -0.050041   0.369587   0.375136   0.368034   0.005406  -0.012401
     5  C   -0.037185  -0.004640   0.003821  -0.005436   0.345383   0.334253
     6  N    0.002975  -0.000634   0.000144  -0.000065  -0.022820  -0.053808
     7  N    0.000120  -0.000039  -0.000001   0.000035  -0.000098   0.004069
     8  H   -0.000055  -0.000036  -0.000168  -0.000001  -0.000001   0.000004
     9  H    0.005226   0.000101   0.000926  -0.000041   0.000001   0.000007
    10  H   -0.000090   0.000729   0.003757  -0.000191   0.000004   0.000006
    11  H   -0.004177  -0.000028   0.000007  -0.000188   0.005240  -0.000427
    12  H    0.006612   0.005285   0.000040  -0.000059  -0.000403   0.005424
    13  H    0.677139   0.006235  -0.002989  -0.002573  -0.005213   0.007573
    14  H    0.006235   0.605831  -0.032832  -0.034340  -0.000046   0.005957
    15  H   -0.002989  -0.032832   0.590292  -0.029968  -0.000160  -0.000144
    16  H   -0.002573  -0.034340  -0.029968   0.604819  -0.000126   0.000559
    17  H   -0.005213  -0.000046  -0.000160  -0.000126   0.644120  -0.054645
    18  H    0.007573   0.005957  -0.000144   0.000559  -0.054645   0.713745
    19  H   -0.000188   0.000414  -0.000321   0.003993   0.006531  -0.004980
    20  H   -0.000005   0.000000   0.000000  -0.000004   0.005525  -0.000844
    21  H    0.000049   0.000025  -0.000001   0.000071  -0.001387   0.014602
              19         20         21
     1  C    0.000003   0.000000   0.000000
     2  C   -0.000214  -0.000011   0.000033
     3  C   -0.003561   0.000046   0.000398
     4  C    0.006935   0.000012  -0.000140
     5  C   -0.059125  -0.003040  -0.003207
     6  N    0.341472  -0.040624  -0.063257
     7  N   -0.027806   0.349724   0.333497
     8  H    0.000000   0.000000   0.000000
     9  H    0.000000   0.000000  -0.000000
    10  H   -0.000001  -0.000000   0.000000
    11  H    0.000003  -0.000000   0.000000
    12  H    0.000003   0.000000   0.000001
    13  H   -0.000188  -0.000005   0.000049
    14  H    0.000414   0.000000   0.000025
    15  H   -0.000321   0.000000  -0.000001
    16  H    0.003993  -0.000004   0.000071
    17  H    0.006531   0.005525  -0.001387
    18  H   -0.004980  -0.000844   0.014602
    19  H    0.502270   0.005034  -0.004712
    20  H    0.005034   0.488353  -0.044207
    21  H   -0.004712  -0.044207   0.556102
 Mulliken charges:
               1
     1  C   -0.387140
     2  C   -0.165567
     3  C    0.029393
     4  C   -0.400470
     5  C   -0.109198
     6  N   -0.290756
     7  N   -0.471136
     8  H    0.109249
     9  H    0.113552
    10  H    0.118175
    11  H    0.091377
    12  H    0.091629
    13  H    0.081971
    14  H    0.110829
    15  H    0.120235
    16  H    0.113715
    17  H    0.092566
    18  H    0.065154
    19  H    0.234248
    20  H    0.240040
    21  H    0.212133
 Sum of Mulliken charges =  -0.00000
 Mulliken charges with hydrogens summed into heavy atoms:
               1
     1  C   -0.046164
     2  C    0.017439
     3  C    0.111365
     4  C   -0.055690
     5  C    0.048523
     6  N   -0.056508
     7  N   -0.018964
 Electronic spatial extent (au):  <R**2>=           1203.9808
 Charge=             -0.0000 electrons
 Dipole moment (field-independent basis, Debye):
    X=             -1.0656    Y=             -0.6125    Z=              1.3611  Tot=              1.8340
 Quadrupole moment (field-independent basis, Debye-Ang):
   XX=            -51.4156   YY=            -43.4651   ZZ=            -46.7047
   XY=             -3.0270   XZ=              4.0367   YZ=              0.7994
 Traceless Quadrupole moment (field-independent basis, Debye-Ang):
   XX=             -4.2205   YY=              3.7300   ZZ=              0.4904
   XY=             -3.0270   XZ=              4.0367   YZ=              0.7994
 Octapole moment (field-independent basis, Debye-Ang**2):
  XXX=             -8.9597  YYY=             -1.1153  ZZZ=              2.3197  XYY=             11.0913
  XXY=            -13.0624  XXZ=             12.1195  XZZ=              3.3099  YZZ=             -0.9212
  YYZ=             -1.9850  XYZ=              1.8572
 Hexadecapole moment (field-independent basis, Debye-Ang**3):
 XXXX=          -1344.5153 YYYY=           -251.4220 ZZZZ=           -102.4340 XXXY=            -50.9743
 XXXZ=             32.4080 YYYX=             -4.5053 YYYZ=              0.6094 ZZZX=              8.7580
 ZZZY=              1.2878 XXYY=           -221.6013 XXZZ=           -217.0139 YYZZ=            -61.1721
 XXYZ=              3.6023 YYXZ=             -3.0100 ZZXY=             -2.9519
 N-N= 3.271563417749D+02 E-N=-1.369596793911D+03  KE= 3.058159242601D+02
 PrsmSu:  requested number of processors reduced to:  13 ShMem   1 Linda.
 Calling FoFJK, ICntrl=      2127 FMM=F ISym2X=0 I1Cent= 0 IOpClX= 0 NMat=1 NMatS=1 NMatT=0.
 ***** Axes restored to original set *****
 -------------------------------------------------------------------
 Center     Atomic                   Forces (Hartrees/Bohr)
 Number     Number              X              Y              Z
 -------------------------------------------------------------------
      1        6          -0.002864348    0.001375233    0.003469480
      2        6          -0.000342113   -0.002290125   -0.003107531
      3        6           0.004117709    0.003515310    0.005897973
      4        6          -0.000363243   -0.001707687   -0.002547480
      5        6          -0.013975356    0.001496771   -0.012259422
      6        7           0.009022204   -0.011113605    0.019713922
      7        7           0.001914274    0.007512095   -0.018662519
      8        1          -0.001305406   -0.001324943    0.000460044
      9        1          -0.001699570   -0.000086629    0.000012717
     10        1          -0.001044267   -0.000847084    0.000129436
     11        1           0.002071099    0.000451564   -0.000642770
     12        1           0.001877925    0.000486361   -0.000509837
     13        1           0.001728064   -0.000072107   -0.000245451
     14        1          -0.000273810    0.001431059   -0.000157251
     15        1           0.000201870    0.000833360    0.000885629
     16        1           0.000810824    0.000402672   -0.001011129
     17        1           0.001567447   -0.000082257   -0.002598362
     18        1           0.001145871    0.004429186    0.005540784
     19        1           0.012009767   -0.004585994    0.003870840
     20        1          -0.010519818    0.001684115   -0.002788941
     21        1          -0.004079123   -0.001507295    0.004549869
 -------------------------------------------------------------------
 Cartesian Forces:  Max     0.019713922 RMS     0.005474966

 GradGradGradGradGradGradGradGradGradGradGradGradGradGradGradGradGradGrad
 Berny optimization.
 FormGI is forming the generalized inverse of G from B-inverse, IUseBI=4.
 Internal  Forces:  Max     0.018584980 RMS     0.003918548
 Search for a local minimum.
 Step number   1 out of a maximum of  112
 All quantities printed in internal units (Hartrees-Bohrs-Radians)
 Mixed Optimization -- RFO/linear search
 Second derivative matrix not updated -- first step.
 ITU=  0
     Eigenvalues ---    0.00230   0.00230   0.00309   0.00453   0.00756
     Eigenvalues ---    0.00801   0.03116   0.03471   0.03559   0.04199
     Eigenvalues ---    0.04631   0.04795   0.04804   0.04889   0.05386
     Eigenvalues ---    0.05412   0.05434   0.05515   0.05649   0.08405
     Eigenvalues ---    0.09200   0.11615   0.12254   0.12724   0.16000
     Eigenvalues ---    0.16000   0.16000   0.16000   0.16000   0.16000
     Eigenvalues ---    0.16000   0.16000   0.16436   0.16767   0.21922
     Eigenvalues ---    0.21955   0.23322   0.27983   0.28157   0.29010
     Eigenvalues ---    0.30014   0.33845   0.33937   0.33947   0.33967
     Eigenvalues ---    0.34012   0.34236   0.34305   0.34375   0.34405
     Eigenvalues ---    0.34470   0.34498   0.35653   0.39952   0.43677
     Eigenvalues ---    0.43985   0.44295
 RFO step:  Lambda=-1.05117241D-02 EMin= 2.30000000D-03
 Linear search not attempted -- first point.
 Iteration  1 RMS(Cart)=  0.06953107 RMS(Int)=  0.00324676
 Iteration  2 RMS(Cart)=  0.00481355 RMS(Int)=  0.00104826
 Iteration  3 RMS(Cart)=  0.00003241 RMS(Int)=  0.00104786
 Iteration  4 RMS(Cart)=  0.00000019 RMS(Int)=  0.00104786
 Variable       Old X    -DE/DX   Delta X   Delta X   Delta X     New X
                                 (Linear)    (Quad)   (Total)
    R1        2.87936   0.00716   0.00000   0.02304   0.02304   2.90239
    R2        2.06701   0.00072   0.00000   0.00205   0.00205   2.06906
    R3        2.06819   0.00069   0.00000   0.00194   0.00194   2.07013
    R4        2.06651  -0.00028   0.00000  -0.00079  -0.00079   2.06572
    R5        2.91796   0.00072   0.00000   0.00246   0.00246   2.92043
    R6        2.07386   0.00005   0.00000   0.00014   0.00014   2.07400
    R7        2.07310   0.00085   0.00000   0.00241   0.00241   2.07552
    R8        2.89982   0.00223   0.00000   0.00743   0.00743   2.90725
    R9        2.92176  -0.00288   0.00000  -0.00992  -0.00992   2.91183
   R10        2.07592  -0.00042   0.00000  -0.00122  -0.00122   2.07471
   R11        2.06933   0.00114   0.00000   0.00322   0.00322   2.07256
   R12        2.06498  -0.00023   0.00000  -0.00064  -0.00064   2.06434
   R13        2.06545   0.00116   0.00000   0.00326   0.00326   2.06871
   R14        2.77928  -0.00182   0.00000  -0.00497  -0.00497   2.77431
   R15        2.07419  -0.00102   0.00000  -0.00292  -0.00292   2.07127
   R16        2.07437   0.00629   0.00000   0.01798   0.01798   2.09235
   R17        2.71619  -0.01290   0.00000  -0.03146  -0.03146   2.68473
   R18        1.93172  -0.00980   0.00000  -0.02176  -0.02176   1.90996
   R19        1.92803  -0.00665   0.00000  -0.01467  -0.01467   1.91337
   R20        1.93543  -0.00110   0.00000  -0.00245  -0.00245   1.93298
    A1        1.92779   0.00111   0.00000   0.00691   0.00687   1.93466
    A2        1.93328   0.00144   0.00000   0.00653   0.00652   1.93980
    A3        1.95034   0.00135   0.00000   0.00942   0.00937   1.95971
    A4        1.89161  -0.00174   0.00000  -0.01317  -0.01317   1.87845
    A5        1.86662  -0.00077   0.00000  -0.00082  -0.00089   1.86573
    A6        1.89189  -0.00160   0.00000  -0.01010  -0.01012   1.88177
    A7        1.97455   0.00857   0.00000   0.04189   0.04182   2.01636
    A8        1.89041  -0.00170   0.00000  -0.00269  -0.00230   1.88810
    A9        1.90326  -0.00109   0.00000   0.01029   0.01027   1.91353
   A10        1.91121  -0.00376   0.00000  -0.02633  -0.02652   1.88469
   A11        1.91918  -0.00342   0.00000  -0.01538  -0.01609   1.90309
   A12        1.86163   0.00101   0.00000  -0.01052  -0.01091   1.85072
   A13        1.93581   0.00291   0.00000   0.02657   0.02655   1.96237
   A14        1.91301  -0.00222   0.00000  -0.00947  -0.00980   1.90320
   A15        1.88629  -0.00019   0.00000  -0.00537  -0.00568   1.88061
   A16        1.94412   0.00051   0.00000   0.00823   0.00822   1.95234
   A17        1.89197  -0.00052   0.00000   0.00160   0.00163   1.89360
   A18        1.89105  -0.00056   0.00000  -0.02303  -0.02312   1.86793
   A19        1.93188   0.00097   0.00000   0.00384   0.00384   1.93572
   A20        1.94992  -0.00005   0.00000  -0.00012  -0.00013   1.94979
   A21        1.95446   0.00022   0.00000   0.00294   0.00293   1.95740
   A22        1.89168  -0.00091   0.00000  -0.00845  -0.00845   1.88323
   A23        1.89030  -0.00069   0.00000  -0.00438  -0.00438   1.88592
   A24        1.84193   0.00038   0.00000   0.00567   0.00566   1.84760
   A25        1.94761   0.00661   0.00000   0.03256   0.03204   1.97965
   A26        1.90271  -0.00022   0.00000  -0.00807  -0.00779   1.89492
   A27        1.90916  -0.00304   0.00000  -0.00212  -0.00330   1.90586
   A28        1.90306  -0.00541   0.00000  -0.04721  -0.04682   1.85624
   A29        1.92321   0.00144   0.00000   0.03382   0.03326   1.95647
   A30        1.87660   0.00038   0.00000  -0.01119  -0.01089   1.86571
   A31        1.93221   0.01858   0.00000   0.06527   0.06574   1.99795
   A32        1.92488  -0.00232   0.00000  -0.01583  -0.01472   1.91016
   A33        1.93087  -0.01235   0.00000  -0.09692  -0.09645   1.83443
   A34        1.94842  -0.01402   0.00000  -0.10319  -0.10634   1.84207
   A35        1.96943  -0.00481   0.00000  -0.04881  -0.05164   1.91780
   A36        1.86993   0.00496   0.00000  -0.00838  -0.01542   1.85451
    D1        3.10896  -0.00095   0.00000  -0.02797  -0.02810   3.08086
    D2        0.98683  -0.00058   0.00000  -0.01999  -0.02010   0.96673
    D3       -1.03270  -0.00027   0.00000  -0.01156  -0.01137  -1.04407
    D4        1.01295  -0.00043   0.00000  -0.02026  -0.02037   0.99258
    D5       -1.10918  -0.00006   0.00000  -0.01228  -0.01237  -1.12155
    D6       -3.12871   0.00025   0.00000  -0.00385  -0.00364  -3.13235
    D7       -1.09848  -0.00031   0.00000  -0.01834  -0.01844  -1.11691
    D8        3.06258   0.00007   0.00000  -0.01036  -0.01044   3.05214
    D9        1.04305   0.00037   0.00000  -0.00192  -0.00171   1.04135
   D10        1.03866   0.00081   0.00000   0.04238   0.04243   1.08109
   D11       -3.09065   0.00189   0.00000   0.06428   0.06429  -3.02636
   D12       -1.03305  -0.00013   0.00000   0.02829   0.02834  -1.00471
   D13       -3.13414   0.00171   0.00000   0.04826   0.04802  -3.08612
   D14       -0.98026   0.00279   0.00000   0.07017   0.06988  -0.91038
   D15        1.07734   0.00077   0.00000   0.03418   0.03392   1.11126
   D16       -1.09400  -0.00126   0.00000   0.01112   0.01137  -1.08264
   D17        1.05987  -0.00018   0.00000   0.03302   0.03323   1.09310
   D18        3.11747  -0.00220   0.00000  -0.00297  -0.00273   3.11475
   D19        1.06924  -0.00063   0.00000   0.00285   0.00292   1.07216
   D20       -1.04066  -0.00010   0.00000   0.01103   0.01111  -1.02955
   D21       -3.10270  -0.00069   0.00000   0.00196   0.00203  -3.10068
   D22       -1.06665  -0.00019   0.00000  -0.00953  -0.00963  -1.07628
   D23        3.10663   0.00034   0.00000  -0.00135  -0.00144   3.10519
   D24        1.04459  -0.00024   0.00000  -0.01043  -0.01052   1.03407
   D25        3.13752   0.00053   0.00000   0.01285   0.01287  -3.13280
   D26        1.02761   0.00106   0.00000   0.02103   0.02106   1.04867
   D27       -1.03443   0.00047   0.00000   0.01195   0.01197  -1.02246
   D28        3.08842  -0.00403   0.00000  -0.07994  -0.07986   3.00855
   D29        0.98541  -0.00131   0.00000  -0.03629  -0.03615   0.94926
   D30       -1.06210   0.00009   0.00000  -0.01699  -0.01689  -1.07898
   D31       -1.04579  -0.00154   0.00000  -0.04718  -0.04724  -1.09303
   D32        3.13439   0.00118   0.00000  -0.00353  -0.00353   3.13087
   D33        1.08688   0.00258   0.00000   0.01577   0.01574   1.10262
   D34        1.03378  -0.00223   0.00000  -0.05489  -0.05499   0.97879
   D35       -1.06922   0.00048   0.00000  -0.01124  -0.01128  -1.08050
   D36       -3.11673   0.00188   0.00000   0.00807   0.00798  -3.10875
   D37        3.10837  -0.00168   0.00000  -0.01376  -0.01318   3.09520
   D38        0.96556   0.00289   0.00000   0.07550   0.07598   1.04154
   D39       -1.07201  -0.00136   0.00000  -0.03447  -0.03439  -1.10640
   D40        3.06835   0.00321   0.00000   0.05479   0.05477   3.12313
   D41        0.98381  -0.00329   0.00000  -0.05653  -0.05704   0.92677
   D42       -1.15901   0.00128   0.00000   0.03273   0.03212  -1.12689
   D43        1.11326  -0.00161   0.00000   0.10287   0.10639   1.21965
   D44       -0.99396   0.00555   0.00000   0.22340   0.22086  -0.77310
   D45       -3.03059  -0.00028   0.00000   0.06088   0.06342  -2.96718
   D46        1.14537   0.00688   0.00000   0.18141   0.17789   1.32326
         Item               Value     Threshold  Converged?
 Maximum Force            0.018585     0.000450     NO 
 RMS     Force            0.003919     0.000300     NO 
 Maximum Displacement     0.219393     0.001800     NO 
 RMS     Displacement     0.071045     0.001200     NO 
 Predicted change in Energy=-6.126668D-03
 GradGradGradGradGradGradGradGradGradGradGradGradGradGradGradGradGradGrad

                          Input orientation:                          
 ---------------------------------------------------------------------
 Center     Atomic      Atomic             Coordinates (Angstroms)
 Number     Number       Type             X           Y           Z
 ---------------------------------------------------------------------
      1          6           0        0.895173   -0.132734    0.084190
      2          6           0        2.418729   -0.030047   -0.080613
      3          6           0        2.942386   -0.161676   -1.528642
      4          6           0        2.414462    0.953546   -2.447561
      5          6           0        4.482486   -0.204196   -1.504462
      6          7           0        5.078624   -0.505931   -2.811713
      7          7           0        6.499161   -0.492140   -2.828088
      8          1           0        0.613937   -0.091237    1.141540
      9          1           0        0.516418   -1.076538   -0.323022
     10          1           0        0.368100    0.683281   -0.417059
     11          1           0        2.882392   -0.822455    0.520759
     12          1           0        2.772715    0.919230    0.343494
     13          1           0        2.600280   -1.127998   -1.921761
     14          1           0        2.741826    1.939087   -2.094856
     15          1           0        1.322955    0.958173   -2.491532
     16          1           0        2.754986    0.832674   -3.480920
     17          1           0        4.798967   -1.006699   -0.828299
     18          1           0        4.866275    0.743914   -1.080511
     19          1           0        4.800668    0.200180   -3.479300
     20          1           0        6.784540   -1.303560   -2.293922
     21          1           0        6.845041    0.323435   -2.316713
 ---------------------------------------------------------------------
                    Distance matrix (angstroms):
                    1          2          3          4          5
     1  C    0.000000
     2  C    1.535880   0.000000
     3  C    2.606367   1.545423   0.000000
     4  C    3.146109   2.563185   1.538452   0.000000
     5  C    3.923995   2.513318   1.540876   2.550789   0.000000
     6  N    5.101646   3.841928   2.515610   3.059484   1.468104
     7  N    6.325758   4.940857   3.801106   4.349664   2.429377
     8  H    1.094899   2.180522   3.543517   4.149109   4.688258
     9  H    1.095464   2.184649   2.859338   3.498210   4.229240
    10  H    1.093132   2.197070   2.928569   2.895440   4.347210
    11  H    2.148336   1.097516   2.154129   3.490567   2.654066
    12  H    2.167725   1.098317   2.168419   2.814163   2.756872
    13  H    2.814565   2.151344   1.097887   2.154952   2.137813
    14  H    3.528571   2.835324   2.184955   1.096750   2.823495
    15  H    2.829738   2.826629   2.191752   1.092402   3.508282
    16  H    4.135327   3.524124   2.198918   1.094714   2.822365
    17  H    4.103176   2.679256   2.156719   3.485748   1.096070
    18  H    4.230212   2.754867   2.173077   2.814988   1.107223
    19  H    5.297375   4.156646   2.718311   2.706663   2.040770
    20  H    6.458397   5.057754   4.080649   4.920947   2.670449
    21  H    6.432212   4.971652   4.010873   4.477074   2.553393
                    6          7          8          9         10
     6  N    0.000000
     7  N    1.420698   0.000000
     8  H    5.977760   7.110171   0.000000
     9  H    5.228088   6.512303   1.767842   0.000000
    10  H    5.416422   6.692128   1.757710   1.768560   0.000000
    11  H    4.003622   4.940131   2.462913   2.524749   3.077078
    12  H    4.159763   5.092867   2.513612   3.085159   2.533039
    13  H    2.705767   4.053026   3.795292   2.626993   3.244608
    14  H    3.457257   4.534982   4.373144   4.145580   3.166485
    15  H    4.043658   5.386073   3.847490   3.081069   2.300163
    16  H    2.763874   4.024943   5.177339   4.316086   3.886745
    17  H    2.064681   2.674806   4.715168   4.312819   4.760014
    18  H    2.145754   2.692242   4.870049   4.775887   4.547244
    19  H    1.010705   1.946346   6.242259   5.472376   5.409100
    20  H    1.953066   1.012510   7.165785   6.574598   6.974299
    21  H    2.013231   1.022888   7.138496   6.781312   6.759359
                   11         12         13         14         15
    11  H    0.000000
    12  H    1.754114   0.000000
    13  H    2.477669   3.058145   0.000000
    14  H    3.806221   2.643221   3.075225   0.000000
    15  H    3.830976   3.184446   2.511634   1.769955   0.000000
    16  H    4.332335   3.825435   2.509810   1.773555   1.745094
    17  H    2.350991   3.031171   2.458576   3.809679   4.325474
    18  H    2.992218   2.538015   3.057203   2.640193   3.819948
    19  H    4.552585   4.386727   3.005277   3.029738   3.693877
    20  H    4.835354   5.290699   4.204445   5.186321   5.914676
    21  H    5.006685   4.900562   4.503403   4.415419   5.561195
                   16         17         18         19         20
    16  H    0.000000
    17  H    3.820675   0.000000
    18  H    3.198028   1.769969   0.000000
    19  H    2.141230   2.912794   2.460515   0.000000
    20  H    4.712724   2.485695   3.056837   2.757191   0.000000
    21  H    4.282902   2.858505   2.370762   2.355050   1.628279
                   21
    21  H    0.000000
 Stoichiometry    C5H14N2
 Framework group  C1[X(C5H14N2)]
 Deg. of freedom    57
 Full point group                 C1      NOp   1
 Largest Abelian subgroup         C1      NOp   1
 Largest concise Abelian subgroup C1      NOp   1
                         Standard orientation:                         
 ---------------------------------------------------------------------
 Center     Atomic      Atomic             Coordinates (Angstroms)
 Number     Number       Type             X           Y           Z
 ---------------------------------------------------------------------
      1          6           0       -3.079416   -0.388022   -0.203971
      2          6           0       -1.669874   -0.765259    0.275417
      3          6           0       -0.525594    0.130632   -0.250259
      4          6           0       -0.670035    1.593758    0.202770
      5          6           0        0.824649   -0.473124    0.181736
      6          7           0        1.983587    0.202050   -0.415200
      7          7           0        3.241943   -0.298453    0.014239
      8          1           0       -3.820705   -1.105643    0.162519
      9          1           0       -3.136247   -0.381877   -1.297943
     10          1           0       -3.388421    0.598052    0.152557
     11          1           0       -1.465325   -1.796303   -0.040255
     12          1           0       -1.643210   -0.773120    1.373382
     13          1           0       -0.554537    0.101263   -1.347372
     14          1           0       -0.637178    1.669950    1.296376
     15          1           0       -1.612171    2.030657   -0.136110
     16          1           0        0.119845    2.232218   -0.205711
     17          1           0        0.865792   -1.514618   -0.157333
     18          1           0        0.877764   -0.492339    1.287517
     19          1           0        1.981466    1.176013   -0.145167
     20          1           0        3.322248   -1.219969   -0.397508
     21          1           0        3.233595   -0.437373    1.027616
 ---------------------------------------------------------------------
 Rotational constants (GHZ):           6.1004174           1.1149647           1.0008869
 Standard basis: 6-31G(2df,p) (6D, 7F)
 There are   287 symmetry adapted cartesian basis functions of A   symmetry.
 There are   266 symmetry adapted basis functions of A   symmetry.
   266 basis functions,   406 primitive gaussians,   287 cartesian basis functions
    29 alpha electrons       29 beta electrons
       nuclear repulsion energy       325.9689871404 Hartrees.
 NAtoms=   21 NActive=   21 NUniq=   21 SFac= 1.00D+00 NAtFMM=   60 NAOKFM=F Big=F
 Integral buffers will be    131072 words long.
 Raffenetti 2 integral format.
 Two-electron integral symmetry is turned on.
 One-electron integrals computed using PRISM.
 PrsmSu:  requested number of processors reduced to:  13 ShMem   1 Linda.
 NBasis=   266 RedAO= T EigKep=  3.49D-04  NBF=   266
 NBsUse=   266 1.00D-06 EigRej= -1.00D+00 NBFU=   266
 Initial guess from the checkpoint file:  "CCCpCpCNN.chk"
 B after Tr=     0.000000   -0.000000    0.000000
         Rot=    0.999942    0.010742    0.000718    0.000990 Ang=   1.24 deg.
 ExpMin= 1.61D-01 ExpMax= 4.17D+03 ExpMxC= 6.27D+02 IAcc=2 IRadAn=         4 AccDes= 0.00D+00
 Harris functional with IExCor=  402 and IRadAn=       4 diagonalized for initial guess.
 HarFok:  IExCor=  402 AccDes= 0.00D+00 IRadAn=         4 IDoV= 1 UseB2=F ITyADJ=14
 ICtDFT=  3500011 ScaDFX=  1.000000  1.000000  1.000000  1.000000
 FoFCou: FMM=F IPFlag=           0 FMFlag=      100000 FMFlg1=           0
         NFxFlg=           0 DoJE=T BraDBF=F KetDBF=T FulRan=T
         wScrn=  0.000000 ICntrl=       500 IOpCl=  0 I1Cent=   200000004 NGrid=           0
         NMat0=    1 NMatS0=      1 NMatT0=    0 NMatD0=    1 NMtDS0=    0 NMtDT0=    0
 Petite list used in FoFCou.
 Requested convergence on RMS density matrix=1.00D-08 within 128 cycles.
 Requested convergence on MAX density matrix=1.00D-06.
 Requested convergence on             energy=1.00D-06.
 No special actions if energy rises.
 Integral accuracy reduced to 1.0D-05 until final iterations.
 Initial convergence to 1.0D-05 achieved.  Increase integral accuracy.
 SCF Done:  E(RB3LYP) =  -308.454733887     A.U. after   10 cycles
            NFock= 10  Conv=0.55D-08     -V/T= 2.0084
 PrsmSu:  requested number of processors reduced to:  13 ShMem   1 Linda.
 Calling FoFJK, ICntrl=      2127 FMM=F ISym2X=0 I1Cent= 0 IOpClX= 0 NMat=1 NMatS=1 NMatT=0.
 ***** Axes restored to original set *****
 -------------------------------------------------------------------
 Center     Atomic                   Forces (Hartrees/Bohr)
 Number     Number              X              Y              Z
 -------------------------------------------------------------------
      1        6           0.001656983    0.000564398   -0.000521186
      2        6          -0.000702937   -0.000917222   -0.000789346
      3        6           0.000321780    0.000471061    0.000228204
      4        6           0.000472846   -0.001186713    0.000156303
      5        6          -0.000368401   -0.001248636   -0.002596776
      6        7          -0.010087794    0.001783088    0.000987813
      7        7           0.002022332    0.000456387   -0.000252460
      8        1           0.000696462   -0.000441521   -0.000014318
      9        1          -0.000062792   -0.000043279   -0.000226276
     10        1          -0.000094385    0.000398260   -0.000900526
     11        1           0.000527946    0.000369458    0.000247190
     12        1          -0.000404534    0.000432142    0.000088500
     13        1          -0.000107228   -0.000025832   -0.001065621
     14        1          -0.000041899    0.000221469   -0.000053890
     15        1          -0.000853906    0.000178155    0.001264965
     16        1           0.000966328   -0.000283435    0.000354983
     17        1           0.000749082    0.000129164    0.001827738
     18        1           0.000886628    0.001063589    0.000522208
     19        1          -0.002659834    0.000229161   -0.003021222
     20        1           0.004599731   -0.002935775    0.000664471
     21        1           0.002483591    0.000786080    0.003099246
 -------------------------------------------------------------------
 Cartesian Forces:  Max     0.010087794 RMS     0.001791835

 GradGradGradGradGradGradGradGradGradGradGradGradGradGradGradGradGradGrad
 Berny optimization.
 Using GEDIIS/GDIIS optimizer.
 FormGI is forming the generalized inverse of G from B-inverse, IUseBI=4.
 Internal  Forces:  Max     0.009047910 RMS     0.001597239
 Search for a local minimum.
 Step number   2 out of a maximum of  112
 All quantities printed in internal units (Hartrees-Bohrs-Radians)
 Mixed Optimization -- RFO/linear search
 Update second derivatives using D2CorX and points    1    2
 DE= -4.68D-03 DEPred=-6.13D-03 R= 7.64D-01
 TightC=F SS=  1.41D+00  RLast= 4.29D-01 DXNew= 5.0454D-01 1.2866D+00
 Trust test= 7.64D-01 RLast= 4.29D-01 DXMaxT set to 5.05D-01
 ITU=  1  0
 Use linear search instead of GDIIS.
     Eigenvalues ---    0.00230   0.00235   0.00309   0.00454   0.00755
     Eigenvalues ---    0.00784   0.03228   0.03312   0.03426   0.04063
     Eigenvalues ---    0.04548   0.04771   0.04996   0.05345   0.05390
     Eigenvalues ---    0.05419   0.05427   0.05575   0.06133   0.08795
     Eigenvalues ---    0.09494   0.11913   0.12553   0.12937   0.15913
     Eigenvalues ---    0.16000   0.16000   0.16000   0.16000   0.16000
     Eigenvalues ---    0.16000   0.16489   0.16996   0.17243   0.21919
     Eigenvalues ---    0.22425   0.24332   0.27952   0.28279   0.29120
     Eigenvalues ---    0.30286   0.33720   0.33848   0.33966   0.33978
     Eigenvalues ---    0.34011   0.34233   0.34303   0.34376   0.34414
     Eigenvalues ---    0.34467   0.34509   0.35648   0.41830   0.43656
     Eigenvalues ---    0.44109   0.46425
 RFO step:  Lambda=-1.73099964D-03 EMin= 2.29996260D-03
 Quartic linear search produced a step of -0.11168.
 Iteration  1 RMS(Cart)=  0.05129500 RMS(Int)=  0.00262196
 Iteration  2 RMS(Cart)=  0.00248091 RMS(Int)=  0.00007786
 Iteration  3 RMS(Cart)=  0.00000504 RMS(Int)=  0.00007778
 Iteration  4 RMS(Cart)=  0.00000000 RMS(Int)=  0.00007778
 Variable       Old X    -DE/DX   Delta X   Delta X   Delta X     New X
                                 (Linear)    (Quad)   (Total)
    R1        2.90239  -0.00239  -0.00257  -0.00327  -0.00584   2.89655
    R2        2.06906  -0.00021  -0.00023  -0.00021  -0.00044   2.06862
    R3        2.07013   0.00014  -0.00022   0.00067   0.00045   2.07058
    R4        2.06572   0.00076   0.00009   0.00178   0.00187   2.06759
    R5        2.92043  -0.00250  -0.00028  -0.00729  -0.00757   2.91286
    R6        2.07400   0.00009  -0.00002   0.00026   0.00024   2.07424
    R7        2.07552   0.00028  -0.00027   0.00108   0.00081   2.07633
    R8        2.90725  -0.00199  -0.00083  -0.00477  -0.00560   2.90165
    R9        2.91183  -0.00236   0.00111  -0.00887  -0.00776   2.90408
   R10        2.07471   0.00044   0.00014   0.00093   0.00107   2.07577
   R11        2.07256   0.00017  -0.00036   0.00093   0.00057   2.07313
   R12        2.06434   0.00080   0.00007   0.00192   0.00199   2.06633
   R13        2.06871  -0.00000  -0.00036   0.00050   0.00014   2.06885
   R14        2.77431  -0.00286   0.00055  -0.00773  -0.00717   2.76714
   R15        2.07127   0.00125   0.00033   0.00273   0.00305   2.07433
   R16        2.09235   0.00142  -0.00201   0.00644   0.00443   2.09678
   R17        2.68473   0.00905   0.00351   0.01472   0.01823   2.70296
   R18        1.90996   0.00289   0.00243   0.00230   0.00473   1.91469
   R19        1.91337   0.00400   0.00164   0.00555   0.00718   1.92055
   R20        1.93298   0.00302   0.00027   0.00561   0.00588   1.93886
    A1        1.93466  -0.00074  -0.00077  -0.00227  -0.00304   1.93162
    A2        1.93980   0.00009  -0.00073   0.00049  -0.00024   1.93956
    A3        1.95971  -0.00030  -0.00105   0.00032  -0.00072   1.95900
    A4        1.87845   0.00025   0.00147  -0.00163  -0.00016   1.87828
    A5        1.86573   0.00080   0.00010   0.00608   0.00619   1.87192
    A6        1.88177  -0.00003   0.00113  -0.00290  -0.00177   1.88000
    A7        2.01636  -0.00250  -0.00467  -0.00378  -0.00845   2.00791
    A8        1.88810   0.00109   0.00026   0.00706   0.00729   1.89539
    A9        1.91353   0.00036  -0.00115  -0.00094  -0.00210   1.91143
   A10        1.88469   0.00068   0.00296   0.00043   0.00343   1.88812
   A11        1.90309   0.00095   0.00180  -0.00094   0.00091   1.90400
   A12        1.85072  -0.00044   0.00122  -0.00159  -0.00033   1.85039
   A13        1.96237  -0.00082  -0.00297  -0.00060  -0.00356   1.95880
   A14        1.90320   0.00048   0.00109   0.00129   0.00242   1.90562
   A15        1.88061   0.00043   0.00063   0.00456   0.00522   1.88584
   A16        1.95234   0.00021  -0.00092   0.00115   0.00024   1.95258
   A17        1.89360  -0.00005  -0.00018  -0.00267  -0.00286   1.89074
   A18        1.86793  -0.00021   0.00258  -0.00379  -0.00120   1.86672
   A19        1.93572   0.00037  -0.00043   0.00084   0.00041   1.93613
   A20        1.94979  -0.00075   0.00001  -0.00339  -0.00337   1.94641
   A21        1.95740  -0.00091  -0.00033  -0.00330  -0.00363   1.95377
   A22        1.88323  -0.00006   0.00094  -0.00380  -0.00287   1.88037
   A23        1.88592   0.00014   0.00049  -0.00111  -0.00063   1.88530
   A24        1.84760   0.00128  -0.00063   0.01115   0.01052   1.85812
   A25        1.97965  -0.00310  -0.00358  -0.00648  -0.00999   1.96965
   A26        1.89492   0.00084   0.00087   0.00413   0.00499   1.89991
   A27        1.90586   0.00125   0.00037   0.00305   0.00354   1.90940
   A28        1.85624   0.00148   0.00523   0.00231   0.00751   1.86375
   A29        1.95647   0.00058  -0.00371   0.00439   0.00073   1.95720
   A30        1.86571  -0.00093   0.00122  -0.00757  -0.00639   1.85932
   A31        1.99795  -0.00372  -0.00734  -0.00058  -0.00798   1.98997
   A32        1.91016   0.00018   0.00164   0.00073   0.00225   1.91241
   A33        1.83443   0.00267   0.01077   0.00543   0.01615   1.85057
   A34        1.84207   0.00582   0.01188   0.01721   0.02932   1.87139
   A35        1.91780   0.00194   0.00577   0.00509   0.01107   1.92887
   A36        1.85451  -0.00248   0.00172  -0.01024  -0.00802   1.84649
    D1        3.08086  -0.00006   0.00314  -0.01053  -0.00738   3.07348
    D2        0.96673  -0.00009   0.00224  -0.01388  -0.01161   0.95511
    D3       -1.04407  -0.00036   0.00127  -0.01536  -0.01411  -1.05817
    D4        0.99258   0.00006   0.00227  -0.00729  -0.00502   0.98757
    D5       -1.12155   0.00003   0.00138  -0.01064  -0.00925  -1.13079
    D6       -3.13235  -0.00024   0.00041  -0.01213  -0.01174   3.13910
    D7       -1.11691   0.00024   0.00206  -0.00414  -0.00208  -1.11899
    D8        3.05214   0.00021   0.00117  -0.00749  -0.00631   3.04583
    D9        1.04135  -0.00006   0.00019  -0.00897  -0.00880   1.03254
   D10        1.08109  -0.00030  -0.00474   0.03537   0.03063   1.11172
   D11       -3.02636  -0.00026  -0.00718   0.03739   0.03021  -2.99615
   D12       -1.00471  -0.00002  -0.00316   0.03606   0.03290  -0.97182
   D13       -3.08612  -0.00003  -0.00536   0.04230   0.03697  -3.04916
   D14       -0.91038   0.00000  -0.00780   0.04432   0.03655  -0.87384
   D15        1.11126   0.00024  -0.00379   0.04299   0.03923   1.15049
   D16       -1.08264   0.00030  -0.00127   0.04017   0.03887  -1.04377
   D17        1.09310   0.00034  -0.00371   0.04219   0.03845   1.13155
   D18        3.11475   0.00058   0.00030   0.04085   0.04114  -3.12730
   D19        1.07216   0.00010  -0.00033   0.01597   0.01563   1.08779
   D20       -1.02955   0.00042  -0.00124   0.02252   0.02126  -1.00829
   D21       -3.10068  -0.00009  -0.00023   0.01286   0.01262  -3.08806
   D22       -1.07628  -0.00007   0.00108   0.01385   0.01494  -1.06134
   D23        3.10519   0.00025   0.00016   0.02040   0.02057   3.12576
   D24        1.03407  -0.00026   0.00118   0.01074   0.01193   1.04599
   D25       -3.13280   0.00009  -0.00144   0.01950   0.01807  -3.11473
   D26        1.04867   0.00042  -0.00235   0.02605   0.02370   1.07237
   D27       -1.02246  -0.00009  -0.00134   0.01640   0.01506  -1.00740
   D28        3.00855   0.00067   0.00892  -0.03164  -0.02273   2.98582
   D29        0.94926   0.00015   0.00404  -0.03333  -0.02931   0.91995
   D30       -1.07898   0.00012   0.00189  -0.02827  -0.02640  -1.10538
   D31       -1.09303   0.00011   0.00528  -0.03066  -0.02538  -1.11841
   D32        3.13087  -0.00041   0.00039  -0.03235  -0.03196   3.09891
   D33        1.10262  -0.00044  -0.00176  -0.02729  -0.02905   1.07357
   D34        0.97879   0.00004   0.00614  -0.03563  -0.02947   0.94931
   D35       -1.08050  -0.00048   0.00126  -0.03732  -0.03605  -1.11655
   D36       -3.10875  -0.00052  -0.00089  -0.03226  -0.03314   3.14130
   D37        3.09520   0.00055   0.00147   0.02008   0.02149   3.11669
   D38        1.04154  -0.00060  -0.00849   0.01305   0.00452   1.04606
   D39       -1.10640   0.00077   0.00384   0.02295   0.02677  -1.07963
   D40        3.12313  -0.00038  -0.00612   0.01592   0.00980   3.13292
   D41        0.92677   0.00084   0.00637   0.01756   0.02398   0.95075
   D42       -1.12689  -0.00031  -0.00359   0.01053   0.00701  -1.11988
   D43        1.21965   0.00207  -0.01188   0.17565   0.16350   1.38316
   D44       -0.77310   0.00101  -0.02466   0.17620   0.15169  -0.62141
   D45       -2.96718   0.00198  -0.00708   0.17993   0.17269  -2.79449
   D46        1.32326   0.00091  -0.01987   0.18047   0.16087   1.48413
         Item               Value     Threshold  Converged?
 Maximum Force            0.009048     0.000450     NO 
 RMS     Force            0.001597     0.000300     NO 
 Maximum Displacement     0.220704     0.001800     NO 
 RMS     Displacement     0.051332     0.001200     NO 
 Predicted change in Energy=-1.029788D-03
 GradGradGradGradGradGradGradGradGradGradGradGradGradGradGradGradGradGrad

                          Input orientation:                          
 ---------------------------------------------------------------------
 Center     Atomic      Atomic             Coordinates (Angstroms)
 Number     Number       Type             X           Y           Z
 ---------------------------------------------------------------------
      1          6           0        0.902085   -0.163516    0.073608
      2          6           0        2.419025   -0.007319   -0.081123
      3          6           0        2.944726   -0.138898   -1.524140
      4          6           0        2.408931    0.970146   -2.441021
      5          6           0        4.481002   -0.170320   -1.501025
      6          7           0        5.062691   -0.501521   -2.803386
      7          7           0        6.492956   -0.506074   -2.817966
      8          1           0        0.615473   -0.126607    1.129445
      9          1           0        0.560753   -1.123573   -0.329313
     10          1           0        0.349598    0.628661   -0.440505
     11          1           0        2.914017   -0.769399    0.534537
     12          1           0        2.731752    0.963204    0.328185
     13          1           0        2.610459   -1.106985   -1.921213
     14          1           0        2.741777    1.957478   -2.097637
     15          1           0        1.315776    0.977075   -2.465606
     16          1           0        2.741722    0.841633   -3.476054
     17          1           0        4.809428   -0.948546   -0.800015
     18          1           0        4.863431    0.793058   -1.105060
     19          1           0        4.778108    0.189260   -3.487806
     20          1           0        6.795237   -1.386789   -2.410714
     21          1           0        6.861173    0.227343   -2.202182
 ---------------------------------------------------------------------
                    Distance matrix (angstroms):
                    1          2          3          4          5
     1  C    0.000000
     2  C    1.532791   0.000000
     3  C    2.593413   1.541419   0.000000
     4  C    3.143109   2.554341   1.535489   0.000000
     5  C    3.910009   2.508873   1.536771   2.545139   0.000000
     6  N    5.069713   3.826738   2.500748   3.056068   1.464308
     7  N    6.303681   4.933151   3.794567   4.358964   2.427966
     8  H    1.094669   2.175432   3.530876   4.143379   4.675853
     9  H    1.095702   2.181925   2.842627   3.501247   4.201185
    10  H    1.094119   2.194573   2.915150   2.891285   4.339536
    11  H    2.151145   1.097643   2.153283   3.483544   2.637774
    12  H    2.163790   1.098748   2.165894   2.787967   2.773223
    13  H    2.790697   2.152172   1.098451   2.150648   2.133736
    14  H    3.549281   2.833890   2.182861   1.097052   2.812183
    15  H    2.814195   2.805700   2.187517   1.093454   3.502226
    16  H    4.122462   3.514316   2.193769   1.094788   2.819553
    17  H    4.080052   2.667722   2.158009   3.483772   1.097686
    18  H    4.242235   2.768424   2.173844   2.800128   1.109567
    19  H    5.275574   4.148422   2.706466   2.705280   2.040800
    20  H    6.511336   5.145985   4.143631   4.979532   2.768215
    21  H    6.390832   4.928148   3.991545   4.520095   2.512961
                    6          7          8          9         10
     6  N    0.000000
     7  N    1.430346   0.000000
     8  H    5.948569   7.090194   0.000000
     9  H    5.174498   6.462641   1.767742   0.000000
    10  H    5.392009   6.684369   1.762346   1.768410   0.000000
    11  H    3.978730   4.910949   2.459757   2.531705   3.079208
    12  H    4.169585   5.118955   2.511641   3.082236   2.525363
    13  H    2.675492   4.029769   3.774603   2.595326   3.211924
    14  H    3.454185   4.545250   4.390745   4.168539   3.199119
    15  H    4.042241   5.396951   3.825301   3.089745   2.270666
    16  H    2.764677   4.039943   5.164209   4.303562   3.870681
    17  H    2.068204   2.664990   4.689101   4.278252   4.744145
    18  H    2.144750   2.697618   4.887120   4.773709   4.565451
    19  H    1.013210   1.967962   6.224654   5.430073   5.393590
    20  H    1.984845   1.016311   7.232584   6.578017   7.034915
    21  H    2.031558   1.026000   7.087580   6.710284   6.757601
                   11         12         13         14         15
    11  H    0.000000
    12  H    1.754342   0.000000
    13  H    2.497363   3.059443   0.000000
    14  H    3.793925   2.621697   3.072346   0.000000
    15  H    3.821702   3.132163   2.513140   1.769201   0.000000
    16  H    4.325501   3.806194   2.496372   1.773456   1.752904
    17  H    2.325018   3.040455   2.473389   3.795258   4.322940
    18  H    2.988271   2.574334   3.058129   2.615817   3.804051
    19  H    4.535759   4.398676   2.972064   3.034108   3.695036
    20  H    4.911165   5.434699   4.222591   5.264283   5.967861
    21  H    4.905423   4.898609   4.464073   4.469197   5.602046
                   16         17         18         19         20
    16  H    0.000000
    17  H    3.826400   0.000000
    18  H    3.182078   1.768942   0.000000
    19  H    2.138363   2.918870   2.459538   0.000000
    20  H    4.746767   2.594194   3.191918   2.777205   0.000000
    21  H    4.355454   2.749263   2.348337   2.448150   1.628882
                   21
    21  H    0.000000
 Stoichiometry    C5H14N2
 Framework group  C1[X(C5H14N2)]
 Deg. of freedom    57
 Full point group                 C1      NOp   1
 Largest Abelian subgroup         C1      NOp   1
 Largest concise Abelian subgroup C1      NOp   1
                         Standard orientation:                         
 ---------------------------------------------------------------------
 Center     Atomic      Atomic             Coordinates (Angstroms)
 Number     Number       Type             X           Y           Z
 ---------------------------------------------------------------------
      1          6           0       -3.060810   -0.408838   -0.237862
      2          6           0       -1.666067   -0.759326    0.292514
      3          6           0       -0.524720    0.133394   -0.233177
      4          6           0       -0.681398    1.596048    0.207073
      5          6           0        0.823138   -0.456777    0.210266
      6          7           0        1.968226    0.206706   -0.416441
      7          7           0        3.237338   -0.302022    0.003608
      8          1           0       -3.803723   -1.126430    0.124687
      9          1           0       -3.084222   -0.432039   -1.333068
     10          1           0       -3.387396    0.585481    0.081150
     11          1           0       -1.439885   -1.798901    0.022429
     12          1           0       -1.671841   -0.725747    1.390733
     13          1           0       -0.543823    0.099078   -1.330926
     14          1           0       -0.640657    1.682926    1.299921
     15          1           0       -1.635253    2.014953   -0.125074
     16          1           0        0.101463    2.235799   -0.212935
     17          1           0        0.864578   -1.511724   -0.090209
     18          1           0        0.885697   -0.441318    1.317960
     19          1           0        1.966216    1.190030   -0.172178
     20          1           0        3.400895   -1.163836   -0.509632
     21          1           0        3.208137   -0.568067    0.994084
 ---------------------------------------------------------------------
 Rotational constants (GHZ):           6.0569141           1.1202664           1.0061896
 Standard basis: 6-31G(2df,p) (6D, 7F)
 There are   287 symmetry adapted cartesian basis functions of A   symmetry.
 There are   266 symmetry adapted basis functions of A   symmetry.
   266 basis functions,   406 primitive gaussians,   287 cartesian basis functions
    29 alpha electrons       29 beta electrons
       nuclear repulsion energy       326.2167144303 Hartrees.
[...]
 001301,-0.00005430,-0.00180421,0.00109349,-0.00139595,0.01445936,-0.01
 996381,0.01540696,-0.10263399,0.19141898,-0.06593203,0.09125866,-0.110
 52215,0.00101820,-0.00309545,0.00156919,-0.00022146,-0.00060194,0.0000
 9470,0.00066483,0.00034631,-0.00051539,0.00006579,0.00013372,0.0000554
 2,-0.00004795,0.00004153,-0.00007942,-0.00004632,-0.00000738,0.0000691
 6,-0.01602580,0.02315210,-0.01516090,0.00703439,-0.00901800,0.00599189
 ,0.07215015,-0.10216681,0.11891579,-0.01925301,0.02359828,-0.01844720,
 -0.09830667,0.07786208,-0.06710603,0.00325148,-0.00705470,0.00592584,-
 0.00075027,0.00020330,0.00216184,0.00049269,-0.00096536,0.00161398,0.0
 0017748,-0.00017503,-0.00002549,0.00002485,0.00000833,-0.00011106,0.00
 140886,0.00018949,0.00039652,0.00140660,-0.00042733,-0.00029064,-0.006
 62029,-0.00162069,0.00085055,0.11423992,-0.00263384,0.00341293,-0.0029
 6408,0.07763939,-0.16521465,0.09722027,-0.00151677,0.00165492,-0.00258
 366,0.00004085,0.00084004,0.00003680,0.00046238,-0.00004618,-0.0001745
 0,-0.00046647,0.00028698,-0.00034886,-0.00005620,-0.00000426,0.0000398
 2,0.00059155,0.00015732,-0.00030285,0.00048990,0.00076521,-0.00026126,
 -0.00138911,0.00137256,-0.00029485,-0.08632250,0.17573791,0.00203312,-
 0.00224881,0.00167358,-0.06658943,0.09610891,-0.12892940,-0.01264416,0
 .02309553,-0.02029713,0.00330574,-0.00278760,-0.00525205,-0.00196051,0
 .00149145,0.00002015,0.00003212,-0.00041935,0.00059188,0.00000379,-0.0
 0005517,0.00009474,-0.00024985,-0.00043611,0.00071918,-0.00028494,0.00
 007590,-0.00012949,0.00114959,0.00004797,0.00088050,0.06956586,-0.1073
 8769,0.14346587,-0.01076719,-0.03175920,-0.01146196,-0.06196823,-0.054
 49854,-0.02148465,0.00204070,0.00979672,0.00380232,0.00000621,-0.00010
 018,-0.00059131,0.00094330,0.00100164,0.00007737,-0.00024572,-0.000135
 94,0.00004716,-0.00000016,-0.00006957,-0.00004282,0.00129737,0.0003274
 8,0.00036018,-0.00684847,-0.00078874,0.00081717,0.00161219,0.00057129,
 -0.00047918,0.00361139,0.01354929,0.00555709,0.07079240,-0.00087975,-0
 .00327141,-0.00099427,-0.05537082,-0.25103250,-0.07663451,-0.00072248,
 -0.00451212,-0.00190589,0.00026715,0.00098343,0.00072568,-0.00067667,-
 0.00065494,-0.00013440,0.00024493,0.00054075,0.00042234,0.00014659,-0.
 00003912,-0.00013077,-0.00034921,0.00008373,0.00043424,-0.00061974,0.0
 0160977,0.00038804,-0.00034856,0.00088736,-0.00001406,-0.00534215,-0.0
 2057081,-0.00751383,0.06249620,0.27313534,0.00078694,0.00288154,0.0008
 5444,-0.02187812,-0.07614331,-0.07740575,-0.00732939,-0.02988663,-0.01
 383304,-0.00051797,-0.00150896,0.00196724,-0.00181901,-0.00070727,0.00
 026763,0.00035729,0.00041355,0.00018790,0.00011752,0.00020201,-0.00001
 460,-0.00040273,0.00035087,0.00030232,0.00089692,-0.00006526,0.0007954
 2,-0.00012673,-0.00041770,0.00004962,0.00486120,0.01686910,0.00641777,
 0.02130013,0.08663643,0.08565130,0.00101162,0.00122470,0.00000349,0.00
 245617,0.01022545,0.00524477,-0.07069409,-0.06662192,-0.02754554,0.003
 40192,0.01116239,0.00343703,-0.01544162,-0.03123073,-0.01317926,0.0026
 7193,0.00024129,-0.00049693,-0.00009738,0.00067345,0.00015657,0.000126
 48,-0.00008353,-0.00014238,0.00006421,-0.00035112,-0.00008520,-0.00003
 232,0.00003072,0.00004373,0.00010673,-0.00029640,-0.00046634,-0.000375
 82,0.00061954,0.00251649,0.08109071,-0.00018608,0.00023370,0.00055799,
 -0.00115184,-0.00381467,-0.00213692,-0.06754653,-0.23928147,-0.0767411
 2,-0.00705521,-0.02361663,-0.00696768,-0.00056525,-0.00090600,-0.00049
 621,0.00062446,0.00037908,0.00034201,-0.00003137,0.00040367,0.00039996
 ,0.00012029,0.00036501,0.00014500,0.00079781,0.00032919,-0.00022731,-0
 .00002357,0.00003501,-0.00000146,0.00010542,0.00054852,-0.00049694,0.0
 0002708,0.00133663,-0.00052086,0.07286356,0.26313130,-0.00158367,-0.00
 040902,0.00146149,-0.00807364,-0.02827336,-0.01440572,-0.02814657,-0.0
 7772260,-0.07816574,0.00609832,0.01992036,0.00589429,-0.00069058,-0.00
 125345,-0.00091450,0.00019477,0.00080762,0.00057541,0.00012769,-0.0000
 0180,0.00012922,-0.00027981,0.00040643,0.00021586,0.00089522,0.0007001
 5,0.00020255,0.00019322,0.00005212,0.00000339,-0.00047757,0.00044599,0
 .00089118,0.00200997,-0.00054415,-0.00566303,0.03099856,0.08350179,0.0
 9031429,-0.00019308,0.00015130,0.00019208,0.00003886,-0.00056134,0.000
 20552,0.00312583,0.01074351,0.00377646,-0.07749716,-0.07834506,-0.0263
 0379,0.00140455,0.00133063,0.00107096,-0.00008986,-0.00022983,-0.00013
 635,-0.00003117,-0.00004464,-0.00005649,0.00006639,-0.00006239,0.00009
 792,-0.00001072,0.00012908,-0.00007026,0.00000042,-0.00019651,-0.00006
 278,-0.00005363,0.00003467,0.00017921,0.00015849,-0.00019578,0.0001824
 0,-0.00009551,0.00213478,-0.00155840,0.08015359,-0.00003560,0.00004304
 ,0.00023377,-0.00006020,0.00052124,-0.00158285,-0.00821608,-0.02422498
 ,-0.00736608,-0.07822382,-0.24785721,-0.06866342,-0.00171421,0.0003823
 0,-0.00107580,0.00038671,0.00028832,0.00023061,0.00010943,0.00006449,-
 0.00009866,-0.00005564,0.00000322,0.00005557,0.00016813,0.00010516,-0.
 00007254,-0.00006300,-0.00009880,-0.00002924,0.00017653,0.00044686,0.0
 0009007,-0.00009279,0.00063179,0.00104623,0.00216300,-0.00263596,0.003
 93474,0.08530235,0.27445234,0.00008962,-0.00010647,-0.00007738,0.00036
 661,0.00098548,0.00187181,0.00741835,0.01846527,0.00545396,-0.02624511
 ,-0.06859071,-0.07083830,0.00088692,-0.00022722,0.00096471,0.00018143,
 -0.00002720,-0.00015392,-0.00005277,0.00004973,0.00006840,0.00003828,-
 0.00001789,-0.00002066,-0.00011136,-0.00007586,0.00001703,0.00002570,-
 0.00000955,-0.00001021,-0.00010123,-0.00031308,0.00016900,-0.00015658,
 -0.00055953,-0.00014792,-0.00149026,0.00333502,-0.00196180,0.03038576,
 0.07356977,0.07364817,-0.00054895,0.00011695,0.00077486,-0.00057110,0.
 00000611,0.00069919,-0.01018971,-0.00030974,-0.00046287,-0.31092606,0.
 00637305,0.00244795,0.00099616,0.00240597,-0.00121909,0.00031979,-0.00
 007312,-0.00020581,-0.00019635,-0.00000499,0.00025894,0.00035731,-0.00
 023497,0.00023337,0.00002629,-0.00005275,-0.00002319,0.00049040,-0.000
 80822,0.00105942,0.00008800,-0.00004621,-0.00008443,0.00000546,0.00000
 799,-0.00008716,0.00046342,0.00042980,0.00004618,-0.01001413,0.0004532
 0,0.00072215,0.33932763,-0.00012659,0.00009253,0.00020039,-0.00020951,
 0.00089693,-0.00077545,0.02562154,-0.00034519,-0.00099173,0.00559018,-
 0.04665194,-0.00054048,-0.00001185,-0.00384799,0.00323609,-0.00020631,
 0.00018967,0.00040275,0.00016002,0.00004088,-0.00032467,-0.00014578,-0
 .00000544,-0.00014116,-0.00003504,-0.00023876,0.00007040,-0.00024955,0
 .00029137,0.00042564,-0.00000097,-0.00004991,-0.00026983,-0.00013796,0
 .00001994,0.00010498,-0.00033368,0.00067441,-0.00084373,-0.02938221,0.
 00113236,0.00144756,-0.00799937,0.04843285,-0.00017215,0.00087064,-0.0
 0069528,-0.00062085,-0.00069122,0.00074944,-0.02086714,-0.00097005,0.0
 0009023,0.00414989,-0.00051225,-0.04506442,-0.00022233,0.00360186,-0.0
 0323764,0.00029376,0.00018288,-0.00034960,-0.00004305,-0.00024868,0.00
 038948,0.00015909,-0.00029372,0.00020129,0.00006264,-0.00009999,0.0000
 6029,0.00122117,0.00016270,-0.00139579,0.00015921,-0.00005699,0.000270
 42,0.00002087,-0.00002399,-0.00015267,0.00064479,-0.00028971,0.0005442
 2,-0.01068265,0.00044831,-0.00059446,-0.00429213,-0.00219231,0.0491127
 1,-0.00026421,0.00032253,0.00005956,-0.00114087,0.00181154,-0.00101128
 ,0.00311149,-0.00299233,-0.01155322,-0.06708646,0.01111476,0.07081239,
 0.00050413,-0.00086207,-0.00019602,-0.00106121,0.00039406,-0.00005996,
 0.00000203,0.00007992,0.00002791,0.00020929,-0.00016998,0.00014433,0.0
 0006221,-0.00009131,0.00003350,0.00050993,-0.00028080,-0.00004731,0.00
 030771,0.00023564,-0.00068776,-0.00009567,0.00011915,0.00023414,0.0002
 9571,-0.00035832,0.00057962,0.00281157,-0.00143306,-0.01192123,-0.0092
 9623,0.00584073,0.03163867,0.07328156,0.00043863,0.00005822,-0.0000071
 6,0.00270016,-0.00389589,0.00193224,-0.00872882,0.00415466,0.02380972,
 0.01144913,-0.05306378,-0.03956456,-0.00055792,0.00078544,-0.00052366,
 0.00016054,0.00024854,-0.00027519,0.00014157,-0.00034203,-0.00015854,-
 0.00008651,0.00002917,-0.00001744,-0.00003661,-0.00000754,-0.00002490,
 -0.00017312,0.00002555,-0.00011334,-0.00032578,0.00019581,0.00166916,0
 .00014654,0.00023615,0.00027449,-0.00068509,0.00101371,-0.00058198,0.0
 0972708,-0.00397690,-0.02695561,-0.00025264,-0.00084778,-0.00012180,-0
 .01466544,0.05491391,-0.00050654,-0.00009402,0.00014715,-0.00247242,0.
 00387986,-0.00061589,0.00568884,-0.00421687,-0.01735553,0.07038849,-0.
 03810537,-0.28065385,0.00120738,-0.00044842,-0.00111750,0.00047772,0.0
 0032326,-0.00016400,-0.00001097,-0.00037028,0.00053610,0.00009834,-0.0
 0001289,-0.00001434,0.00006605,0.00007399,-0.00001268,0.00002056,-0.00
 008770,0.00009151,0.00062152,0.00010018,-0.00135145,-0.00004567,-0.000
 00305,0.00043055,0.00017918,0.00024067,0.00087328,0.00279689,-0.001112
 12,-0.00828138,0.00031819,-0.00026359,-0.00053401,-0.07808593,0.040445
 56,0.30643345,0.00016105,-0.00034651,0.00010107,0.00068684,0.00102665,
 -0.00207885,-0.01140212,0.02494094,-0.01894314,-0.00645103,-0.00143125
 ,0.00128727,-0.06874672,0.05367672,-0.04813106,0.00262115,-0.00759129,
 0.01231329,0.00232170,-0.00150615,-0.00036765,0.00001128,-0.00003580,0
 .00002796,-0.00003107,0.00001047,-0.00003596,0.00028639,-0.00003695,-0
 .00005286,-0.00007140,-0.00046134,0.00121153,-0.00001864,-0.00007314,0
 .00016690,0.00129836,-0.00046030,-0.00007279,0.00010110,0.00001031,0.0
 0023612,-0.00079369,0.00152857,-0.00141845,0.00018768,-0.00018451,-0.0
 0004886,0.07727283,-0.00000013,0.00032816,-0.00046828,-0.00022568,-0.0
 0028046,0.00061013,-0.00079726,-0.00091500,-0.00035301,0.00065135,0.00
 093033,-0.00016239,0.05487144,-0.18558786,0.11305585,-0.00216587,0.008
 34505,-0.00486266,-0.00091273,0.00147760,-0.00104924,0.00009820,-0.000
 00140,-0.00003067,-0.00000884,-0.00003372,0.00001330,-0.00023387,0.000
 01171,0.00001264,0.00019550,0.00050336,-0.00076371,-0.00000202,0.00007
 362,0.00007701,0.00037619,0.00083849,-0.00020616,-0.00023555,0.0005636
 0,-0.00016624,0.00011617,0.00010530,0.00039414,0.00007282,-0.00004093,
 0.00005105,-0.05987947,0.19575407,-0.00008205,-0.00024802,0.00015186,0
 .00135032,-0.00079310,0.00035300,-0.00128806,0.00131557,-0.00127581,0.
 00023606,-0.00074287,0.00044311,-0.04417981,0.10741923,-0.13656043,-0.
 00946966,0.02183634,-0.03311746,-0.00170209,-0.00060808,0.00292429,-0.
 00001460,-0.00001086,0.00000840,-0.00004281,0.00000585,-0.00002049,0.0
 0013318,-0.00005288,-0.00000858,0.00041784,-0.00003118,0.00047377,0.00
 006048,-0.00010712,0.00002362,-0.00009834,-0.00005716,-0.00006149,0.00
 000562,0.00017684,-0.00002702,0.00014524,0.00015103,0.00007606,0.00013
 122,0.00000113,0.00014345,0.04650932,-0.12088341,0.16448003,-0.0000742
 5,0.00020258,0.00019768,0.00111321,-0.00085174,-0.00163266,-0.01371279
 ,-0.02969898,-0.01064242,0.00192132,-0.00168821,0.00061467,-0.07771010
 ,-0.06540254,-0.02472557,0.00068880,0.01190350,0.00877627,0.00652031,0
 .00321633,0.00194991,-0.00008064,0.00008721,0.00009093,0.00024011,0.00
 019995,0.00002179,0.00000164,0.00000417,-0.00001909,-0.00005024,0.0000
 2501,0.00019891,-0.00012690,0.00071282,0.00074941,-0.00656789,0.000186
 57,-0.00030666,0.00007738,0.00122070,-0.00007090,0.00028800,0.00029767
 ,0.00033797,-0.00007134,0.00007030,-0.00012926,0.00372825,0.00803495,0
 .00215859,0.08346206,-0.00005590,0.00041812,0.00035100,0.00013360,-0.0
 0026740,-0.00020840,0.00023662,-0.00183586,-0.00008085,0.00044872,0.00
 107274,0.00028394,-0.06781917,-0.21521333,-0.05571842,0.00044697,-0.00
 390763,-0.01390210,-0.00030774,0.00235844,0.00149574,-0.00011533,-0.00
 002439,0.00002897,0.00023878,0.00001576,-0.00005310,-0.00000550,-0.000
 00265,-0.00000409,-0.00006582,-0.00003602,-0.00013451,-0.00032235,0.00
 059101,0.00051897,0.00005834,0.00129339,0.00001959,-0.00049332,0.00061
 228,-0.00044735,-0.00006522,0.00026469,0.00007111,0.00010704,-0.000004
 93,0.00016437,-0.00961586,-0.02216026,-0.00684402,0.07413132,0.2364994
 5,-0.00004728,0.00020525,0.00009250,-0.00004184,0.00023807,0.00036562,
 -0.00126392,-0.00143136,-0.00002528,0.00009645,-0.00092292,-0.00032980
 ,-0.02553491,-0.05718328,-0.07004622,-0.00258779,-0.03470474,-0.028411
 59,-0.00571088,0.00167689,0.00099546,-0.00002646,0.00000695,-0.0000021
 2,0.00009719,-0.00002206,-0.00008153,-0.00002026,-0.00000934,0.0000033
 9,-0.00010144,0.00012372,0.00010172,0.00021053,0.00000716,0.00033249,0
 .00023887,-0.00030822,0.00029004,-0.00019060,0.00039741,0.00003540,0.0
 0010625,0.00023358,0.00010029,0.00001378,-0.00005861,0.00014949,0.0062
 8168,0.01626635,0.00693211,0.02601598,0.07472025,0.08597528,-0.0000325
 7,0.00001125,-0.00009805,-0.00018471,0.00016377,0.00006328,0.00106126,
 -0.00074163,0.00040993,-0.00070302,0.00066642,0.00169170,0.00613371,-0
 .01185594,0.00788846,-0.06372201,0.06068782,-0.04487040,-0.02983747,0.
 03268458,-0.02229174,0.00000890,0.00002686,-0.00004014,-0.00001417,-0.
 00001233,0.00001437,-0.00012892,0.00002335,0.00003805,0.00001956,0.000
 15428,-0.00035702,0.00002878,-0.00003343,-0.00006024,-0.00023068,-0.00
 008288,0.00005182,0.00009987,-0.00015557,-0.00026577,0.00015369,-0.000
 16560,-0.00064829,-0.00237475,0.00101972,-0.00101491,-0.00115219,0.000
 53686,0.00401803,0.00018645,0.00085573,0.00004057,0.09939904,0.0000671
 9,0.00000883,0.00009182,-0.00033281,-0.00006985,0.00007560,-0.00004450
 ,0.00037507,0.00136675,0.00054887,-0.00008847,0.00046912,-0.00228433,0
 .00036882,-0.01505626,0.09176508,-0.21886567,0.21073502,-0.00613967,-0
 .00226046,-0.00406290,-0.00004031,-0.00000481,0.00000167,-0.00001188,-
 0.00002038,0.00000389,-0.00001476,0.00003345,-0.00002258,-0.00004242,0
 .00001071,-0.00008131,-0.00000696,-0.00002088,-0.00010020,-0.00016841,
 -0.00021411,0.00018517,0.00017349,-0.00042655,-0.00036278,-0.00001861,
 -0.00016651,-0.00024887,0.00072753,0.00054889,-0.00060597,0.00003737,0
 .00134312,-0.00039875,-0.00025295,0.00147622,-0.00060850,-0.08427195,0
 .21592646,0.00000220,-0.00008627,0.00013853,0.00001221,0.00004931,-0.0
 0026810,-0.00031234,0.00058927,0.00005217,-0.00039407,-0.00005876,-0.0
 0010202,-0.00674468,0.02650708,-0.02856546,-0.05572999,0.16820385,-0.2
 0928137,-0.00045799,-0.00189506,0.00494695,-0.00002284,-0.00002164,0.0
 0002290,-0.00000812,-0.00001108,-0.00000464,0.00010266,-0.00002985,0.0
 0000244,0.00005592,-0.00016314,0.00025853,-0.00000255,-0.00003093,-0.0
 0005991,-0.00000680,-0.00012099,0.00004189,0.00013958,-0.00024097,-0.0
 0020043,-0.00025630,-0.00009687,0.00043065,-0.00023111,0.00033978,0.00
 113041,0.00278673,-0.00232873,-0.00477917,-0.00100683,-0.00006389,0.00
 167260,0.06036681,-0.18976494,0.23435154,-0.00001185,-0.00000934,0.000
 02269,-0.00005088,-0.00008742,0.00000898,-0.00003367,-0.00017318,0.000
 22444,0.00001756,-0.00004966,-0.00023278,-0.00041569,0.00257352,-0.001
 55425,-0.02811103,0.03674079,-0.02007860,-0.06604676,0.06379520,-0.035
 88079,0.00000580,-0.00000642,-0.00000436,-0.00000529,-0.00000178,0.000
 00043,0.00002573,-0.00001216,0.00000438,-0.00000655,-0.00001387,0.0000
 6235,0.00000499,-0.00001295,-0.00003052,-0.00005673,-0.00004226,-0.000
 02913,0.00000093,-0.00000970,0.00000878,0.00000422,-0.00002696,0.00016
 414,0.00002497,0.00000971,0.00025628,0.00015239,-0.00042383,0.00099318
 ,-0.00009041,-0.00004171,0.00035871,-0.00773626,0.00208083,0.00168720,
 0.09700384,0.00000735,0.00002363,0.00004854,-0.00010542,-0.00003895,-0
 .00007351,-0.00001458,0.00041553,0.00009526,-0.00021899,-0.00006635,0.
 00004339,-0.00098200,0.00006049,-0.00065008,-0.00098130,0.00686510,0.0
 0337494,0.08876892,-0.35319612,0.09623278,-0.00002549,-0.00000396,0.00
 001157,-0.00000615,-0.00000769,-0.00000409,-0.00000711,0.00000064,-0.0
 0000723,0.00001542,0.00001221,-0.00000550,0.00000433,-0.00000434,-0.00
 000078,-0.00000366,-0.00004717,-0.00002210,0.00001108,0.00000708,0.000
 00646,-0.00005861,0.00007344,-0.00001144,0.00003006,-0.00001269,0.0000
 1430,0.00069126,-0.00028948,-0.00038495,-0.00023800,-0.00027352,0.0002
 6653,-0.00048901,0.00162689,-0.00155036,-0.09264358,0.37212091,0.00002
 320,0.00005455,0.00002270,0.00001166,-0.00000473,-0.00004646,0.0004313
 4,0.00051512,-0.00026461,-0.00026916,-0.00005616,-0.00016575,0.0017334
 9,-0.00305692,0.00090500,0.00460503,-0.00147362,-0.00552604,-0.0593362
 1,0.14303529,-0.06721216,-0.00002883,-0.00000655,0.00002485,-0.0000084
 8,-0.00001522,-0.00000882,-0.00001909,-0.00000141,-0.00001417,0.000010
 00,0.00002663,-0.00004202,-0.00000830,0.00000987,0.00001129,0.00003749
 ,-0.00004289,-0.00001802,0.00001768,-0.00000283,0.00000545,-0.00010840
 ,0.00007553,0.00003180,0.00005930,0.00002196,0.00014029,-0.00004318,0.
 00075913,-0.00012181,-0.00032589,0.00034488,0.00008568,-0.00255499,0.0
 0043983,0.00157797,0.04811663,-0.11162905,0.06860894,0.00000974,0.0000
 0701,-0.00005697,0.00007144,0.00019992,0.00014783,-0.00003490,0.000497
 83,-0.00003612,0.00011266,0.00000504,-0.00021393,0.00368868,-0.0032547
 6,-0.00580886,-0.03762222,-0.02604940,-0.02668825,-0.07983161,-0.05430
 554,-0.06527054,0.00002816,-0.00000433,-0.00001210,0.00000725,0.000002
 48,-0.00000536,0.00001523,-0.00000870,0.00000530,-0.00002321,-0.000020
 22,0.00002511,-0.00005450,0.00001031,0.00008252,0.00060476,0.00021383,
 0.00002343,-0.00005370,0.00006929,0.00005548,0.00001585,-0.00000735,0.
 00011482,0.00008248,-0.00016693,0.00019513,-0.00016217,-0.00006826,0.0
 0071836,0.00025703,0.00225078,0.00206537,-0.00097452,-0.00177082,0.000
 02030,0.00532470,0.00624546,0.00765668,0.10853884,-0.00000444,-0.00002
 867,-0.00004457,0.00007797,0.00007891,0.00007245,0.00034923,-0.0000969
 6,-0.00016599,0.00015731,0.00006065,-0.00003537,0.00281920,0.00419773,
 0.00193669,-0.00609212,0.00609126,-0.00001908,-0.06050026,-0.20848434,
 -0.13750499,0.00001966,0.00000084,-0.00000490,-0.00000647,0.00000360,0
 .00000321,0.00001413,-0.00000507,0.00000584,-0.00001159,-0.00002351,0.
 00002136,-0.00000633,-0.00002343,-0.00002421,0.00013590,-0.00006611,-0
 .00011561,0.00000867,-0.00003369,0.00000019,0.00001521,-0.00006084,0.0
 0002939,-0.00000248,-0.00001757,0.00002705,-0.00029971,-0.00096532,0.0
 0025640,-0.00216067,-0.00087611,0.00110690,0.00097768,0.00041927,0.000
 77421,-0.01164524,-0.02726566,-0.02899338,0.07615435,0.22709503,0.0000
 2148,-0.00000880,0.00006410,-0.00009860,-0.00003518,-0.00014271,0.0007
 6449,0.00010198,-0.00013039,-0.00013353,-0.00012975,-0.00000344,0.0029
 9182,0.00625944,0.00391528,0.00310475,0.00411854,-0.00258740,-0.095113
 30,-0.18460249,-0.17635269,-0.00005419,-0.00000276,0.00003862,-0.00001
 656,-0.00000519,-0.00000791,-0.00002546,0.00000830,-0.00002038,0.00002
 038,0.00001965,-0.00002672,0.00000975,-0.00002726,-0.00001466,0.000010
 08,-0.00011497,-0.00024681,0.00001123,0.00006118,0.00007955,-0.0000723
 7,0.00009188,-0.00003302,0.00005939,-0.00009127,0.00002494,0.00027093,
 0.00003489,-0.00003742,-0.00225284,-0.00054208,0.00176448,-0.00238147,
 -0.00205583,-0.00136546,0.00590222,0.01424531,0.00200590,0.08698180,0.
 16267441,0.17307616\\-0.00000339,-0.00000079,-0.00000015,0.00000510,0.
 00000010,0.00000217,-0.00000206,-0.00000051,-0.00000444,0.00000329,0.0
 0000281,-0.00000293,0.00000106,-0.00000452,-0.00000476,0.00001439,0.00
 000362,0.00000304,-0.00002641,-0.00000168,-0.00001081,0.00000115,-0.00
 000108,-0.00000089,-0.00000026,-0.00000091,-0.00000080,-0.00000007,-0.
 00000079,0.00000156,-0.00000034,0.00000018,0.00000016,0.00000001,0.000
 00029,-0.00000037,0.00000116,-0.00000126,0.00000010,-0.00000109,0.0000
 0062,-0.00000009,0.00000168,-0.00000070,0.00000094,0.00000185,-0.00000
 171,0.00000063,-0.00000221,0.00000053,0.00000147,0.00000045,0.00000210
 ,0.00000256,-0.00000321,-0.00000012,-0.00000092,0.00000301,-0.00000316
 ,0.00000428,0.00000590,0.00000698,0.00000926\\\@


 PATIENCE IS THE ABILITY TO IDLE YOUR MOTOR WHEN
 YOU FEEL LIKE STRIPPING YOUR GEARS.
 Job cpu time:       0 days  1 hours 28 minutes 10.8 seconds.
 Elapsed time:       0 days  0 hours 22 minutes  7.1 seconds.
 File lengths (MBytes):  RWF=    114 Int=      0 D2E=      0 Chk=      7 Scr=      1
 Normal termination of Gaussian 16 at Mon May 31 14:57:28 2021.
### All Done ###
