### Starting Gaussian ###
 Entering Gaussian System, Link 0=g16
 Initial command:
 /cluster/software/gaussian/gaussian-16-A.03/avx2/g16/l1.exe "/local/scratch/linjian/Gau-22059.inp" -scrdir="/local/scratch/linjian/"
 Entering Link 1 = /cluster/software/gaussian/gaussian-16-A.03/avx2/g16/l1.exe PID=     22060.
  
 Copyright (c) 1988,1990,1992,1993,1995,1998,2003,2009,2016,
            Gaussian, Inc.  All Rights Reserved.
  
 This is part of the Gaussian(R) 16 program.  It is based on
 the Gaussian(R) 09 system (copyright 2009, Gaussian, Inc.),
 the Gaussian(R) 03 system (copyright 2003, Gaussian, Inc.),
 the Gaussian(R) 98 system (copyright 1998, Gaussian, Inc.),
 the Gaussian(R) 94 system (copyright 1995, Gaussian, Inc.),
 the Gaussian 92(TM) system (copyright 1992, Gaussian, Inc.),
 the Gaussian 90(TM) system (copyright 1990, Gaussian, Inc.),
 the Gaussian 88(TM) system (copyright 1988, Gaussian, Inc.),
 the Gaussian 86(TM) system (copyright 1986, Carnegie Mellon
 University), and the Gaussian 82(TM) system (copyright 1983,
 Carnegie Mellon University). Gaussian is a federally registered
 trademark of Gaussian, Inc.
  
 This software contains proprietary and confidential information,
 including trade secrets, belonging to Gaussian, Inc.
  
 This software is provided under written license and may be
 used, copied, transmitted, or stored only in accord with that
 written license.
  
 The following legend is applicable only to US Government
 contracts under FAR:
  
                    RESTRICTED RIGHTS LEGEND
  
 Use, reproduction and disclosure by the US Government is
 subject to restrictions as set forth in subparagraphs (a)
 and (c) of the Commercial Computer Software - Restricted
 Rights clause in FAR 52.227-19.
  
 Gaussian, Inc.
 340 Quinnipiac St., Bldg. 40, Wallingford CT 06492
  
  
 ---------------------------------------------------------------
 Warning -- This program may not be used in any manner that
 competes with the business of Gaussian, Inc. or will provide
 assistance to any competitor of Gaussian, Inc.  The licensee
 of this program is prohibited from giving any competitor of
 Gaussian, Inc. access to this program.  By using this program,
 the user acknowledges that Gaussian, Inc. is engaged in the
 business of creating and licensing software in the field of
 computational chemistry and represents and warrants to the
 licensee that it is not a competitor of Gaussian, Inc. and that
 it will not use this program in any manner prohibited above.
 ---------------------------------------------------------------
  

 Cite this work as:
 Gaussian 16, Revision A.03,
 M. J. Frisch, G. W. Trucks, H. B. Schlegel, G. E. Scuseria, 
 M. A. Robb, J. R. Cheeseman, G. Scalmani, V. Barone, 
 G. A. Petersson, H. Nakatsuji, X. Li, M. Caricato, A. V. Marenich, 
 J. Bloino, B. G. Janesko, R. Gomperts, B. Mennucci, H. P. Hratchian, 
 J. V. Ortiz, A. F. Izmaylov, J. L. Sonnenberg, D. Williams-Young, 
 F. Ding, F. Lipparini, F. Egidi, J. Goings, B. Peng, A. Petrone, 
 T. Henderson, D. Ranasinghe, V. G. Zakrzewski, J. Gao, N. Rega, 
 G. Zheng, W. Liang, M. Hada, M. Ehara, K. Toyota, R. Fukuda, 
 J. Hasegawa, M. Ishida, T. Nakajima, Y. Honda, O. Kitao, H. Nakai, 
 T. Vreven, K. Throssell, J. A. Montgomery, Jr., J. E. Peralta, 
 F. Ogliaro, M. J. Bearpark, J. J. Heyd, E. N. Brothers, K. N. Kudin, 
 V. N. Staroverov, T. A. Keith, R. Kobayashi, J. Normand, 
 K. Raghavachari, A. P. Rendell, J. C. Burant, S. S. Iyengar, 
 J. Tomasi, M. Cossi, J. M. Millam, M. Klene, C. Adamo, R. Cammi, 
 J. W. Ochterski, R. L. Martin, K. Morokuma, O. Farkas, 
 J. B. Foresman, and D. J. Fox, Gaussian, Inc., Wallingford CT, 2016.
 
 ******************************************
 Gaussian 16:  ES64L-G16RevA.03 25-Dec-2016
                31-May-2021 
 ******************************************
 %chk=CCCpNpCNNCF.chk
 %NProcShared=20
 Will use up to   20 processors via shared memory.
 -----------------------------
 # opt freq b3lyp/6-31g(2df,p)
 -----------------------------
 1/18=20,19=15,26=3,38=1/1,3;
 2/9=110,12=2,17=6,18=5,40=1/2;
 3/5=1,6=6,7=104,11=2,25=1,30=1,71=1,74=-5/1,2,3;
 4//1;
 5/5=2,38=5/2;
 6/7=2,8=2,9=2,10=2,28=1/1;
 7//1,2,3,16;
 1/18=20,19=15,26=3/3(2);
 2/9=110/2;
 99//99;
 2/9=110/2;
 3/5=1,6=6,7=104,11=2,25=1,30=1,71=1,74=-5/1,2,3;
 4/5=5,16=3,69=1/1;
 5/5=2,38=5/2;
 7//1,2,3,16;
 1/18=20,19=15,26=3/3(-5);
 2/9=110/2;
 6/7=2,8=2,9=2,10=2,19=2,28=1/1;
 99/9=1/99;
 -------------------
 Title Card Required
 -------------------
 Symbolic Z-matrix:
 Charge =  0 Multiplicity = 1
 C                     1.02296   0.0116   -0.09796 
 C                     2.54387  -0.05743  -0.0813 
 C                     3.08536  -1.09843   0.90997 
 N                     2.63667  -2.46487   0.57313 
 C                     4.63288  -1.04875   0.94834 
 N                     5.11203  -2.04021   1.92574 
 N                     6.56061  -2.09142   1.88768 
 C                     7.02656  -3.06695   2.86988 
 F                     8.38434  -3.02281   2.86936 
 H                     0.68723   0.78985  -0.78941 
 H                     0.63458   0.24689   0.89809 
 H                     0.57986  -0.93289  -0.42673 
 H                     2.93091   0.93282   0.19136 
 H                     2.90929  -0.26981  -1.09336 
 H                     2.70843  -0.85962   1.91292 
 H                     2.89702  -2.67547  -0.38931 
 H                     1.61772  -2.50407   0.60453 
 H                     4.9696   -0.04477   1.23075 
 H                     5.03102  -1.27574  -0.05018 
 H                     4.67525  -2.93104   1.64708 
 H                     6.96704  -1.19714   2.16908 
 H                     6.71796  -4.08249   2.60658 
 H                     6.68495  -2.82505   3.88148 
 

 GradGradGradGradGradGradGradGradGradGradGradGradGradGradGradGradGradGrad
 Berny optimization.
 Initialization pass.
                           ----------------------------
                           !    Initial Parameters    !
                           ! (Angstroms and Degrees)  !
 --------------------------                            --------------------------
 ! Name  Definition              Value          Derivative Info.                !
 --------------------------------------------------------------------------------
 ! R1    R(1,2)                  1.5226         estimate D2E/DX2                !
 ! R2    R(1,10)                 1.0938         estimate D2E/DX2                !
 ! R3    R(1,11)                 1.0947         estimate D2E/DX2                !
 ! R4    R(1,12)                 1.0938         estimate D2E/DX2                !
 ! R5    R(2,3)                  1.5361         estimate D2E/DX2                !
 ! R6    R(2,13)                 1.0976         estimate D2E/DX2                !
 ! R7    R(2,14)                 1.0968         estimate D2E/DX2                !
 ! R8    R(3,4)                  1.4771         estimate D2E/DX2                !
 ! R9    R(3,5)                  1.5488         estimate D2E/DX2                !
 ! R10   R(3,15)                 1.0977         estimate D2E/DX2                !
 ! R11   R(4,16)                 1.019          estimate D2E/DX2                !
 ! R12   R(4,17)                 1.0202         estimate D2E/DX2                !
 ! R13   R(5,6)                  1.4724         estimate D2E/DX2                !
 ! R14   R(5,18)                 1.096          estimate D2E/DX2                !
 ! R15   R(5,19)                 1.0987         estimate D2E/DX2                !
 ! R16   R(6,7)                  1.45           estimate D2E/DX2                !
 ! R17   R(6,20)                 1.0305         estimate D2E/DX2                !
 ! R18   R(7,8)                  1.4606         estimate D2E/DX2                !
 ! R19   R(7,21)                 1.0218         estimate D2E/DX2                !
 ! R20   R(8,9)                  1.3585         estimate D2E/DX2                !
 ! R21   R(8,22)                 1.0936         estimate D2E/DX2                !
 ! R22   R(8,23)                 1.0948         estimate D2E/DX2                !
 ! A1    A(2,1,10)             110.2286         estimate D2E/DX2                !
 ! A2    A(2,1,11)             110.744          estimate D2E/DX2                !
 ! A3    A(2,1,12)             111.6408         estimate D2E/DX2                !
 ! A4    A(10,1,11)            108.2616         estimate D2E/DX2                !
 ! A5    A(10,1,12)            107.4582         estimate D2E/DX2                !
 ! A6    A(11,1,12)            108.3824         estimate D2E/DX2                !
 ! A7    A(1,2,3)              112.9495         estimate D2E/DX2                !
 ! A8    A(1,2,13)             108.3037         estimate D2E/DX2                !
 ! A9    A(1,2,14)             109.3597         estimate D2E/DX2                !
 ! A10   A(3,2,13)             109.075          estimate D2E/DX2                !
 ! A11   A(3,2,14)             110.292          estimate D2E/DX2                !
 ! A12   A(13,2,14)            106.6451         estimate D2E/DX2                !
 ! A13   A(2,3,4)              111.8809         estimate D2E/DX2                !
 ! A14   A(2,3,5)              110.2719         estimate D2E/DX2                !
 ! A15   A(2,3,15)             108.7314         estimate D2E/DX2                !
 ! A16   A(4,3,5)              109.8055         estimate D2E/DX2                !
 ! A17   A(4,3,15)             107.7756         estimate D2E/DX2                !
 ! A18   A(5,3,15)             108.2689         estimate D2E/DX2                !
 ! A19   A(3,4,16)             109.2047         estimate D2E/DX2                !
 ! A20   A(3,4,17)             109.385          estimate D2E/DX2                !
 ! A21   A(16,4,17)            106.0399         estimate D2E/DX2                !
 ! A22   A(3,5,6)              108.6632         estimate D2E/DX2                !
 ! A23   A(3,5,18)             110.0449         estimate D2E/DX2                !
 ! A24   A(3,5,19)             109.4474         estimate D2E/DX2                !
 ! A25   A(6,5,18)             110.2321         estimate D2E/DX2                !
 ! A26   A(6,5,19)             110.2588         estimate D2E/DX2                !
 ! A27   A(18,5,19)            108.1871         estimate D2E/DX2                !
 ! A28   A(5,6,7)              109.358          estimate D2E/DX2                !
 ! A29   A(5,6,20)             105.3467         estimate D2E/DX2                !
 ! A30   A(7,6,20)             112.6934         estimate D2E/DX2                !
 ! A31   A(6,7,8)              108.9432         estimate D2E/DX2                !
 ! A32   A(6,7,21)             111.0529         estimate D2E/DX2                !
 ! A33   A(8,7,21)             105.8099         estimate D2E/DX2                !
 ! A34   A(7,8,9)              107.2701         estimate D2E/DX2                !
 ! A35   A(7,8,22)             111.6106         estimate D2E/DX2                !
 ! A36   A(7,8,23)             111.9772         estimate D2E/DX2                !
 ! A37   A(9,8,22)             108.1876         estimate D2E/DX2                !
 ! A38   A(9,8,23)             107.7608         estimate D2E/DX2                !
 ! A39   A(22,8,23)            109.8535         estimate D2E/DX2                !
 ! D1    D(10,1,2,3)           177.9197         estimate D2E/DX2                !
 ! D2    D(10,1,2,13)           56.9974         estimate D2E/DX2                !
 ! D3    D(10,1,2,14)          -58.8527         estimate D2E/DX2                !
 ! D4    D(11,1,2,3)            58.1397         estimate D2E/DX2                !
 ! D5    D(11,1,2,13)          -62.7826         estimate D2E/DX2                !
 ! D6    D(11,1,2,14)         -178.6327         estimate D2E/DX2                !
 ! D7    D(12,1,2,3)           -62.728          estimate D2E/DX2                !
 ! D8    D(12,1,2,13)          176.3497         estimate D2E/DX2                !
 ! D9    D(12,1,2,14)           60.4996         estimate D2E/DX2                !
 ! D10   D(1,2,3,4)             61.3811         estimate D2E/DX2                !
 ! D11   D(1,2,3,5)           -176.0999         estimate D2E/DX2                !
 ! D12   D(1,2,3,15)           -57.5379         estimate D2E/DX2                !
 ! D13   D(13,2,3,4)          -178.136          estimate D2E/DX2                !
 ! D14   D(13,2,3,5)           -55.617          estimate D2E/DX2                !
 ! D15   D(13,2,3,15)           62.9451         estimate D2E/DX2                !
 ! D16   D(14,2,3,4)           -61.3283         estimate D2E/DX2                !
 ! D17   D(14,2,3,5)            61.1907         estimate D2E/DX2                !
 ! D18   D(14,2,3,15)          179.7527         estimate D2E/DX2                !
 ! D19   D(2,3,4,16)            55.054          estimate D2E/DX2                !
 ! D20   D(2,3,4,17)           -60.5873         estimate D2E/DX2                !
 ! D21   D(5,3,4,16)           -67.7304         estimate D2E/DX2                !
 ! D22   D(5,3,4,17)           176.6282         estimate D2E/DX2                !
 ! D23   D(15,3,4,16)          174.537          estimate D2E/DX2                !
 ! D24   D(15,3,4,17)           58.8957         estimate D2E/DX2                !
 ! D25   D(2,3,5,6)            178.936          estimate D2E/DX2                !
 ! D26   D(2,3,5,18)            58.1528         estimate D2E/DX2                !
 ! D27   D(2,3,5,19)           -60.6095         estimate D2E/DX2                !
 ! D28   D(4,3,5,6)            -57.334          estimate D2E/DX2                !
 ! D29   D(4,3,5,18)          -178.1172         estimate D2E/DX2                !
 ! D30   D(4,3,5,19)            63.1205         estimate D2E/DX2                !
 ! D31   D(15,3,5,6)            60.0913         estimate D2E/DX2                !
 ! D32   D(15,3,5,18)          -60.6919         estimate D2E/DX2                !
 ! D33   D(15,3,5,19)         -179.4542         estimate D2E/DX2                !
 ! D34   D(3,5,6,7)            174.9286         estimate D2E/DX2                !
 ! D35   D(3,5,6,20)            53.5656         estimate D2E/DX2                !
 ! D36   D(18,5,6,7)           -64.4037         estimate D2E/DX2                !
 ! D37   D(18,5,6,20)          174.2333         estimate D2E/DX2                !
 ! D38   D(19,5,6,7)            54.9774         estimate D2E/DX2                !
 ! D39   D(19,5,6,20)          -66.3856         estimate D2E/DX2                !
 ! D40   D(5,6,7,8)            179.414          estimate D2E/DX2                !
 ! D41   D(5,6,7,21)            63.2614         estimate D2E/DX2                !
 ! D42   D(20,6,7,8)           -63.7798         estimate D2E/DX2                !
 ! D43   D(20,6,7,21)         -179.9324         estimate D2E/DX2                !
 ! D44   D(6,7,8,9)           -175.9935         estimate D2E/DX2                !
 ! D45   D(6,7,8,22)            65.6644         estimate D2E/DX2                !
 ! D46   D(6,7,8,23)           -57.9628         estimate D2E/DX2                !
 ! D47   D(21,7,8,9)           -56.5268         estimate D2E/DX2                !
 ! D48   D(21,7,8,22)         -174.869          estimate D2E/DX2                !
 ! D49   D(21,7,8,23)           61.5038         estimate D2E/DX2                !
 --------------------------------------------------------------------------------
 Trust Radius=3.00D-01 FncErr=1.00D-07 GrdErr=1.00D-06 EigMax=2.50D+02 EigMin=1.00D-04
 Number of steps in this run=    120 maximum allowed number of steps=    138.
 GradGradGradGradGradGradGradGradGradGradGradGradGradGradGradGradGradGrad

                          Input orientation:                          
 ---------------------------------------------------------------------
 Center     Atomic      Atomic             Coordinates (Angstroms)
 Number     Number       Type             X           Y           Z
 ---------------------------------------------------------------------
      1          6           0        1.022960    0.011600   -0.097960
      2          6           0        2.543870   -0.057430   -0.081300
      3          6           0        3.085360   -1.098430    0.909970
      4          7           0        2.636670   -2.464870    0.573130
      5          6           0        4.632880   -1.048750    0.948340
      6          7           0        5.112030   -2.040210    1.925740
      7          7           0        6.560610   -2.091420    1.887680
      8          6           0        7.026560   -3.066950    2.869880
      9          9           0        8.384340   -3.022810    2.869360
     10          1           0        0.687230    0.789850   -0.789410
     11          1           0        0.634580    0.246890    0.898090
     12          1           0        0.579860   -0.932890   -0.426730
     13          1           0        2.930910    0.932820    0.191360
     14          1           0        2.909290   -0.269810   -1.093360
     15          1           0        2.708430   -0.859620    1.912920
     16          1           0        2.897020   -2.675470   -0.389310
     17          1           0        1.617720   -2.504070    0.604530
     18          1           0        4.969600   -0.044770    1.230750
     19          1           0        5.031020   -1.275740   -0.050180
     20          1           0        4.675250   -2.931040    1.647080
     21          1           0        6.967040   -1.197140    2.169080
     22          1           0        6.717960   -4.082490    2.606580
     23          1           0        6.684950   -2.825050    3.881480
 ---------------------------------------------------------------------
                    Distance matrix (angstroms):
                    1          2          3          4          5
     1  C    0.000000
     2  C    1.522567   0.000000
     3  C    2.549820   1.536069   0.000000
     4  N    3.031060   2.496529   1.477140   0.000000
     5  C    3.905203   2.531173   1.548793   2.476092   0.000000
     6  N    5.002577   3.815111   2.454818   2.852595   1.472375
     7  N    6.247482   4.914082   3.744237   4.155095   2.384463
     8  C    7.370804   6.153144   4.821761   4.990861   3.673575
     9  F    8.497208   7.184077   5.968386   6.214473   4.654104
    10  H    1.093842   2.160189   3.493497   4.031133   4.687044
    11  H    1.094676   2.167303   2.795774   3.386385   4.203286
    12  H    1.093841   2.177863   2.844591   2.752662   4.281496
    13  H    2.138370   1.097606   2.160146   3.431708   2.719621
    14  H    2.151338   1.096769   2.175073   2.769440   2.783172
    15  H    2.764683   2.155807   1.097732   2.092132   2.160947
    16  H    3.288971   2.659646   2.051988   1.019032   2.729237
    17  H    2.678773   2.704471   2.055014   1.020187   3.365613
    18  H    4.164687   2.757862   2.182535   3.425188   1.095952
    19  H    4.209997   2.769686   2.176906   2.745079   1.098673
    20  H    5.004350   3.973375   2.535654   2.350849   2.008245
    21  H    6.475539   5.091913   4.081978   4.786053   2.638281
    22  H    7.517256   6.391309   4.997888   4.838237   4.037437
    23  H    7.479349   6.364895   4.976760   5.240561   3.996191
                    6          7          8          9         10
     6  N    0.000000
     7  N    1.449984   0.000000
     8  C    2.368759   1.460645   0.000000
     9  F    3.544564   2.270941   1.358497   0.000000
    10  H    5.912710   7.068601   8.273597   9.336406   0.000000
    11  H    5.131710   6.447078   7.465045   8.639191   1.773481
    12  H    5.225020   6.516752   7.548628   8.725932   1.763774
    13  H    4.074833   5.019786   6.320362   7.249730   2.452845
    14  H    4.135377   5.053415   6.362639   7.297831   2.480487
    15  H    2.677919   4.044411   4.943109   6.148994   3.756140
    16  H    3.266387   4.352894   5.275289   6.391421   4.129370
    17  H    3.764434   5.123370   5.891027   7.154418   3.695780
    18  H    2.117800   2.674256   4.006420   4.818113   4.807944
    19  H    2.120197   2.600054   3.964513   4.777104   4.866378
    20  H    1.030537   2.077843   2.653746   3.906372   5.973760
    21  H    2.052083   1.021816   1.997712   2.414995   7.220582
    22  H    2.685789   2.122719   1.093564   1.992184   8.464169
    23  H    2.629633   2.128124   1.094782   1.987818   8.417681
                   11         12         13         14         15
    11  H    0.000000
    12  H    1.774830   0.000000
    13  H    2.498619   3.064367   0.000000
    14  H    3.067109   2.512034   1.759912   0.000000
    15  H    2.560293   3.163881   2.495217   3.070169   0.000000
    16  H    3.913594   2.899520   3.654871   2.506599   2.938221
    17  H    2.936073   2.146918   3.702349   3.089159   2.367646
    18  H    4.357537   4.775543   2.488427   3.114002   2.498445
    19  H    4.748295   4.480197   3.057211   2.569408   3.069420
    20  H    5.194924   5.006547   4.482327   4.208417   2.868768
    21  H    6.618209   6.899574   4.973776   5.288553   4.279637
    22  H    7.659633   7.536393   6.732635   6.536976   5.190798
    23  H    7.412450   7.707987   6.467719   6.747881   4.852922
                   16         17         18         19         20
    16  H    0.000000
    17  H    1.629019   0.000000
    18  H    3.720318   4.204213   0.000000
    19  H    2.574531   3.686198   1.777594   0.000000
    20  H    2.715567   3.258482   2.930960   2.397349   0.000000
    21  H    5.029501   5.724605   2.489616   2.946093   2.920821
    22  H    5.055160   5.701935   4.610082   4.216869   2.533602
    23  H    5.710555   6.043033   4.206988   4.538039   3.007103
                   21         22         23
    21  H    0.000000
    22  H    2.928940   0.000000
    23  H    2.379491   1.790982   0.000000
 Stoichiometry    C5H14FN3
 Framework group  C1[X(C5H14FN3)]
 Deg. of freedom    63
 Full point group                 C1      NOp   1
 Largest Abelian subgroup         C1      NOp   1
 Largest concise Abelian subgroup C1      NOp   1
                         Standard orientation:                         
 ---------------------------------------------------------------------
 Center     Atomic      Atomic             Coordinates (Angstroms)
 Number     Number       Type             X           Y           Z
 ---------------------------------------------------------------------
      1          6           0        4.118660   -0.171685    0.265420
      2          6           0        2.794880   -0.754861   -0.209682
      3          6           0        1.580274    0.068604    0.244353
      4          7           0        1.615701    1.444058   -0.293061
      5          6           0        0.266903   -0.629719   -0.187109
      6          7           0       -0.871902    0.174159    0.287013
      7          7           0       -2.106434   -0.400864   -0.210714
      8          6           0       -3.230326    0.394927    0.276184
      9          9           0       -4.369033   -0.222418   -0.133386
     10          1           0        4.948451   -0.810679   -0.050212
     11          1           0        4.139645   -0.096583    1.357315
     12          1           0        4.293912    0.823966   -0.152259
     13          1           0        2.705373   -1.774506    0.186616
     14          1           0        2.807732   -0.842683   -1.302854
     15          1           0        1.590045    0.136514    1.339939
     16          1           0        1.698997    1.405365   -1.307945
     17          1           0        2.455929    1.916557    0.040923
     18          1           0        0.221152   -1.639084    0.237392
     19          1           0        0.241498   -0.716717   -1.282037
     20          1           0       -0.702934    1.125079   -0.072442
     21          1           0       -2.249468   -1.341632    0.161583
     22          1           0       -3.220043    1.405013   -0.142746
     23          1           0       -3.252903    0.446088    1.369537
 ---------------------------------------------------------------------
 Rotational constants (GHZ):           6.0405066           0.4794029           0.4582845
 Standard basis: 6-31G(2df,p) (6D, 7F)
 There are   349 symmetry adapted cartesian basis functions of A   symmetry.
 There are   322 symmetry adapted basis functions of A   symmetry.
   322 basis functions,   494 primitive gaussians,   349 cartesian basis functions
    37 alpha electrons       37 beta electrons
       nuclear repulsion energy       475.4784637810 Hartrees.
 NAtoms=   23 NActive=   23 NUniq=   23 SFac= 1.00D+00 NAtFMM=   60 NAOKFM=F Big=F
 Integral buffers will be    131072 words long.
 Raffenetti 2 integral format.
 Two-electron integral symmetry is turned on.
 One-electron integrals computed using PRISM.
 PrsmSu:  requested number of processors reduced to:  13 ShMem   1 Linda.
 NBasis=   322 RedAO= T EigKep=  3.22D-04  NBF=   322
 NBsUse=   322 1.00D-06 EigRej= -1.00D+00 NBFU=   322
 ExpMin= 1.61D-01 ExpMax= 7.00D+03 ExpMxC= 1.05D+03 IAcc=3 IRadAn=         5 AccDes= 0.00D+00
 Harris functional with IExCor=  402 and IRadAn=       5 diagonalized for initial guess.
 HarFok:  IExCor=  402 AccDes= 0.00D+00 IRadAn=         5 IDoV= 1 UseB2=F ITyADJ=14
 ICtDFT=  3500011 ScaDFX=  1.000000  1.000000  1.000000  1.000000
 FoFCou: FMM=F IPFlag=           0 FMFlag=      100000 FMFlg1=           0
         NFxFlg=           0 DoJE=T BraDBF=F KetDBF=T FulRan=T
         wScrn=  0.000000 ICntrl=       500 IOpCl=  0 I1Cent=   200000004 NGrid=           0
         NMat0=    1 NMatS0=      1 NMatT0=    0 NMatD0=    1 NMtDS0=    0 NMtDT0=    0
 Petite list used in FoFCou.
 Requested convergence on RMS density matrix=1.00D-08 within 128 cycles.
 Requested convergence on MAX density matrix=1.00D-06.
 Requested convergence on             energy=1.00D-06.
 No special actions if energy rises.
 Integral accuracy reduced to 1.0D-05 until final iterations.
 Initial convergence to 1.0D-05 achieved.  Increase integral accuracy.
 SCF Done:  E(RB3LYP) =  -463.027564045     A.U. after   12 cycles
            NFock= 12  Conv=0.35D-08     -V/T= 2.0075

 **********************************************************************

            Population analysis using the SCF density.

 **********************************************************************

 Orbital symmetries:
       Occupied  (A) (A) (A) (A) (A) (A) (A) (A) (A) (A) (A) (A)
                 (A) (A) (A) (A) (A) (A) (A) (A) (A) (A) (A) (A)
                 (A) (A) (A) (A) (A) (A) (A) (A) (A) (A) (A) (A)
                 (A)
       Virtual   (A) (A) (A) (A) (A) (A) (A) (A) (A) (A) (A) (A)
                 (A) (A) (A) (A) (A) (A) (A) (A) (A) (A) (A) (A)
                 (A) (A) (A) (A) (A) (A) (A) (A) (A) (A) (A) (A)
                 (A) (A) (A) (A) (A) (A) (A) (A) (A) (A) (A) (A)
                 (A) (A) (A) (A) (A) (A) (A) (A) (A) (A) (A) (A)
                 (A) (A) (A) (A) (A) (A) (A) (A) (A) (A) (A) (A)
                 (A) (A) (A) (A) (A) (A) (A) (A) (A) (A) (A) (A)
                 (A) (A) (A) (A) (A) (A) (A) (A) (A) (A) (A) (A)
                 (A) (A) (A) (A) (A) (A) (A) (A) (A) (A) (A) (A)
                 (A) (A) (A) (A) (A) (A) (A) (A) (A) (A) (A) (A)
                 (A) (A) (A) (A) (A) (A) (A) (A) (A) (A) (A) (A)
                 (A) (A) (A) (A) (A) (A) (A) (A) (A) (A) (A) (A)
                 (A) (A) (A) (A) (A) (A) (A) (A) (A) (A) (A) (A)
                 (A) (A) (A) (A) (A) (A) (A) (A) (A) (A) (A) (A)
                 (A) (A) (A) (A) (A) (A) (A) (A) (A) (A) (A) (A)
                 (A) (A) (A) (A) (A) (A) (A) (A) (A) (A) (A) (A)
                 (A) (A) (A) (A) (A) (A) (A) (A) (A) (A) (A) (A)
                 (A) (A) (A) (A) (A) (A) (A) (A) (A) (A) (A) (A)
                 (A) (A) (A) (A) (A) (A) (A) (A) (A) (A) (A) (A)
                 (A) (A) (A) (A) (A) (A) (A) (A) (A) (A) (A) (A)
                 (A) (A) (A) (A) (A) (A) (A) (A) (A) (A) (A) (A)
                 (A) (A) (A) (A) (A) (A) (A) (A) (A) (A) (A) (A)
                 (A) (A) (A) (A) (A) (A) (A) (A) (A) (A) (A) (A)
                 (A) (A) (A) (A) (A) (A) (A) (A) (A)
 The electronic state is 1-A.
 Alpha  occ. eigenvalues --  -24.66728 -14.33465 -14.33041 -14.31684 -10.26835
 Alpha  occ. eigenvalues --  -10.21392 -10.20343 -10.18216 -10.17980  -1.19074
 Alpha  occ. eigenvalues --   -0.95463  -0.89100  -0.80068  -0.76954  -0.69566
 Alpha  occ. eigenvalues --   -0.64896  -0.61814  -0.57996  -0.51496  -0.50816
 Alpha  occ. eigenvalues --   -0.49192  -0.47737  -0.45866  -0.45151  -0.43389
 Alpha  occ. eigenvalues --   -0.42885  -0.41511  -0.37876  -0.37579  -0.36067
 Alpha  occ. eigenvalues --   -0.35069  -0.34659  -0.33950  -0.32524  -0.29159
 Alpha  occ. eigenvalues --   -0.24505  -0.17926
 Alpha virt. eigenvalues --    0.06550   0.10042   0.10530   0.10758   0.11540
 Alpha virt. eigenvalues --    0.12488   0.13474   0.15050   0.15895   0.17010
 Alpha virt. eigenvalues --    0.17747   0.18167   0.19498   0.20338   0.20604
 Alpha virt. eigenvalues --    0.21711   0.22257   0.22949   0.24665   0.25704
 Alpha virt. eigenvalues --    0.27788   0.29642   0.41949   0.44272   0.46428
 Alpha virt. eigenvalues --    0.48079   0.49639   0.51274   0.51852   0.52354
 Alpha virt. eigenvalues --    0.53655   0.55384   0.56524   0.58685   0.60455
 Alpha virt. eigenvalues --    0.61092   0.62124   0.62850   0.64682   0.68480
 Alpha virt. eigenvalues --    0.70128   0.70303   0.71256   0.71366   0.73186
 Alpha virt. eigenvalues --    0.74202   0.74864   0.75739   0.77657   0.78189
 Alpha virt. eigenvalues --    0.78909   0.79334   0.80476   0.81114   0.81745
 Alpha virt. eigenvalues --    0.83199   0.84669   0.85363   0.86413   0.87714
 Alpha virt. eigenvalues --    0.88441   0.88593   0.90871   0.93223   0.95806
 Alpha virt. eigenvalues --    0.98738   1.01494   1.03893   1.05034   1.07665
 Alpha virt. eigenvalues --    1.10504   1.11445   1.12107   1.13919   1.15603
 Alpha virt. eigenvalues --    1.21219   1.22771   1.24786   1.27590   1.30379
 Alpha virt. eigenvalues --    1.31971   1.34017   1.34591   1.35819   1.38469
 Alpha virt. eigenvalues --    1.41310   1.45198   1.45893   1.48722   1.50467
 Alpha virt. eigenvalues --    1.51974   1.54264   1.55104   1.55812   1.56853
 Alpha virt. eigenvalues --    1.60434   1.62197   1.63754   1.66483   1.67594
 Alpha virt. eigenvalues --    1.71479   1.74677   1.75098   1.78825   1.78999
 Alpha virt. eigenvalues --    1.83540   1.84600   1.86595   1.87862   1.88550
 Alpha virt. eigenvalues --    1.92447   1.94133   1.96121   1.96909   2.05937
 Alpha virt. eigenvalues --    2.08782   2.10997   2.14917   2.16294   2.21662
 Alpha virt. eigenvalues --    2.24776   2.25725   2.27640   2.30443   2.32429
 Alpha virt. eigenvalues --    2.37622   2.39460   2.41749   2.44467   2.46607
 Alpha virt. eigenvalues --    2.48847   2.51610   2.54885   2.56769   2.66027
 Alpha virt. eigenvalues --    2.69695   2.71771   2.74506   2.75469   2.77749
 Alpha virt. eigenvalues --    2.79070   2.79601   2.80601   2.81179   2.82705
 Alpha virt. eigenvalues --    2.84011   2.85148   2.86639   2.88385   2.89017
 Alpha virt. eigenvalues --    2.90488   2.92257   2.93830   2.96422   2.99563
 Alpha virt. eigenvalues --    3.00338   3.02079   3.03906   3.05659   3.12433
 Alpha virt. eigenvalues --    3.13181   3.14607   3.17237   3.18499   3.22264
 Alpha virt. eigenvalues --    3.26188   3.29750   3.31514   3.33266   3.35991
 Alpha virt. eigenvalues --    3.38343   3.39841   3.40676   3.42509   3.47157
 Alpha virt. eigenvalues --    3.48477   3.50923   3.54706   3.57342   3.59267
 Alpha virt. eigenvalues --    3.60318   3.64082   3.65945   3.68994   3.70102
 Alpha virt. eigenvalues --    3.71537   3.77249   3.78519   3.83790   3.85899
 Alpha virt. eigenvalues --    3.86570   3.89526   3.92118   3.94903   3.97797
 Alpha virt. eigenvalues --    4.02626   4.05944   4.09028   4.14384   4.17427
 Alpha virt. eigenvalues --    4.19074   4.21191   4.21821   4.22353   4.26932
 Alpha virt. eigenvalues --    4.28933   4.30895   4.32484   4.35254   4.36913
 Alpha virt. eigenvalues --    4.38150   4.40813   4.42608   4.43737   4.45203
 Alpha virt. eigenvalues --    4.46239   4.46998   4.48429   4.49613   4.51879
 Alpha virt. eigenvalues --    4.53665   4.54514   4.57222   4.58105   4.59405
 Alpha virt. eigenvalues --    4.61097   4.62780   4.64348   4.64411   4.65992
 Alpha virt. eigenvalues --    4.68328   4.69579   4.71368   4.72773   4.74667
 Alpha virt. eigenvalues --    4.76654   4.78363   4.78700   4.81523   4.83428
 Alpha virt. eigenvalues --    4.84084   4.87431   4.88217   4.90208   4.92372
 Alpha virt. eigenvalues --    4.94062   4.94550   4.96011   4.99207   5.02795
 Alpha virt. eigenvalues --    5.05709   5.09677   5.11769   5.17199   5.24660
 Alpha virt. eigenvalues --    5.25798   5.27114   5.33803   5.36881   5.40214
 Alpha virt. eigenvalues --    5.47920   5.49588   5.51210   5.62605   5.70296
 Alpha virt. eigenvalues --    5.78766   6.66750   6.67512   6.80915   6.81805
 Alpha virt. eigenvalues --    7.29079   7.34038   7.37777   8.99436   9.58252
 Alpha virt. eigenvalues --   10.25156  11.14109  11.34558  11.44545  11.51317
 Alpha virt. eigenvalues --   11.59450  12.07402  12.28877  13.18033  15.16110
          Condensed to atoms (all electrons):
               1          2          3          4          5          6
     1  C    4.974942   0.402735  -0.031229  -0.005526   0.001988  -0.000071
     2  C    0.402735   4.912103   0.406756  -0.062285  -0.051613   0.002020
     3  C   -0.031229   0.406756   4.692800   0.388216   0.392653  -0.030079
     4  N   -0.005526  -0.062285   0.388216   6.553902  -0.024055  -0.014133
     5  C    0.001988  -0.051613   0.392653  -0.024055   4.859577   0.380678
     6  N   -0.000071   0.002020  -0.030079  -0.014133   0.380678   6.608884
     7  N    0.000000  -0.000033   0.001661   0.000365  -0.042697   0.165074
     8  C   -0.000000   0.000000  -0.000188  -0.000012   0.001510  -0.041007
     9  F    0.000000  -0.000000   0.000000  -0.000000  -0.000060   0.001505
    10  H    0.374610  -0.021610   0.002695   0.000326  -0.000122   0.000000
    11  H    0.377440  -0.030792  -0.002806  -0.000234   0.000202   0.000001
    12  H    0.370493  -0.033453  -0.006908   0.006852   0.000194   0.000002
    13  H   -0.033407   0.345931  -0.024835   0.005487  -0.000809   0.000054
    14  H   -0.039965   0.358201  -0.024780  -0.005126  -0.003763   0.000047
    15  H   -0.003557  -0.049755   0.355905  -0.033536  -0.035973   0.004866
    16  H   -0.000185  -0.005823  -0.052971   0.336340  -0.002144   0.000126
    17  H    0.003011  -0.005486  -0.048846   0.348856   0.005486   0.000219
    18  H   -0.000072  -0.004643  -0.016992   0.003189   0.357223  -0.025753
    19  H    0.000100   0.000119  -0.020426  -0.008824   0.334641  -0.046844
    20  H   -0.000004   0.000450  -0.005220   0.029723  -0.054349   0.328012
    21  H    0.000000  -0.000017  -0.000197  -0.000010  -0.004657  -0.030793
    22  H   -0.000000  -0.000000  -0.000009  -0.000016  -0.000190  -0.001232
    23  H    0.000000   0.000001   0.000096  -0.000001   0.000272   0.020504
               7          8          9         10         11         12
     1  C    0.000000  -0.000000   0.000000   0.374610   0.377440   0.370493
     2  C   -0.000033   0.000000  -0.000000  -0.021610  -0.030792  -0.033453
     3  C    0.001661  -0.000188   0.000000   0.002695  -0.002806  -0.006908
     4  N    0.000365  -0.000012  -0.000000   0.000326  -0.000234   0.006852
     5  C   -0.042697   0.001510  -0.000060  -0.000122   0.000202   0.000194
     6  N    0.165074  -0.041007   0.001505   0.000000   0.000001   0.000002
     7  N    6.647248   0.351791  -0.041926  -0.000000   0.000000  -0.000000
     8  C    0.351791   4.633309   0.406048   0.000000   0.000000   0.000000
     9  F   -0.041926   0.406048   8.815847  -0.000000   0.000000   0.000000
    10  H   -0.000000   0.000000  -0.000000   0.594212  -0.030476  -0.030672
    11  H    0.000000   0.000000   0.000000  -0.030476   0.595971  -0.034099
    12  H   -0.000000   0.000000   0.000000  -0.030672  -0.034099   0.611918
    13  H    0.000000   0.000000   0.000000  -0.002922  -0.003726   0.006361
    14  H    0.000002   0.000000   0.000000  -0.001915   0.005725  -0.003870
    15  H   -0.000003   0.000011   0.000000  -0.000028   0.005243   0.000058
    16  H   -0.000056   0.000001   0.000000  -0.000017   0.000101   0.001365
    17  H   -0.000001  -0.000000   0.000000  -0.000232   0.000610   0.006347
    18  H   -0.002949   0.000069  -0.000001  -0.000000   0.000005   0.000002
    19  H    0.011887   0.000328   0.000001   0.000005   0.000005   0.000003
    20  H   -0.030832  -0.003584   0.000002  -0.000000  -0.000001  -0.000009
    21  H    0.321245  -0.044245   0.006130   0.000000   0.000000   0.000000
    22  H   -0.033203   0.348178  -0.017501  -0.000000   0.000000   0.000000
    23  H   -0.056035   0.347545  -0.028307   0.000000  -0.000000  -0.000000
              13         14         15         16         17         18
     1  C   -0.033407  -0.039965  -0.003557  -0.000185   0.003011  -0.000072
     2  C    0.345931   0.358201  -0.049755  -0.005823  -0.005486  -0.004643
     3  C   -0.024835  -0.024780   0.355905  -0.052971  -0.048846  -0.016992
     4  N    0.005487  -0.005126  -0.033536   0.336340   0.348856   0.003189
     5  C   -0.000809  -0.003763  -0.035973  -0.002144   0.005486   0.357223
     6  N    0.000054   0.000047   0.004866   0.000126   0.000219  -0.025753
     7  N    0.000000   0.000002  -0.000003  -0.000056  -0.000001  -0.002949
     8  C    0.000000   0.000000   0.000011   0.000001  -0.000000   0.000069
     9  F    0.000000   0.000000   0.000000   0.000000   0.000000  -0.000001
    10  H   -0.002922  -0.001915  -0.000028  -0.000017  -0.000232  -0.000000
    11  H   -0.003726   0.005725   0.005243   0.000101   0.000610   0.000005
    12  H    0.006361  -0.003870   0.000058   0.001365   0.006347   0.000002
    13  H    0.650552  -0.036798  -0.002098  -0.000000   0.000035   0.003635
    14  H   -0.036798   0.645159   0.006380   0.005730   0.000003  -0.000270
    15  H   -0.002098   0.006380   0.656746   0.006913  -0.004422  -0.004632
    16  H   -0.000000   0.005730   0.006913   0.516018  -0.032399  -0.000159
    17  H    0.000035   0.000003  -0.004422  -0.032399   0.494464  -0.000178
    18  H    0.003635  -0.000270  -0.004632  -0.000159  -0.000178   0.634971
    19  H   -0.000269   0.005064   0.007111   0.004319  -0.000257  -0.054196
    20  H   -0.000048  -0.000016  -0.000770  -0.001312  -0.000634   0.006400
    21  H    0.000001   0.000001   0.000000   0.000002   0.000000   0.005053
    22  H    0.000000   0.000000  -0.000001   0.000001   0.000000   0.000013
    23  H   -0.000000  -0.000000   0.000010  -0.000000  -0.000000  -0.000103
              19         20         21         22         23
     1  C    0.000100  -0.000004   0.000000  -0.000000   0.000000
     2  C    0.000119   0.000450  -0.000017  -0.000000   0.000001
     3  C   -0.020426  -0.005220  -0.000197  -0.000009   0.000096
     4  N   -0.008824   0.029723  -0.000010  -0.000016  -0.000001
     5  C    0.334641  -0.054349  -0.004657  -0.000190   0.000272
     6  N   -0.046844   0.328012  -0.030793  -0.001232   0.020504
     7  N    0.011887  -0.030832   0.321245  -0.033203  -0.056035
     8  C    0.000328  -0.003584  -0.044245   0.348178   0.347545
     9  F    0.000001   0.000002   0.006130  -0.017501  -0.028307
    10  H    0.000005  -0.000000   0.000000  -0.000000   0.000000
    11  H    0.000005  -0.000001   0.000000   0.000000  -0.000000
    12  H    0.000003  -0.000009   0.000000   0.000000  -0.000000
    13  H   -0.000269  -0.000048   0.000001   0.000000  -0.000000
    14  H    0.005064  -0.000016   0.000001   0.000000  -0.000000
    15  H    0.007111  -0.000770   0.000000  -0.000001   0.000010
    16  H    0.004319  -0.001312   0.000002   0.000001  -0.000000
    17  H   -0.000257  -0.000634   0.000000   0.000000  -0.000000
    18  H   -0.054196   0.006400   0.005053   0.000013  -0.000103
    19  H    0.691151  -0.005852  -0.001470  -0.000106   0.000118
    20  H   -0.005852   0.486407   0.004740   0.004423  -0.001305
    21  H   -0.001470   0.004740   0.514642   0.007798  -0.010091
    22  H   -0.000106   0.004423   0.007798   0.659745  -0.069973
    23  H    0.000118  -0.001305  -0.010091  -0.069973   0.710296
 Mulliken charges:
               1
     1  C   -0.391302
     2  C   -0.162805
     3  C    0.024702
     4  N   -0.519497
     5  C   -0.113992
     6  N   -0.322083
     7  N   -0.291539
     8  C    0.000245
     9  F   -0.141739
    10  H    0.116145
    11  H    0.116830
    12  H    0.105416
    13  H    0.092856
    14  H    0.090192
    15  H    0.091529
    16  H    0.224150
    17  H    0.233423
    18  H    0.099387
    19  H    0.083393
    20  H    0.243777
    21  H    0.231868
    22  H    0.102072
    23  H    0.086973
 Sum of Mulliken charges =  -0.00000
 Mulliken charges with hydrogens summed into heavy atoms:
               1
     1  C   -0.052911
     2  C    0.020242
     3  C    0.116231
     4  N   -0.061924
     5  C    0.068789
     6  N   -0.078306
     7  N   -0.059671
     8  C    0.189289
     9  F   -0.141739
 Electronic spatial extent (au):  <R**2>=           2351.7670
 Charge=             -0.0000 electrons
 Dipole moment (field-independent basis, Debye):
    X=              3.0046    Y=              0.0928    Z=              0.0874  Tot=              3.0073
 Quadrupole moment (field-independent basis, Debye-Ang):
   XX=            -60.2328   YY=            -53.4441   ZZ=            -56.3307
   XY=             -0.4401   XZ=             -3.5736   YZ=             -2.2804
 Traceless Quadrupole moment (field-independent basis, Debye-Ang):
   XX=             -3.5636   YY=              3.2251   ZZ=              0.3385
   XY=             -0.4401   XZ=             -3.5736   YZ=             -2.2804
 Octapole moment (field-independent basis, Debye-Ang**2):
  XXX=             17.6247  YYY=             -2.1249  ZZZ=             -3.2068  XYY=            -14.6674
  XXY=             13.9147  XXZ=              8.0499  XZZ=             -6.5605  YZZ=              2.6415
  YYZ=             -0.6497  XYZ=              1.0951
 Hexadecapole moment (field-independent basis, Debye-Ang**3):
 XXXX=          -2738.4842 YYYY=           -240.5725 ZZZZ=           -113.0134 XXXY=             -6.7826
 XXXZ=            -35.4601 YYYX=             26.3694 YYYZ=             -5.9563 ZZZX=             -1.0858
 ZZZY=             -5.4159 XXYY=           -423.6944 XXZZ=           -433.1327 YYZZ=            -58.9788
 XXYZ=             -7.6294 YYXZ=             -1.0914 ZZXY=              7.8069
 N-N= 4.754784637810D+02 E-N=-2.033147187494D+03  KE= 4.595694312491D+02
 PrsmSu:  requested number of processors reduced to:  13 ShMem   1 Linda.
 Calling FoFJK, ICntrl=      2127 FMM=F ISym2X=0 I1Cent= 0 IOpClX= 0 NMat=1 NMatS=1 NMatT=0.
 ***** Axes restored to original set *****
 -------------------------------------------------------------------
 Center     Atomic                   Forces (Hartrees/Bohr)
 Number     Number              X              Y              Z
 -------------------------------------------------------------------
      1        6          -0.002273913    0.002416126   -0.002164087
      2        6           0.000755308    0.006028288    0.004190947
      3        6           0.005702605    0.002180059   -0.010278518
      4        7           0.001970841   -0.001151739    0.005024186
      5        6          -0.009022380   -0.017285945    0.006133836
      6        7          -0.013095457    0.020917124    0.008720962
      7        7           0.009381502   -0.026793277   -0.010896965
      8        6          -0.002814140    0.010796116   -0.001774318
      9        9           0.010057474    0.000771518   -0.000647525
     10        1          -0.001966420   -0.000079254    0.000527184
     11        1          -0.001624521    0.000108969    0.000079616
     12        1          -0.001426980    0.000083642   -0.000080312
     13        1           0.001457590    0.000471404   -0.000762098
     14        1           0.002235011   -0.001315090    0.000057210
     15        1           0.000605240   -0.002273938   -0.000158662
     16        1          -0.000495825    0.000871938    0.000368105
     17        1           0.005134497   -0.001557572    0.001046150
     18        1          -0.000269347   -0.000560419    0.001213311
     19        1           0.001653088    0.003164636   -0.004474459
     20        1           0.015499513    0.004714095    0.000041592
     21        1          -0.012313893    0.000701707    0.002160523
     22        1          -0.005494042   -0.000475675   -0.003565505
     23        1          -0.003655750   -0.001732715    0.005238827
 -------------------------------------------------------------------
 Cartesian Forces:  Max     0.026793277 RMS     0.006699325

 GradGradGradGradGradGradGradGradGradGradGradGradGradGradGradGradGradGrad
 Berny optimization.
 FormGI is forming the generalized inverse of G from B-inverse, IUseBI=4.
 Internal  Forces:  Max     0.011566616 RMS     0.003907028
 Search for a local minimum.
 Step number   1 out of a maximum of  120
 All quantities printed in internal units (Hartrees-Bohrs-Radians)
 Mixed Optimization -- RFO/linear search
 Second derivative matrix not updated -- first step.
 ITU=  0
     Eigenvalues ---    0.00230   0.00289   0.00467   0.00634   0.00671
     Eigenvalues ---    0.00734   0.00890   0.03452   0.03512   0.03658
     Eigenvalues ---    0.03967   0.04431   0.04514   0.04720   0.04841
     Eigenvalues ---    0.05486   0.05541   0.05687   0.05727   0.07437
     Eigenvalues ---    0.07752   0.08392   0.08746   0.11026   0.11105
     Eigenvalues ---    0.12245   0.12390   0.16000   0.16000   0.16000
     Eigenvalues ---    0.16000   0.16000   0.16000   0.16000   0.16532
     Eigenvalues ---    0.18046   0.21911   0.21918   0.22409   0.23496
     Eigenvalues ---    0.23587   0.27754   0.28870   0.30121   0.33829
     Eigenvalues ---    0.33934   0.33948   0.34042   0.34134   0.34266
     Eigenvalues ---    0.34278   0.34372   0.34372   0.34404   0.34899
     Eigenvalues ---    0.35457   0.36884   0.38247   0.42699   0.44050
     Eigenvalues ---    0.44308   0.44493   0.53252
 RFO step:  Lambda=-1.26012808D-02 EMin= 2.30000000D-03
 Linear search not attempted -- first point.
 Iteration  1 RMS(Cart)=  0.05778519 RMS(Int)=  0.00196184
 Iteration  2 RMS(Cart)=  0.00365121 RMS(Int)=  0.00067986
 Iteration  3 RMS(Cart)=  0.00001209 RMS(Int)=  0.00067985
 Iteration  4 RMS(Cart)=  0.00000001 RMS(Int)=  0.00067985
 Variable       Old X    -DE/DX   Delta X   Delta X   Delta X     New X
                                 (Linear)    (Quad)   (Total)
    R1        2.87723   0.00742   0.00000   0.02363   0.02363   2.90087
    R2        2.06706   0.00021   0.00000   0.00060   0.00060   2.06766
    R3        2.06864   0.00067   0.00000   0.00189   0.00189   2.07053
    R4        2.06706   0.00053   0.00000   0.00149   0.00149   2.06855
    R5        2.90275   0.00504   0.00000   0.01672   0.01672   2.91947
    R6        2.07417   0.00075   0.00000   0.00213   0.00213   2.07630
    R7        2.07259   0.00095   0.00000   0.00268   0.00268   2.07528
    R8        2.79139  -0.00178   0.00000  -0.00491  -0.00491   2.78648
    R9        2.92679  -0.01020   0.00000  -0.03515  -0.03515   2.89164
   R10        2.07441  -0.00085   0.00000  -0.00241  -0.00241   2.07200
   R11        1.92569  -0.00065   0.00000  -0.00143  -0.00143   1.92426
   R12        1.92787  -0.00504   0.00000  -0.01105  -0.01105   1.91682
   R13        2.78239  -0.00726   0.00000  -0.01978  -0.01978   2.76260
   R14        2.07105  -0.00028   0.00000  -0.00080  -0.00080   2.07025
   R15        2.07619   0.00401   0.00000   0.01143   0.01143   2.08762
   R16        2.74007  -0.00400   0.00000  -0.01011  -0.01011   2.72996
   R17        1.94743  -0.01066   0.00000  -0.02424  -0.02424   1.92319
   R18        2.76022  -0.00736   0.00000  -0.01930  -0.01930   2.74092
   R19        1.93095  -0.00369   0.00000  -0.00814  -0.00814   1.92281
   R20        2.56719   0.01008   0.00000   0.01849   0.01849   2.58567
   R21        2.06654   0.00285   0.00000   0.00799   0.00799   2.07453
   R22        2.06884   0.00560   0.00000   0.01576   0.01576   2.08460
    A1        1.92385   0.00229   0.00000   0.01367   0.01362   1.93747
    A2        1.93285   0.00133   0.00000   0.00726   0.00723   1.94008
    A3        1.94850   0.00112   0.00000   0.00654   0.00650   1.95500
    A4        1.88952  -0.00188   0.00000  -0.01095  -0.01100   1.87853
    A5        1.87550  -0.00166   0.00000  -0.00880  -0.00886   1.86664
    A6        1.89163  -0.00143   0.00000  -0.00907  -0.00908   1.88255
    A7        1.97134   0.00563   0.00000   0.02751   0.02748   1.99882
    A8        1.89026  -0.00132   0.00000   0.00199   0.00194   1.89220
    A9        1.90869  -0.00006   0.00000   0.00714   0.00735   1.91604
   A10        1.90372  -0.00144   0.00000  -0.00504  -0.00531   1.89841
   A11        1.92496  -0.00358   0.00000  -0.02476  -0.02493   1.90003
   A12        1.86131   0.00053   0.00000  -0.00843  -0.00863   1.85268
   A13        1.95269   0.00942   0.00000   0.06525   0.06554   2.01823
   A14        1.92461   0.00083   0.00000   0.01152   0.01215   1.93676
   A15        1.89772  -0.00226   0.00000  -0.00033  -0.00019   1.89753
   A16        1.91647  -0.00848   0.00000  -0.04546  -0.04645   1.87002
   A17        1.88104  -0.00112   0.00000  -0.01872  -0.02001   1.86103
   A18        1.88965   0.00141   0.00000  -0.01492  -0.01572   1.87393
   A19        1.90598  -0.00113   0.00000  -0.00444  -0.00445   1.90153
   A20        1.90913   0.00262   0.00000   0.01731   0.01730   1.92643
   A21        1.85074  -0.00014   0.00000   0.00377   0.00375   1.85449
   A22        1.89653   0.00113   0.00000   0.00746   0.00716   1.90369
   A23        1.92065   0.00016   0.00000  -0.00843  -0.00852   1.91212
   A24        1.91022  -0.00109   0.00000   0.00239   0.00190   1.91212
   A25        1.92391  -0.00242   0.00000  -0.02634  -0.02626   1.89765
   A26        1.92438   0.00278   0.00000   0.03602   0.03589   1.96027
   A27        1.88822  -0.00055   0.00000  -0.01097  -0.01075   1.87747
   A28        1.90866   0.00353   0.00000  -0.00240  -0.00350   1.90515
   A29        1.83865   0.00396   0.00000   0.00207  -0.00119   1.83746
   A30        1.96687  -0.01157   0.00000  -0.12841  -0.12924   1.83763
   A31        1.90142   0.00068   0.00000  -0.01252  -0.01359   1.88783
   A32        1.93824  -0.00942   0.00000  -0.11061  -0.11157   1.82666
   A33        1.84673   0.00370   0.00000  -0.00026  -0.00339   1.84334
   A34        1.87222   0.00055   0.00000   0.00756   0.00726   1.87948
   A35        1.94797  -0.00900   0.00000  -0.05891  -0.05909   1.88889
   A36        1.95437   0.00378   0.00000   0.02193   0.02158   1.97595
   A37        1.88823   0.00379   0.00000   0.02290   0.02281   1.91104
   A38        1.88078   0.00116   0.00000   0.02210   0.02163   1.90241
   A39        1.91730   0.00014   0.00000  -0.01177  -0.01201   1.90529
    D1        3.10528   0.00041   0.00000   0.00159   0.00156   3.10685
    D2        0.99479  -0.00046   0.00000  -0.01102  -0.01108   0.98371
    D3       -1.02717  -0.00033   0.00000  -0.00593  -0.00585  -1.03303
    D4        1.01473   0.00042   0.00000   0.00173   0.00170   1.01643
    D5       -1.09576  -0.00045   0.00000  -0.01088  -0.01095  -1.10671
    D6       -3.11773  -0.00032   0.00000  -0.00579  -0.00572  -3.12345
    D7       -1.09481   0.00056   0.00000   0.00382   0.00381  -1.09100
    D8        3.07788  -0.00031   0.00000  -0.00878  -0.00883   3.06905
    D9        1.05592  -0.00018   0.00000  -0.00370  -0.00360   1.05231
   D10        1.07130   0.00250   0.00000   0.01707   0.01677   1.08807
   D11       -3.07352  -0.00124   0.00000   0.01229   0.01260  -3.06092
   D12       -1.00423  -0.00040   0.00000   0.00070   0.00046  -1.00377
   D13       -3.10906   0.00349   0.00000   0.03398   0.03368  -3.07538
   D14       -0.97070  -0.00025   0.00000   0.02920   0.02951  -0.94119
   D15        1.09860   0.00059   0.00000   0.01761   0.01737   1.11596
   D16       -1.07038   0.00122   0.00000   0.00658   0.00651  -1.06387
   D17        1.06798  -0.00252   0.00000   0.00180   0.00235   1.07032
   D18        3.13728  -0.00168   0.00000  -0.00979  -0.00980   3.12748
   D19        0.96087  -0.00055   0.00000  -0.02905  -0.02933   0.93155
   D20       -1.05745  -0.00121   0.00000  -0.04071  -0.04100  -1.09845
   D21       -1.18212  -0.00206   0.00000  -0.05635  -0.05565  -1.23777
   D22        3.08274  -0.00272   0.00000  -0.06801  -0.06732   3.01542
   D23        3.04625   0.00157   0.00000  -0.00264  -0.00305   3.04320
   D24        1.02792   0.00090   0.00000  -0.01430  -0.01472   1.01320
   D25        3.12302  -0.00487   0.00000  -0.06938  -0.06923   3.05380
   D26        1.01496  -0.00270   0.00000  -0.03657  -0.03642   0.97854
   D27       -1.05784  -0.00146   0.00000  -0.01953  -0.01938  -1.07722
   D28       -1.00067   0.00180   0.00000  -0.01018  -0.01054  -1.01121
   D29       -3.10873   0.00397   0.00000   0.02263   0.02226  -3.08647
   D30        1.10166   0.00522   0.00000   0.03967   0.03930   1.14096
   D31        1.04879  -0.00346   0.00000  -0.06666  -0.06644   0.98235
   D32       -1.05927  -0.00129   0.00000  -0.03386  -0.03364  -1.09291
   D33       -3.13207  -0.00005   0.00000  -0.01681  -0.01660   3.13452
   D34        3.05308  -0.00527   0.00000  -0.11128  -0.11133   2.94175
   D35        0.93490   0.00428   0.00000   0.04130   0.04165   0.97655
   D36       -1.12406  -0.00585   0.00000  -0.13304  -0.13311  -1.25717
   D37        3.04094   0.00370   0.00000   0.01953   0.01986   3.06081
   D38        0.95954  -0.00631   0.00000  -0.14054  -0.14102   0.81852
   D39       -1.15865   0.00324   0.00000   0.01204   0.01196  -1.14669
   D40        3.13136  -0.00048   0.00000  -0.00436  -0.00446   3.12690
   D41        1.10412   0.00001   0.00000   0.06663   0.06363   1.16775
   D42       -1.11317  -0.00028   0.00000  -0.08102  -0.07802  -1.19119
   D43       -3.14041   0.00021   0.00000  -0.01003  -0.00993   3.13284
   D44       -3.07167   0.00309   0.00000   0.05751   0.05746  -3.01420
   D45        1.14606   0.00324   0.00000   0.05839   0.05856   1.20462
   D46       -1.01164   0.00698   0.00000   0.10157   0.10177  -0.90987
   D47       -0.98658  -0.00561   0.00000  -0.07942  -0.07967  -1.06625
   D48       -3.05204  -0.00546   0.00000  -0.07853  -0.07858  -3.13062
   D49        1.07344  -0.00172   0.00000  -0.03535  -0.03537   1.03808
         Item               Value     Threshold  Converged?
 Maximum Force            0.011567     0.000450     NO 
 RMS     Force            0.003907     0.000300     NO 
 Maximum Displacement     0.232935     0.001800     NO 
 RMS     Displacement     0.058554     0.001200     NO 
 Predicted change in Energy=-7.325524D-03
 GradGradGradGradGradGradGradGradGradGradGradGradGradGradGradGradGradGrad

                          Input orientation:                          
 ---------------------------------------------------------------------
 Center     Atomic      Atomic             Coordinates (Angstroms)
 Number     Number       Type             X           Y           Z
 ---------------------------------------------------------------------
      1          6           0        1.007000    0.042185   -0.104965
      2          6           0        2.539250   -0.044665   -0.071568
      3          6           0        3.100189   -1.110301    0.896182
      4          7           0        2.730564   -2.505176    0.592913
      5          6           0        4.628228   -1.050249    0.950761
      6          7           0        5.107356   -1.989399    1.963484
      7          7           0        6.538700   -2.136264    1.834454
      8          6           0        6.993241   -3.055374    2.860311
      9          9           0        8.361303   -3.061270    2.836593
     10          1           0        0.673720    0.836046   -0.780165
     11          1           0        0.601479    0.260164    0.889291
     12          1           0        0.550871   -0.888546   -0.456955
     13          1           0        2.936427    0.938468    0.216378
     14          1           0        2.922235   -0.245107   -1.081105
     15          1           0        2.728076   -0.899499    1.905792
     16          1           0        2.976794   -2.709823   -0.373717
     17          1           0        1.725978   -2.627334    0.661966
     18          1           0        4.945767   -0.039616    1.229996
     19          1           0        5.042756   -1.265398   -0.050384
     20          1           0        4.719884   -2.891932    1.696965
     21          1           0        6.915297   -1.227498    2.094535
     22          1           0        6.618243   -4.057348    2.614194
     23          1           0        6.652781   -2.779863    3.872764
 ---------------------------------------------------------------------
                    Distance matrix (angstroms):
                    1          2          3          4          5
     1  C    0.000000
     2  C    1.535073   0.000000
     3  C    2.590745   1.544918   0.000000
     4  N    3.153847   2.555827   1.474541   0.000000
     5  C    3.926991   2.533808   1.530192   2.417850   0.000000
     6  N    5.021825   3.810327   2.437347   2.791707   1.461907
     7  N    6.253534   4.899317   3.708950   4.022365   2.368595
     8  C    7.363614   6.123588   4.774617   4.859448   3.641455
     9  F    8.507054   7.173117   5.937238   6.086753   4.640734
    10  H    1.094160   2.181276   3.533576   4.156888   4.710876
    11  H    1.095676   2.184291   2.849873   3.502563   4.235053
    12  H    1.094629   2.194154   2.894681   2.909773   4.316556
    13  H    2.151574   1.098733   2.164812   3.470280   2.712289
    14  H    2.168757   1.098189   2.165616   2.819040   2.772570
    15  H    2.809272   2.162487   1.096457   2.074092   2.131992
    16  H    3.394976   2.717683   2.046054   1.018274   2.689918
    17  H    2.869049   2.805292   2.060267   1.014339   3.315668
    18  H    4.159651   2.735949   2.159619   3.375202   1.095528
    19  H    4.242650   2.785351   2.166473   2.701317   1.104723
    20  H    5.063743   3.998725   2.537493   2.307792   1.989225
    21  H    6.431008   5.024030   4.000604   4.625940   2.563263
    22  H    7.462308   6.320848   4.900342   4.648533   3.971122
    23  H    7.460638   6.321408   4.926295   5.120221   3.953287
                    6          7          8          9         10
     6  N    0.000000
     7  N    1.444633   0.000000
     8  C    2.344604   1.450432   0.000000
     9  F    3.535449   2.276357   1.368280   0.000000
    10  H    5.930250   7.075934   8.266352   9.347135   0.000000
    11  H    5.149500   6.472000   7.465410   8.662492   1.767468
    12  H    5.275600   6.531573   7.563302   8.750488   1.758913
    13  H    4.041994   5.004850   6.276855   7.231370   2.474556
    14  H    4.133621   5.015554   6.324987   7.270666   2.513021
    15  H    2.617668   4.006936   4.873453   6.105153   3.800902
    16  H    3.243579   4.229912   5.168190   6.278737   4.247651
    17  H    3.678943   4.977767   5.723635   6.996059   3.896408
    18  H    2.089442   2.701618   3.993104   4.835021   4.801866
    19  H    2.141031   2.559076   3.934534   4.751057   4.902767
    20  H    1.017709   1.974342   2.558954   3.819340   6.033691
    21  H    1.966295   1.017508   1.983336   2.450368   7.174914
    22  H    2.642465   2.074821   1.097793   2.019874   8.414531
    23  H    2.580412   2.140547   1.103123   2.017892   8.394863
                   11         12         13         14         15
    11  H    0.000000
    12  H    1.770445   0.000000
    13  H    2.522873   3.079324   0.000000
    14  H    3.086043   2.535141   1.756278   0.000000
    15  H    2.626881   3.212929   2.505126   3.063899   0.000000
    16  H    4.007260   3.034647   3.695926   2.564799   2.921523
    17  H    3.107059   2.378286   3.791923   3.185016   2.353023
    18  H    4.367927   4.783471   2.453878   3.078652   2.472701
    19  H    4.789078   4.525964   3.060198   2.569044   3.052581
    20  H    5.248743   5.102313   4.477145   4.237321   2.825013
    21  H    6.597730   6.865195   4.904110   5.195606   4.204287
    22  H    7.603792   7.502417   6.653080   6.469072   5.060360
    23  H    7.400077   7.717309   6.403627   6.699461   4.775779
                   16         17         18         19         20
    16  H    0.000000
    17  H    1.626033   0.000000
    18  H    3.684936   4.169650   0.000000
    19  H    2.541477   3.655588   1.775196   0.000000
    20  H    2.712793   3.178790   2.899101   2.408959   0.000000
    21  H    4.878663   5.562447   2.457140   2.847547   2.783566
    22  H    4.899345   5.458057   4.566766   4.168587   2.408998
    23  H    5.616973   5.882676   4.172179   4.502985   2.912517
                   21         22         23
    21  H    0.000000
    22  H    2.892462   0.000000
    23  H    2.375047   1.793644   0.000000
 Stoichiometry    C5H14FN3
 Framework group  C1[X(C5H14FN3)]
 Deg. of freedom    63
 Full point group                 C1      NOp   1
 Largest Abelian subgroup         C1      NOp   1
 Largest concise Abelian subgroup C1      NOp   1
                         Standard orientation:                         
 ---------------------------------------------------------------------
 Center     Atomic      Atomic             Coordinates (Angstroms)
 Number     Number       Type             X           Y           Z
 ---------------------------------------------------------------------
      1          6           0        4.147984   -0.162546    0.260290
      2          6           0        2.804794   -0.741529   -0.205613
      3          6           0        1.568904    0.080242    0.223390
      4          7           0        1.500221    1.453875   -0.308294
      5          6           0        0.273720   -0.626029   -0.183017
      6          7           0       -0.864994    0.122877    0.345796
      7          7           0       -2.080733   -0.377287   -0.253185
      8          6           0       -3.196544    0.365766    0.300523
      9          9           0       -4.349186   -0.221379   -0.145421
     10          1           0        4.979092   -0.806023   -0.043656
     11          1           0        4.181640   -0.070215    1.351550
     12          1           0        4.338203    0.827366   -0.166445
     13          1           0        2.708370   -1.760194    0.194685
     14          1           0        2.802504   -0.841574   -1.299233
     15          1           0        1.565667    0.166335    1.316457
     16          1           0        1.595598    1.421405   -1.321572
     17          1           0        2.281068    2.004102    0.032894
     18          1           0        0.258079   -1.635967    0.241203
     19          1           0        0.236134   -0.725556   -1.282605
     20          1           0       -0.756247    1.067634   -0.016614
     21          1           0       -2.175510   -1.323666    0.108351
     22          1           0       -3.142019    1.396475   -0.073398
     23          1           0       -3.204508    0.380611    1.403517
 ---------------------------------------------------------------------
 Rotational constants (GHZ):           6.0104132           0.4838540           0.4630091
 Standard basis: 6-31G(2df,p) (6D, 7F)
 There are   349 symmetry adapted cartesian basis functions of A   symmetry.
 There are   322 symmetry adapted basis functions of A   symmetry.
   322 basis functions,   494 primitive gaussians,   349 cartesian basis functions
    37 alpha electrons       37 beta electrons
       nuclear repulsion energy       476.5935157702 Hartrees.
 NAtoms=   23 NActive=   23 NUniq=   23 SFac= 1.00D+00 NAtFMM=   60 NAOKFM=F Big=F
 Integral buffers will be    131072 words long.
 Raffenetti 2 integral format.
 Two-electron integral symmetry is turned on.
 One-electron integrals computed using PRISM.
 PrsmSu:  requested number of processors reduced to:  13 ShMem   1 Linda.
 NBasis=   322 RedAO= T EigKep=  3.17D-04  NBF=   322
 NBsUse=   322 1.00D-06 EigRej= -1.00D+00 NBFU=   322
 Initial guess from the checkpoint file:  "CCCpNpCNNCF.chk"
 B after Tr=    -0.000000   -0.000000   -0.000000
         Rot=    0.999987   -0.004032   -0.000866   -0.003088 Ang=  -0.59 deg.
 ExpMin= 1.61D-01 ExpMax= 7.00D+03 ExpMxC= 1.05D+03 IAcc=2 IRadAn=         4 AccDes= 0.00D+00
 Harris functional with IExCor=  402 and IRadAn=       4 diagonalized for initial guess.
 HarFok:  IExCor=  402 AccDes= 0.00D+00 IRadAn=         4 IDoV= 1 UseB2=F ITyADJ=14
 ICtDFT=  3500011 ScaDFX=  1.000000  1.000000  1.000000  1.000000
 FoFCou: FMM=F IPFlag=           0 FMFlag=      100000 FMFlg1=           0
         NFxFlg=           0 DoJE=T BraDBF=F KetDBF=T FulRan=T
         wScrn=  0.000000 ICntrl=       500 IOpCl=  0 I1Cent=   200000004 NGrid=           0
         NMat0=    1 NMatS0=      1 NMatT0=    0 NMatD0=    1 NMtDS0=    0 NMtDT0=    0
 Petite list used in FoFCou.
 Requested convergence on RMS density matrix=1.00D-08 within 128 cycles.
 Requested convergence on MAX density matrix=1.00D-06.
 Requested convergence on             energy=1.00D-06.
 No special actions if energy rises.
 Integral accuracy reduced to 1.0D-05 until final iterations.
 Initial convergence to 1.0D-05 achieved.  Increase integral accuracy.
 SCF Done:  E(RB3LYP) =  -463.033329751     A.U. after   11 cycles
            NFock= 11  Conv=0.23D-08     -V/T= 2.0074
 PrsmSu:  requested number of processors reduced to:  13 ShMem   1 Linda.
 Calling FoFJK, ICntrl=      2127 FMM=F ISym2X=0 I1Cent= 0 IOpClX= 0 NMat=1 NMatS=1 NMatT=0.
 ***** Axes restored to original set *****
 -------------------------------------------------------------------
 Center     Atomic                   Forces (Hartrees/Bohr)
 Number     Number              X              Y              Z
 -------------------------------------------------------------------
      1        6           0.001582579   -0.000727335   -0.000127594
      2        6          -0.001253278   -0.000144476    0.001432774
      3        6          -0.000243538    0.000749549   -0.001733871
      4        7          -0.001361646    0.002442620   -0.001983043
      5        6          -0.001502429   -0.001992688    0.001652346
      6        7          -0.008151164    0.001706582    0.002204958
      7        7           0.011084508   -0.000089763   -0.003232194
      8        6          -0.000788344    0.000727680   -0.000343638
      9        9          -0.000752008   -0.000517840    0.000578662
     10        1           0.000334653    0.000168512    0.000130290
     11        1          -0.000025803   -0.000123012    0.000092154
     12        1           0.000197874   -0.000863714    0.000333802
     13        1           0.000769068   -0.000989920    0.000179390
     14        1          -0.000008588   -0.000235423   -0.000472723
     15        1          -0.000899787   -0.000371464    0.000623033
     16        1          -0.000676765   -0.000322127   -0.000430829
     17        1          -0.000659573   -0.000648824    0.000418260
     18        1           0.000743829    0.001200302   -0.000399825
     19        1           0.001379470    0.000226206    0.000274858
     20        1          -0.002592356   -0.000772214   -0.000397578
     21        1           0.001869966    0.002224662    0.000360267
     22        1           0.000193740   -0.001332061    0.000892994
     23        1           0.000759592   -0.000315252   -0.000052493
 -------------------------------------------------------------------
 Cartesian Forces:  Max     0.011084508 RMS     0.001980357

 GradGradGradGradGradGradGradGradGradGradGradGradGradGradGradGradGradGrad
 Berny optimization.
 Using GEDIIS/GDIIS optimizer.
 FormGI is forming the generalized inverse of G from B-inverse, IUseBI=4.
 Internal  Forces:  Max     0.012343666 RMS     0.001583450
 Search for a local minimum.
 Step number   2 out of a maximum of  120
 All quantities printed in internal units (Hartrees-Bohrs-Radians)
 Mixed Optimization -- RFO/linear search
 Update second derivatives using D2CorX and points    1    2
 DE= -5.77D-03 DEPred=-7.33D-03 R= 7.87D-01
 TightC=F SS=  1.41D+00  RLast= 4.15D-01 DXNew= 5.0454D-01 1.2461D+00
 Trust test= 7.87D-01 RLast= 4.15D-01 DXMaxT set to 5.05D-01
 ITU=  1  0
 Use linear search instead of GDIIS.
     Eigenvalues ---    0.00228   0.00290   0.00468   0.00633   0.00673
     Eigenvalues ---    0.00736   0.00890   0.03356   0.03723   0.04052
     Eigenvalues ---    0.04330   0.04342   0.04422   0.04611   0.04823
     Eigenvalues ---    0.05463   0.05489   0.05574   0.06098   0.07525
     Eigenvalues ---    0.07919   0.08624   0.08813   0.10704   0.11131
     Eigenvalues ---    0.12429   0.12487   0.15897   0.16000   0.16000
     Eigenvalues ---    0.16000   0.16000   0.16000   0.16094   0.17236
     Eigenvalues ---    0.18695   0.21820   0.22236   0.22501   0.23920
     Eigenvalues ---    0.24255   0.27860   0.29169   0.30304   0.33744
     Eigenvalues ---    0.33940   0.33956   0.34031   0.34127   0.34202
     Eigenvalues ---    0.34278   0.34372   0.34375   0.34385   0.34884
     Eigenvalues ---    0.35294   0.36808   0.40334   0.43135   0.44210
     Eigenvalues ---    0.44486   0.44849   0.53276
 RFO step:  Lambda=-1.59319981D-03 EMin= 2.28427485D-03
 Quartic linear search produced a step of -0.08950.
 Iteration  1 RMS(Cart)=  0.09085165 RMS(Int)=  0.00365169
 Iteration  2 RMS(Cart)=  0.00457957 RMS(Int)=  0.00006042
 Iteration  3 RMS(Cart)=  0.00001352 RMS(Int)=  0.00006004
 Iteration  4 RMS(Cart)=  0.00000000 RMS(Int)=  0.00006004
 Variable       Old X    -DE/DX   Delta X   Delta X   Delta X     New X
                                 (Linear)    (Quad)   (Total)
    R1        2.90087  -0.00218  -0.00212  -0.00271  -0.00482   2.89605
    R2        2.06766  -0.00006  -0.00005  -0.00006  -0.00011   2.06755
    R3        2.07053   0.00007  -0.00017   0.00048   0.00031   2.07084
    R4        2.06855   0.00054  -0.00013   0.00166   0.00153   2.07008
    R5        2.91947  -0.00357  -0.00150  -0.00842  -0.00992   2.90956
    R6        2.07630  -0.00056  -0.00019  -0.00114  -0.00133   2.07497
    R7        2.07528   0.00047  -0.00024   0.00168   0.00144   2.07672
    R8        2.78648  -0.00031   0.00044  -0.00157  -0.00113   2.78535
    R9        2.89164   0.00234   0.00315   0.00190   0.00505   2.89669
   R10        2.07200   0.00081   0.00022   0.00175   0.00197   2.07397
   R11        1.92426   0.00031   0.00013   0.00040   0.00053   1.92479
   R12        1.91682   0.00076   0.00099  -0.00022   0.00077   1.91759
   R13        2.76260  -0.00051   0.00177  -0.00446  -0.00269   2.75992
   R14        2.07025   0.00122   0.00007   0.00308   0.00316   2.07341
   R15        2.08762   0.00022  -0.00102   0.00243   0.00140   2.08903
   R16        2.72996   0.01234   0.00091   0.02739   0.02829   2.75825
   R17        1.92319   0.00178   0.00217  -0.00012   0.00205   1.92524
   R18        2.74092   0.00149   0.00173   0.00054   0.00226   2.74318
   R19        1.92281   0.00277   0.00073   0.00436   0.00509   1.92790
   R20        2.58567  -0.00076  -0.00165   0.00165  -0.00000   2.58567
   R21        2.07453   0.00095  -0.00072   0.00376   0.00304   2.07757
   R22        2.08460  -0.00036  -0.00141   0.00158   0.00017   2.08477
    A1        1.93747  -0.00025  -0.00122   0.00185   0.00064   1.93811
    A2        1.94008   0.00009  -0.00065   0.00089   0.00024   1.94031
    A3        1.95500  -0.00064  -0.00058  -0.00275  -0.00333   1.95167
    A4        1.87853   0.00014   0.00098  -0.00060   0.00039   1.87891
    A5        1.86664   0.00065   0.00079   0.00368   0.00448   1.87112
    A6        1.88255   0.00006   0.00081  -0.00303  -0.00222   1.88033
    A7        1.99882  -0.00237  -0.00246  -0.00620  -0.00866   1.99016
    A8        1.89220   0.00169  -0.00017   0.01348   0.01331   1.90551
    A9        1.91604   0.00036  -0.00066  -0.00048  -0.00121   1.91483
   A10        1.89841  -0.00004   0.00048  -0.00220  -0.00167   1.89674
   A11        1.90003   0.00082   0.00223  -0.00453  -0.00232   1.89772
   A12        1.85268  -0.00034   0.00077   0.00046   0.00123   1.85392
   A13        2.01823  -0.00280  -0.00587  -0.00538  -0.01131   2.00692
   A14        1.93676  -0.00041  -0.00109   0.00152   0.00042   1.93718
   A15        1.89753   0.00078   0.00002  -0.00179  -0.00183   1.89571
   A16        1.87002   0.00309   0.00416   0.01078   0.01504   1.88506
   A17        1.86103  -0.00001   0.00179  -0.00443  -0.00259   1.85844
   A18        1.87393  -0.00054   0.00141  -0.00064   0.00084   1.87477
   A19        1.90153   0.00070   0.00040   0.00398   0.00437   1.90590
   A20        1.92643   0.00064  -0.00155   0.00721   0.00565   1.93208
   A21        1.85449  -0.00049  -0.00034  -0.00052  -0.00087   1.85362
   A22        1.90369   0.00280  -0.00064   0.01542   0.01476   1.91844
   A23        1.91212  -0.00025   0.00076  -0.00059   0.00023   1.91235
   A24        1.91212  -0.00025  -0.00017   0.00440   0.00421   1.91634
   A25        1.89765  -0.00119   0.00235  -0.01191  -0.00959   1.88806
   A26        1.96027  -0.00101  -0.00321   0.00347   0.00015   1.96042
   A27        1.87747  -0.00016   0.00096  -0.01141  -0.01049   1.86698
   A28        1.90515  -0.00070   0.00031  -0.00281  -0.00241   1.90274
   A29        1.83746  -0.00074   0.00011  -0.00615  -0.00578   1.83168
   A30        1.83763   0.00118   0.01157  -0.01237  -0.00074   1.83689
   A31        1.88783  -0.00289   0.00122  -0.01222  -0.01091   1.87692
   A32        1.82666   0.00153   0.00999  -0.00796   0.00210   1.82876
   A33        1.84334   0.00016   0.00030  -0.00051   0.00006   1.84340
   A34        1.87948   0.00095  -0.00065   0.00453   0.00389   1.88337
   A35        1.88889   0.00172   0.00529   0.00086   0.00615   1.89504
   A36        1.97595   0.00027  -0.00193   0.00511   0.00320   1.97915
   A37        1.91104  -0.00106  -0.00204  -0.00121  -0.00326   1.90779
   A38        1.90241  -0.00100  -0.00194  -0.00313  -0.00503   1.89738
   A39        1.90529  -0.00091   0.00107  -0.00614  -0.00505   1.90024
    D1        3.10685  -0.00002  -0.00014   0.00935   0.00920   3.11605
    D2        0.98371   0.00037   0.00099   0.00637   0.00738   0.99109
    D3       -1.03303  -0.00037   0.00052  -0.00144  -0.00093  -1.03395
    D4        1.01643  -0.00008  -0.00015   0.00829   0.00813   1.02456
    D5       -1.10671   0.00030   0.00098   0.00530   0.00631  -1.10040
    D6       -3.12345  -0.00043   0.00051  -0.00251  -0.00200  -3.12545
    D7       -1.09100   0.00021  -0.00034   0.01345   0.01309  -1.07790
    D8        3.06905   0.00060   0.00079   0.01046   0.01127   3.08032
    D9        1.05231  -0.00014   0.00032   0.00265   0.00296   1.05528
   D10        1.08807  -0.00142  -0.00150  -0.01829  -0.01975   1.06832
   D11       -3.06092   0.00028  -0.00113  -0.00665  -0.00781  -3.06873
   D12       -1.00377  -0.00013  -0.00004  -0.00764  -0.00766  -1.01143
   D13       -3.07538  -0.00087  -0.00301  -0.00672  -0.00969  -3.08507
   D14       -0.94119   0.00083  -0.00264   0.00492   0.00225  -0.93894
   D15        1.11596   0.00042  -0.00155   0.00394   0.00240   1.11837
   D16       -1.06387  -0.00084  -0.00058  -0.00979  -0.01036  -1.07423
   D17        1.07032   0.00086  -0.00021   0.00185   0.00158   1.07190
   D18        3.12748   0.00044   0.00088   0.00087   0.00173   3.12921
   D19        0.93155  -0.00001   0.00262  -0.04019  -0.03757   0.89398
   D20       -1.09845  -0.00019   0.00367  -0.04598  -0.04233  -1.14078
   D21       -1.23777   0.00004   0.00498  -0.04695  -0.04201  -1.27977
   D22        3.01542  -0.00014   0.00602  -0.05274  -0.04677   2.96866
   D23        3.04320  -0.00079   0.00027  -0.04918  -0.04885   2.99434
   D24        1.01320  -0.00097   0.00132  -0.05498  -0.05361   0.95959
   D25        3.05380   0.00006   0.00620  -0.13307  -0.12692   2.92688
   D26        0.97854  -0.00001   0.00326  -0.12745  -0.12423   0.85431
   D27       -1.07722   0.00048   0.00173  -0.11585  -0.11411  -1.19133
   D28       -1.01121  -0.00155   0.00094  -0.13115  -0.13019  -1.14140
   D29       -3.08647  -0.00163  -0.00199  -0.12553  -0.12750   3.06922
   D30        1.14096  -0.00114  -0.00352  -0.11394  -0.11739   1.02358
   D31        0.98235  -0.00033   0.00595  -0.13137  -0.12545   0.85690
   D32       -1.09291  -0.00040   0.00301  -0.12575  -0.12276  -1.21567
   D33        3.13452   0.00009   0.00149  -0.11415  -0.11264   3.02188
   D34        2.94175  -0.00008   0.00996  -0.07322  -0.06322   2.87853
   D35        0.97655  -0.00077  -0.00373  -0.05479  -0.05852   0.91803
   D36       -1.25717   0.00055   0.01191  -0.07193  -0.06004  -1.31722
   D37        3.06081  -0.00013  -0.00178  -0.05349  -0.05534   3.00547
   D38        0.81852  -0.00105   0.01262  -0.09180  -0.07913   0.73939
   D39       -1.14669  -0.00173  -0.00107  -0.07337  -0.07442  -1.22111
   D40        3.12690  -0.00008   0.00040  -0.02418  -0.02378   3.10313
   D41        1.16775   0.00023  -0.00569  -0.01483  -0.02027   1.14748
   D42       -1.19119  -0.00066   0.00698  -0.03854  -0.03181  -1.22299
   D43        3.13284  -0.00034   0.00089  -0.02919  -0.02830   3.10454
   D44       -3.01420  -0.00025  -0.00514  -0.00667  -0.01180  -3.02600
   D45        1.20462  -0.00044  -0.00524  -0.00817  -0.01343   1.19119
   D46       -0.90987  -0.00067  -0.00911  -0.00430  -0.01343  -0.92330
   D47       -1.06625   0.00032   0.00713  -0.02122  -0.01406  -1.08031
   D48       -3.13062   0.00012   0.00703  -0.02273  -0.01569   3.13688
   D49        1.03808  -0.00011   0.00317  -0.01886  -0.01569   1.02238
         Item               Value     Threshold  Converged?
 Maximum Force            0.012344     0.000450     NO 
 RMS     Force            0.001583     0.000300     NO 
 Maximum Displacement     0.355912     0.001800     NO 
 RMS     Displacement     0.091172     0.001200     NO 
 Predicted change in Energy=-9.873474D-04
 GradGradGradGradGradGradGradGradGradGradGradGradGradGradGradGradGradGrad

                          Input orientation:                          
 ---------------------------------------------------------------------
 Center     Atomic      Atomic             Coordinates (Angstroms)
 Number     Number       Type             X           Y           Z
 ---------------------------------------------------------------------
      1          6           0        1.011699    0.046186   -0.067521
      2          6           0        2.542171   -0.025648   -0.034075
      3          6           0        3.097634   -1.150004    0.859164
      4          7           0        2.707814   -2.513745    0.458221
      5          6           0        4.628118   -1.094409    0.923954
      6          7           0        5.113076   -1.967645    1.989456
      7          7           0        6.545475   -2.184615    1.811683
      8          6           0        7.002908   -3.010919    2.914049
      9          9           0        8.366453   -3.095964    2.838561
     10          1           0        0.670900    0.875743   -0.694214
     11          1           0        0.600553    0.197764    0.936896
     12          1           0        0.569833   -0.869977   -0.474195
     13          1           0        2.940665    0.934194    0.320279
     14          1           0        2.929253   -0.161143   -1.053635
     15          1           0        2.720186   -1.005593    1.879547
     16          1           0        2.913590   -2.643828   -0.530812
[...]
 3499,0.00046914,-0.00180701,0.00047929,0.00004971,0.00024132,0.0000964
 5,-0.00035856,0.00010715,-0.00000335,-0.00016887,-0.00002588,0.0000107
 4,-0.00000912,0.00000919,-0.00000355,0.00000146,-0.00011675,0.00021167
 ,-0.00046898,0.00030366,0.00092534,0.00033197,-0.00005200,0.00011083,0
 .00050086,0.01025119,0.00551694,-0.01960569,0.02670520,0.06652838,-0.0
 0266204,-0.00120393,0.00418214,0.09450990,0.04918797,-0.23242363,0.004
 83297,0.00233543,-0.01276482,-0.00089618,-0.00048905,0.00224301,0.0012
 2196,-0.00003215,-0.00051375,-0.00042498,-0.00037710,0.00057402,-0.000
 14687,0.00012468,-0.00001063,0.00002491,-0.00001335,-0.00003265,-0.000
 01591,-0.00000540,0.00001486,0.00067429,-0.00028265,0.00037910,-0.0013
 9821,-0.00011225,0.00140731,0.00060056,0.00002976,0.00075185,0.0093747
 6,0.00530328,-0.01903115,-0.10376878,-0.05763408,0.25332506,0.00140093
 ,-0.00019232,-0.00092043,0.00433502,0.00424865,-0.01012387,-0.09778110
 ,-0.02644504,0.09664282,0.00336668,0.00013405,-0.00725668,-0.01936416,
 -0.00842813,0.02949590,0.00262053,-0.00050658,0.00017582,-0.00005532,0
 .00001183,-0.00078584,0.00002062,0.00008844,0.00017080,0.00000505,0.00
 007154,-0.00013531,0.00014823,-0.00009736,0.00013201,0.00008436,-0.000
 12842,0.00038335,-0.00006162,-0.00000285,-0.00005184,0.00022782,-0.000
 57885,0.00033896,-0.00025365,0.00218028,-0.00134660,0.10812566,-0.0014
 8983,0.00118233,-0.00034260,-0.01184841,-0.00926561,0.02616468,-0.0300
 3663,-0.06351802,0.05659539,0.01231984,0.00199921,-0.02875060,-0.00129
 363,-0.00052100,0.00231711,0.00065163,0.00043432,-0.00049928,0.0000989
 1,-0.00000719,-0.00015009,0.00000562,0.00003972,0.00016642,-0.00000920
 ,0.00001786,-0.00005222,-0.00014781,0.00011899,-0.00038817,0.00086397,
 0.00018411,-0.00043631,0.00021212,0.00002232,0.00003944,-0.00037967,0.
 00082885,-0.00065270,0.00212882,-0.00493788,0.00205653,0.03017484,0.07
 568843,0.00059952,-0.00076588,0.00017732,0.00504963,0.00478161,-0.0095
 7755,0.09392267,0.04997713,-0.23142493,0.00985251,-0.00043159,-0.02457
 534,-0.00164132,-0.00065960,0.00440323,-0.00044516,-0.00028741,0.00035
 715,-0.00017188,-0.00024015,0.00050016,0.00005493,-0.00000127,-0.00014
 983,-0.00001200,-0.00002931,0.00004332,-0.00013641,-0.00011854,0.00039
 230,-0.00093429,0.00018870,0.00018907,0.00000033,-0.00001292,0.0000205
 0,-0.00014865,0.00048748,0.00050357,-0.00062552,0.00181293,0.00075981,
 -0.10306996,-0.05206999,0.25895046,-0.00008286,0.00021804,0.00038995,0
 .00023302,-0.00054025,0.00003251,0.00146462,0.00533018,-0.00380112,-0.
 06482498,-0.03867369,0.06386357,0.00197027,0.00076792,-0.00219250,-0.0
 0077831,0.00004114,0.00064352,-0.00010831,0.00008028,-0.00004389,-0.00
 014753,-0.00000370,-0.00018732,0.00002007,-0.00005802,0.00009808,0.000
 05116,-0.00008091,-0.00015312,0.00001096,-0.00014875,-0.00023569,-0.00
 055754,0.00004812,-0.00006738,0.00003461,-0.00036293,-0.00029634,0.000
 07941,0.00019606,0.00029867,0.00082282,-0.00088064,-0.00131453,0.07321
 986,0.00033118,-0.00022422,0.00013400,0.00137662,0.00245406,-0.0020830
 4,0.00969021,0.00269609,-0.03310430,-0.05786854,-0.06163484,0.10892539
 ,0.00080403,0.00081769,0.00034235,0.00050060,-0.00036352,0.00004487,0.
 00005761,-0.00004383,-0.00001040,0.00003845,0.00005567,0.00001095,0.00
 001072,-0.00002825,-0.00000904,-0.00001893,0.00004977,0.00008308,-0.00
 026539,0.00004091,0.00012365,0.00035588,-0.00013138,-0.00001932,-0.000
 33981,0.00037411,0.00061402,-0.00063193,-0.00033376,0.00092384,-0.0011
 8196,-0.00368477,-0.00397723,0.04565225,0.06447691,0.00013065,-0.00017
 548,0.00001365,-0.00013799,0.00119925,0.00258812,0.00615805,0.00941492
 ,-0.02592280,0.09873341,0.07597294,-0.36402366,0.00051349,0.00050271,-
 0.00048735,-0.00022539,-0.00014569,0.00027710,-0.00004772,0.00000809,0
 .00005160,-0.00005514,0.00001853,-0.00011655,0.00000523,-0.00004079,0.
 00005201,0.00006531,0.00007199,0.00007455,-0.00012395,0.00008922,0.000
 03944,0.00032662,-0.00009572,0.00004655,-0.00038094,0.00062711,0.00032
 877,0.00031767,-0.00129971,0.00050468,-0.00203821,-0.00451350,-0.00177
 401,-0.09740027,-0.08335911,0.38849456,-0.00010816,0.00038496,-0.00014
 112,0.00038923,0.00065983,0.00076458,-0.00619114,0.00520768,0.00017419
 ,-0.40881557,-0.11008054,0.01023245,0.00071639,-0.00176078,-0.00248789
 ,0.00017158,-0.00063302,-0.00023840,-0.00008568,0.00018602,-0.00009929
 ,0.00006199,-0.00012287,0.00024339,-0.00001956,0.00011640,-0.00010220,
 0.00010059,0.00003990,0.00013192,-0.00006234,0.00004478,0.00016187,-0.
 00009692,0.00093649,0.00007725,-0.00021095,0.00035065,0.00006598,-0.00
 000523,-0.00006847,0.00000367,0.00091147,0.00028313,-0.00021244,-0.011
 18591,0.00224446,-0.00478191,0.42455588,-0.00025228,-0.00032075,-0.001
 04316,-0.00162991,-0.00026513,0.00010656,-0.03001190,-0.01060555,-0.00
 088915,-0.06258973,-0.03555662,-0.01195267,0.00109200,-0.00376279,-0.0
 0279896,0.00057432,0.00053436,0.00110320,0.00000036,0.00001345,0.00019
 773,0.00003422,0.00013486,-0.00025512,0.00000871,-0.00012114,0.0001057
 8,0.00018645,0.00054875,0.00039012,0.00009342,-0.00002425,0.00002802,0
 .00145089,-0.00080410,0.00108551,0.00039349,0.00016591,-0.00014142,0.0
 0007060,-0.00004589,-0.00009709,0.00071532,0.00138649,0.00050437,-0.01
 096671,-0.00479352,0.00197370,0.10215296,0.05280350,0.00024622,0.00015
 944,0.00089585,0.00046161,0.00026341,-0.00001092,-0.02650650,-0.002910
 65,-0.00048301,-0.00755524,-0.01553444,-0.05500606,-0.00024868,-0.0046
 6328,-0.00394551,0.00013594,-0.00067895,-0.00012511,-0.00009514,0.0003
 2686,-0.00016530,0.00005705,-0.00015377,0.00028898,-0.00002064,0.00015
 117,-0.00012764,0.00012686,-0.00001353,-0.00025204,0.00015460,-0.00020
 148,-0.00036205,-0.00028894,0.00013767,-0.00007011,-0.00010693,0.00000
 544,0.00002986,0.00004869,0.00004666,0.00005156,-0.00017236,0.00057983
 ,0.00022174,0.03958537,0.00999432,-0.00052105,-0.00413333,0.01298285,0
 .05906480,0.00009871,0.00008425,0.00032483,0.00073749,-0.00094506,-0.0
 0045168,-0.00320224,-0.02291570,-0.02039338,-0.00704084,-0.00152077,-0
 .00006491,-0.06037683,-0.03907898,-0.03127789,0.00307751,0.01133738,0.
 00391576,0.00111997,-0.00118895,0.00112194,0.00029775,0.00010331,-0.00
 026224,-0.00001187,-0.00009543,0.00010486,0.00003831,0.00002615,0.0000
 3717,-0.00001813,-0.00003107,-0.00001141,0.00022270,-0.00004805,0.0000
 9591,-0.00042880,0.00093653,0.00003148,-0.00006476,0.00018835,0.000009
 78,0.00118513,0.00000024,0.00063964,-0.00027856,0.00006992,-0.00018397
 ,-0.00068096,-0.00109677,-0.00181027,0.06293049,-0.00022422,0.00029086
 ,0.00022079,0.00081823,-0.00025168,0.00015575,-0.00023745,-0.00157138,
 -0.00097968,-0.00018858,0.00102310,0.00043847,-0.03819581,-0.18257925,
 -0.11720701,-0.00837669,-0.03333442,-0.01222777,-0.00061420,0.00266484
 ,0.00022775,0.00069207,-0.00050293,-0.00103212,-0.00009777,0.00031450,
 0.00012831,-0.00002897,0.00001264,0.00000310,-0.00002707,-0.00002057,-
 0.00001711,0.00016874,0.00003631,0.00009052,0.00053182,0.00059162,0.00
 035354,-0.00003958,0.00005807,0.00013219,-0.00011290,-0.00007021,0.000
 12156,-0.00003250,-0.00007669,-0.00002797,0.00029486,0.00006707,-0.000
 10716,0.04078228,0.21374779,-0.00005866,0.00041265,0.00018830,0.000188
 69,-0.00062669,-0.00033989,0.00128577,-0.00328158,-0.00428057,-0.00218
 707,-0.00032930,0.00118126,-0.03429998,-0.12197042,-0.15275665,0.00480
 118,0.01553582,0.01202964,-0.00005711,-0.00066530,0.00103416,0.0003533
 8,-0.00036486,-0.00002085,-0.00000089,0.00014256,0.00007123,-0.0000605
 2,0.00001767,-0.00001174,0.00003100,-0.00001224,-0.00002246,0.00021623
 ,0.00000359,0.00006798,-0.00036707,0.00072003,0.00045893,-0.00004959,-
 0.00005610,0.00002667,-0.00031031,0.00024384,0.00060826,0.00059458,0.0
 0017647,0.00048008,-0.00020804,-0.00026732,-0.00020404,0.03696425,0.12
 630288,0.16134409,-0.00004702,0.00018294,-0.00039299,0.00102867,-0.001
 56461,0.00124084,-0.01826651,-0.00447086,0.03013459,0.00279129,0.00123
 601,0.00021820,-0.09962640,-0.01471638,0.08734075,0.00199658,0.0042828
 5,-0.00916631,0.00664442,0.00108052,-0.00411855,-0.00004419,-0.0001241
 4,0.00000319,-0.00006376,-0.00006440,0.00007708,-0.00008754,0.00006133
 ,-0.00011499,0.00030727,0.00000784,-0.00011206,-0.00001763,-0.00001695
 ,-0.00001038,-0.00007413,0.00006615,-0.00007316,0.00002533,0.00069109,
 -0.00094692,-0.00603707,-0.00060262,-0.00143569,-0.00058908,-0.0002501
 3,-0.00100893,0.00051816,0.00021304,-0.00007391,0.00334355,0.00014427,
 -0.00526791,0.10790459,0.00000177,-0.00001007,-0.00004386,0.00004587,0
 .00016656,-0.00051711,-0.00172864,-0.00019888,0.00063863,0.00023518,0.
 00033380,0.00062777,-0.01423979,-0.05366445,0.02287735,-0.00772659,-0.
 01809201,0.03587221,-0.00659225,0.00112784,-0.00160308,0.00029514,-0.0
 0008714,-0.00041072,-0.00004689,0.00021001,-0.00014351,0.00000542,-0.0
 0001527,-0.00000746,0.00003289,-0.00005278,0.00004508,-0.00000786,0.00
 001028,0.00000311,0.00003216,0.00010534,-0.00009399,0.00026312,0.00020
 656,0.00011678,0.00005159,0.00031815,0.00048688,-0.00050554,0.00022681
 ,-0.00024473,0.00018360,-0.00013309,-0.00006152,0.01117418,0.00394109,
 -0.01975210,0.01636670,0.06302113,-0.00003723,-0.00022218,0.00048190,0
 .00031738,-0.00008768,-0.00007457,-0.00276624,-0.00116297,0.00213367,0
 .00000367,0.00005429,0.00167420,0.08987881,0.02065188,-0.20818390,0.00
 189468,0.01780676,-0.01578942,0.00221189,-0.00122906,0.00309199,0.0002
 7910,-0.00057294,-0.00025726,-0.00006223,0.00000676,0.00029880,0.00010
 854,-0.00000652,-0.00000889,-0.00019679,0.00004165,-0.00007969,0.00002
 317,0.00000648,-0.00000773,-0.00002863,0.00020989,0.00010767,0.0001223
 3,-0.00043705,0.00060420,-0.00141747,-0.00001973,0.00083495,0.00081037
 ,0.00052532,0.00035168,0.00003639,0.00007309,0.00034595,0.01195682,0.0
 0145393,-0.01896731,-0.09932620,-0.03765514,0.23359834,-0.00005854,-0.
 00002675,0.00002034,-0.00030520,-0.00045992,-0.00019564,0.00100821,0.0
 0333131,0.00106701,-0.00141992,-0.00040337,0.00015970,0.00658476,0.005
 76596,0.00808467,-0.08404331,-0.08105876,-0.06624393,-0.03118948,-0.02
 198795,-0.02444392,-0.00603940,-0.00246757,0.00208421,0.00052014,0.000
 42875,0.00015930,-0.00001297,-0.00006423,-0.00002987,-0.00002945,0.000
 01572,-0.00000679,-0.00019924,0.00005406,-0.00009495,0.00018201,-0.000
 47907,-0.00008091,0.00005531,-0.00007291,0.00009993,-0.00034870,-0.000
 04465,0.00011595,0.00077830,-0.00067156,0.00019462,0.00003464,-0.00048
 949,0.00019414,-0.00093548,0.00398515,-0.00142127,0.00011312,0.0000301
 0,-0.00093134,0.11732954,-0.00004010,0.00017122,-0.00000960,-0.0000269
 1,-0.00038196,-0.00021989,-0.00039628,-0.00179416,-0.00114218,-0.00203
 742,0.00048342,-0.00058907,-0.00720447,-0.03299839,-0.01902438,-0.0974
 9838,-0.27076588,-0.14420726,0.00557323,0.01066878,0.00582724,0.001735
 28,0.00203240,-0.00045041,-0.00006911,-0.00082417,0.00034250,-0.000036
 86,0.00004529,0.00002453,0.00000046,-0.00000699,0.00001698,0.00011673,
 0.00001419,0.00006803,0.00005680,0.00023023,0.00017197,-0.00002533,0.0
 0000386,-0.00001843,0.00016561,0.00001786,0.00005442,-0.00000298,-0.00
 004161,0.00003339,-0.00039110,0.00080082,-0.00022800,0.00177038,-0.004
 06963,0.00356763,-0.00065615,0.00127002,-0.00019736,0.09770456,0.29573
 284,-0.00008886,-0.00007203,0.00005102,0.00019004,-0.00047241,-0.00053
 016,-0.00009170,-0.00006911,0.00210780,0.00065316,0.00099895,-0.002185
 18,0.00626707,0.02004501,0.00260155,-0.09802766,-0.18218058,-0.1369548
 4,0.00779129,0.00347683,-0.00319696,-0.00246621,-0.00177547,0.00071159
 ,0.00030449,0.00038877,-0.00007307,0.00002186,-0.00003604,-0.00002410,
 0.00002017,-0.00000701,-0.00003175,-0.00011081,0.00005170,-0.00004806,
 0.00015663,-0.00024465,0.00001689,-0.00001390,0.00016388,-0.00002265,0
 .00041376,-0.00039026,-0.00031711,-0.00056973,0.00063774,-0.00045290,0
 .00052235,-0.00114351,0.00040311,-0.00096046,0.00118104,0.00004067,0.0
 0042404,0.00106560,0.00041671,0.08395052,0.15586283,0.13694173,0.00002
 281,-0.00002036,0.00000064,0.00005454,0.00006513,-0.00022971,0.0001233
 1,-0.00029140,-0.00052716,-0.00001559,0.00023280,-0.00014271,0.0031309
 0,-0.00525225,0.00349209,-0.03809656,-0.01456749,0.02548984,-0.1220695
 0,-0.07161772,0.11437039,0.00878825,0.00487401,-0.00876485,-0.00133760
 ,0.00230397,-0.00600487,0.00000338,0.00000467,0.00000646,0.00000340,-0
 .00000924,0.00000435,0.00000930,-0.00000160,0.00000866,-0.00000972,0.0
 0000324,0.00001801,-0.00005660,0.00007473,-0.00003545,0.00064362,0.000
 00069,-0.00008637,-0.00013165,0.00008351,-0.00006837,0.00002566,0.0000
 1110,0.00002281,-0.00007950,0.00070552,-0.00016340,0.00031152,0.002010
 08,-0.00274370,-0.00122058,0.00061950,0.00219074,0.15056213,0.00001070
 ,0.00008766,0.00000746,-0.00015828,-0.00017015,0.00005452,0.00086913,0
 .00013830,0.00038255,-0.00008552,-0.00030757,-0.00017294,0.00210888,0.
 00272056,-0.00687930,0.00758352,-0.00295239,-0.00688301,-0.09114836,-0
 .07631631,0.16094195,0.00132784,-0.00398599,-0.02217694,0.00243654,-0.
 00270087,0.00618060,-0.00005405,0.00002519,-0.00001830,-0.00001777,-0.
 00000589,0.00000189,-0.00002107,-0.00002621,-0.00001511,0.00002199,-0.
 00004005,-0.00001808,0.00001147,-0.00002359,0.00004322,-0.00012265,-0.
 00021191,0.00015405,-0.00008194,0.00016786,-0.00001731,-0.00003649,-0.
 00000763,-0.00009825,0.00030845,-0.00034826,0.00017580,-0.00182520,0.0
 0126633,0.00063006,-0.00272630,-0.00064330,0.00210129,0.08080031,0.084
 31320,0.00000548,0.00004057,-0.00003315,-0.00011141,-0.00007392,0.0000
 5613,-0.00047706,0.00023338,-0.00003832,0.00001964,-0.00007931,-0.0001
 0636,-0.00330006,-0.00240690,0.00527691,0.00297001,-0.00005784,0.00520
 413,0.11161956,0.12064423,-0.26912833,0.01586669,0.01846851,-0.0230113
 4,-0.00215865,-0.00160149,-0.00342671,-0.00001730,0.00000022,-0.000003
 62,0.00001056,-0.00000228,0.00000315,-0.00000676,-0.00000575,-0.000004
 27,0.00001389,-0.00001178,-0.00001295,0.00001183,0.00003114,-0.0000347
 6,-0.00009715,0.00013494,-0.00016587,-0.00008024,0.00003720,-0.0000261
 8,-0.00000683,-0.00001257,-0.00004635,0.00053603,-0.00010560,-0.000646
 35,0.00252578,-0.00125133,-0.00061140,-0.00097503,-0.00052756,0.000235
 24,-0.12480584,-0.13174751,0.28657510,-0.00000577,-0.00004195,0.000011
 78,0.00008782,0.00005272,0.00003582,0.00000879,-0.00021630,0.00012708,
 0.00002287,-0.00004667,0.00001656,0.00069037,0.00103765,-0.00083333,0.
 00236142,-0.00152200,-0.00030432,0.00786387,-0.00854819,-0.01227836,-0
 .14082312,0.08893032,0.07811608,0.00503671,0.00591744,-0.00298257,0.00
 001842,-0.00000479,0.00000466,0.00000002,0.00000472,-0.00000228,-0.000
 00644,0.00000184,-0.00000452,0.00000130,-0.00001247,-0.00001386,0.0000
 0274,-0.00000700,0.00000935,-0.00004062,0.00000052,0.00000040,-0.00000
 153,0.00000374,0.00000489,0.00000672,-0.00000464,0.00000588,0.00002182
 ,-0.00008447,-0.00016760,-0.00008881,-0.00009581,0.00012288,-0.0001920
 9,-0.00009090,0.00035062,-0.00042771,-0.00034516,-0.00058557,0.1384790
 0,-0.00000118,0.00001342,-0.00000103,-0.00004126,-0.00000875,0.0000055
 1,-0.00005604,0.00008050,-0.00022810,0.00002293,0.00003678,0.00002841,
 -0.00062886,-0.00011595,-0.00047557,0.00126463,0.00097460,0.00144198,0
 .00519158,0.00231541,-0.00929611,0.07915725,-0.14033495,-0.08043851,0.
 02264533,-0.04047494,0.00198556,-0.00000164,-0.00000297,0.00000058,-0.
 00000423,-0.00000063,0.00000062,0.00000447,0.00000248,0.00000411,0.000
 00132,0.00002179,0.00000181,0.00000203,-0.00000676,0.00001007,-0.00003
 783,-0.00001038,0.00001561,0.00000826,-0.00001025,0.00000526,0.0000034
 2,-0.00001215,0.00000115,0.00009401,0.00000139,0.00010642,-0.00002560,
 0.00000707,0.00014586,-0.00016221,-0.00003050,0.00021379,-0.00098460,-
 0.00164126,-0.00145600,-0.10088589,0.16921990,-0.00000344,0.00006431,-
 0.00001753,-0.00015905,-0.00007953,-0.00005609,-0.00019419,0.00052459,
 -0.00003005,0.00012361,0.00012541,0.00004409,-0.00077577,-0.00068260,-
 0.00057824,0.00378253,0.00451483,0.00309879,0.01108092,-0.02309118,-0.
 02991902,0.07499880,-0.08288662,-0.11433254,-0.01170015,0.02376366,0.0
 0703173,-0.00002492,0.00000469,-0.00000475,-0.00000385,-0.00000458,0.0
 0000372,0.00000981,-0.00000026,0.00000521,-0.00000886,0.00003085,0.000
 01670,0.00000110,-0.00000140,0.00000764,-0.00001998,-0.00001832,0.0000
 1006,0.00003406,-0.00002513,0.00001753,0.00001268,0.00001430,0.0000360
 3,-0.00030139,0.00067872,-0.00019859,0.00008689,-0.00002798,0.00007679
 ,0.00020480,0.00013680,0.00068838,-0.00064893,-0.00373336,-0.00163054,
 -0.07773759,0.08338691,0.13494049,0.00000926,0.00004687,-0.00001435,-0
 .00006082,-0.00005954,-0.00000623,0.00012559,-0.00003644,-0.00002700,-
 0.00023345,0.00008253,-0.00009921,0.00030026,-0.00106176,0.00030387,-0
 .00131123,-0.00340897,-0.00377953,-0.01373497,-0.00299405,0.00367187,-
 0.26696153,-0.07777752,0.03276357,0.01051183,-0.00186132,0.00187797,-0
 .00002873,0.00001976,-0.00000634,0.00000152,-0.00000683,0.00000297,0.0
 0000922,-0.00001122,0.00000637,-0.00000325,0.00000545,0.00001296,-0.00
 000354,0.00000459,-0.00001884,0.00004426,-0.00000728,-0.00000121,0.000
 00117,0.00000909,0.00000284,-0.00002992,0.00004454,-0.00002724,0.00004
 452,0.00013727,0.00018431,-0.00004236,0.00021556,-0.00025622,-0.000611
 68,0.00073346,-0.00092743,-0.00023380,0.00114393,-0.00095756,-0.013015
 77,-0.00556590,0.00124293,0.28522342,0.00000271,0.00002696,-0.00000567
 ,-0.00006250,-0.00004173,-0.00000171,-0.00001073,0.00018448,-0.0000925
 1,0.00001502,0.00002685,0.00001379,-0.00047618,-0.00028835,-0.00035644
 ,0.00028710,0.00168752,-0.00074580,-0.01095025,-0.00057190,0.00033370,
 -0.07009545,-0.07984351,0.00402972,-0.02578446,-0.02558343,0.02014680,
 -0.00001122,0.00000246,-0.00000109,-0.00000206,-0.00000157,0.00000096,
 0.00000124,-0.00000191,0.00000075,0.00000237,0.00000544,0.00000089,0.0
 0000195,-0.00000119,0.00000175,-0.00000724,-0.00001167,0.00000910,-0.0
 0000368,0.00000675,0.00000290,0.00000413,-0.00000259,0.00000219,0.0000
 4535,0.00007572,-0.00007944,-0.00001571,0.00004270,-0.00001535,-0.0002
 0086,0.00008568,0.00020362,0.00095541,0.00066227,-0.00025037,0.0159572
 8,0.00997616,-0.00269413,0.09034777,0.09356487,0.00000418,0.00003756,-
 0.00001622,-0.00005912,-0.00004814,-0.00000227,0.00003655,0.00004994,-
 0.00015009,-0.00015044,0.00010588,-0.00005929,-0.00003281,-0.00055573,
 0.00006695,-0.00167832,-0.00552342,-0.00372472,-0.03126794,-0.00867448
 ,0.00189398,0.04037241,0.00776314,-0.05994794,0.01398021,0.02086502,-0
 .00785954,-0.00001503,0.00000755,0.00000026,-0.00000490,-0.00000335,0.
 00000448,0.00000760,-0.00000420,0.00000593,0.00000243,0.00001723,0.000
 00375,-0.00000064,-0.00000022,0.00000212,-0.00000743,-0.00001441,0.000
 01277,-0.00000857,0.00001436,0.00000418,-0.00001528,0.00003574,-0.0000
 1872,-0.00002087,0.00021588,-0.00008283,-0.00000337,0.00007912,-0.0000
 3668,-0.00191154,0.00050781,-0.00037791,-0.00138264,0.00108672,0.00157
 586,0.01610399,0.00454166,0.00079018,-0.03394848,-0.02050365,0.0679157
 6\\-0.00000184,0.,-0.00000033,0.00000318,0.00000507,0.00000230,-0.0000
 1127,-0.00001019,-0.00001000,0.00000147,0.00001124,0.00000742,0.000011
 75,-0.00002680,0.00001063,0.00001417,0.00002441,-0.00000861,-0.0000041
 8,-0.00003900,0.00000717,-0.00000696,0.00002535,-0.00001772,-0.0000023
 2,-0.00000626,-0.00000423,-0.00000057,0.00000027,-0.00000005,0.0000002
 1,-0.00000039,0.00000083,-0.00000046,0.00000115,-0.00000017,-0.0000019
 9,-0.00000032,-0.00000040,0.00000110,-0.00000092,-0.00000037,0.0000026
 6,-0.00000187,0.00000158,0.00000067,-0.00000077,0.00000005,0.00000343,
 -0.00000075,0.00000042,-0.00000371,0.00000561,-0.00000032,0.00000176,0
 .00000528,-0.00000233,-0.00000130,0.00000070,0.00000103,-0.00000173,0.
 00001095,0.00000586,0.00000028,0.00000022,0.00000883,-0.00000437,-0.00
 000299,-0.00000158\\\@


 "TIGER, TIGER BURNING BRIGHT
 IN THE FOREST OF THE NIGHT.
 WHAT IMMORTAL HAND OR EYE
 CAN FRAME THY FEARFUL SYMMETRYE?"
                     - WILLIAM BLAKE
 Job cpu time:       0 days  2 hours 20 minutes 25.1 seconds.
 Elapsed time:       0 days  0 hours 35 minutes  7.5 seconds.
 File lengths (MBytes):  RWF=    184 Int=      0 D2E=      0 Chk=     10 Scr=      1
 Normal termination of Gaussian 16 at Mon May 31 20:04:44 2021.
### All Done ###
