### Starting Gaussian ###
 Entering Gaussian System, Link 0=g16
 Initial command:
 /cluster/software/gaussian/gaussian-16-A.03/avx2/g16/l1.exe "/local/scratch/linjian/Gau-5905.inp" -scrdir="/local/scratch/linjian/"
 Entering Link 1 = /cluster/software/gaussian/gaussian-16-A.03/avx2/g16/l1.exe PID=      5906.
  
 Copyright (c) 1988,1990,1992,1993,1995,1998,2003,2009,2016,
            Gaussian, Inc.  All Rights Reserved.
  
 This is part of the Gaussian(R) 16 program.  It is based on
 the Gaussian(R) 09 system (copyright 2009, Gaussian, Inc.),
 the Gaussian(R) 03 system (copyright 2003, Gaussian, Inc.),
 the Gaussian(R) 98 system (copyright 1998, Gaussian, Inc.),
 the Gaussian(R) 94 system (copyright 1995, Gaussian, Inc.),
 the Gaussian 92(TM) system (copyright 1992, Gaussian, Inc.),
 the Gaussian 90(TM) system (copyright 1990, Gaussian, Inc.),
 the Gaussian 88(TM) system (copyright 1988, Gaussian, Inc.),
 the Gaussian 86(TM) system (copyright 1986, Carnegie Mellon
 University), and the Gaussian 82(TM) system (copyright 1983,
 Carnegie Mellon University). Gaussian is a federally registered
 trademark of Gaussian, Inc.
  
 This software contains proprietary and confidential information,
 including trade secrets, belonging to Gaussian, Inc.
  
 This software is provided under written license and may be
 used, copied, transmitted, or stored only in accord with that
 written license.
  
 The following legend is applicable only to US Government
 contracts under FAR:
  
                    RESTRICTED RIGHTS LEGEND
  
 Use, reproduction and disclosure by the US Government is
 subject to restrictions as set forth in subparagraphs (a)
 and (c) of the Commercial Computer Software - Restricted
 Rights clause in FAR 52.227-19.
  
 Gaussian, Inc.
 340 Quinnipiac St., Bldg. 40, Wallingford CT 06492
  
  
 ---------------------------------------------------------------
 Warning -- This program may not be used in any manner that
 competes with the business of Gaussian, Inc. or will provide
 assistance to any competitor of Gaussian, Inc.  The licensee
 of this program is prohibited from giving any competitor of
 Gaussian, Inc. access to this program.  By using this program,
 the user acknowledges that Gaussian, Inc. is engaged in the
 business of creating and licensing software in the field of
 computational chemistry and represents and warrants to the
 licensee that it is not a competitor of Gaussian, Inc. and that
 it will not use this program in any manner prohibited above.
 ---------------------------------------------------------------
  

 Cite this work as:
 Gaussian 16, Revision A.03,
 M. J. Frisch, G. W. Trucks, H. B. Schlegel, G. E. Scuseria, 
 M. A. Robb, J. R. Cheeseman, G. Scalmani, V. Barone, 
 G. A. Petersson, H. Nakatsuji, X. Li, M. Caricato, A. V. Marenich, 
 J. Bloino, B. G. Janesko, R. Gomperts, B. Mennucci, H. P. Hratchian, 
 J. V. Ortiz, A. F. Izmaylov, J. L. Sonnenberg, D. Williams-Young, 
 F. Ding, F. Lipparini, F. Egidi, J. Goings, B. Peng, A. Petrone, 
 T. Henderson, D. Ranasinghe, V. G. Zakrzewski, J. Gao, N. Rega, 
 G. Zheng, W. Liang, M. Hada, M. Ehara, K. Toyota, R. Fukuda, 
 J. Hasegawa, M. Ishida, T. Nakajima, Y. Honda, O. Kitao, H. Nakai, 
 T. Vreven, K. Throssell, J. A. Montgomery, Jr., J. E. Peralta, 
 F. Ogliaro, M. J. Bearpark, J. J. Heyd, E. N. Brothers, K. N. Kudin, 
 V. N. Staroverov, T. A. Keith, R. Kobayashi, J. Normand, 
 K. Raghavachari, A. P. Rendell, J. C. Burant, S. S. Iyengar, 
 J. Tomasi, M. Cossi, J. M. Millam, M. Klene, C. Adamo, R. Cammi, 
 J. W. Ochterski, R. L. Martin, K. Morokuma, O. Farkas, 
 J. B. Foresman, and D. J. Fox, Gaussian, Inc., Wallingford CT, 2016.
 
 ******************************************
 Gaussian 16:  ES64L-G16RevA.03 25-Dec-2016
                31-May-2021 
 ******************************************
 %chk=CCCpdNpCNCCCN.chk
 %NProcShared=20
 Will use up to   20 processors via shared memory.
 -----------------------------
 # opt freq b3lyp/6-31g(2df,p)
 -----------------------------
 1/18=20,19=15,26=3,38=1/1,3;
 2/9=110,12=2,17=6,18=5,40=1/2;
 3/5=1,6=6,7=104,11=2,25=1,30=1,71=1,74=-5/1,2,3;
 4//1;
 5/5=2,38=5/2;
 6/7=2,8=2,9=2,10=2,28=1/1;
 7//1,2,3,16;
 1/18=20,19=15,26=3/3(2);
 2/9=110/2;
 99//99;
 2/9=110/2;
 3/5=1,6=6,7=104,11=2,25=1,30=1,71=1,74=-5/1,2,3;
 4/5=5,16=3,69=1/1;
 5/5=2,38=5/2;
 7//1,2,3,16;
 1/18=20,19=15,26=3/3(-5);
 2/9=110/2;
 6/7=2,8=2,9=2,10=2,19=2,28=1/1;
 99/9=1/99;
 -------------------
 Title Card Required
 -------------------
 Symbolic Z-matrix:
 Charge =  0 Multiplicity = 1
 C                     1.04134   0.1181    0.02363 
 C                     2.55354   0.01198   0.08121 
 C                     3.05235  -1.27522   0.72026 
 N                     2.25597  -2.21295   1.14561 
 C                     4.57057  -1.45344   0.82098 
 N                     4.8617   -2.71588   1.49561 
 C                     6.2808   -2.98808   1.58989 
 C                     6.50241  -4.33227   2.28229 
 C                     7.99687  -4.60313   2.42204 
 N                     8.22576  -5.88994   3.06581 
 H                     0.72545   1.04982  -0.45163 
 H                     0.61567   0.08766   1.03255 
 H                     0.61834  -0.71457  -0.54952 
 H                     2.96591   0.85918   0.64138 
 H                     2.96365   0.06359  -0.93478 
 H                     1.27047  -1.97396   1.05111 
 H                     4.97853  -0.61244   1.3915 
 H                     4.98452  -1.43711  -0.19333 
 H                     4.34731  -3.46419   1.02494 
 H                     6.75992  -2.1969    2.17806 
 H                     6.74025  -3.00252   0.59526 
 H                     6.02809  -5.13584   1.70336 
 H                     6.02849  -4.32638   3.27329 
 H                     8.46919  -3.81035   3.01304 
 H                     8.46932  -4.60786   1.43394 
 H                     7.8142   -5.88043   3.99884 
 H                     9.22607  -6.03257   3.19318 
 

 GradGradGradGradGradGradGradGradGradGradGradGradGradGradGradGradGradGrad
 Berny optimization.
 Initialization pass.
                           ----------------------------
                           !    Initial Parameters    !
                           ! (Angstroms and Degrees)  !
 --------------------------                            --------------------------
 ! Name  Definition              Value          Derivative Info.                !
 --------------------------------------------------------------------------------
 ! R1    R(1,2)                  1.517          estimate D2E/DX2                !
 ! R2    R(1,11)                 1.0926         estimate D2E/DX2                !
 ! R3    R(1,12)                 1.0955         estimate D2E/DX2                !
 ! R4    R(1,13)                 1.0958         estimate D2E/DX2                !
 ! R5    R(2,3)                  1.5212         estimate D2E/DX2                !
 ! R6    R(2,14)                 1.0962         estimate D2E/DX2                !
 ! R7    R(2,15)                 1.0969         estimate D2E/DX2                !
 ! R8    R(3,4)                  1.3017         estimate D2E/DX2                !
 ! R9    R(3,5)                  1.532          estimate D2E/DX2                !
 ! R10   R(4,16)                 1.0185         estimate D2E/DX2                !
 ! R11   R(5,6)                  1.4607         estimate D2E/DX2                !
 ! R12   R(5,17)                 1.0951         estimate D2E/DX2                !
 ! R13   R(5,18)                 1.0956         estimate D2E/DX2                !
 ! R14   R(6,7)                  1.448          estimate D2E/DX2                !
 ! R15   R(6,19)                 1.0228         estimate D2E/DX2                !
 ! R16   R(7,8)                  1.5282         estimate D2E/DX2                !
 ! R17   R(7,20)                 1.0961         estimate D2E/DX2                !
 ! R18   R(7,21)                 1.0957         estimate D2E/DX2                !
 ! R19   R(8,9)                  1.5252         estimate D2E/DX2                !
 ! R20   R(8,22)                 1.0981         estimate D2E/DX2                !
 ! R21   R(8,23)                 1.0985         estimate D2E/DX2                !
 ! R22   R(9,10)                 1.457          estimate D2E/DX2                !
 ! R23   R(9,24)                 1.0958         estimate D2E/DX2                !
 ! R24   R(9,25)                 1.0953         estimate D2E/DX2                !
 ! R25   R(10,26)                1.0198         estimate D2E/DX2                !
 ! R26   R(10,27)                1.0184         estimate D2E/DX2                !
 ! A1    A(2,1,11)             111.3686         estimate D2E/DX2                !
 ! A2    A(2,1,12)             110.5143         estimate D2E/DX2                !
 ! A3    A(2,1,13)             110.5787         estimate D2E/DX2                !
 ! A4    A(11,1,12)            108.178          estimate D2E/DX2                !
 ! A5    A(11,1,13)            107.9912         estimate D2E/DX2                !
 ! A6    A(12,1,13)            108.096          estimate D2E/DX2                !
 ! A7    A(1,2,3)              113.7033         estimate D2E/DX2                !
 ! A8    A(1,2,14)             109.897          estimate D2E/DX2                !
 ! A9    A(1,2,15)             109.5276         estimate D2E/DX2                !
 ! A10   A(3,2,14)             108.4181         estimate D2E/DX2                !
 ! A11   A(3,2,15)             107.8385         estimate D2E/DX2                !
 ! A12   A(14,2,15)            107.2372         estimate D2E/DX2                !
 ! A13   A(2,3,4)              123.1082         estimate D2E/DX2                !
 ! A14   A(2,3,5)              116.8092         estimate D2E/DX2                !
 ! A15   A(4,3,5)              120.0672         estimate D2E/DX2                !
 ! A16   A(3,4,16)             113.1182         estimate D2E/DX2                !
 ! A17   A(3,5,6)              109.1736         estimate D2E/DX2                !
 ! A18   A(3,5,17)             108.3069         estimate D2E/DX2                !
 ! A19   A(3,5,18)             108.1693         estimate D2E/DX2                !
 ! A20   A(6,5,17)             110.4184         estimate D2E/DX2                !
 ! A21   A(6,5,18)             111.4167         estimate D2E/DX2                !
 ! A22   A(17,5,18)            109.2755         estimate D2E/DX2                !
 ! A23   A(5,6,7)              112.8214         estimate D2E/DX2                !
 ! A24   A(5,6,19)             108.6362         estimate D2E/DX2                !
 ! A25   A(7,6,19)             112.6628         estimate D2E/DX2                !
 ! A26   A(6,7,8)              109.6918         estimate D2E/DX2                !
 ! A27   A(6,7,20)             109.1247         estimate D2E/DX2                !
 ! A28   A(6,7,21)             110.7511         estimate D2E/DX2                !
 ! A29   A(8,7,20)             109.1708         estimate D2E/DX2                !
 ! A30   A(8,7,21)             109.809          estimate D2E/DX2                !
 ! A31   A(20,7,21)            108.2593         estimate D2E/DX2                !
 ! A32   A(7,8,9)              109.8652         estimate D2E/DX2                !
 ! A33   A(7,8,22)             110.0083         estimate D2E/DX2                !
 ! A34   A(7,8,23)             109.9661         estimate D2E/DX2                !
 ! A35   A(9,8,22)             109.9731         estimate D2E/DX2                !
 ! A36   A(9,8,23)             109.9387         estimate D2E/DX2                !
 ! A37   A(22,8,23)            107.0486         estimate D2E/DX2                !
 ! A38   A(8,9,10)             110.5649         estimate D2E/DX2                !
 ! A39   A(8,9,24)             110.0755         estimate D2E/DX2                !
 ! A40   A(8,9,25)             109.9236         estimate D2E/DX2                !
 ! A41   A(10,9,24)            109.4478         estimate D2E/DX2                !
 ! A42   A(10,9,25)            109.0898         estimate D2E/DX2                !
 ! A43   A(24,9,25)            107.6831         estimate D2E/DX2                !
 ! A44   A(9,10,26)            109.4281         estimate D2E/DX2                !
 ! A45   A(9,10,27)            109.467          estimate D2E/DX2                !
 ! A46   A(26,10,27)           106.4554         estimate D2E/DX2                !
 ! D1    D(11,1,2,3)          -179.3519         estimate D2E/DX2                !
 ! D2    D(11,1,2,14)           58.9216         estimate D2E/DX2                !
 ! D3    D(11,1,2,15)          -58.6423         estimate D2E/DX2                !
 ! D4    D(12,1,2,3)            60.3778         estimate D2E/DX2                !
 ! D5    D(12,1,2,14)          -61.3488         estimate D2E/DX2                !
 ! D6    D(12,1,2,15)         -178.9126         estimate D2E/DX2                !
 ! D7    D(13,1,2,3)           -59.2739         estimate D2E/DX2                !
 ! D8    D(13,1,2,14)          178.9995         estimate D2E/DX2                !
 ! D9    D(13,1,2,15)           61.4356         estimate D2E/DX2                !
 ! D10   D(1,2,3,4)              1.7115         estimate D2E/DX2                !
 ! D11   D(1,2,3,5)           -179.7214         estimate D2E/DX2                !
 ! D12   D(14,2,3,4)           124.2561         estimate D2E/DX2                !
 ! D13   D(14,2,3,5)           -57.1769         estimate D2E/DX2                !
 ! D14   D(15,2,3,4)          -119.9419         estimate D2E/DX2                !
 ! D15   D(15,2,3,5)            58.6251         estimate D2E/DX2                !
 ! D16   D(2,3,4,16)            -3.0349         estimate D2E/DX2                !
 ! D17   D(5,3,4,16)           178.443          estimate D2E/DX2                !
 ! D18   D(2,3,5,6)            178.1544         estimate D2E/DX2                !
 ! D19   D(2,3,5,17)            57.8829         estimate D2E/DX2                !
 ! D20   D(2,3,5,18)           -60.4464         estimate D2E/DX2                !
 ! D21   D(4,3,5,6)             -3.2325         estimate D2E/DX2                !
 ! D22   D(4,3,5,17)          -123.504          estimate D2E/DX2                !
 ! D23   D(4,3,5,18)           118.1667         estimate D2E/DX2                !
 ! D24   D(3,5,6,7)            177.8705         estimate D2E/DX2                !
 ! D25   D(3,5,6,19)            52.2034         estimate D2E/DX2                !
 ! D26   D(17,5,6,7)           -63.1634         estimate D2E/DX2                !
 ! D27   D(17,5,6,19)          171.1696         estimate D2E/DX2                !
 ! D28   D(18,5,6,7)            58.4633         estimate D2E/DX2                !
 ! D29   D(18,5,6,19)          -67.2038         estimate D2E/DX2                !
 ! D30   D(5,6,7,8)           -178.9769         estimate D2E/DX2                !
 ! D31   D(5,6,7,20)            61.468          estimate D2E/DX2                !
 ! D32   D(5,6,7,21)           -57.6108         estimate D2E/DX2                !
 ! D33   D(19,6,7,8)           -55.5131         estimate D2E/DX2                !
 ! D34   D(19,6,7,20)         -175.0681         estimate D2E/DX2                !
 ! D35   D(19,6,7,21)           65.8531         estimate D2E/DX2                !
 ! D36   D(6,7,8,9)           -178.2756         estimate D2E/DX2                !
 ! D37   D(6,7,8,22)            60.5205         estimate D2E/DX2                !
 ! D38   D(6,7,8,23)           -57.1417         estimate D2E/DX2                !
 ! D39   D(20,7,8,9)           -58.7488         estimate D2E/DX2                !
 ! D40   D(20,7,8,22)         -179.9527         estimate D2E/DX2                !
 ! D41   D(20,7,8,23)           62.3851         estimate D2E/DX2                !
 ! D42   D(21,7,8,9)            59.7934         estimate D2E/DX2                !
 ! D43   D(21,7,8,22)          -61.4104         estimate D2E/DX2                !
 ! D44   D(21,7,8,23)         -179.0726         estimate D2E/DX2                !
 ! D45   D(7,8,9,10)          -179.2877         estimate D2E/DX2                !
 ! D46   D(7,8,9,24)            59.6663         estimate D2E/DX2                !
 ! D47   D(7,8,9,25)           -58.7879         estimate D2E/DX2                !
 ! D48   D(22,8,9,10)          -58.0627         estimate D2E/DX2                !
 ! D49   D(22,8,9,24)         -179.1087         estimate D2E/DX2                !
 ! D50   D(22,8,9,25)           62.4371         estimate D2E/DX2                !
 ! D51   D(23,8,9,10)           59.5619         estimate D2E/DX2                !
 ! D52   D(23,8,9,24)          -61.4841         estimate D2E/DX2                !
 ! D53   D(23,8,9,25)         -179.9383         estimate D2E/DX2                !
 ! D54   D(8,9,10,26)          -60.8498         estimate D2E/DX2                !
 ! D55   D(8,9,10,27)         -177.1617         estimate D2E/DX2                !
 ! D56   D(24,9,10,26)          60.5681         estimate D2E/DX2                !
 ! D57   D(24,9,10,27)         -55.7438         estimate D2E/DX2                !
 ! D58   D(25,9,10,26)         178.1539         estimate D2E/DX2                !
 ! D59   D(25,9,10,27)          61.842          estimate D2E/DX2                !
 --------------------------------------------------------------------------------
 Trust Radius=3.00D-01 FncErr=1.00D-07 GrdErr=1.00D-06 EigMax=2.50D+02 EigMin=1.00D-04
 Number of steps in this run=    141 maximum allowed number of steps=    162.
 GradGradGradGradGradGradGradGradGradGradGradGradGradGradGradGradGradGrad

                          Input orientation:                          
 ---------------------------------------------------------------------
 Center     Atomic      Atomic             Coordinates (Angstroms)
 Number     Number       Type             X           Y           Z
 ---------------------------------------------------------------------
      1          6           0        1.041340    0.118100    0.023630
      2          6           0        2.553540    0.011980    0.081210
      3          6           0        3.052350   -1.275220    0.720260
      4          7           0        2.255970   -2.212950    1.145610
      5          6           0        4.570570   -1.453440    0.820980
      6          7           0        4.861700   -2.715880    1.495610
      7          6           0        6.280800   -2.988080    1.589890
      8          6           0        6.502410   -4.332270    2.282290
      9          6           0        7.996870   -4.603130    2.422040
     10          7           0        8.225760   -5.889940    3.065810
     11          1           0        0.725450    1.049820   -0.451630
     12          1           0        0.615670    0.087660    1.032550
     13          1           0        0.618340   -0.714570   -0.549520
     14          1           0        2.965910    0.859180    0.641380
     15          1           0        2.963650    0.063590   -0.934780
     16          1           0        1.270470   -1.973960    1.051110
     17          1           0        4.978530   -0.612440    1.391500
     18          1           0        4.984520   -1.437110   -0.193330
     19          1           0        4.347310   -3.464190    1.024940
     20          1           0        6.759920   -2.196900    2.178060
     21          1           0        6.740250   -3.002520    0.595260
     22          1           0        6.028090   -5.135840    1.703360
     23          1           0        6.028490   -4.326380    3.273290
     24          1           0        8.469190   -3.810350    3.013040
     25          1           0        8.469320   -4.607860    1.433940
     26          1           0        7.814200   -5.880430    3.998840
     27          1           0        9.226070   -6.032570    3.193180
 ---------------------------------------------------------------------
                    Distance matrix (angstroms):
                    1          2          3          4          5
     1  C    0.000000
     2  C    1.517012   0.000000
     3  C    2.543776   1.521210   0.000000
     4  N    2.857964   2.484313   1.301722   0.000000
     5  C    3.944739   2.600601   1.531959   2.457562   0.000000
     6  N    4.979289   3.843091   2.439348   2.676802   1.460697
     7  C    6.289155   5.016866   3.756732   4.122799   2.423062
     8  C    7.398015   6.269835   4.867074   4.880145   3.762326
     9  C    8.741955   7.510564   6.198332   6.348241   4.921735
    10  N    9.847197   8.712897   7.318567   7.269513   6.171078
    11  H    1.092594   2.168627   3.491934   3.941996   4.761386
    12  H    1.095464   2.160119   2.809337   2.827751   4.249822
    13  H    1.095796   2.161179   2.801977   2.792927   4.247861
    14  H    2.152855   1.096169   2.137606   3.193156   2.820532
    15  H    2.148673   1.096854   2.130596   3.164090   2.822457
    16  H    2.341993   2.555569   1.942369   1.018458   3.348815
    17  H    4.231574   2.826188   2.144763   3.167716   1.095082
    18  H    4.244340   2.843395   2.143394   3.136825   1.095649
    19  H    4.976431   4.023928   2.561511   2.440054   2.033362
    20  H    6.534749   5.193223   4.089101   4.620798   2.680980
    21  H    6.522469   5.184592   4.074285   4.586401   2.675464
    22  H    7.435930   6.419028   4.972515   4.804504   4.057466
    23  H    7.428685   6.409838   4.968395   4.819286   4.048844
    24  H    8.918646   7.628942   6.405145   6.681548   5.055630
    25  H    8.916196   7.626877   6.399953   6.665167   5.052360
    26  H    9.882120   8.817191   7.391364   7.244671   6.341780
    27  H   10.717583   9.525943   8.176951   8.207578   6.947622
                    6          7          8          9         10
     6  N    0.000000
     7  C    1.448042   0.000000
     8  C    2.433826   1.528194   0.000000
     9  C    3.774821   2.499151   1.525223   0.000000
    10  N    4.884371   3.792361   2.451566   1.456952   0.000000
    11  H    5.922905   7.164800   8.355506   9.648180  10.806817
    12  H    5.109113   6.470278   7.466682   8.855298   9.888343
    13  H    5.117998   6.466017   7.465198   8.854026   9.885742
    14  H    4.135793   5.166196   6.492347   7.636631   8.893509
    15  H    4.151487   5.166249   6.495841   7.640669   8.896013
    16  H    3.693908   5.140246   5.869466   7.350948   8.232252
    17  H    2.109253   2.716419   4.117384   5.108620   6.418709
    18  H    2.121993   2.695501   4.100565   5.092946   6.399635
    19  H    1.022788   2.069839   2.641770   4.070425   5.009170
    20  H    2.082863   1.096114   2.153365   2.716526   4.071281
    21  H    2.102794   1.095715   2.161220   2.734625   4.080141
    22  H    2.694408   2.165551   1.098118   2.162493   2.693453
    23  H    2.667444   2.165304   1.098506   2.162345   2.704767
    24  H    4.063797   2.736884   2.162087   1.095841   2.094454
    25  H    4.074103   2.727201   2.159718   1.095250   2.089510
    26  H    4.999779   4.064486   2.657844   2.037440   1.019812
    27  H    5.738458   4.529246   3.337524   2.036882   1.018424
                   11         12         13         14         15
    11  H    0.000000
    12  H    1.772172   0.000000
    13  H    1.770347   1.773845   0.000000
    14  H    2.500135   2.504373   3.066923   0.000000
    15  H    2.493115   3.063328   2.500887   1.765573   0.000000
    16  H    3.420310   2.163189   2.138540   3.327022   3.310925
    17  H    4.924320   4.433230   4.773808   2.603648   3.150926
    18  H    4.938746   4.786915   4.439872   3.169302   2.624074
    19  H    5.972806   5.151780   4.893317   4.554878   4.266175
    20  H    7.339706   6.654564   6.881570   5.108378   5.404744
    21  H    7.327705   6.873930   6.634984   5.400046   5.099486
    22  H    8.427595   7.551770   7.340878   6.815058   6.586702
    23  H    8.420261   7.335072   7.545116   6.572395   6.809768
    24  H    9.777050   8.988582   9.160324   7.597063   7.804080
    25  H    9.774060   9.159085   8.984971   7.797705   7.599058
    26  H   10.866712   9.809985   9.957615   8.955490   9.121393
    27  H   11.649267  10.782603  10.788046   9.653885   9.665460
                   16         17         18         19         20
    16  H    0.000000
    17  H    3.964759   0.000000
    18  H    3.953607   1.786562   0.000000
    19  H    3.418832   2.943685   2.449341   0.000000
    20  H    5.608367   2.510486   3.058237   2.959121   0.000000
    21  H    5.584284   3.074108   2.480921   2.474657   1.776138
    22  H    5.749597   4.654028   4.285683   2.465703   3.065662
    23  H    5.754191   4.293821   4.631977   2.936804   2.503838
    24  H    7.683949   5.004071   5.296792   4.589364   2.494397
    25  H    7.675118   5.305732   4.984525   4.297235   3.047703
    26  H    8.171293   6.526175   6.732345   5.167361   4.242068
    27  H    9.184354   7.117967   7.111782   5.924537   4.671694
                   21         22         23         24         25
    21  H    0.000000
    22  H    2.507212   0.000000
    23  H    3.071002   1.766326   0.000000
    24  H    3.080176   3.071019   2.508193   0.000000
    25  H    2.504033   2.512161   3.069217   1.769062   0.000000
    26  H    4.584767   3.002304   2.475935   2.384543   2.937231
    27  H    4.702094   3.640160   3.625192   2.354481   2.386922
                   26         27
    26  H    0.000000
    27  H    1.632670   0.000000
 Stoichiometry    C7H17N3
 Framework group  C1[X(C7H17N3)]
 Deg. of freedom    75
 Full point group                 C1      NOp   1
 Largest Abelian subgroup         C1      NOp   1
 Largest concise Abelian subgroup C1      NOp   1
                         Standard orientation:                         
 ---------------------------------------------------------------------
 Center     Atomic      Atomic             Coordinates (Angstroms)
 Number     Number       Type             X           Y           Z
 ---------------------------------------------------------------------
      1          6           0        4.782157    0.227440    0.033386
      2          6           0        3.567765   -0.681679    0.024404
      3          6           0        2.243586    0.066880    0.007425
      4          7           0        2.161324    1.365422   -0.031369
      5          6           0        0.969231   -0.783360    0.004219
      6          7           0       -0.195443    0.097780    0.031860
      7          6           0       -1.448605   -0.625990   -0.018829
      8          6           0       -2.614497    0.361948   -0.011788
      9          6           0       -3.937270   -0.397311   -0.021940
     10          7           0       -5.060141    0.531001   -0.032342
     11          1           0        5.710624   -0.348502    0.033992
     12          1           0        4.776237    0.867154    0.922640
     13          1           0        4.785652    0.874220   -0.851166
     14          1           0        3.584726   -1.335535    0.904047
     15          1           0        3.599935   -1.327689   -0.861443
     16          1           0        3.069744    1.824780    0.000567
     17          1           0        0.982709   -1.426671    0.890319
     18          1           0        0.977309   -1.407657   -0.896133
     19          1           0       -0.105113    0.782651   -0.722387
     20          1           0       -1.523125   -1.276980    0.859877
     21          1           0       -1.498715   -1.253114   -0.915933
     22          1           0       -2.553663    1.021179   -0.887903
     23          1           0       -2.557440    1.003163    0.878326
     24          1           0       -4.006611   -1.043933    0.860069
     25          1           0       -3.993427   -1.037362   -0.908931
     26          1           0       -5.030084    1.109148    0.807217
     27          1           0       -5.933154    0.008159    0.008531
 ---------------------------------------------------------------------
 Rotational constants (GHZ):           5.9714271           0.3474020           0.3329567
 Standard basis: 6-31G(2df,p) (6D, 7F)
 There are   395 symmetry adapted cartesian basis functions of A   symmetry.
 There are   365 symmetry adapted basis functions of A   symmetry.
   365 basis functions,   559 primitive gaussians,   395 cartesian basis functions
    40 alpha electrons       40 beta electrons
       nuclear repulsion energy       524.9428377152 Hartrees.
 NAtoms=   27 NActive=   27 NUniq=   27 SFac= 1.00D+00 NAtFMM=   60 NAOKFM=F Big=F
 Integral buffers will be    131072 words long.
 Raffenetti 2 integral format.
 Two-electron integral symmetry is turned on.
 One-electron integrals computed using PRISM.
 PrsmSu:  requested number of processors reduced to:  13 ShMem   1 Linda.
 NBasis=   365 RedAO= T EigKep=  3.12D-04  NBF=   365
 NBsUse=   365 1.00D-06 EigRej= -1.00D+00 NBFU=   365
 ExpMin= 1.61D-01 ExpMax= 4.17D+03 ExpMxC= 6.27D+02 IAcc=3 IRadAn=         5 AccDes= 0.00D+00
 Harris functional with IExCor=  402 and IRadAn=       5 diagonalized for initial guess.
 HarFok:  IExCor=  402 AccDes= 0.00D+00 IRadAn=         5 IDoV= 1 UseB2=F ITyADJ=14
 ICtDFT=  3500011 ScaDFX=  1.000000  1.000000  1.000000  1.000000
 FoFCou: FMM=F IPFlag=           0 FMFlag=      100000 FMFlg1=           0
         NFxFlg=           0 DoJE=T BraDBF=F KetDBF=T FulRan=T
         wScrn=  0.000000 ICntrl=       500 IOpCl=  0 I1Cent=   200000004 NGrid=           0
         NMat0=    1 NMatS0=      1 NMatT0=    0 NMatD0=    1 NMtDS0=    0 NMtDT0=    0
 Petite list used in FoFCou.
 Requested convergence on RMS density matrix=1.00D-08 within 128 cycles.
 Requested convergence on MAX density matrix=1.00D-06.
 Requested convergence on             energy=1.00D-06.
 No special actions if energy rises.
 Integral accuracy reduced to 1.0D-05 until final iterations.
 Initial convergence to 1.0D-05 achieved.  Increase integral accuracy.
 SCF Done:  E(RB3LYP) =  -441.238829501     A.U. after   13 cycles
            NFock= 13  Conv=0.23D-08     -V/T= 2.0083

 **********************************************************************

            Population analysis using the SCF density.

 **********************************************************************

 Orbital symmetries:
       Occupied  (A) (A) (A) (A) (A) (A) (A) (A) (A) (A) (A) (A)
                 (A) (A) (A) (A) (A) (A) (A) (A) (A) (A) (A) (A)
                 (A) (A) (A) (A) (A) (A) (A) (A) (A) (A) (A) (A)
                 (A) (A) (A) (A)
       Virtual   (A) (A) (A) (A) (A) (A) (A) (A) (A) (A) (A) (A)
                 (A) (A) (A) (A) (A) (A) (A) (A) (A) (A) (A) (A)
                 (A) (A) (A) (A) (A) (A) (A) (A) (A) (A) (A) (A)
                 (A) (A) (A) (A) (A) (A) (A) (A) (A) (A) (A) (A)
                 (A) (A) (A) (A) (A) (A) (A) (A) (A) (A) (A) (A)
                 (A) (A) (A) (A) (A) (A) (A) (A) (A) (A) (A) (A)
                 (A) (A) (A) (A) (A) (A) (A) (A) (A) (A) (A) (A)
                 (A) (A) (A) (A) (A) (A) (A) (A) (A) (A) (A) (A)
                 (A) (A) (A) (A) (A) (A) (A) (A) (A) (A) (A) (A)
                 (A) (A) (A) (A) (A) (A) (A) (A) (A) (A) (A) (A)
                 (A) (A) (A) (A) (A) (A) (A) (A) (A) (A) (A) (A)
                 (A) (A) (A) (A) (A) (A) (A) (A) (A) (A) (A) (A)
                 (A) (A) (A) (A) (A) (A) (A) (A) (A) (A) (A) (A)
                 (A) (A) (A) (A) (A) (A) (A) (A) (A) (A) (A) (A)
                 (A) (A) (A) (A) (A) (A) (A) (A) (A) (A) (A) (A)
                 (A) (A) (A) (A) (A) (A) (A) (A) (A) (A) (A) (A)
                 (A) (A) (A) (A) (A) (A) (A) (A) (A) (A) (A) (A)
                 (A) (A) (A) (A) (A) (A) (A) (A) (A) (A) (A) (A)
                 (A) (A) (A) (A) (A) (A) (A) (A) (A) (A) (A) (A)
                 (A) (A) (A) (A) (A) (A) (A) (A) (A) (A) (A) (A)
                 (A) (A) (A) (A) (A) (A) (A) (A) (A) (A) (A) (A)
                 (A) (A) (A) (A) (A) (A) (A) (A) (A) (A) (A) (A)
                 (A) (A) (A) (A) (A) (A) (A) (A) (A) (A) (A) (A)
                 (A) (A) (A) (A) (A) (A) (A) (A) (A) (A) (A) (A)
                 (A) (A) (A) (A) (A) (A) (A) (A) (A) (A) (A) (A)
                 (A) (A) (A) (A) (A) (A) (A) (A) (A) (A) (A) (A)
                 (A) (A) (A) (A) (A) (A) (A) (A) (A) (A) (A) (A)
                 (A)
 The electronic state is 1-A.
 Alpha  occ. eigenvalues --  -14.30191 -14.29684 -14.29650 -10.22926 -10.20743
 Alpha  occ. eigenvalues --  -10.19449 -10.19354 -10.19311 -10.18398 -10.16848
 Alpha  occ. eigenvalues --   -0.90655  -0.87489  -0.86767  -0.76892  -0.75396
 Alpha  occ. eigenvalues --   -0.69786  -0.64101  -0.61022  -0.58273  -0.53641
 Alpha  occ. eigenvalues --   -0.48824  -0.47640  -0.47141  -0.45948  -0.45695
 Alpha  occ. eigenvalues --   -0.43428  -0.42713  -0.41173  -0.38839  -0.38442
 Alpha  occ. eigenvalues --   -0.36732  -0.36078  -0.35583  -0.34135  -0.32999
 Alpha  occ. eigenvalues --   -0.32108  -0.28738  -0.24685  -0.22418  -0.20702
 Alpha virt. eigenvalues --    0.00775   0.08015   0.08723   0.10236   0.10937
 Alpha virt. eigenvalues --    0.12909   0.13284   0.13446   0.14511   0.15582
 Alpha virt. eigenvalues --    0.16624   0.17829   0.18036   0.18606   0.19383
 Alpha virt. eigenvalues --    0.20024   0.20542   0.21130   0.21417   0.22291
 Alpha virt. eigenvalues --    0.23280   0.24560   0.26534   0.27533   0.30964
 Alpha virt. eigenvalues --    0.33310   0.38345   0.41019   0.46082   0.46398
 Alpha virt. eigenvalues --    0.49953   0.50678   0.51995   0.52265   0.53159
 Alpha virt. eigenvalues --    0.53652   0.55439   0.56144   0.56808   0.57849
 Alpha virt. eigenvalues --    0.58706   0.59261   0.59667   0.62157   0.63040
 Alpha virt. eigenvalues --    0.64014   0.66856   0.67364   0.69564   0.69906
 Alpha virt. eigenvalues --    0.71543   0.71959   0.72615   0.72992   0.73840
 Alpha virt. eigenvalues --    0.74767   0.75425   0.75442   0.75995   0.77290
 Alpha virt. eigenvalues --    0.78311   0.79062   0.79984   0.80685   0.81447
 Alpha virt. eigenvalues --    0.82922   0.83592   0.84368   0.84829   0.84969
 Alpha virt. eigenvalues --    0.85776   0.86894   0.87874   0.89312   0.89937
 Alpha virt. eigenvalues --    0.90769   0.92299   0.94822   0.98644   1.01954
 Alpha virt. eigenvalues --    1.04395   1.08198   1.09620   1.13420   1.16120
 Alpha virt. eigenvalues --    1.20044   1.20495   1.22033   1.23036   1.23827
 Alpha virt. eigenvalues --    1.25252   1.28785   1.29044   1.31043   1.32168
 Alpha virt. eigenvalues --    1.33763   1.35548   1.35755   1.37689   1.38746
 Alpha virt. eigenvalues --    1.40689   1.42476   1.48238   1.49309   1.51602
 Alpha virt. eigenvalues --    1.52255   1.54045   1.57146   1.57614   1.58652
 Alpha virt. eigenvalues --    1.59465   1.62849   1.63847   1.68943   1.69121
 Alpha virt. eigenvalues --    1.71971   1.74074   1.74813   1.76139   1.77219
 Alpha virt. eigenvalues --    1.80658   1.82734   1.84967   1.89842   1.91382
 Alpha virt. eigenvalues --    1.92129   1.94235   1.94715   1.97596   1.98253
 Alpha virt. eigenvalues --    2.03409   2.05929   2.06858   2.08139   2.12430
 Alpha virt. eigenvalues --    2.14794   2.16759   2.20088   2.20816   2.22108
 Alpha virt. eigenvalues --    2.27046   2.30309   2.30879   2.31661   2.33548
 Alpha virt. eigenvalues --    2.36454   2.37207   2.39708   2.42747   2.43909
 Alpha virt. eigenvalues --    2.46200   2.49224   2.49821   2.55867   2.59918
 Alpha virt. eigenvalues --    2.62487   2.63509   2.66813   2.67947   2.69681
 Alpha virt. eigenvalues --    2.72995   2.74966   2.76236   2.77660   2.78100
 Alpha virt. eigenvalues --    2.78815   2.80112   2.81340   2.82238   2.82652
 Alpha virt. eigenvalues --    2.84019   2.85382   2.86842   2.87785   2.88992
 Alpha virt. eigenvalues --    2.90386   2.92130   2.94329   2.96474   2.96782
 Alpha virt. eigenvalues --    2.98066   2.99331   2.99384   3.01822   3.04973
 Alpha virt. eigenvalues --    3.06780   3.08283   3.08754   3.11436   3.12999
 Alpha virt. eigenvalues --    3.16492   3.17754   3.20702   3.23766   3.26691
 Alpha virt. eigenvalues --    3.28032   3.29056   3.31156   3.33618   3.35391
 Alpha virt. eigenvalues --    3.38421   3.41087   3.42357   3.42975   3.46580
 Alpha virt. eigenvalues --    3.48595   3.50701   3.51531   3.55341   3.56984
 Alpha virt. eigenvalues --    3.59694   3.61760   3.62447   3.64244   3.66523
 Alpha virt. eigenvalues --    3.68815   3.70497   3.71818   3.72689   3.73279
 Alpha virt. eigenvalues --    3.76296   3.78779   3.79739   3.81579   3.85136
 Alpha virt. eigenvalues --    3.89984   3.91478   3.93798   3.96640   3.98363
 Alpha virt. eigenvalues --    4.00537   4.01957   4.03460   4.07891   4.10456
 Alpha virt. eigenvalues --    4.12828   4.17021   4.19630   4.19962   4.24438
 Alpha virt. eigenvalues --    4.25481   4.29510   4.34354   4.35402   4.37595
 Alpha virt. eigenvalues --    4.38278   4.38971   4.40582   4.43383   4.44729
 Alpha virt. eigenvalues --    4.46221   4.47622   4.48351   4.50195   4.50539
 Alpha virt. eigenvalues --    4.51480   4.52126   4.55288   4.56364   4.57448
 Alpha virt. eigenvalues --    4.58467   4.59366   4.59649   4.61545   4.61771
 Alpha virt. eigenvalues --    4.64803   4.65241   4.66547   4.67416   4.67853
 Alpha virt. eigenvalues --    4.69687   4.71098   4.72060   4.73253   4.73625
 Alpha virt. eigenvalues --    4.75062   4.76892   4.78484   4.79562   4.80102
 Alpha virt. eigenvalues --    4.83519   4.85390   4.86882   4.89079   4.90288
 Alpha virt. eigenvalues --    4.91424   4.91899   4.94697   4.95201   4.97627
 Alpha virt. eigenvalues --    4.97881   4.99422   5.03227   5.07236   5.08936
 Alpha virt. eigenvalues --    5.09982   5.15707   5.20682   5.26909   5.32460
 Alpha virt. eigenvalues --    5.36429   5.39444   5.39845   5.47715   5.49964
 Alpha virt. eigenvalues --    5.52668   5.59748   5.65792   5.70962   5.73219
 Alpha virt. eigenvalues --    5.75223   5.95621   9.63500  10.49905  10.82116
 Alpha virt. eigenvalues --   11.13326  11.41550  11.49958  11.53661  11.61742
 Alpha virt. eigenvalues --   11.80397  12.08804  12.43966  12.70970  15.30817
          Condensed to atoms (all electrons):
               1          2          3          4          5          6
     1  C    4.966410   0.397542  -0.019899  -0.011163   0.002368  -0.000062
     2  C    0.397542   5.025763   0.391707  -0.091419  -0.097269   0.002506
     3  C   -0.019899   0.391707   4.453868   0.742607   0.346366  -0.031487
     4  N   -0.011163  -0.091419   0.742607   6.485588  -0.019849  -0.007686
     5  C    0.002368  -0.097269   0.346366  -0.019849   5.018517   0.388799
     6  N   -0.000062   0.002506  -0.031487  -0.007686   0.388799   6.358254
     7  C    0.000000  -0.000080   0.003177   0.000633  -0.064758   0.387139
     8  C   -0.000000   0.000002  -0.000142   0.000005   0.002370  -0.037403
     9  C    0.000000  -0.000000  -0.000000  -0.000000  -0.000247   0.002464
    10  N   -0.000000   0.000000  -0.000000   0.000000   0.000000  -0.000018
    11  H    0.370084  -0.020944   0.002515   0.000891  -0.000084   0.000000
    12  H    0.378435  -0.027831  -0.003624   0.001198   0.000119  -0.000000
    13  H    0.377627  -0.027619  -0.004227   0.001668   0.000128   0.000001
    14  H   -0.034870   0.355970  -0.024243   0.002126   0.000253   0.000066
    15  H   -0.034962   0.355060  -0.022197   0.001618   0.000507   0.000054
    16  H    0.009705  -0.027810  -0.087384   0.342472   0.010505   0.000008
    17  H   -0.000009  -0.001006  -0.007933  -0.001206   0.341102  -0.019264
    18  H    0.000082   0.003417  -0.035808  -0.001793   0.344422  -0.040133
    19  H   -0.000003   0.000810   0.008203   0.012419  -0.060491   0.343369
    20  H    0.000000  -0.000007   0.000473  -0.000030  -0.003341  -0.023185
    21  H    0.000000   0.000017  -0.000307  -0.000001  -0.004920  -0.042376
    22  H    0.000000  -0.000000   0.000016  -0.000016   0.000148  -0.001580
    23  H    0.000000   0.000000  -0.000003   0.000001   0.000178   0.005348
    24  H    0.000000   0.000000   0.000000  -0.000000   0.000023   0.000104
    25  H    0.000000   0.000000  -0.000000  -0.000000   0.000001   0.000013
    26  H   -0.000000  -0.000000   0.000000  -0.000000  -0.000000  -0.000001
    27  H    0.000000  -0.000000   0.000000  -0.000000  -0.000000   0.000001
               7          8          9         10         11         12
     1  C    0.000000  -0.000000   0.000000  -0.000000   0.370084   0.378435
     2  C   -0.000080   0.000002  -0.000000   0.000000  -0.020944  -0.027831
     3  C    0.003177  -0.000142  -0.000000  -0.000000   0.002515  -0.003624
     4  N    0.000633   0.000005  -0.000000   0.000000   0.000891   0.001198
     5  C   -0.064758   0.002370  -0.000247   0.000000  -0.000084   0.000119
     6  N    0.387139  -0.037403   0.002464  -0.000018   0.000000  -0.000000
     7  C    4.841141   0.400237  -0.039257   0.002006  -0.000000   0.000000
     8  C    0.400237   4.856481   0.396472  -0.037142   0.000000   0.000000
     9  C   -0.039257   0.396472   4.817463   0.391563  -0.000000  -0.000000
    10  N    0.002006  -0.037142   0.391563   6.547764   0.000000   0.000000
    11  H   -0.000000   0.000000  -0.000000   0.000000   0.594576  -0.029291
    12  H    0.000000   0.000000  -0.000000   0.000000  -0.029291   0.584609
    13  H    0.000000   0.000000   0.000000   0.000000  -0.029174  -0.037283
    14  H   -0.000001   0.000000   0.000000  -0.000000  -0.001803  -0.004969
    15  H    0.000004   0.000000   0.000000  -0.000000  -0.002112   0.005680
    16  H   -0.000011  -0.000001   0.000000  -0.000000  -0.000341   0.004451
    17  H   -0.003363   0.000222  -0.000007   0.000000  -0.000000  -0.000005
    18  H   -0.004202   0.000036   0.000042   0.000000   0.000003   0.000004
    19  H   -0.048338   0.000519  -0.000262   0.000001  -0.000000  -0.000001
    20  H    0.350911  -0.020503  -0.006560  -0.000053   0.000000   0.000000
    21  H    0.344831  -0.040139   0.001085   0.000048   0.000000  -0.000000
    22  H   -0.029828   0.361347  -0.029733   0.003522   0.000000   0.000000
    23  H   -0.029339   0.364040  -0.035115  -0.001953   0.000000  -0.000000
    24  H    0.002716  -0.047769   0.377288  -0.048783   0.000000  -0.000000
    25  H   -0.006224  -0.019915   0.355561  -0.022012   0.000000  -0.000000
    26  H   -0.000290  -0.002980  -0.053991   0.340996  -0.000000   0.000000
    27  H   -0.000321   0.005139  -0.044999   0.337094  -0.000000   0.000000
              13         14         15         16         17         18
     1  C    0.377627  -0.034870  -0.034962   0.009705  -0.000009   0.000082
     2  C   -0.027619   0.355970   0.355060  -0.027810  -0.001006   0.003417
     3  C   -0.004227  -0.024243  -0.022197  -0.087384  -0.007933  -0.035808
     4  N    0.001668   0.002126   0.001618   0.342472  -0.001206  -0.001793
     5  C    0.000128   0.000253   0.000507   0.010505   0.341102   0.344422
     6  N    0.000001   0.000066   0.000054   0.000008  -0.019264  -0.040133
     7  C    0.000000  -0.000001   0.000004  -0.000011  -0.003363  -0.004202
     8  C    0.000000   0.000000   0.000000  -0.000001   0.000222   0.000036
     9  C    0.000000   0.000000   0.000000   0.000000  -0.000007   0.000042
    10  N    0.000000  -0.000000  -0.000000  -0.000000   0.000000   0.000000
    11  H   -0.029174  -0.001803  -0.002112  -0.000341  -0.000000   0.000003
    12  H   -0.037283  -0.004969   0.005680   0.004451  -0.000005   0.000004
    13  H    0.586264   0.005723  -0.005082   0.004669   0.000009  -0.000008
    14  H    0.005723   0.620756  -0.036144   0.000535   0.002499  -0.000247
    15  H   -0.005082  -0.036144   0.618723   0.000536  -0.000288   0.002468
    16  H    0.004669   0.000535   0.000536   0.524502  -0.000246  -0.000220
    17  H    0.000009   0.002499  -0.000288  -0.000246   0.616425  -0.053126
    18  H   -0.000008  -0.000247   0.002468  -0.000220  -0.053126   0.688577
    19  H   -0.000001  -0.000001  -0.000054  -0.000721   0.006713  -0.005931
    20  H   -0.000000  -0.000002   0.000001   0.000000   0.005993  -0.002067
    21  H    0.000000   0.000001  -0.000001   0.000000  -0.002005   0.014711
    22  H   -0.000000  -0.000000   0.000000   0.000000   0.000008  -0.000027
    23  H    0.000000   0.000000  -0.000000   0.000000  -0.000029   0.000042
    24  H    0.000000   0.000000  -0.000000   0.000000  -0.000004   0.000001
    25  H    0.000000   0.000000   0.000000   0.000000   0.000000   0.000000
    26  H   -0.000000  -0.000000   0.000000   0.000000   0.000000  -0.000000
    27  H    0.000000   0.000000   0.000000   0.000000   0.000000   0.000000
              19         20         21         22         23         24
     1  C   -0.000003   0.000000   0.000000   0.000000   0.000000   0.000000
     2  C    0.000810  -0.000007   0.000017  -0.000000   0.000000   0.000000
     3  C    0.008203   0.000473  -0.000307   0.000016  -0.000003   0.000000
     4  N    0.012419  -0.000030  -0.000001  -0.000016   0.000001  -0.000000
     5  C   -0.060491  -0.003341  -0.004920   0.000148   0.000178   0.000023
     6  N    0.343369  -0.023185  -0.042376  -0.001580   0.005348   0.000104
     7  C   -0.048338   0.350911   0.344831  -0.029828  -0.029339   0.002716
     8  C    0.000519  -0.020503  -0.040139   0.361347   0.364040  -0.047769
     9  C   -0.000262  -0.006560   0.001085  -0.029733  -0.035115   0.377288
    10  N    0.000001  -0.000053   0.000048   0.003522  -0.001953  -0.048783
    11  H   -0.000000   0.000000   0.000000   0.000000   0.000000   0.000000
    12  H   -0.000001   0.000000  -0.000000   0.000000  -0.000000  -0.000000
    13  H   -0.000001  -0.000000   0.000000  -0.000000   0.000000   0.000000
    14  H   -0.000001  -0.000002   0.000001  -0.000000   0.000000   0.000000
    15  H   -0.000054   0.000001  -0.000001   0.000000  -0.000000  -0.000000
    16  H   -0.000721   0.000000   0.000000   0.000000   0.000000   0.000000
    17  H    0.006713   0.005993  -0.002005   0.000008  -0.000029  -0.000004
    18  H   -0.005931  -0.002067   0.014711  -0.000027   0.000042   0.000001
    19  H    0.512690   0.006548  -0.005869   0.005214  -0.000557   0.000010
    20  H    0.006548   0.652022  -0.058132   0.006148  -0.006806   0.005682
    21  H   -0.005869  -0.058132   0.720219  -0.006701   0.007005  -0.000499
    22  H    0.005214   0.006148  -0.006701   0.630537  -0.042127   0.006862
    23  H   -0.000557  -0.006806   0.007005  -0.042127   0.632665  -0.006980
    24  H    0.000010   0.005682  -0.000499   0.006862  -0.006980   0.699932
    25  H    0.000002  -0.000734   0.005289  -0.006370   0.006061  -0.052721
    26  H    0.000001   0.000004   0.000012  -0.000515   0.005675  -0.005799
    27  H   -0.000000  -0.000002   0.000012  -0.000136   0.000016  -0.004842
              25         26         27
     1  C    0.000000  -0.000000   0.000000
     2  C    0.000000  -0.000000  -0.000000
     3  C   -0.000000   0.000000   0.000000
     4  N   -0.000000  -0.000000  -0.000000
     5  C    0.000001  -0.000000  -0.000000
     6  N    0.000013  -0.000001   0.000001
     7  C   -0.006224  -0.000290  -0.000321
     8  C   -0.019915  -0.002980   0.005139
     9  C    0.355561  -0.053991  -0.044999
    10  N   -0.022012   0.340996   0.337094
    11  H    0.000000  -0.000000  -0.000000
    12  H   -0.000000   0.000000   0.000000
    13  H    0.000000  -0.000000   0.000000
    14  H    0.000000  -0.000000   0.000000
    15  H    0.000000   0.000000   0.000000
    16  H    0.000000   0.000000   0.000000
    17  H    0.000000   0.000000   0.000000
    18  H    0.000000  -0.000000   0.000000
    19  H    0.000002   0.000001  -0.000000
    20  H   -0.000734   0.000004  -0.000002
    21  H    0.005289   0.000012   0.000012
    22  H   -0.006370  -0.000515  -0.000136
    23  H    0.006061   0.005675   0.000016
    24  H   -0.052721  -0.005799  -0.004842
    25  H    0.637165   0.006900  -0.002046
    26  H    0.006900   0.521414  -0.031545
    27  H   -0.002046  -0.031545   0.522333
 Mulliken charges:
               1
     1  C   -0.401286
     2  C   -0.238809
     3  C    0.288322
     4  N   -0.458063
     5  C   -0.204848
     6  N   -0.284933
     7  C   -0.106783
     8  C   -0.180877
     9  C   -0.131769
    10  N   -0.513032
    11  H    0.115678
    12  H    0.128508
    13  H    0.127305
    14  H    0.114352
    15  H    0.116190
    16  H    0.219351
    17  H    0.115520
    18  H    0.089755
    19  H    0.225730
    20  H    0.093639
    21  H    0.067718
    22  H    0.103232
    23  H    0.101878
    24  H    0.074778
    25  H    0.099029
    26  H    0.220119
    27  H    0.219296
 Sum of Mulliken charges =  -0.00000
 Mulliken charges with hydrogens summed into heavy atoms:
               1
     1  C   -0.029795
     2  C   -0.008268
     3  C    0.288322
     4  N   -0.238712
     5  C    0.000427
     6  N   -0.059203
     7  C    0.054574
     8  C    0.024234
     9  C    0.042038
    10  N   -0.073617
 Electronic spatial extent (au):  <R**2>=           3321.1034
 Charge=             -0.0000 electrons
 Dipole moment (field-independent basis, Debye):
    X=              1.3656    Y=             -2.4041    Z=              0.3784  Tot=              2.7907
 Quadrupole moment (field-independent basis, Debye-Ang):
   XX=            -52.7091   YY=            -65.5329   ZZ=            -62.9122
   XY=              1.8978   XZ=             -5.3635   YZ=              0.4998
 Traceless Quadrupole moment (field-independent basis, Debye-Ang):
   XX=              7.6756   YY=             -5.1481   ZZ=             -2.5275
   XY=              1.8978   XZ=             -5.3635   YZ=              0.4998
 Octapole moment (field-independent basis, Debye-Ang**2):
  XXX=              0.2836  YYY=              2.2172  ZZZ=              0.7088  XYY=              1.9998
  XXY=            -16.1904  XXZ=             31.1264  XZZ=             -2.0285  YZZ=              0.2404
  YYZ=              2.0579  XYZ=             -8.3599
 Hexadecapole moment (field-independent basis, Debye-Ang**3):
 XXXX=          -3654.3992 YYYY=           -295.6834 ZZZZ=           -107.9871 XXXY=            111.1652
 XXXZ=           -155.4797 YYYX=              2.9355 YYYZ=              1.1478 ZZZX=             -5.7213
 ZZZY=              0.2985 XXYY=           -714.4029 XXZZ=           -682.7597 YYZZ=            -62.4263
 XXYZ=             45.3163 YYXZ=             -8.8293 ZZXY=             -2.8789
 N-N= 5.249428377152D+02 E-N=-2.074179288379D+03  KE= 4.376093066972D+02
 PrsmSu:  requested number of processors reduced to:  13 ShMem   1 Linda.
 Calling FoFJK, ICntrl=      2127 FMM=F ISym2X=0 I1Cent= 0 IOpClX= 0 NMat=1 NMatS=1 NMatT=0.
 ***** Axes restored to original set *****
 -------------------------------------------------------------------
 Center     Atomic                   Forces (Hartrees/Bohr)
 Number     Number              X              Y              Z
 -------------------------------------------------------------------
      1        6          -0.004722723    0.000011705   -0.000012213
      2        6           0.004630586   -0.002794679    0.001896467
      3        6          -0.029145801   -0.019980633    0.008127506
      4        7           0.033406877    0.017519524   -0.006839950
      5        6          -0.023128979   -0.021747358    0.008558189
      6        7          -0.002172590    0.012568532    0.000391958
      7        6          -0.012381519   -0.009839404    0.003010403
      8        6           0.007373105    0.004307210   -0.002897403
      9        6          -0.001366882   -0.004781924    0.007487449
     10        7           0.002369354   -0.011725844    0.000402793
     11        1           0.000083798    0.000498621    0.000015830
     12        1          -0.001653815    0.001047007   -0.001068659
     13        1          -0.001323205    0.001621178   -0.000057051
     14        1           0.002404375    0.001864641   -0.001781807
     15        1           0.002751947    0.002503370    0.000044268
     16        1           0.001280611    0.003201845   -0.003770229
     17        1           0.003019955    0.000761720   -0.000791547
     18        1           0.003870614    0.007403764   -0.006502630
     19        1           0.004355707    0.004873361    0.005431340
     20        1           0.000070832    0.002244193   -0.001221735
     21        1           0.009021421    0.000450649   -0.004462778
     22        1           0.001613844   -0.000105895    0.000849618
     23        1          -0.000393938    0.001360747   -0.001756746
     24        1          -0.000364851    0.010215522   -0.002962650
     25        1           0.000892828   -0.000843345   -0.000501328
     26        1           0.002229816    0.000227361   -0.002614665
     27        1          -0.002721367   -0.000861868    0.001025571
 -------------------------------------------------------------------
 Cartesian Forces:  Max     0.033406877 RMS     0.007979426

 GradGradGradGradGradGradGradGradGradGradGradGradGradGradGradGradGradGrad
 Berny optimization.
 FormGI is forming the generalized inverse of G from B-inverse, IUseBI=4.
 Internal  Forces:  Max     0.039615789 RMS     0.005330810
 Search for a local minimum.
 Step number   1 out of a maximum of  141
 All quantities printed in internal units (Hartrees-Bohrs-Radians)
 Mixed Optimization -- RFO/linear search
 Second derivative matrix not updated -- first step.
 ITU=  0
     Eigenvalues ---    0.00343   0.00393   0.00432   0.00485   0.00541
     Eigenvalues ---    0.00816   0.00889   0.00938   0.01056   0.02734
     Eigenvalues ---    0.02992   0.03836   0.04048   0.04449   0.04572
     Eigenvalues ---    0.04575   0.04937   0.05377   0.05423   0.05529
     Eigenvalues ---    0.05618   0.05627   0.05719   0.06590   0.07899
     Eigenvalues ---    0.09026   0.09187   0.09374   0.09549   0.11334
     Eigenvalues ---    0.11868   0.12563   0.12658   0.12894   0.12942
     Eigenvalues ---    0.16000   0.16000   0.16000   0.16000   0.16000
     Eigenvalues ---    0.16000   0.21858   0.21936   0.21942   0.21986
     Eigenvalues ---    0.22006   0.23223   0.24992   0.24997   0.29243
     Eigenvalues ---    0.29591   0.29869   0.30250   0.30656   0.33848
     Eigenvalues ---    0.33891   0.34032   0.34109   0.34116   0.34146
     Eigenvalues ---    0.34151   0.34160   0.34168   0.34189   0.34213
     Eigenvalues ---    0.34232   0.34515   0.36877   0.37348   0.38503
     Eigenvalues ---    0.43896   0.44368   0.44585   0.44591   0.66717
 RFO step:  Lambda=-1.43173497D-02 EMin= 3.43189164D-03
 Linear search not attempted -- first point.
 Iteration  1 RMS(Cart)=  0.11096374 RMS(Int)=  0.00363170
 Iteration  2 RMS(Cart)=  0.00649446 RMS(Int)=  0.00041711
 Iteration  3 RMS(Cart)=  0.00001774 RMS(Int)=  0.00041696
 Iteration  4 RMS(Cart)=  0.00000001 RMS(Int)=  0.00041696
 Variable       Old X    -DE/DX   Delta X   Delta X   Delta X     New X
                                 (Linear)    (Quad)   (Total)
    R1        2.86674   0.00786   0.00000   0.02448   0.02448   2.89122
    R2        2.06470   0.00039   0.00000   0.00110   0.00110   2.06580
    R3        2.07013  -0.00037   0.00000  -0.00104  -0.00104   2.06909
    R4        2.07075  -0.00069   0.00000  -0.00194  -0.00194   2.06881
    R5        2.87467   0.00371   0.00000   0.01172   0.01172   2.88639
    R6        2.07146   0.00144   0.00000   0.00404   0.00404   2.07550
    R7        2.07275   0.00111   0.00000   0.00312   0.00312   2.07587
    R8        2.45990  -0.03962   0.00000  -0.05813  -0.05813   2.40177
    R9        2.89498  -0.00678   0.00000  -0.02210  -0.02210   2.87288
   R10        1.92461  -0.00014   0.00000  -0.00030  -0.00030   1.92431
   R11        2.76032  -0.00428   0.00000  -0.01118  -0.01118   2.74914
   R12        2.06941   0.00130   0.00000   0.00364   0.00364   2.07304
   R13        2.07048   0.00759   0.00000   0.02133   0.02133   2.09180
   R14        2.73640   0.00774   0.00000   0.01937   0.01937   2.75578
   R15        1.93279  -0.00826   0.00000  -0.01821  -0.01821   1.91458
   R16        2.88787   0.00290   0.00000   0.00935   0.00935   2.89722
   R17        2.07136   0.00100   0.00000   0.00280   0.00280   2.07415
   R18        2.07060   0.00783   0.00000   0.02199   0.02199   2.09259
   R19        2.88225   0.00266   0.00000   0.00849   0.00849   2.89074
   R20        2.07514  -0.00107   0.00000  -0.00302  -0.00302   2.07212
   R21        2.07588  -0.00141   0.00000  -0.00399  -0.00399   2.07189
   R22        2.75324   0.01069   0.00000   0.02756   0.02756   2.78080
   R23        2.07084   0.00564   0.00000   0.01584   0.01584   2.08668
   R24        2.06972   0.00084   0.00000   0.00236   0.00236   2.07208
   R25        1.92717  -0.00329   0.00000  -0.00718  -0.00718   1.91998
   R26        1.92454  -0.00242   0.00000  -0.00527  -0.00527   1.91927
    A1        1.94375  -0.00156   0.00000  -0.01264  -0.01257   1.93118
    A2        1.92884   0.00273   0.00000   0.01730   0.01718   1.94601
    A3        1.92996   0.00240   0.00000   0.01576   0.01562   1.94559
    A4        1.88806  -0.00122   0.00000  -0.01079  -0.01072   1.87734
    A5        1.88480  -0.00095   0.00000  -0.00863  -0.00857   1.87623
    A6        1.88663  -0.00156   0.00000  -0.00183  -0.00213   1.88450
    A7        1.98450   0.00914   0.00000   0.04698   0.04663   2.03113
    A8        1.91806  -0.00176   0.00000  -0.00360  -0.00373   1.91434
    A9        1.91162  -0.00113   0.00000   0.00216   0.00192   1.91353
   A10        1.89225  -0.00287   0.00000  -0.00933  -0.00962   1.88263
   A11        1.88214  -0.00296   0.00000  -0.00828  -0.00876   1.87338
   A12        1.87164  -0.00097   0.00000  -0.03266  -0.03282   1.83882
   A13        2.14864   0.01614   0.00000   0.06093   0.06083   2.20948
   A14        2.03871  -0.00880   0.00000  -0.03341  -0.03347   2.00524
   A15        2.09557  -0.00735   0.00000  -0.02798  -0.02802   2.06755
   A16        1.97429  -0.00893   0.00000  -0.05124  -0.05124   1.92305
   A17        1.90544   0.01510   0.00000   0.07597   0.07494   1.98038
   A18        1.89031  -0.00150   0.00000  -0.00172  -0.00135   1.88896
   A19        1.88791  -0.00701   0.00000  -0.02521  -0.02764   1.86027
   A20        1.92717  -0.00705   0.00000  -0.04041  -0.04027   1.88690
   A21        1.94459   0.00199   0.00000   0.03775   0.03699   1.98158
   A22        1.90722  -0.00159   0.00000  -0.04678  -0.04689   1.86033
   A23        1.96911   0.00448   0.00000   0.01745   0.01749   1.98659
   A24        1.89606   0.00011   0.00000   0.00537   0.00548   1.90154
   A25        1.96634  -0.00342   0.00000  -0.02309  -0.02312   1.94322
   A26        1.91448   0.00545   0.00000   0.03032   0.02998   1.94447
   A27        1.90459  -0.00389   0.00000  -0.02629  -0.02605   1.87853
   A28        1.93297   0.00288   0.00000   0.03984   0.03978   1.97276
   A29        1.90539   0.00048   0.00000  -0.00025  -0.00017   1.90522
   A30        1.91653  -0.00403   0.00000  -0.01760  -0.01861   1.89792
   A31        1.88948  -0.00101   0.00000  -0.02734  -0.02728   1.86220
   A32        1.91751   0.01128   0.00000   0.05207   0.05207   1.96958
   A33        1.92001  -0.00206   0.00000  -0.00268  -0.00260   1.91741
   A34        1.91927  -0.00490   0.00000  -0.02435  -0.02458   1.89469
   A35        1.91939  -0.00472   0.00000  -0.02216  -0.02236   1.89703
   A36        1.91879  -0.00193   0.00000  -0.00145  -0.00129   1.91750
   A37        1.86835   0.00196   0.00000  -0.00333  -0.00357   1.86478
   A38        1.92972   0.00088   0.00000   0.00836   0.00799   1.93771
   A39        1.92118  -0.00482   0.00000  -0.02556  -0.02666   1.89452
   A40        1.91853   0.00062   0.00000  -0.01227  -0.01261   1.90592
   A41        1.91022   0.00700   0.00000   0.07345   0.07366   1.98388
   A42        1.90398  -0.00290   0.00000  -0.02710  -0.02690   1.87708
   A43        1.87942  -0.00078   0.00000  -0.01718  -0.01734   1.86208
   A44        1.90988  -0.00043   0.00000  -0.00339  -0.00338   1.90650
   A45        1.91056   0.00264   0.00000   0.01425   0.01426   1.92482
   A46        1.85800  -0.00130   0.00000  -0.00937  -0.00935   1.84865
    D1       -3.13028  -0.00014   0.00000  -0.00430  -0.00435  -3.13463
    D2        1.02838  -0.00149   0.00000  -0.02229  -0.02235   1.00603
    D3       -1.02350   0.00139   0.00000   0.01826   0.01836  -1.00514
    D4        1.05379   0.00059   0.00000   0.00605   0.00610   1.05989
    D5       -1.07074  -0.00075   0.00000  -0.01194  -0.01190  -1.08264
    D6       -3.12261   0.00213   0.00000   0.02861   0.02881  -3.09380
    D7       -1.03453  -0.00077   0.00000  -0.01298  -0.01312  -1.04765
    D8        3.12413  -0.00212   0.00000  -0.03096  -0.03112   3.09301
    D9        1.07225   0.00077   0.00000   0.00958   0.00959   1.08185
   D10        0.02987   0.00048   0.00000   0.01197   0.01222   0.04209
   D11       -3.13673  -0.00015   0.00000  -0.00978  -0.01003   3.13643
   D12        2.16868   0.00229   0.00000   0.03222   0.03239   2.20107
   D13       -0.99793   0.00166   0.00000   0.01047   0.01015  -0.98778
   D14       -2.09338  -0.00189   0.00000  -0.01533  -0.01501  -2.10839
   D15        1.02320  -0.00252   0.00000  -0.03708  -0.03725   0.98595
   D16       -0.05297   0.00156   0.00000   0.03148   0.03122  -0.02175
   D17        3.11442   0.00222   0.00000   0.05392   0.05418  -3.11458
   D18        3.10938  -0.00338   0.00000  -0.06931  -0.06927   3.04012
   D19        1.01025  -0.00281   0.00000  -0.06391  -0.06428   0.94596
   D20       -1.05499   0.00379   0.00000   0.00659   0.00580  -1.04919
   D21       -0.05642  -0.00363   0.00000  -0.08901  -0.08821  -0.14463
   D22       -2.15555  -0.00306   0.00000  -0.08361  -0.08323  -2.23879
   D23        2.06240   0.00354   0.00000  -0.01311  -0.01315   2.04925
   D24        3.10443  -0.00240   0.00000  -0.06475  -0.06343   3.04099
   D25        0.91112  -0.00124   0.00000  -0.05131  -0.05006   0.86106
   D26       -1.10241   0.00084   0.00000  -0.04430  -0.04446  -1.14687
   D27        2.98747   0.00199   0.00000  -0.03086  -0.03109   2.95638
   D28        1.02038  -0.00470   0.00000  -0.10599  -0.10704   0.91334
   D29       -1.17293  -0.00354   0.00000  -0.09255  -0.09367  -1.26660
   D30       -3.12374  -0.00001   0.00000  -0.00414  -0.00461  -3.12834
   D31        1.07282  -0.00151   0.00000  -0.00609  -0.00609   1.06673
   D32       -1.00550   0.00042   0.00000   0.01980   0.02041  -0.98508
   D33       -0.96889   0.00095   0.00000  -0.00140  -0.00197  -0.97086
   D34       -3.05552  -0.00055   0.00000  -0.00336  -0.00345  -3.05897
   D35        1.14935   0.00138   0.00000   0.02254   0.02305   1.17240
   D36       -3.11150   0.00133   0.00000   0.01945   0.01952  -3.09197
   D37        1.05628   0.00126   0.00000   0.01517   0.01499   1.07128
   D38       -0.99731   0.00305   0.00000   0.03550   0.03522  -0.96209
   D39       -1.02536   0.00016   0.00000   0.00547   0.00560  -1.01976
   D40       -3.14077   0.00009   0.00000   0.00118   0.00108  -3.13969
   D41        1.08883   0.00188   0.00000   0.02151   0.02130   1.11013
   D42        1.04359  -0.00317   0.00000  -0.03836  -0.03797   1.00562
   D43       -1.07181  -0.00324   0.00000  -0.04264  -0.04250  -1.11432
   D44       -3.12541  -0.00145   0.00000  -0.02231  -0.02228   3.13550
   D45       -3.12916   0.00235   0.00000   0.03409   0.03410  -3.09506
   D46        1.04137  -0.00382   0.00000  -0.04647  -0.04594   0.99544
   D47       -1.02604  -0.00029   0.00000  -0.00228  -0.00226  -1.02830
   D48       -1.01338   0.00402   0.00000   0.05004   0.04975  -0.96363
   D49       -3.12604  -0.00215   0.00000  -0.03052  -0.03028   3.12687
   D50        1.08973   0.00138   0.00000   0.01368   0.01340   1.10313
   D51        1.03955   0.00242   0.00000   0.03183   0.03157   1.07113
   D52       -1.07310  -0.00374   0.00000  -0.04873  -0.04846  -1.12156
   D53       -3.14052  -0.00022   0.00000  -0.00454  -0.00478   3.13789
   D54       -1.06203  -0.00015   0.00000  -0.02318  -0.02362  -1.08565
   D55       -3.09205   0.00016   0.00000  -0.01807  -0.01850  -3.11056
   D56        1.05711  -0.00101   0.00000  -0.00153  -0.00090   1.05621
   D57       -0.97291  -0.00070   0.00000   0.00357   0.00421  -0.96870
   D58        3.10937   0.00040   0.00000   0.00427   0.00406   3.11343
   D59        1.07935   0.00070   0.00000   0.00937   0.00917   1.08852
         Item               Value     Threshold  Converged?
 Maximum Force            0.039616     0.000450     NO 
 RMS     Force            0.005331     0.000300     NO 
 Maximum Displacement     0.377314     0.001800     NO 
 RMS     Displacement     0.109828     0.001200     NO 
 Predicted change in Energy=-8.096441D-03
 GradGradGradGradGradGradGradGradGradGradGradGradGradGradGradGradGradGrad

                          Input orientation:                          
 ---------------------------------------------------------------------
 Center     Atomic      Atomic             Coordinates (Angstroms)
 Number     Number       Type             X           Y           Z
 ---------------------------------------------------------------------
      1          6           0        1.033719    0.239032   -0.037655
      2          6           0        2.537231    0.005233    0.122321
      3          6           0        2.955121   -1.333031    0.728465
      4          7           0        2.183901   -2.283233    1.071508
      5          6           0        4.455985   -1.532640    0.865470
      6          7           0        4.816192   -2.755414    1.566514
      7          6           0        6.249699   -3.022385    1.586630
      8          6           0        6.565089   -4.330538    2.321337
      9          6           0        8.066023   -4.608023    2.422462
     10          7           0        8.320886   -5.900996    3.077205
     11          1           0        0.841215    1.217941   -0.484544
     12          1           0        0.518067    0.209388    0.927777
     13          1           0        0.577798   -0.514904   -0.687450
     14          1           0        2.972491    0.804318    0.737372
     15          1           0        3.030107    0.089740   -0.855760
     16          1           0        1.213023   -2.025416    0.904593
     17          1           0        4.865133   -0.684099    1.427611
     18          1           0        4.877872   -1.468018   -0.155872
     19          1           0        4.302623   -3.529727    1.162585
     20          1           0        6.735767   -2.189018    2.110035
     21          1           0        6.696458   -3.066200    0.574347
     22          1           0        6.086101   -5.171808    1.806371
     23          1           0        6.126851   -4.281378    3.325135
     24          1           0        8.548104   -3.752662    2.927697
     25          1           0        8.492172   -4.658713    1.413435
     26          1           0        7.958958   -5.872741    4.026145
     27          1           0        9.320103   -6.060407    3.164787
 ---------------------------------------------------------------------
                    Distance matrix (angstroms):
                    1          2          3          4          5
     1  C    0.000000
     2  C    1.529968   0.000000
     3  C    2.598097   1.527414   0.000000
     4  N    2.985796   2.502573   1.270961   0.000000
     5  C    3.958076   2.568840   1.520265   2.401709   0.000000
     6  N    5.084011   3.860120   2.487787   2.719732   1.454780
     7  C    6.362515   5.009300   3.800606   4.164422   2.440660
     8  C    7.552606   6.313336   4.955214   4.994831   3.794219
     9  C    8.888163   7.559122   6.302105   6.467542   4.991451
    10  N   10.025224   8.778698   7.427942   7.400920   6.237930
    11  H    1.093174   2.171500   3.528094   4.059842   4.738649
    12  H    1.094913   2.183452   2.891023   3.001470   4.306477
    13  H    1.094768   2.183036   2.885448   2.966561   4.299730
    14  H    2.163112   1.098306   2.137439   3.204136   2.771018
    15  H    2.162672   1.098504   2.130650   3.171975   2.761861
    16  H    2.459208   2.547353   1.882903   1.018299   3.280420
    17  H    4.204630   2.756463   2.134962   3.142139   1.097008
    18  H    4.207792   2.779651   2.120671   3.070589   1.106935
    19  H    5.131263   4.085915   2.613369   2.459884   2.024884
    20  H    6.559067   5.137456   4.115183   4.669786   2.679026
    21  H    6.585265   5.190105   4.126164   4.606883   2.730618
    22  H    7.629167   6.498635   5.069628   4.910301   4.097086
    23  H    7.594897   6.443479   5.049288   4.961680   4.049358
    24  H    9.010711   7.623811   6.478633   6.790268   5.091828
    25  H    9.040028   7.673375   6.495250   6.749378   5.134530
    26  H   10.090945   8.898626   7.518114   7.413888   6.410707
    27  H   10.890488   9.594579   8.294380   8.341118   7.031868
                    6          7          8          9         10
     6  N    0.000000
     7  C    1.458294   0.000000
     8  C    2.471723   1.533143   0.000000
     9  C    3.837475   2.551842   1.529716   0.000000
    10  N    4.945681   3.846821   2.473965   1.471537   0.000000
    11  H    5.982877   7.177870   8.451112   9.725759  10.922948
    12  H    5.260410   6.612870   7.688915   9.078171  10.141047
    13  H    5.297567   6.605252   7.710999   9.082879  10.155689
    14  H    4.093702   5.109304   6.463934   7.620830   8.890522
    15  H    4.141546   5.100623   6.490677   7.627330   8.907832
    16  H    3.735487   5.179500   5.997112   7.479131   8.382248
    17  H    2.076543   2.722111   4.121299   5.160679   6.471430
    18  H    2.151233   2.708188   4.144548   5.164470   6.477533
    19  H    1.013150   2.056287   2.665099   4.112566   5.043325
    20  H    2.073883   1.097596   2.158677   2.778269   4.150518
    21  H    2.148577   1.107353   2.160505   2.769199   4.115718
    22  H    2.740285   2.166811   1.096519   2.148840   2.672265
    23  H    2.671917   2.150013   1.096395   2.163772   2.738325
    24  H    4.095667   2.759426   2.152664   1.104223   2.165484
    25  H    4.142320   2.781412   2.155374   1.096499   2.083444
    26  H    5.064039   4.122781   2.688426   2.045182   1.016011
    27  H    5.810566   4.598645   3.360649   2.057469   1.015636
                   11         12         13         14         15
    11  H    0.000000
    12  H    1.765291   0.000000
    13  H    1.764458   1.771193   0.000000
    14  H    2.491284   2.532666   3.083021   0.000000
    15  H    2.490359   3.083126   2.531352   1.747001   0.000000
    16  H    3.547859   2.340481   2.284679   3.336328   3.297654
    17  H    4.844172   4.465998   4.783654   2.504777   3.029839
    18  H    4.859732   4.795403   4.436399   3.097075   2.516085
    19  H    6.102026   5.325316   5.136741   4.553461   4.335153
    20  H    7.285942   6.768300   6.967723   5.000651   5.265035
    21  H    7.332051   7.001922   6.748277   5.373585   5.044530
    22  H    8.578229   7.793087   7.631992   6.822860   6.641530
    23  H    8.526083   7.574481   7.815315   6.520031   6.795320
    24  H    9.785009   9.174912   9.331567   7.526689   7.715366
    25  H    9.832320   9.355246   9.177265   7.795425   7.584932
    26  H   11.013008  10.097477  10.266738   8.959018   9.147554
    27  H   11.755147  11.035868  11.046277   9.659657   9.672287
                   16         17         18         19         20
    16  H    0.000000
    17  H    3.925631   0.000000
    18  H    3.855696   1.766949   0.000000
    19  H    3.446032   2.912775   2.513938   0.000000
    20  H    5.655135   2.495948   3.017607   2.935192   0.000000
    21  H    5.591095   3.123494   2.528766   2.508252   1.768992
    22  H    5.870253   4.666236   4.362141   2.508323   3.067787
    23  H    5.924026   4.258280   4.646758   2.927355   2.495039
    24  H    7.802547   5.023008   5.310235   4.603198   2.529450
    25  H    7.757524   5.380815   5.070150   4.346246   3.109599
    26  H    8.369805   6.576179   6.810576   5.201776   4.328682
    27  H    9.333508   7.195083   7.200710   5.965589   4.772729
                   21         22         23         24         25
    21  H    0.000000
    22  H    2.514757   0.000000
    23  H    3.060710   1.761015   0.000000
    24  H    3.072146   3.054964   2.509973   0.000000
    25  H    2.542589   2.491354   3.064593   1.765516   0.000000
    26  H    4.624445   2.987691   2.525959   2.459352   2.929921
    27  H    4.749650   3.618518   3.658896   2.444971   2.391119
                   26         27
    26  H    0.000000
    27  H    1.621688   0.000000
 Stoichiometry    C7H17N3
 Framework group  C1[X(C7H17N3)]
 Deg. of freedom    75
 Full point group                 C1      NOp   1
 Largest Abelian subgroup         C1      NOp   1
 Largest concise Abelian subgroup C1      NOp   1
                         Standard orientation:                         
 ---------------------------------------------------------------------
 Center     Atomic      Atomic             Coordinates (Angstroms)
 Number     Number       Type             X           Y           Z
 ---------------------------------------------------------------------
      1          6           0        4.879345    0.089747    0.045603
      2          6           0        3.561724   -0.687849    0.040949
      3          6           0        2.282255    0.145350   -0.000683
      4          7           0        2.204890    1.411800   -0.074573
      5          6           0        0.993554   -0.661088   -0.011287
      6          7           0       -0.204043    0.159294    0.084210
      7          6           0       -1.445671   -0.592087   -0.058645
      8          6           0       -2.669525    0.326877    0.031984
      9          6           0       -3.992747   -0.436844   -0.044466
     10          7           0       -5.137805    0.487028   -0.017517
     11          1           0        5.731059   -0.595128    0.069236
     12          1           0        4.956497    0.743277    0.920692
     13          1           0        4.981226    0.711012   -0.850034
     14          1           0        3.512306   -1.337272    0.925304
     15          1           0        3.537560   -1.368109   -0.821242
     16          1           0        3.137381    1.820849   -0.083055
     17          1           0        1.008748   -1.343597    0.847420
     18          1           0        1.024453   -1.294196   -0.918769
     19          1           0       -0.145491    0.907447   -0.596460
     20          1           0       -1.485470   -1.326469    0.756103
     21          1           0       -1.499475   -1.163991   -1.005356
     22          1           0       -2.642237    1.064631   -0.778774
     23          1           0       -2.616441    0.886911    0.973061
     24          1           0       -4.011188   -1.189315    0.763467
     25          1           0       -4.036024   -0.989477   -0.990528
     26          1           0       -5.137684    0.994625    0.862610
     27          1           0       -6.010124   -0.032687   -0.039249
 ---------------------------------------------------------------------
 Rotational constants (GHZ):           6.1119319           0.3375183           0.3243116
 Standard basis: 6-31G(2df,p) (6D, 7F)
 There are   395 symmetry adapted cartesian basis functions of A   symmetry.
 There are   365 symmetry adapted basis functions of A   symmetry.
   365 basis functions,   559 primitive gaussians,   395 cartesian basis functions
    40 alpha electrons       40 beta electrons
       nuclear repulsion energy       521.6600155044 Hartrees.
 NAtoms=   27 NActive=   27 NUniq=   27 SFac= 1.00D+00 NAtFMM=   60 NAOKFM=F Big=F
 Integral buffers will be    131072 words long.
 Raffenetti 2 integral format.
 Two-electron integral symmetry is turned on.
 One-electron integrals computed using PRISM.
 PrsmSu:  requested number of processors reduced to:  13 ShMem   1 Linda.
 NBasis=   365 RedAO= T EigKep=  3.10D-04  NBF=   365
 NBsUse=   365 1.00D-06 EigRej= -1.00D+00 NBFU=   365
 Initial guess from the checkpoint file:  "CCCpdNpCNCCCN.chk"
 B after Tr=     0.000000   -0.000000   -0.000000
         Rot=    0.999942   -0.010764   -0.000014    0.000437 Ang=  -1.23 deg.
 ExpMin= 1.61D-01 ExpMax= 4.17D+03 ExpMxC= 6.27D+02 IAcc=2 IRadAn=         4 AccDes= 0.00D+00
 Harris functional with IExCor=  402 and IRadAn=       4 diagonalized for initial guess.
 HarFok:  IExCor=  402 AccDes= 0.00D+00 IRadAn=         4 IDoV= 1 UseB2=F ITyADJ=14
 ICtDFT=  3500011 ScaDFX=  1.000000  1.000000  1.000000  1.000000
 FoFCou: FMM=F IPFlag=           0 FMFlag=      100000 FMFlg1=           0
         NFxFlg=           0 DoJE=T BraDBF=F KetDBF=T FulRan=T
         wScrn=  0.000000 ICntrl=       500 IOpCl=  0 I1Cent=   200000004 NGrid=           0
         NMat0=    1 NMatS0=      1 NMatT0=    0 NMatD0=    1 NMtDS0=    0 NMtDT0=    0
 Petite list used in FoFCou.
 Requested convergence on RMS density matrix=1.00D-08 within 128 cycles.
 Requested convergence on MAX density matrix=1.00D-06.
 Requested convergence on             energy=1.00D-06.
 No special actions if energy rises.
 Integral accuracy reduced to 1.0D-05 until final iterations.
 Initial convergence to 1.0D-05 achieved.  Increase integral accuracy.
 SCF Done:  E(RB3LYP) =  -441.245754529     A.U. after   11 cycles
            NFock= 11  Conv=0.85D-08     -V/T= 2.0084
 PrsmSu:  requested number of processors reduced to:  13 ShMem   1 Linda.
 Calling FoFJK, ICntrl=      2127 FMM=F ISym2X=0 I1Cent= 0 IOpClX= 0 NMat=1 NMatS=1 NMatT=0.
 ***** Axes restored to original set *****
 -------------------------------------------------------------------
 Center     Atomic                   Forces (Hartrees/Bohr)
 Number     Number              X              Y              Z
 -------------------------------------------------------------------
      1        6           0.000625616   -0.002447219    0.001110806
      2        6           0.001728714   -0.001100196    0.001398452
      3        6           0.001135388   -0.001746776   -0.001048515
      4        7           0.000569815    0.001178175   -0.001002979
      5        6          -0.002111675   -0.004285382    0.004945854
      6        7           0.000584015    0.004038766   -0.002099971
      7        6          -0.002084085   -0.002529151    0.000574921
      8        6          -0.000395166    0.000805301   -0.000894333
      9        6           0.000205845   -0.001307675    0.001130542
     10        7          -0.002468007    0.001813594   -0.001393841
     11        1           0.000645336    0.000128084   -0.000024450
     12        1          -0.000055315   -0.000116914    0.000020640
     13        1          -0.000251860   -0.000082106   -0.000113950
     14        1           0.000452970    0.000144990   -0.000433062
     15        1           0.000524643    0.000717522    0.000217343
     16        1          -0.004148226   -0.000833315    0.000116098
     17        1           0.001793829    0.002381521   -0.001319716
     18        1           0.002482766    0.001566717   -0.001188751
     19        1          -0.001506326   -0.001033343    0.001122095
     20        1           0.001062197    0.000988335   -0.000610657
     21        1           0.000523791    0.001242226   -0.000752521
     22        1          -0.000313389   -0.000471659    0.000158498
     23        1          -0.000562257   -0.000224412    0.000460746
     24        1           0.000756227    0.000201014   -0.000099860
     25        1           0.000755291    0.000174657   -0.000332379
     26        1           0.000047862    0.000015181    0.000580945
     27        1           0.000001998    0.000782064   -0.000521956
 -------------------------------------------------------------------
 Cartesian Forces:  Max     0.004945854 RMS     0.001451296

 GradGradGradGradGradGradGradGradGradGradGradGradGradGradGradGradGradGrad
 Berny optimization.
[...]
 00000148,0.00000179,-0.00000069,-0.00000216,-0.00000050,-0.00000487,-0
 .00000774,0.00000024,0.00000679,-0.00000780,-0.00000073,0.00008302,-0.
 00010485,0.00002680,-0.00080545,0.00028789,-0.00057845,0.00023888,-0.0
 0017406,-0.00027853,0.00256772,0.00023377,-0.00006193,0.11664650,0.203
 07330,-0.00000124,0.00000343,-0.00000625,-0.00001010,-0.00001749,-0.00
 000577,-0.00002096,0.00012139,-0.00013534,0.00019585,0.00004988,0.0000
 5722,-0.00005410,-0.00040455,0.00048930,0.00332087,0.00590579,0.003553
 52,-0.04376287,-0.05740684,-0.07336720,0.01127810,0.01521517,0.0052286
 4,0.00055510,-0.00038272,0.00034868,0.00003571,-0.00001765,-0.00008146
 ,-0.00000276,0.00000002,0.00000104,0.00000357,0.00000295,0.00000235,0.
 00000700,0.00000179,0.00000187,-0.00000736,0.00000320,0.00001344,-0.00
 000435,-0.00000782,-0.00001373,0.00003218,-0.00001793,0.00001558,-0.00
 019004,0.00002222,0.00008317,-0.00003804,-0.00041719,-0.00048333,0.001
 31093,0.00029414,0.00061366,0.04524845,0.05886332,0.07508806,0.0000188
 4,0.00006613,0.00000773,-0.00008093,-0.00000941,0.00005979,0.00018118,
 -0.00035074,-0.00015589,-0.00017174,-0.00001864,-0.00034829,0.00163160
 ,-0.00563085,0.00515811,-0.02393398,0.01573024,0.03401536,-0.05492830,
 0.00405258,0.03278604,0.00145752,-0.00160269,-0.00497627,0.00066765,-0
 .00050285,-0.00048085,-0.00000220,0.00011453,-0.00014770,-0.00002529,0
 .00002320,-0.00001256,0.00000126,-0.00001468,-0.00000540,-0.00000721,-
 0.00001853,0.00000312,-0.00002036,0.00001800,-0.00000223,0.00001165,-0
 .00001639,0.00000801,-0.00006212,0.00011872,-0.00001515,0.00010106,0.0
 0047071,-0.00059288,0.00105585,0.00044531,-0.00251959,0.00150379,0.000
 63263,0.00043129,0.00432289,-0.00372454,-0.01753507,0.06808619,-0.0000
 0577,-0.00002906,0.00000362,0.00004746,0.00003808,-0.00004987,0.000301
 54,0.00028868,0.00018873,0.00003329,-0.00018289,0.00021549,-0.00015150
 ,0.00265436,-0.00436703,0.01000956,-0.00214742,-0.00729628,0.00428145,
 -0.05998060,-0.04081396,-0.00347387,0.00405256,0.02733660,-0.00118480,
 0.00085264,0.00056697,-0.00002228,-0.00000409,-0.00009071,0.00000854,-
 0.00000976,0.00000414,-0.00000812,0.00000469,0.00000198,0.00000131,0.0
 0000933,-0.00000349,-0.00001182,-0.00000548,0.00000187,-0.00001236,-0.
 00001532,0.00001569,0.00003384,-0.00008908,-0.00005617,-0.00027962,-0.
 00012016,0.00019111,-0.00099521,-0.00000547,0.00130402,-0.00042492,0.0
 0009943,0.00096766,0.00246531,-0.00479323,-0.02461110,-0.01189072,0.06
 192042,-0.00002251,-0.00007983,-0.00000305,0.00015052,-0.00007006,-0.0
 0010769,-0.00046840,-0.00025925,0.00060884,0.00006576,0.00011443,0.000
 06470,-0.00117794,0.00209069,0.00249968,0.01248388,-0.00195243,-0.0026
 2459,0.03053358,-0.03848150,-0.25019268,0.00202073,-0.00358073,-0.0193
 6448,0.00115400,-0.00086932,-0.00085661,-0.00045574,0.00034501,0.00074
 515,0.00003103,-0.00001976,0.00001313,-0.00000635,0.00001251,0.0000077
 6,0.00001659,0.00001887,0.00000384,0.00004522,-0.00001767,0.00002569,0
 .00001382,-0.00000188,-0.00000086,0.00007731,-0.00013019,-0.00004138,-
 0.00011240,-0.00039652,-0.00025212,0.00140684,-0.00227369,0.00059941,0
 .00004657,-0.00017181,0.00069279,0.00060105,-0.00260783,-0.01153841,-0
 .04563587,0.04418999,0.27843849,0.00000012,-0.00000870,-0.00000122,0.0
 0001971,0.00000751,0.00000236,-0.00000310,-0.00006552,0.00000291,0.000
 00927,0.00002251,0.00001470,0.00021909,0.00013226,0.00010619,0.0015841
 9,0.00036966,0.00024395,0.00280407,0.00549076,0.00196660,-0.13595144,-
 0.11204788,-0.04333394,-0.02362363,-0.02547426,-0.00981859,0.00324277,
 -0.00025336,0.00038235,0.00000255,-0.00000014,0.00000104,0.00000045,0.
 00000022,0.00000006,0.00000074,0.00000093,0.00000126,-0.00000051,-0.00
 000020,-0.00000019,-0.00000044,0.00000111,-0.00000166,0.00000146,-0.00
 001300,0.00000382,-0.00009288,0.00001111,-0.00006182,-0.00000564,-0.00
 001301,0.00002105,0.00008870,-0.00048374,-0.00011418,0.00009284,0.0015
 4608,-0.00059514,0.00008780,-0.00043591,0.00041348,0.15191838,0.000000
 69,-0.00000388,0.00000046,0.00003324,0.00001480,-0.00000440,-0.0001588
 0,-0.00013096,0.00003431,0.00013195,0.00016293,0.00000406,0.00038608,0
 .00024689,0.00019906,-0.00109057,0.00185456,-0.00045404,-0.01661031,-0
 .02254427,-0.00787874,-0.11391176,-0.18860631,-0.05609453,0.00653502,0
 .00643585,0.00312323,0.00002978,0.00120236,-0.00038314,0.00000129,0.00
 000417,-0.00000061,0.00000497,-0.00000243,-0.00000194,0.00000376,-0.00
 000074,0.00000591,-0.00000513,0.00001439,0.00000394,-0.00000409,0.0000
 1014,-0.00001372,0.00000754,-0.00000065,0.00000083,-0.00006093,0.00028
 073,-0.00005459,-0.00004002,0.00003601,-0.00011913,0.00141790,-0.00055
 770,0.00035194,0.00146627,-0.00334253,0.00356012,0.00027872,0.00136688
 ,0.00005870,0.12390801,0.20787936,0.00000182,-0.00000071,0.00000440,0.
 00001344,0.00001209,0.00000877,-0.00000435,-0.00009086,0.00002692,-0.0
 0003560,0.00000938,-0.00006009,0.00017646,0.00002869,-0.00008567,0.001
 03987,-0.00105326,0.00043033,0.01179816,0.01602516,0.00497714,-0.04422
 261,-0.05638986,-0.07161474,0.00260278,0.00223713,0.00050372,-0.000136
 79,-0.00014127,-0.00018210,0.00000037,0.00000158,-0.00000107,0.0000013
 0,-0.00000220,-0.00000209,-0.00000134,-0.00000146,0.00000091,-0.000000
 88,0.00000504,-0.00000288,0.00000062,0.00000434,0.00000019,-0.00001221
 ,0.00000237,0.00000691,0.00000902,-0.00008514,-0.00006195,0.00002086,0
 .00004408,0.00002050,-0.00031417,-0.00048522,0.00034731,-0.00075299,0.
 00376439,-0.00112669,0.00054203,-0.00074469,0.00114415,0.04762828,0.05
 880092,0.07347726,0.00000025,-0.00000649,-0.00000336,0.00001047,-0.000
 00162,-0.00000846,0.00001589,0.00001652,0.00001155,-0.00001127,-0.0000
 0592,0.00005430,-0.00003901,0.00026654,-0.00017241,0.00078364,-0.00048
 609,-0.00016660,0.00065212,-0.00124353,-0.00595036,-0.05812961,0.00890
 418,0.04825221,-0.00874714,0.00804648,0.03269723,0.00193856,-0.0016711
 8,0.00022307,0.00000195,-0.00000185,0.00000178,-0.00000123,0.00000123,
 0.00000059,-0.00000010,0.00000113,0.00000015,0.00000181,-0.00000271,-0
 .00000163,0.00000028,0.00000109,0.00000053,0.00000354,-0.00000780,-0.0
 0000747,-0.00003577,-0.00003454,0.00001658,-0.00015105,0.00000514,0.00
 019633,0.00000504,-0.00011424,-0.00034493,0.00003445,0.00005936,0.0005
 7169,0.00006590,0.00126994,-0.00033023,0.00376102,-0.00391702,-0.01903
 923,0.06387957,0.00000153,0.00000799,0.00000072,-0.00003166,-0.0000000
 4,0.00002167,-0.00001373,0.00005995,-0.00014293,0.00003537,-0.00000011
 ,-0.00000113,-0.00019352,-0.00034780,0.00019286,-0.00116792,0.00143665
 ,-0.00130961,-0.00543281,0.00406211,0.02933900,0.00915503,-0.05941947,
 -0.05344673,0.00232991,-0.00316366,-0.00953734,-0.00061803,0.00063499,
 -0.00059307,-0.00000304,0.00000014,-0.00000039,0.00000023,0.00000045,0
 .00000030,-0.00000089,-0.00000191,-0.00000097,0.00000069,0.00000163,-0
 .00000100,0.00000043,0.00000006,-0.00000178,-0.00000408,0.00001393,0.0
 0001983,0.00003025,0.00000350,-0.00001647,0.00010377,0.00006300,-0.000
 31160,0.00016011,-0.00003136,-0.00006644,-0.00035317,0.00146279,-0.000
 56713,0.00162912,-0.00392051,0.00346897,0.00484377,-0.00493312,-0.0230
 5589,-0.01295025,0.06360931,0.00000238,0.00001071,-0.00000982,-0.00001
 361,-0.00002497,-0.00004815,0.00005624,0.00002189,0.00007202,-0.000114
 05,-0.00000408,0.00009051,-0.00020011,0.00026914,0.00036077,0.00019091
 ,-0.00119647,0.00211355,0.00436016,-0.00342561,-0.02120832,0.04762873,
 -0.05133905,-0.27672231,0.00033128,-0.00008602,-0.00329376,-0.00044378
 ,-0.00019244,0.00145762,-0.00000455,0.00000290,-0.00000219,-0.00000577
 ,-0.00000367,0.00000206,0.00000259,0.00000116,0.00000415,0.00000450,-0
 .00000027,0.00000219,-0.00000111,-0.00000219,0.00000515,-0.00000518,0.
 00000233,-0.00003881,-0.00001116,0.00001550,-0.00002989,0.00008736,-0.
 00026334,0.00028731,0.00003866,0.00001599,-0.00048968,0.00025602,0.000
 10238,0.00108357,-0.00065707,0.00384181,-0.00090251,0.00177079,-0.0019
 5650,-0.00940692,-0.05498274,0.05414665,0.30408911,0.00000173,0.000012
 34,-0.00000168,-0.00001403,0.00000635,-0.00000130,0.00000617,-0.000024
 06,0.00000715,0.00001193,0.00005516,-0.00001060,0.00000713,-0.00000110
 ,0.00006338,0.00032878,0.00071245,-0.00001579,0.00001678,-0.00245738,0
 .00031765,-0.02277408,-0.02330253,-0.01139226,-0.13700465,-0.09976561,
 -0.04056003,0.00743569,0.00485024,0.00218073,-0.00000558,0.00000631,-0
 .00000330,0.00000186,-0.00000414,-0.00000171,0.00000119,-0.00000256,0.
 00000405,-0.00000551,0.00000787,0.00000193,-0.00000211,0.00000129,-0.0
 0000611,-0.00000607,-0.00000330,-0.00000197,-0.00002464,0.00009232,-0.
 00002557,0.00000494,0.00001597,-0.00004331,0.00044162,-0.00016899,0.00
 022862,0.00029967,0.00142928,-0.00011776,0.00001797,0.00022082,-0.0000
 5591,-0.00604551,0.00232522,0.00079685,0.00166419,-0.00007926,0.000592
 77,0.15008464,-0.00000302,-0.00000183,-0.00000045,-0.00000139,0.000000
 11,-0.00000113,-0.00006028,0.00001264,-0.00001171,0.00005449,0.0000387
 4,0.00000031,-0.00009305,0.00000121,-0.00005744,0.00032766,0.00051345,
 -0.00007465,-0.00016568,0.00059689,-0.00006789,0.00578320,0.00649217,0
 .00219733,-0.10180203,-0.16605072,-0.05111362,-0.01317667,-0.03380473,
 0.00400662,0.00000045,-0.00000120,0.00000068,0.00000242,0.00000103,-0.
 00000102,0.00000190,0.00000155,0.00000171,-0.00000169,0.00000357,0.000
 00402,0.00000029,0.00000134,-0.00000609,0.00000585,-0.00001826,0.00000
 511,-0.00001066,0.00000341,0.00001656,0.00000203,-0.00000267,-0.000001
 60,0.00001848,-0.00021471,0.00005053,-0.00002600,0.00046380,-0.0001115
 5,-0.00000483,0.00000317,0.00009536,0.00256162,-0.00001020,0.00037994,
 -0.00053073,0.00034799,0.00021062,0.11228698,0.19444792,0.00000102,0.0
 0000379,-0.00000143,-0.00000692,-0.00000016,0.00000065,0.00001060,0.00
 000452,-0.00000629,0.00000309,0.00001396,0.00000512,-0.00003657,-0.000
 08295,-0.00000200,-0.00003373,0.00028369,-0.00005537,-0.00013962,-0.00
 053200,-0.00004643,0.00294672,0.00141517,0.00130095,-0.04080856,-0.050
 76381,-0.07440213,0.01099709,0.02241214,0.00478087,-0.00000225,0.00000
 209,-0.00000093,0.00000064,-0.00000091,0.00000004,0.00000072,-0.000000
 74,0.00000113,-0.00000199,0.00000132,0.00000133,-0.00000102,-0.0000009
 2,-0.00000232,-0.00000085,-0.00000129,-0.00000114,-0.00000134,0.000019
 01,0.00001231,-0.00000047,0.00000142,-0.00001969,0.00005599,-0.0000188
 8,-0.00002336,-0.00020296,0.00034695,0.00017853,-0.00004213,-0.0000502
 8,0.00008265,0.00061520,0.00056430,0.00112580,-0.00027712,0.00080772,0
 .00065266,0.04481365,0.04913781,0.07335269,0.00000037,0.00000272,0.000
 00274,-0.00000429,0.00000679,0.00001171,0.00001616,0.00000141,0.000005
 79,0.00000016,-0.00001313,-0.00003536,0.00003515,-0.00006382,-0.000152
 73,0.00016834,-0.00008799,-0.00065914,0.00077964,-0.00085990,0.0015814
 7,-0.00801444,0.00883050,0.03175666,-0.05860552,0.00904110,0.04594136,
 0.00207720,0.00049413,-0.00599406,-0.00000083,0.00000077,-0.00000080,0
 .00000137,-0.00000031,-0.00000089,-0.00000158,-0.00000137,-0.00000119,
 -0.00000202,-0.00000023,-0.00000118,0.00000014,0.00000013,-0.00000026,
 -0.00000332,0.00000449,0.00000639,0.00000678,-0.00000284,0.00000955,-0
 .00003097,0.00007113,-0.00005107,-0.00003215,-0.00002773,0.00020940,-0
 .00002382,0.00013481,-0.00019746,0.00010294,0.00033083,-0.00095605,0.0
 0153806,-0.00061994,-0.00009697,-0.00583867,0.00216727,0.00030707,0.00
 404694,-0.00609871,-0.01934890,0.06314137,-0.00000086,-0.00000307,0.00
 000044,0.00000663,-0.00000316,-0.00000684,-0.00000318,-0.00000089,0.00
 000785,-0.00000205,-0.00000729,0.00001151,0.00002090,-0.00000068,-0.00
 002667,-0.00013603,-0.00010080,0.00055082,-0.00001901,0.00031877,-0.00
 151809,0.00195416,-0.00292718,-0.00968686,0.01154352,-0.06479143,-0.06
 383030,-0.00738192,0.00272280,0.03408033,0.00000153,-0.00000163,0.0000
 0054,-0.00000151,0.00000053,0.00000081,0.00000110,0.00000145,-0.000000
 06,0.00000080,0.00000033,0.00000080,-0.00000022,-0.00000157,0.00000206
 ,0.00000292,-0.00000171,-0.00000483,-0.00000473,-0.00000627,0.00000171
 ,0.00001799,-0.00002821,0.00004262,-0.00003226,0.00003429,-0.00004798,
 0.00006542,0.00001119,0.00001650,0.00022283,-0.00001339,0.00071122,-0.
 00014125,0.00052857,0.00083608,0.00227598,0.00018085,0.00068130,0.0041
 4024,-0.00534170,-0.02248046,-0.01405246,0.07248946,-0.00000023,-0.000
 00593,-0.00000101,0.00001470,-0.00000082,-0.00000903,-0.00000285,-0.00
 002410,0.00000692,0.00000353,0.00000356,0.00002971,0.00009820,-0.00004
 716,0.00001016,-0.00028908,0.00005891,0.00051948,-0.00015131,0.0002573
 5,-0.00023281,0.00140017,-0.00139423,-0.00239834,0.04525553,-0.0563620
 3,-0.27261016,0.00462769,0.00201789,-0.02114331,0.00000234,-0.00000134
 ,0.00000059,-0.00000213,0.00000010,0.00000133,0.00000198,0.00000216,0.
 00000096,0.00000044,0.00000136,0.00000135,-0.00000190,-0.00000165,0.00
 000187,0.00000365,-0.00000302,-0.00000794,-0.00000134,0.00000665,0.000
 00013,0.00001155,-0.00001240,0.00000560,0.00000327,0.00002725,-0.00011
 765,0.00003698,0.00007951,0.00003410,0.00003344,-0.00040624,0.00076149
 ,0.00032620,0.00031334,0.00058682,0.00035326,0.00039882,0.00127562,0.0
 0166578,-0.00450093,-0.00926240,-0.05119305,0.05621361,0.30318611,-0.0
 0000078,-0.00000489,-0.00000100,0.00000428,-0.00000629,-0.00000573,0.0
 0000381,0.00002322,-0.00001278,-0.00000764,-0.00003121,0.00003154,-0.0
 0001253,0.00005713,-0.00000623,-0.00011660,-0.00000948,0.00016054,-0.0
 0021313,0.00041067,0.00010546,0.00129971,-0.00067565,-0.00216710,0.000
 11251,-0.00624702,-0.00351361,-0.04309633,0.02691337,0.02297702,0.0000
 0277,-0.00000416,0.00000198,-0.00000276,0.00000208,0.00000170,0.000000
 34,0.00000208,-0.00000148,0.00000362,-0.00000236,-0.00000082,-0.000000
 03,-0.00000144,0.00000445,0.00000352,0.00000505,-0.00000682,0.00000003
 ,-0.00001745,-0.00000287,0.00000156,-0.00001716,0.00002366,-0.00002240
 ,0.00002885,-0.00009663,-0.00005244,-0.00017975,0.00003379,-0.00007040
 ,-0.00014782,0.00029324,-0.00016992,-0.00003724,-0.00019168,-0.0001250
 1,0.00062889,0.00080032,0.00006494,0.00114401,0.00071799,0.00038778,0.
 00146890,-0.00176670,0.05004137,0.00000367,0.00000944,-0.00000237,-0.0
 0001738,-0.00000276,-0.00000037,0.00007381,0.00002414,-0.00000522,-0.0
 0005542,-0.00002924,0.00000326,-0.00005969,-0.00004906,0.00004081,-0.0
 0002908,0.00006503,-0.00019870,-0.00011009,-0.00017588,0.00011278,-0.0
 0100017,0.00165040,0.00043780,-0.00557333,0.00089702,0.03801389,0.0400
 5539,-0.05627940,-0.09641619,-0.00000414,0.00000341,-0.00000207,-0.000
 00178,-0.00000217,0.00000104,-0.00000127,-0.00000209,-0.00000024,-0.00
 000032,-0.00000204,-0.00000202,-0.00000103,-0.00000249,0.00000341,-0.0
 0000752,0.00001549,-0.00000662,0.00000293,0.00000560,-0.00000287,-0.00
 000651,0.00001071,-0.00001521,0.00002333,0.00000974,-0.00001364,-0.000
 05263,-0.00009671,0.00005004,0.00000624,0.00003236,-0.00026199,-0.0000
 6896,-0.00010864,-0.00031086,0.00055937,-0.00013837,-0.00078133,-0.000
 51779,0.00153999,0.00022162,0.00119892,-0.00440272,0.00355399,-0.03177
 240,0.06152324,-0.00000153,-0.00000516,0.00000007,0.00000649,-0.000000
 74,-0.00000198,-0.00001281,-0.00000638,-0.00000218,0.00000907,0.000000
 56,0.00001003,0.00002146,0.00002697,-0.00001163,-0.00004197,0.00001950
 ,0.00012620,0.00000223,0.00025419,0.00021900,0.00005638,-0.00065206,0.
 00071083,0.00096537,-0.00827595,-0.02301984,0.06257232,-0.06235747,-0.
 39346496,0.00000174,-0.00000160,0.00000083,-0.00000021,0.00000128,-0.0
 0000002,0.00000077,0.00000184,0.00000027,0.00000071,-0.00000039,0.0000
 0041,-0.00000007,-0.00000020,0.00000053,0.00000327,-0.00000239,-0.0000
 0064,-0.00000146,-0.00000360,0.00000159,-0.00000297,-0.00000313,0.0000
 0757,-0.00000789,0.00000619,-0.00003706,0.00000413,0.00001943,-0.00001
 919,0.00008086,-0.00023784,0.00027245,-0.00000020,0.00005014,-0.000060
 71,-0.00100221,0.00046707,0.00024971,0.00082195,-0.00044535,0.00203076
 ,-0.00096715,0.00498778,-0.00063188,-0.05803611,0.06896512,0.41878274,
 0.00000461,0.00001965,-0.00000219,-0.00003590,-0.00000576,-0.00000075,
 0.00010308,0.00004600,-0.00001030,-0.00007058,-0.00002244,-0.00001401,
 -0.00013943,-0.00014542,0.00009875,-0.00003507,0.00038026,-0.00022771,
 -0.00039446,-0.00034187,0.00078424,0.00074308,0.00249267,-0.00246123,-
 0.00574581,-0.00740247,0.00129640,-0.38253473,0.13736920,0.05146881,-0
 .00000838,0.00000651,-0.00000431,-0.00000092,-0.00000413,-0.00000053,-
 0.00000156,-0.00000381,0.00000127,-0.00000268,0.00000037,-0.00000172,-
 0.00000046,-0.00000266,0.00000215,-0.00001259,0.00001667,-0.00000418,0
 .00000495,0.00002629,-0.00000723,0.00000774,0.00001186,-0.00003066,0.0
 0005911,-0.00000222,0.00002693,0.00002682,0.00014906,-0.00005596,-0.00
 001156,0.00004083,-0.00013220,0.00052183,-0.00007463,0.00017698,0.0002
 6020,-0.00023803,0.00000934,0.00144600,-0.00021463,0.00074169,0.000255
 22,0.00005258,-0.00043012,-0.00803627,-0.00264414,-0.00447219,0.393597
 76,0.00000114,-0.00000520,0.00000219,0.00001964,0.00000809,0.00000431,
 0.00000630,-0.00005615,0.00002441,-0.00001171,-0.00000415,-0.00000960,
 0.00016997,0.00002755,-0.00001878,0.00001896,-0.00052649,0.00031430,0.
 00169511,0.00061676,-0.00033398,-0.00125565,-0.00472164,0.00390815,0.0
 3308595,-0.01534388,-0.00216976,0.08800809,-0.05378000,0.00238368,0.00
 000224,0.00000074,0.00000045,-0.00000004,-0.00000044,0.00000038,-0.000
 00086,-0.00000134,-0.00000138,-0.00000006,-0.00000177,-0.00000237,-0.0
 0000033,0.00000086,0.00000147,-0.00000129,0.00000479,0.00000076,0.0000
 0255,-0.00001640,-0.00000401,-0.00000143,0.00000581,0.00000425,-0.0000
 1594,0.00000672,0.00002693,-0.00004367,0.00000699,-0.00014800,-0.00002
 408,-0.00000613,0.00006870,0.00011038,0.00020378,0.00021025,-0.0004329
 5,0.00007100,-0.00004643,0.00016391,0.00097704,-0.00130312,-0.00045655
 ,0.00134344,-0.00017466,0.00847007,-0.00449498,-0.00280780,-0.12950975
 ,0.07568500,0.00000435,0.00002297,-0.00000203,-0.00004572,-0.00000675,
 0.00000099,0.00010299,0.00007197,-0.00003048,-0.00007095,-0.00003102,-
 0.00001153,-0.00020532,-0.00012585,0.00009591,-0.00012872,0.00064201,-
 0.00038205,-0.00130166,0.00018963,0.00113955,0.00026716,0.00404226,-0.
 00315379,-0.02300839,0.00440765,0.00282757,0.02949715,0.00428073,-0.05
 844063,-0.00000932,0.00000601,-0.00000395,-0.00000113,-0.00000382,-0.0
 0000045,-0.00000209,-0.00000450,0.00000011,-0.00000239,-0.00000015,-0.
 00000213,0.00000021,-0.00000320,0.00000252,-0.00001362,0.00001881,-0.0
 0000389,0.00000597,0.00002787,-0.00000820,0.00000820,0.00001341,-0.000
 04383,0.00007445,0.00000115,0.00001169,0.00002003,0.00004528,-0.000015
 39,0.00000115,-0.00010200,-0.00007584,0.00042667,-0.00010990,-0.000056
 24,-0.00009252,0.00018888,0.00040633,0.00074278,0.00028686,0.00029800,
 -0.00017587,-0.00054389,-0.00000773,0.04065787,-0.01338406,-0.00516292
 ,-0.04675126,0.00006964,0.06261841\\0.00000119,-0.00000134,-0.00000328
 ,0.00001139,-0.00000157,-0.00000186,-0.00000314,-0.00001569,-0.0000015
 8,0.00000721,0.00000723,0.00000037,-0.00000242,0.00002020,-0.00002135,
 -0.00000482,-0.00000991,0.00001252,0.00000611,0.00000305,-0.00000791,0
 .00000169,-0.00000827,0.00000806,0.00000005,0.00000293,-0.00000090,0.0
 0000069,-0.00000211,-0.00000458,-0.00000017,0.00000142,0.00000151,-0.0
 0000162,0.00000005,0.00000037,-0.00000054,-0.00000019,0.00000120,-0.00
 000014,0.00000209,0.00000002,-0.00000145,0.00000256,0.00000209,-0.0000
 0990,0.00000036,0.00000026,0.00000079,0.00000185,0.00000238,-0.0000019
 0,-0.00000109,0.00001193,0.00000311,-0.00000202,-0.00000148,-0.0000004
 7,0.00000072,-0.00000100,-0.00000187,-0.00000227,0.00000275,-0.0000007
 5,0.00000141,-0.00000104,-0.00000037,0.00000164,-0.00000071,0.00000128
 ,-0.00000181,-0.00000102,-0.00000219,-0.00000073,-0.00000178,-0.000003
 88,-0.00000042,0.00000189,0.00000213,0.00000190,0.00000316\\\@


 "PERFECTION IS NOT AN ACCIDENT"
         --  EAGLE ELECTRIC MANUFACTURING CO.,INC. NY
 Job cpu time:       0 days  2 hours 41 minutes 13.7 seconds.
 Elapsed time:       0 days  0 hours 40 minutes 22.6 seconds.
 File lengths (MBytes):  RWF=    263 Int=      0 D2E=      0 Chk=     12 Scr=      1
 Normal termination of Gaussian 16 at Mon May 31 20:05:20 2021.
### All Done ###
