### Starting Gaussian ###
 Entering Gaussian System, Link 0=g16
 Initial command:
 /cluster/software/gaussian/gaussian-16-A.03/avx2/g16/l1.exe "/local/scratch/linjian/Gau-23236.inp" -scrdir="/local/scratch/linjian/"
 Entering Link 1 = /cluster/software/gaussian/gaussian-16-A.03/avx2/g16/l1.exe PID=     23237.
  
 Copyright (c) 1988,1990,1992,1993,1995,1998,2003,2009,2016,
            Gaussian, Inc.  All Rights Reserved.
  
 This is part of the Gaussian(R) 16 program.  It is based on
 the Gaussian(R) 09 system (copyright 2009, Gaussian, Inc.),
 the Gaussian(R) 03 system (copyright 2003, Gaussian, Inc.),
 the Gaussian(R) 98 system (copyright 1998, Gaussian, Inc.),
 the Gaussian(R) 94 system (copyright 1995, Gaussian, Inc.),
 the Gaussian 92(TM) system (copyright 1992, Gaussian, Inc.),
 the Gaussian 90(TM) system (copyright 1990, Gaussian, Inc.),
 the Gaussian 88(TM) system (copyright 1988, Gaussian, Inc.),
 the Gaussian 86(TM) system (copyright 1986, Carnegie Mellon
 University), and the Gaussian 82(TM) system (copyright 1983,
 Carnegie Mellon University). Gaussian is a federally registered
 trademark of Gaussian, Inc.
  
 This software contains proprietary and confidential information,
 including trade secrets, belonging to Gaussian, Inc.
  
 This software is provided under written license and may be
 used, copied, transmitted, or stored only in accord with that
 written license.
  
 The following legend is applicable only to US Government
 contracts under FAR:
  
                    RESTRICTED RIGHTS LEGEND
  
 Use, reproduction and disclosure by the US Government is
 subject to restrictions as set forth in subparagraphs (a)
 and (c) of the Commercial Computer Software - Restricted
 Rights clause in FAR 52.227-19.
  
 Gaussian, Inc.
 340 Quinnipiac St., Bldg. 40, Wallingford CT 06492
  
  
 ---------------------------------------------------------------
 Warning -- This program may not be used in any manner that
 competes with the business of Gaussian, Inc. or will provide
 assistance to any competitor of Gaussian, Inc.  The licensee
 of this program is prohibited from giving any competitor of
 Gaussian, Inc. access to this program.  By using this program,
 the user acknowledges that Gaussian, Inc. is engaged in the
 business of creating and licensing software in the field of
 computational chemistry and represents and warrants to the
 licensee that it is not a competitor of Gaussian, Inc. and that
 it will not use this program in any manner prohibited above.
 ---------------------------------------------------------------
  

 Cite this work as:
 Gaussian 16, Revision A.03,
 M. J. Frisch, G. W. Trucks, H. B. Schlegel, G. E. Scuseria, 
 M. A. Robb, J. R. Cheeseman, G. Scalmani, V. Barone, 
 G. A. Petersson, H. Nakatsuji, X. Li, M. Caricato, A. V. Marenich, 
 J. Bloino, B. G. Janesko, R. Gomperts, B. Mennucci, H. P. Hratchian, 
 J. V. Ortiz, A. F. Izmaylov, J. L. Sonnenberg, D. Williams-Young, 
 F. Ding, F. Lipparini, F. Egidi, J. Goings, B. Peng, A. Petrone, 
 T. Henderson, D. Ranasinghe, V. G. Zakrzewski, J. Gao, N. Rega, 
 G. Zheng, W. Liang, M. Hada, M. Ehara, K. Toyota, R. Fukuda, 
 J. Hasegawa, M. Ishida, T. Nakajima, Y. Honda, O. Kitao, H. Nakai, 
 T. Vreven, K. Throssell, J. A. Montgomery, Jr., J. E. Peralta, 
 F. Ogliaro, M. J. Bearpark, J. J. Heyd, E. N. Brothers, K. N. Kudin, 
 V. N. Staroverov, T. A. Keith, R. Kobayashi, J. Normand, 
 K. Raghavachari, A. P. Rendell, J. C. Burant, S. S. Iyengar, 
 J. Tomasi, M. Cossi, J. M. Millam, M. Klene, C. Adamo, R. Cammi, 
 J. W. Ochterski, R. L. Martin, K. Morokuma, O. Farkas, 
 J. B. Foresman, and D. J. Fox, Gaussian, Inc., Wallingford CT, 2016.
 
 ******************************************
 Gaussian 16:  ES64L-G16RevA.03 25-Dec-2016
                31-May-2021 
 ******************************************
 %chk=CCCpCppNpNNdNO.chk
 %NProcShared=20
 Will use up to   20 processors via shared memory.
 -----------------------------
 # opt freq b3lyp/6-31g(2df,p)
 -----------------------------
 1/18=20,19=15,26=3,38=1/1,3;
 2/9=110,12=2,17=6,18=5,40=1/2;
 3/5=1,6=6,7=104,11=2,25=1,30=1,71=1,74=-5/1,2,3;
 4//1;
 5/5=2,38=5/2;
 6/7=2,8=2,9=2,10=2,28=1/1;
 7//1,2,3,16;
 1/18=20,19=15,26=3/3(2);
 2/9=110/2;
 99//99;
 2/9=110/2;
 3/5=1,6=6,7=104,11=2,25=1,30=1,71=1,74=-5/1,2,3;
 4/5=5,16=3,69=1/1;
 5/5=2,38=5/2;
 7//1,2,3,16;
 1/18=20,19=15,26=3/3(-5);
 2/9=110/2;
 6/7=2,8=2,9=2,10=2,19=2,28=1/1;
 99/9=1/99;
 -------------------
 Title Card Required
 -------------------
 Symbolic Z-matrix:
 Charge =  0 Multiplicity = 1
 C                     1.05485  -0.05807   0.16357 
 C                     2.58263   0.00319   0.06404 
 C                     3.10733   0.75716  -1.182 
 C                     2.61006   0.08097  -2.46877 
 N                     2.6668    2.14066  -1.11531 
 N                     4.55287   0.84307  -1.18787 
 N                     5.18811   1.42911  -2.2321 
 N                     6.4216    1.34603  -2.10505 
 O                     7.06374   1.96351  -3.18325 
 H                     0.74949  -0.59963   1.0633 
 H                     0.61443  -0.57946  -0.69139 
 H                     0.61256   0.94175   0.21646 
 H                     2.97187  -1.02333   0.06331 
 H                     2.97061   0.46994   0.97958 
 H                     1.51863   0.08565  -2.54271 
 H                     2.94884  -0.96124  -2.50929 
 H                     2.98734   0.58001  -3.36838 
 H                     1.65942   2.19196  -1.22336 
 H                     3.07261   2.61715  -1.9195 
 H                     5.1364    0.37127  -0.51168 
 H                     8.00036   1.85884  -2.94726 
 

 GradGradGradGradGradGradGradGradGradGradGradGradGradGradGradGradGradGrad
 Berny optimization.
 Initialization pass.
                           ----------------------------
                           !    Initial Parameters    !
                           ! (Angstroms and Degrees)  !
 --------------------------                            --------------------------
 ! Name  Definition              Value          Derivative Info.                !
 --------------------------------------------------------------------------------
 ! R1    R(1,2)                  1.5322         estimate D2E/DX2                !
 ! R2    R(1,10)                 1.0936         estimate D2E/DX2                !
 ! R3    R(1,11)                 1.094          estimate D2E/DX2                !
 ! R4    R(1,12)                 1.0946         estimate D2E/DX2                !
 ! R5    R(2,3)                  1.548          estimate D2E/DX2                !
 ! R6    R(2,13)                 1.0978         estimate D2E/DX2                !
 ! R7    R(2,14)                 1.0985         estimate D2E/DX2                !
 ! R8    R(3,4)                  1.5363         estimate D2E/DX2                !
 ! R9    R(3,5)                  1.4535         estimate D2E/DX2                !
 ! R10   R(3,6)                  1.4481         estimate D2E/DX2                !
 ! R11   R(4,15)                 1.0939         estimate D2E/DX2                !
 ! R12   R(4,16)                 1.0966         estimate D2E/DX2                !
 ! R13   R(4,17)                 1.0958         estimate D2E/DX2                !
 ! R14   R(5,18)                 1.0145         estimate D2E/DX2                !
 ! R15   R(5,19)                 1.019          estimate D2E/DX2                !
 ! R16   R(6,7)                  1.3555         estimate D2E/DX2                !
 ! R17   R(6,20)                 1.0101         estimate D2E/DX2                !
 ! R18   R(7,8)                  1.2428         estimate D2E/DX2                !
 ! R19   R(8,9)                  1.3986         estimate D2E/DX2                !
 ! R20   R(9,21)                 0.9715         estimate D2E/DX2                !
 ! A1    A(2,1,10)             110.5876         estimate D2E/DX2                !
 ! A2    A(2,1,11)             111.6974         estimate D2E/DX2                !
 ! A3    A(2,1,12)             111.6862         estimate D2E/DX2                !
 ! A4    A(10,1,11)            107.1296         estimate D2E/DX2                !
 ! A5    A(10,1,12)            107.4427         estimate D2E/DX2                !
 ! A6    A(11,1,12)            108.0855         estimate D2E/DX2                !
 ! A7    A(1,2,3)              114.1871         estimate D2E/DX2                !
 ! A8    A(1,2,13)             108.4319         estimate D2E/DX2                !
 ! A9    A(1,2,14)             108.3623         estimate D2E/DX2                !
 ! A10   A(3,2,13)             109.5544         estimate D2E/DX2                !
 ! A11   A(3,2,14)             110.1337         estimate D2E/DX2                !
 ! A12   A(13,2,14)            105.8212         estimate D2E/DX2                !
 ! A13   A(2,3,4)              110.4931         estimate D2E/DX2                !
 ! A14   A(2,3,5)              108.9014         estimate D2E/DX2                !
 ! A15   A(2,3,6)              111.7467         estimate D2E/DX2                !
 ! A16   A(4,3,5)              111.0556         estimate D2E/DX2                !
 ! A17   A(4,3,6)              110.2318         estimate D2E/DX2                !
 ! A18   A(5,3,6)              104.2568         estimate D2E/DX2                !
 ! A19   A(3,4,15)             112.1889         estimate D2E/DX2                !
 ! A20   A(3,4,16)             110.4412         estimate D2E/DX2                !
 ! A21   A(3,4,17)             112.0701         estimate D2E/DX2                !
 ! A22   A(15,4,16)            108.0463         estimate D2E/DX2                !
 ! A23   A(15,4,17)            106.6234         estimate D2E/DX2                !
 ! A24   A(16,4,17)            107.225          estimate D2E/DX2                !
 ! A25   A(3,5,18)             110.1342         estimate D2E/DX2                !
 ! A26   A(3,5,19)             106.7483         estimate D2E/DX2                !
 ! A27   A(18,5,19)            106.7233         estimate D2E/DX2                !
 ! A28   A(3,6,7)              119.774          estimate D2E/DX2                !
 ! A29   A(3,6,20)             123.1095         estimate D2E/DX2                !
 ! A30   A(7,6,20)             116.5453         estimate D2E/DX2                !
 ! A31   A(6,7,8)              110.9451         estimate D2E/DX2                !
 ! A32   A(7,8,9)              110.3262         estimate D2E/DX2                !
 ! A33   A(8,9,21)             101.9935         estimate D2E/DX2                !
 ! D1    D(10,1,2,3)          -179.8655         estimate D2E/DX2                !
 ! D2    D(10,1,2,13)           57.6928         estimate D2E/DX2                !
 ! D3    D(10,1,2,14)          -56.727          estimate D2E/DX2                !
 ! D4    D(11,1,2,3)            60.9201         estimate D2E/DX2                !
 ! D5    D(11,1,2,13)          -61.5216         estimate D2E/DX2                !
 ! D6    D(11,1,2,14)         -175.9414         estimate D2E/DX2                !
 ! D7    D(12,1,2,3)           -60.2639         estimate D2E/DX2                !
 ! D8    D(12,1,2,13)          177.2944         estimate D2E/DX2                !
 ! D9    D(12,1,2,14)           62.8746         estimate D2E/DX2                !
 ! D10   D(1,2,3,4)            -59.8355         estimate D2E/DX2                !
 ! D11   D(1,2,3,5)             62.3987         estimate D2E/DX2                !
 ! D12   D(1,2,3,6)            177.0334         estimate D2E/DX2                !
 ! D13   D(13,2,3,4)            61.9911         estimate D2E/DX2                !
 ! D14   D(13,2,3,5)          -175.7747         estimate D2E/DX2                !
 ! D15   D(13,2,3,6)           -61.14           estimate D2E/DX2                !
 ! D16   D(14,2,3,4)           177.9912         estimate D2E/DX2                !
 ! D17   D(14,2,3,5)           -59.7747         estimate D2E/DX2                !
 ! D18   D(14,2,3,6)            54.86           estimate D2E/DX2                !
 ! D19   D(2,3,4,15)            61.4973         estimate D2E/DX2                !
 ! D20   D(2,3,4,16)           -59.1041         estimate D2E/DX2                !
 ! D21   D(2,3,4,17)          -178.5848         estimate D2E/DX2                !
 ! D22   D(5,3,4,15)           -59.4637         estimate D2E/DX2                !
 ! D23   D(5,3,4,16)           179.935          estimate D2E/DX2                !
 ! D24   D(5,3,4,17)            60.4543         estimate D2E/DX2                !
 ! D25   D(6,3,4,15)          -174.4958         estimate D2E/DX2                !
 ! D26   D(6,3,4,16)            64.9029         estimate D2E/DX2                !
 ! D27   D(6,3,4,17)           -54.5778         estimate D2E/DX2                !
 ! D28   D(2,3,5,18)           -67.6532         estimate D2E/DX2                !
 ! D29   D(2,3,5,19)           176.8547         estimate D2E/DX2                !
 ! D30   D(4,3,5,18)            54.2404         estimate D2E/DX2                !
 ! D31   D(4,3,5,19)           -61.2517         estimate D2E/DX2                !
 ! D32   D(6,3,5,18)           172.936          estimate D2E/DX2                !
 ! D33   D(6,3,5,19)            57.4439         estimate D2E/DX2                !
 ! D34   D(2,3,6,7)            177.6033         estimate D2E/DX2                !
 ! D35   D(2,3,6,20)             6.5756         estimate D2E/DX2                !
 ! D36   D(4,3,6,7)             54.324          estimate D2E/DX2                !
 ! D37   D(4,3,6,20)          -116.7037         estimate D2E/DX2                !
 ! D38   D(5,3,6,7)            -64.9321         estimate D2E/DX2                !
 ! D39   D(5,3,6,20)           124.0402         estimate D2E/DX2                !
 ! D40   D(3,6,7,8)           -176.2071         estimate D2E/DX2                !
 ! D41   D(20,6,7,8)            -4.6039         estimate D2E/DX2                !
 ! D42   D(6,7,8,9)           -179.5343         estimate D2E/DX2                !
 ! D43   D(7,8,9,21)           177.9649         estimate D2E/DX2                !
 --------------------------------------------------------------------------------
 Trust Radius=3.00D-01 FncErr=1.00D-07 GrdErr=1.00D-06 EigMax=2.50D+02 EigMin=1.00D-04
 Number of steps in this run=    106 maximum allowed number of steps=    126.
 GradGradGradGradGradGradGradGradGradGradGradGradGradGradGradGradGradGrad

                          Input orientation:                          
 ---------------------------------------------------------------------
 Center     Atomic      Atomic             Coordinates (Angstroms)
 Number     Number       Type             X           Y           Z
 ---------------------------------------------------------------------
      1          6           0        1.054850   -0.058070    0.163570
      2          6           0        2.582630    0.003190    0.064040
      3          6           0        3.107330    0.757160   -1.182000
      4          6           0        2.610060    0.080970   -2.468770
      5          7           0        2.666800    2.140660   -1.115310
      6          7           0        4.552870    0.843070   -1.187870
      7          7           0        5.188110    1.429110   -2.232100
      8          7           0        6.421600    1.346030   -2.105050
      9          8           0        7.063740    1.963510   -3.183250
     10          1           0        0.749490   -0.599630    1.063300
     11          1           0        0.614430   -0.579460   -0.691390
     12          1           0        0.612560    0.941750    0.216460
     13          1           0        2.971870   -1.023330    0.063310
     14          1           0        2.970610    0.469940    0.979580
     15          1           0        1.518630    0.085650   -2.542710
     16          1           0        2.948840   -0.961240   -2.509290
     17          1           0        2.987340    0.580010   -3.368380
     18          1           0        1.659420    2.191960   -1.223360
     19          1           0        3.072610    2.617150   -1.919500
     20          1           0        5.136400    0.371270   -0.511680
     21          1           0        8.000360    1.858840   -2.947260
 ---------------------------------------------------------------------
                    Distance matrix (angstroms):
                    1          2          3          4          5
     1  C    0.000000
     2  C    1.532244   0.000000
     3  C    2.586084   1.548030   0.000000
     4  C    3.060592   2.534152   1.536323   0.000000
     5  N    3.011367   2.442689   1.453474   2.465238   0.000000
     6  N    3.856759   2.480831   1.448103   2.448676   2.290473
     7  N    5.003477   3.754202   2.425669   2.918876   2.847899
     8  N    5.993341   4.609323   3.490440   4.032432   3.963527
     9  O    7.169013   5.870953   4.594939   4.887709   4.862185
    10  H    1.093639   2.173089   3.527274   4.049748   3.991442
    11  H    1.093972   2.187228   2.870854   2.752778   3.433800
    12  H    1.094558   2.187533   2.865945   3.455634   2.725967
    13  H    2.148661   1.097840   2.176991   2.786003   3.390139
    14  H    2.148209   1.098452   2.184861   3.488898   2.696696
    15  H    2.749491   2.816743   2.196913   1.093942   2.752968
    16  H    3.398102   2.772411   2.177089   1.096638   3.412405
    17  H    4.076314   3.504000   2.196824   1.095755   2.759474
    18  H    2.711405   2.701931   2.038824   2.628886   1.014456
    19  H    3.945547   3.317725   2.001168   2.635879   1.019042
    20  H    4.159248   2.643611   2.171489   3.208874   3.097424
    21  H    7.848052   6.470175   5.317103   5.696061   5.646444
                    6          7          8          9         10
     6  N    0.000000
     7  N    1.355503   0.000000
     8  N    2.141574   1.242796   0.000000
     9  O    3.397263   2.169852   1.398621   0.000000
    10  H    4.649177   5.888701   6.782099   8.029485   0.000000
    11  H    4.216799   5.227494   6.279265   7.366795   1.759996
    12  H    4.184247   5.212353   6.268795   7.363406   1.764013
    13  H    2.747446   4.024312   4.713416   6.017040   2.473555
    14  H    2.709356   4.018980   4.710818   6.026078   2.466650
    15  H    3.408209   3.920006   5.081262   5.889388   3.750266
    16  H    2.752199   3.287086   4.188910   5.093210   4.210855
    17  H    2.697167   2.618299   3.738573   4.308756   5.102873
    18  H    3.192619   3.748486   4.916435   5.753263   3.721527
    19  H    2.423595   2.446323   3.586908   4.237149   4.964036
    20  H    1.010117   2.020283   2.267316   3.658846   4.761112
    21  H    4.001553   2.933406   1.861391   0.971547   8.643135
                   11         12         13         14         15
    11  H    0.000000
    12  H    1.771518   0.000000
    13  H    2.514780   3.074303   0.000000
    14  H    3.073266   2.522966   1.751972   0.000000
    15  H    2.165025   3.027687   3.183250   3.829158   0.000000
    16  H    2.983285   4.063162   2.573452   3.771069   1.772737
    17  H    3.760498   4.315265   3.787801   4.349385   1.755913
    18  H    3.009280   2.175321   3.703530   3.088287   2.489387
    19  H    4.215355   3.663487   4.146659   3.609097   3.035084
    20  H    4.624327   4.617441   2.638316   2.631395   4.158716
    21  H    8.098532   8.088867   6.531167   6.530505   6.732064
                   16         17         18         19         20
    16  H    0.000000
    17  H    1.764928   0.000000
    18  H    3.641276   2.993804   0.000000
    19  H    3.628780   2.501292   1.631718   0.000000
    20  H    3.248299   3.580889   3.988833   3.359340   0.000000
    21  H    5.801941   5.190676   6.579538   5.090584   4.043165
                   21
    21  H    0.000000
 Stoichiometry    C4H12N4O
 Framework group  C1[X(C4H12N4O)]
 Deg. of freedom    57
 Full point group                 C1      NOp   1
 Largest Abelian subgroup         C1      NOp   1
 Largest concise Abelian subgroup C1      NOp   1
                         Standard orientation:                         
 ---------------------------------------------------------------------
 Center     Atomic      Atomic             Coordinates (Angstroms)
 Number     Number       Type             X           Y           Z
 ---------------------------------------------------------------------
      1          6           0       -3.376560   -0.294842   -0.036778
      2          6           0       -1.986378   -0.922320   -0.183187
      3          6           0       -0.817174    0.070410    0.026205
      4          6           0       -0.892871    1.214068   -0.996832
      5          7           0       -0.871234    0.581522    1.385774
      6          7           0        0.468819   -0.590303   -0.055527
      7          7           0        1.607408    0.136765    0.055716
      8          7           0        2.609574   -0.578466   -0.113542
      9          8           0        3.776394    0.182003    0.014359
     10          1           0       -4.155925   -1.045906   -0.193431
     11          1           0       -3.541516    0.498746   -0.771475
     12          1           0       -3.525710    0.129549    0.961071
     13          1           0       -1.912038   -1.372220   -1.181844
     14          1           0       -1.906418   -1.756007    0.527566
     15          1           0       -1.813371    1.796789   -0.897717
     16          1           0       -0.850134    0.817576   -2.018391
     17          1           0       -0.061802    1.919818   -0.887655
     18          1           0       -1.692199    1.164974    1.507106
     19          1           0       -0.060641    1.187649    1.504078
     20          1           0        0.575742   -1.558380   -0.323352
     21          1           0        4.468796   -0.489131   -0.104228
 ---------------------------------------------------------------------
 Rotational constants (GHZ):           4.3303330           0.7178774           0.7073792
 Standard basis: 6-31G(2df,p) (6D, 7F)
 There are   339 symmetry adapted cartesian basis functions of A   symmetry.
 There are   312 symmetry adapted basis functions of A   symmetry.
   312 basis functions,   480 primitive gaussians,   339 cartesian basis functions
    36 alpha electrons       36 beta electrons
       nuclear repulsion energy       484.1707975899 Hartrees.
 NAtoms=   21 NActive=   21 NUniq=   21 SFac= 1.00D+00 NAtFMM=   60 NAOKFM=F Big=F
 Integral buffers will be    131072 words long.
 Raffenetti 2 integral format.
 Two-electron integral symmetry is turned on.
 One-electron integrals computed using PRISM.
 PrsmSu:  requested number of processors reduced to:  13 ShMem   1 Linda.
 NBasis=   312 RedAO= T EigKep=  2.08D-04  NBF=   312
 NBsUse=   312 1.00D-06 EigRej= -1.00D+00 NBFU=   312
 ExpMin= 1.61D-01 ExpMax= 5.48D+03 ExpMxC= 8.25D+02 IAcc=3 IRadAn=         5 AccDes= 0.00D+00
 Harris functional with IExCor=  402 and IRadAn=       5 diagonalized for initial guess.
 HarFok:  IExCor=  402 AccDes= 0.00D+00 IRadAn=         5 IDoV= 1 UseB2=F ITyADJ=14
 ICtDFT=  3500011 ScaDFX=  1.000000  1.000000  1.000000  1.000000
 FoFCou: FMM=F IPFlag=           0 FMFlag=      100000 FMFlg1=           0
         NFxFlg=           0 DoJE=T BraDBF=F KetDBF=T FulRan=T
         wScrn=  0.000000 ICntrl=       500 IOpCl=  0 I1Cent=   200000004 NGrid=           0
         NMat0=    1 NMatS0=      1 NMatT0=    0 NMatD0=    1 NMtDS0=    0 NMtDT0=    0
 Petite list used in FoFCou.
 Requested convergence on RMS density matrix=1.00D-08 within 128 cycles.
 Requested convergence on MAX density matrix=1.00D-06.
 Requested convergence on             energy=1.00D-06.
 No special actions if energy rises.
 Integral accuracy reduced to 1.0D-05 until final iterations.
 Initial convergence to 1.0D-05 achieved.  Increase integral accuracy.
 SCF Done:  E(RB3LYP) =  -453.807544462     A.U. after   14 cycles
            NFock= 14  Conv=0.41D-08     -V/T= 2.0073

 **********************************************************************

            Population analysis using the SCF density.

 **********************************************************************

 Orbital symmetries:
       Occupied  (A) (A) (A) (A) (A) (A) (A) (A) (A) (A) (A) (A)
                 (A) (A) (A) (A) (A) (A) (A) (A) (A) (A) (A) (A)
                 (A) (A) (A) (A) (A) (A) (A) (A) (A) (A) (A) (A)
       Virtual   (A) (A) (A) (A) (A) (A) (A) (A) (A) (A) (A) (A)
                 (A) (A) (A) (A) (A) (A) (A) (A) (A) (A) (A) (A)
                 (A) (A) (A) (A) (A) (A) (A) (A) (A) (A) (A) (A)
                 (A) (A) (A) (A) (A) (A) (A) (A) (A) (A) (A) (A)
                 (A) (A) (A) (A) (A) (A) (A) (A) (A) (A) (A) (A)
                 (A) (A) (A) (A) (A) (A) (A) (A) (A) (A) (A) (A)
                 (A) (A) (A) (A) (A) (A) (A) (A) (A) (A) (A) (A)
                 (A) (A) (A) (A) (A) (A) (A) (A) (A) (A) (A) (A)
                 (A) (A) (A) (A) (A) (A) (A) (A) (A) (A) (A) (A)
                 (A) (A) (A) (A) (A) (A) (A) (A) (A) (A) (A) (A)
                 (A) (A) (A) (A) (A) (A) (A) (A) (A) (A) (A) (A)
                 (A) (A) (A) (A) (A) (A) (A) (A) (A) (A) (A) (A)
                 (A) (A) (A) (A) (A) (A) (A) (A) (A) (A) (A) (A)
                 (A) (A) (A) (A) (A) (A) (A) (A) (A) (A) (A) (A)
                 (A) (A) (A) (A) (A) (A) (A) (A) (A) (A) (A) (A)
                 (A) (A) (A) (A) (A) (A) (A) (A) (A) (A) (A) (A)
                 (A) (A) (A) (A) (A) (A) (A) (A) (A) (A) (A) (A)
                 (A) (A) (A) (A) (A) (A) (A) (A) (A) (A) (A) (A)
                 (A) (A) (A) (A) (A) (A) (A) (A) (A) (A) (A) (A)
                 (A) (A) (A) (A) (A) (A) (A) (A) (A) (A) (A) (A)
                 (A) (A) (A) (A) (A) (A) (A) (A) (A) (A) (A) (A)
                 (A) (A) (A) (A) (A) (A) (A) (A) (A) (A) (A) (A)
                 (A) (A) (A) (A) (A) (A) (A) (A) (A) (A) (A) (A)
 The electronic state is 1-A.
 Alpha  occ. eigenvalues --  -19.17400 -14.39987 -14.39945 -14.36108 -14.29952
 Alpha  occ. eigenvalues --  -10.25394 -10.19143 -10.18411 -10.17079  -1.11035
 Alpha  occ. eigenvalues --   -1.01657  -0.91589  -0.83671  -0.77488  -0.71511
 Alpha  occ. eigenvalues --   -0.66937  -0.61401  -0.58775  -0.53262  -0.49602
 Alpha  occ. eigenvalues --   -0.48742  -0.47457  -0.45514  -0.43615  -0.41739
 Alpha  occ. eigenvalues --   -0.41052  -0.39493  -0.38030  -0.36872  -0.36765
 Alpha  occ. eigenvalues --   -0.34643  -0.33731  -0.32613  -0.25948  -0.23489
 Alpha  occ. eigenvalues --   -0.21251
 Alpha virt. eigenvalues --   -0.00421   0.07337   0.07894   0.10479   0.11970
 Alpha virt. eigenvalues --    0.12692   0.13407   0.14544   0.16250   0.16277
 Alpha virt. eigenvalues --    0.16912   0.17974   0.20462   0.21304   0.22172
 Alpha virt. eigenvalues --    0.23177   0.25370   0.26997   0.28538   0.29553
 Alpha virt. eigenvalues --    0.35908   0.45944   0.47479   0.48178   0.48881
 Alpha virt. eigenvalues --    0.50171   0.51898   0.52523   0.53101   0.55865
 Alpha virt. eigenvalues --    0.56964   0.58872   0.59293   0.60853   0.61172
 Alpha virt. eigenvalues --    0.63225   0.63784   0.64987   0.66318   0.69173
 Alpha virt. eigenvalues --    0.70404   0.70924   0.72225   0.73408   0.73752
 Alpha virt. eigenvalues --    0.74609   0.75291   0.75508   0.75885   0.79290
 Alpha virt. eigenvalues --    0.79938   0.82526   0.83206   0.85652   0.86632
 Alpha virt. eigenvalues --    0.87032   0.88542   0.89254   0.90229   0.90937
 Alpha virt. eigenvalues --    0.91564   0.93325   0.95983   0.96929   0.99382
 Alpha virt. eigenvalues --    1.01589   1.05111   1.06728   1.09328   1.11443
 Alpha virt. eigenvalues --    1.14486   1.15122   1.18576   1.23540   1.26463
 Alpha virt. eigenvalues --    1.26683   1.29988   1.31544   1.34512   1.34947
 Alpha virt. eigenvalues --    1.39425   1.40575   1.43200   1.48139   1.49212
 Alpha virt. eigenvalues --    1.51624   1.52303   1.52722   1.53593   1.56412
 Alpha virt. eigenvalues --    1.57060   1.59337   1.59756   1.62491   1.64275
 Alpha virt. eigenvalues --    1.67665   1.70103   1.70772   1.73176   1.77994
 Alpha virt. eigenvalues --    1.78767   1.80593   1.86812   1.87259   1.90356
 Alpha virt. eigenvalues --    1.92954   1.93506   1.95285   1.97135   1.97940
 Alpha virt. eigenvalues --    2.02165   2.04912   2.07237   2.14441   2.16496
 Alpha virt. eigenvalues --    2.21702   2.23182   2.27369   2.30445   2.32159
 Alpha virt. eigenvalues --    2.34958   2.36052   2.40588   2.44743   2.48434
 Alpha virt. eigenvalues --    2.51240   2.51677   2.54327   2.56694   2.64223
 Alpha virt. eigenvalues --    2.68029   2.70632   2.75362   2.75974   2.78487
 Alpha virt. eigenvalues --    2.79598   2.82332   2.83444   2.84476   2.88043
 Alpha virt. eigenvalues --    2.88726   2.90905   2.91984   2.92956   2.95986
 Alpha virt. eigenvalues --    2.98157   2.99502   3.02810   3.04245   3.06384
 Alpha virt. eigenvalues --    3.10733   3.12632   3.14816   3.18977   3.24687
 Alpha virt. eigenvalues --    3.26586   3.29499   3.30349   3.33124   3.35030
 Alpha virt. eigenvalues --    3.37150   3.39390   3.40194   3.43682   3.45695
 Alpha virt. eigenvalues --    3.49020   3.50454   3.51520   3.53318   3.56287
 Alpha virt. eigenvalues --    3.58296   3.60042   3.63378   3.65779   3.69515
 Alpha virt. eigenvalues --    3.73080   3.75142   3.77583   3.78862   3.84111
 Alpha virt. eigenvalues --    3.88762   3.91643   3.92298   3.93600   3.96860
 Alpha virt. eigenvalues --    4.01672   4.03167   4.05015   4.07158   4.11159
 Alpha virt. eigenvalues --    4.11889   4.13373   4.15272   4.16748   4.24497
 Alpha virt. eigenvalues --    4.26220   4.27666   4.30239   4.30856   4.32553
 Alpha virt. eigenvalues --    4.33634   4.34641   4.36170   4.37988   4.40515
 Alpha virt. eigenvalues --    4.40874   4.42695   4.45084   4.47185   4.48355
 Alpha virt. eigenvalues --    4.49542   4.50397   4.51894   4.54483   4.56624
 Alpha virt. eigenvalues --    4.59167   4.60962   4.63138   4.65213   4.66830
 Alpha virt. eigenvalues --    4.67056   4.69436   4.71973   4.72497   4.76394
 Alpha virt. eigenvalues --    4.77265   4.79478   4.81104   4.82470   4.83295
 Alpha virt. eigenvalues --    4.87555   4.88130   4.88970   4.89984   4.93027
 Alpha virt. eigenvalues --    4.99089   4.99953   5.02126   5.06115   5.06747
 Alpha virt. eigenvalues --    5.10245   5.14253   5.17017   5.24417   5.27691
 Alpha virt. eigenvalues --    5.30644   5.33126   5.33902   5.38347   5.40964
 Alpha virt. eigenvalues --    5.42667   5.48434   5.52497   5.60023   5.64787
 Alpha virt. eigenvalues --    5.71181   5.75535   5.85197   5.92207   6.01852
 Alpha virt. eigenvalues --    6.07205   6.27380   6.39441   6.99014   8.69122
 Alpha virt. eigenvalues --   10.47344  11.23409  11.34929  11.39686  11.49192
 Alpha virt. eigenvalues --   11.55287  12.02987  12.25179  13.10074  13.95435
 Alpha virt. eigenvalues --   17.95163
          Condensed to atoms (all electrons):
               1          2          3          4          5          6
     1  C    4.954470   0.404855  -0.022271  -0.006978  -0.005941   0.001026
     2  C    0.404855   4.916878   0.394166  -0.059281  -0.034871  -0.028563
     3  C   -0.022271   0.394166   4.464964   0.402203   0.370579   0.384313
     4  C   -0.006978  -0.059281   0.402203   5.166263  -0.091510  -0.065234
     5  N   -0.005941  -0.034871   0.370579  -0.091510   6.658250  -0.059059
     6  N    0.001026  -0.028563   0.384313  -0.065234  -0.059059   6.399874
     7  N   -0.000066   0.001890  -0.050871  -0.007682  -0.007040   0.342585
     8  N    0.000001  -0.000224   0.001194   0.000772   0.000556  -0.086051
     9  O   -0.000000   0.000000  -0.000082  -0.000008   0.000000   0.001039
    10  H    0.377796  -0.019392   0.002016   0.000157   0.000138  -0.000050
    11  H    0.379047  -0.029973  -0.004156   0.001459  -0.000401   0.000110
    12  H    0.378142  -0.030564  -0.004320   0.000136   0.002708   0.000081
    13  H   -0.033966   0.352621  -0.023491  -0.004636   0.004131  -0.000345
    14  H   -0.032593   0.349221  -0.015504   0.006582  -0.001943  -0.000489
    15  H    0.000239  -0.006139  -0.016532   0.358889   0.000475   0.003598
    16  H    0.000109  -0.002669  -0.016552   0.340330   0.006376   0.002271
    17  H    0.000232   0.004743  -0.012193   0.363015  -0.001674  -0.006070
    18  H    0.003391  -0.006823  -0.047079   0.000284   0.327609   0.006884
    19  H    0.000220   0.007070  -0.048483  -0.003312   0.337202  -0.007515
    20  H    0.000007  -0.000959  -0.047923   0.005626   0.003417   0.350113
    21  H    0.000000  -0.000000  -0.000002   0.000000  -0.000000  -0.000624
               7          8          9         10         11         12
     1  C   -0.000066   0.000001  -0.000000   0.377796   0.379047   0.378142
     2  C    0.001890  -0.000224   0.000000  -0.019392  -0.029973  -0.030564
     3  C   -0.050871   0.001194  -0.000082   0.002016  -0.004156  -0.004320
     4  C   -0.007682   0.000772  -0.000008   0.000157   0.001459   0.000136
     5  N   -0.007040   0.000556   0.000000   0.000138  -0.000401   0.002708
     6  N    0.342585  -0.086051   0.001039  -0.000050   0.000110   0.000081
     7  N    6.355500   0.483905  -0.066121   0.000000   0.000002   0.000002
     8  N    0.483905   6.457988   0.211689  -0.000000  -0.000000  -0.000000
     9  O   -0.066121   0.211689   7.933238   0.000000   0.000000  -0.000000
    10  H    0.000000  -0.000000   0.000000   0.586191  -0.031109  -0.030615
    11  H    0.000002  -0.000000   0.000000  -0.031109   0.588291  -0.033808
    12  H    0.000002  -0.000000  -0.000000  -0.030615  -0.033808   0.587178
    13  H    0.000090  -0.000002  -0.000000  -0.003072  -0.003784   0.005654
    14  H    0.000104  -0.000003  -0.000000  -0.003017   0.005364  -0.003045
    15  H    0.000134  -0.000010  -0.000000  -0.000028   0.003986   0.000403
    16  H    0.000513   0.000005   0.000000  -0.000027   0.000408  -0.000018
    17  H    0.007691  -0.000380  -0.000007  -0.000001  -0.000193  -0.000033
    18  H   -0.000009  -0.000001  -0.000000  -0.000089  -0.000043   0.002331
    19  H    0.012027  -0.000599  -0.000021   0.000003  -0.000054  -0.000273
    20  H   -0.057724   0.021883  -0.001025  -0.000006   0.000012   0.000017
    21  H    0.005369  -0.046948   0.307353  -0.000000  -0.000000   0.000000
              13         14         15         16         17         18
     1  C   -0.033966  -0.032593   0.000239   0.000109   0.000232   0.003391
     2  C    0.352621   0.349221  -0.006139  -0.002669   0.004743  -0.006823
     3  C   -0.023491  -0.015504  -0.016532  -0.016552  -0.012193  -0.047079
     4  C   -0.004636   0.006582   0.358889   0.340330   0.363015   0.000284
     5  N    0.004131  -0.001943   0.000475   0.006376  -0.001674   0.327609
     6  N   -0.000345  -0.000489   0.003598   0.002271  -0.006070   0.006884
     7  N    0.000090   0.000104   0.000134   0.000513   0.007691  -0.000009
     8  N   -0.000002  -0.000003  -0.000010   0.000005  -0.000380  -0.000001
     9  O   -0.000000  -0.000000  -0.000000   0.000000  -0.000007  -0.000000
    10  H   -0.003072  -0.003017  -0.000028  -0.000027  -0.000001  -0.000089
    11  H   -0.003784   0.005364   0.003986   0.000408  -0.000193  -0.000043
    12  H    0.005654  -0.003045   0.000403  -0.000018  -0.000033   0.002331
    13  H    0.643119  -0.039550   0.000380   0.002285  -0.000085  -0.000183
    14  H   -0.039550   0.620624  -0.000063  -0.000192  -0.000170  -0.000013
    15  H    0.000380  -0.000063   0.602964  -0.029150  -0.030334   0.001562
    16  H    0.002285  -0.000192  -0.029150   0.616746  -0.027950   0.000031
    17  H   -0.000085  -0.000170  -0.030334  -0.027950   0.566304   0.000316
    18  H   -0.000183  -0.000013   0.001562   0.000031   0.000316   0.521234
    19  H   -0.000263  -0.000223   0.000188  -0.000038   0.004323  -0.025996
    20  H    0.002813   0.002849  -0.000071   0.000187   0.000227  -0.000220
    21  H    0.000000   0.000000   0.000000   0.000000   0.000000   0.000000
              19         20         21
     1  C    0.000220   0.000007   0.000000
     2  C    0.007070  -0.000959  -0.000000
     3  C   -0.048483  -0.047923  -0.000002
     4  C   -0.003312   0.005626   0.000000
     5  N    0.337202   0.003417  -0.000000
     6  N   -0.007515   0.350113  -0.000624
     7  N    0.012027  -0.057724   0.005369
     8  N   -0.000599   0.021883  -0.046948
     9  O   -0.000021  -0.001025   0.307353
    10  H    0.000003  -0.000006  -0.000000
    11  H   -0.000054   0.000012  -0.000000
    12  H   -0.000273   0.000017   0.000000
    13  H   -0.000263   0.002813   0.000000
    14  H   -0.000223   0.002849   0.000000
    15  H    0.000188  -0.000071   0.000000
    16  H   -0.000038   0.000187   0.000000
    17  H    0.004323   0.000227   0.000000
    18  H   -0.025996  -0.000220   0.000000
    19  H    0.489621   0.000610   0.000001
    20  H    0.000610   0.486300   0.000076
    21  H    0.000001   0.000076   0.428511
 Mulliken charges:
               1
     1  C   -0.397722
     2  C   -0.211986
     3  C    0.290024
     4  C   -0.407076
     5  N   -0.509001
     6  N   -0.237894
     7  N   -0.020298
     8  N   -0.043774
     9  O   -0.386058
    10  H    0.121106
    11  H    0.124843
    12  H    0.126024
    13  H    0.098284
    14  H    0.112061
    15  H    0.109511
    16  H    0.107337
    17  H    0.132240
    18  H    0.216814
    19  H    0.235511
    20  H    0.233792
    21  H    0.306263
 Sum of Mulliken charges =  -0.00000
 Mulliken charges with hydrogens summed into heavy atoms:
               1
     1  C   -0.025749
     2  C   -0.001640
     3  C    0.290024
     4  C   -0.057989
     5  N   -0.056676
     6  N   -0.004102
     7  N   -0.020298
     8  N   -0.043774
     9  O   -0.079794
 Electronic spatial extent (au):  <R**2>=           1684.9819
 Charge=             -0.0000 electrons
 Dipole moment (field-independent basis, Debye):
    X=             -1.3497    Y=             -0.7744    Z=             -1.1471  Tot=              1.9332
 Quadrupole moment (field-independent basis, Debye-Ang):
   XX=            -47.7452   YY=            -52.3954   ZZ=            -57.7274
   XY=             -4.7521   XZ=             -0.2203   YZ=              2.4018
 Traceless Quadrupole moment (field-independent basis, Debye-Ang):
   XX=              4.8774   YY=              0.2273   ZZ=             -5.1047
   XY=             -4.7521   XZ=             -0.2203   YZ=              2.4018
 Octapole moment (field-independent basis, Debye-Ang**2):
  XXX=             60.8020  YYY=             -1.5505  ZZZ=             -2.5295  XYY=              3.3063
  XXY=            -19.0168  XXZ=             -1.0310  XZZ=              7.8494  YZZ=              2.8931
  YYZ=              3.2458  XYZ=             -1.9150
 Hexadecapole moment (field-independent basis, Debye-Ang**3):
 XXXX=          -1352.7523 YYYY=           -236.3932 ZZZZ=           -217.0920 XXXY=            -89.7755
 XXXZ=            -23.4606 YYYX=             -1.5160 YYYZ=              8.1819 ZZZX=              0.8581
 ZZZY=             10.6304 XXYY=           -313.6849 XXZZ=           -313.9976 YYZZ=            -70.7804
 XXYZ=              5.3705 YYXZ=             -3.7670 ZZXY=             -3.4655
 N-N= 4.841707975899D+02 E-N=-2.026944305202D+03  KE= 4.505141903342D+02
 PrsmSu:  requested number of processors reduced to:  13 ShMem   1 Linda.
 Calling FoFJK, ICntrl=      2127 FMM=F ISym2X=0 I1Cent= 0 IOpClX= 0 NMat=1 NMatS=1 NMatT=0.
 ***** Axes restored to original set *****
 -------------------------------------------------------------------
 Center     Atomic                   Forces (Hartrees/Bohr)
 Number     Number              X              Y              Z
 -------------------------------------------------------------------
      1        6          -0.001037066    0.000275874   -0.002177939
      2        6           0.008346925   -0.003416722    0.004519362
      3        6          -0.007702876    0.005286976   -0.007920487
      4        6           0.001068180   -0.010040179   -0.008193183
      5        7          -0.007424098    0.014853263    0.002752449
      6        7           0.009419517   -0.007346284   -0.001689490
      7        7          -0.001286549   -0.004953746    0.008203938
      8        7           0.006072480   -0.002790500    0.003915665
      9        8           0.000084569    0.001909040   -0.001996642
     10        1           0.001169707    0.000542966    0.000555164
     11        1          -0.000520264    0.000089224    0.000869981
     12        1          -0.000073413   -0.000310498    0.000867460
     13        1           0.001037470    0.000311126   -0.002629697
     14        1           0.001460506    0.002973117   -0.003992443
     15        1           0.000471827    0.000270514    0.002137069
     16        1          -0.001068671   -0.000677877   -0.001016594
     17        1           0.002196607    0.001376864    0.003999185
     18        1          -0.001299446    0.000946593   -0.002052014
     19        1          -0.002096114    0.001962637    0.002538390
     20        1          -0.000730067   -0.001034841    0.001654060
     21        1          -0.008089223   -0.000227546   -0.000344233
 -------------------------------------------------------------------
 Cartesian Forces:  Max     0.014853263 RMS     0.004322803

 GradGradGradGradGradGradGradGradGradGradGradGradGradGradGradGradGradGrad
 Berny optimization.
 FormGI is forming the generalized inverse of G from B-inverse, IUseBI=4.
 Internal  Forces:  Max     0.020335201 RMS     0.004640126
 Search for a local minimum.
 Step number   1 out of a maximum of  106
 All quantities printed in internal units (Hartrees-Bohrs-Radians)
 Mixed Optimization -- RFO/linear search
 Second derivative matrix not updated -- first step.
 ITU=  0
     Eigenvalues ---    0.00230   0.00285   0.00339   0.00984   0.01055
     Eigenvalues ---    0.01290   0.01313   0.01883   0.03304   0.03374
     Eigenvalues ---    0.04680   0.04719   0.04806   0.05290   0.05360
     Eigenvalues ---    0.05439   0.05512   0.05530   0.06991   0.08581
     Eigenvalues ---    0.12386   0.15344   0.15920   0.16000   0.16000
     Eigenvalues ---    0.16000   0.16000   0.16000   0.16000   0.16000
     Eigenvalues ---    0.16000   0.16000   0.16428   0.21912   0.22023
     Eigenvalues ---    0.25000   0.25000   0.27819   0.28847   0.29217
     Eigenvalues ---    0.33854   0.33922   0.34057   0.34156   0.34291
     Eigenvalues ---    0.34358   0.34361   0.34395   0.37793   0.38495
     Eigenvalues ---    0.44491   0.45234   0.45850   0.45953   0.53062
     Eigenvalues ---    0.53867   0.85956
 RFO step:  Lambda=-1.15189782D-02 EMin= 2.30000000D-03
 Linear search not attempted -- first point.
 Iteration  1 RMS(Cart)=  0.08365427 RMS(Int)=  0.00232071
 Iteration  2 RMS(Cart)=  0.00422072 RMS(Int)=  0.00067946
 Iteration  3 RMS(Cart)=  0.00000511 RMS(Int)=  0.00067945
 Iteration  4 RMS(Cart)=  0.00000000 RMS(Int)=  0.00067945
 Variable       Old X    -DE/DX   Delta X   Delta X   Delta X     New X
                                 (Linear)    (Quad)   (Total)
    R1        2.89552   0.00044   0.00000   0.00146   0.00146   2.89698
    R2        2.06668  -0.00014   0.00000  -0.00039  -0.00039   2.06629
    R3        2.06731  -0.00051   0.00000  -0.00145  -0.00145   2.06586
    R4        2.06842  -0.00021   0.00000  -0.00060  -0.00060   2.06782
    R5        2.92535  -0.00534   0.00000  -0.01845  -0.01845   2.90690
    R6        2.07462   0.00008   0.00000   0.00022   0.00022   2.07484
    R7        2.07577  -0.00155   0.00000  -0.00442  -0.00442   2.07135
    R8        2.90323   0.00570   0.00000   0.01901   0.01901   2.92224
    R9        2.74667   0.02034   0.00000   0.05221   0.05221   2.79888
   R10        2.73652   0.00456   0.00000   0.01151   0.01151   2.74803
   R11        2.06725  -0.00061   0.00000  -0.00173  -0.00173   2.06552
   R12        2.07235   0.00035   0.00000   0.00100   0.00100   2.07334
   R13        2.07068  -0.00190   0.00000  -0.00538  -0.00538   2.06530
   R14        1.91704   0.00156   0.00000   0.00336   0.00336   1.92040
   R15        1.92571  -0.00192   0.00000  -0.00421  -0.00421   1.92150
   R16        2.56153  -0.01166   0.00000  -0.02119  -0.02119   2.54034
   R17        1.90884   0.00117   0.00000   0.00248   0.00248   1.91132
   R18        2.34854  -0.00168   0.00000  -0.00193  -0.00193   2.34661
   R19        2.64301  -0.00113   0.00000  -0.00240  -0.00240   2.64061
   R20        1.83596  -0.00786   0.00000  -0.01449  -0.01449   1.82146
    A1        1.93012  -0.00220   0.00000  -0.01611  -0.01611   1.91401
    A2        1.94949   0.00169   0.00000   0.01320   0.01319   1.96267
    A3        1.94929   0.00037   0.00000   0.00211   0.00202   1.95131
    A4        1.86976   0.00033   0.00000   0.00213   0.00220   1.87196
    A5        1.87523   0.00011   0.00000  -0.00569  -0.00576   1.86947
    A6        1.88645  -0.00032   0.00000   0.00405   0.00396   1.89041
    A7        1.99294   0.00560   0.00000   0.02268   0.02275   2.01569
    A8        1.89249  -0.00024   0.00000   0.01567   0.01568   1.90817
    A9        1.89128   0.00019   0.00000   0.00568   0.00589   1.89717
   A10        1.91208  -0.00278   0.00000  -0.01496  -0.01538   1.89670
   A11        1.92220  -0.00501   0.00000  -0.04437  -0.04446   1.87774
   A12        1.84693   0.00210   0.00000   0.01597   0.01538   1.86231
   A13        1.92847   0.00645   0.00000   0.01892   0.01618   1.94465
   A14        1.90069  -0.00158   0.00000   0.00127   0.00242   1.90311
   A15        1.95035  -0.01126   0.00000  -0.11055  -0.11049   1.83986
   A16        1.93829  -0.00112   0.00000   0.03613   0.03541   1.97369
   A17        1.92391  -0.00102   0.00000  -0.01517  -0.01816   1.90575
   A18        1.81962   0.00838   0.00000   0.07188   0.07165   1.89127
   A19        1.95806  -0.00211   0.00000  -0.01250  -0.01268   1.94539
   A20        1.92756   0.00355   0.00000   0.02283   0.02298   1.95054
   A21        1.95599  -0.00603   0.00000  -0.03715  -0.03724   1.91876
   A22        1.88576  -0.00031   0.00000   0.00188   0.00193   1.88769
   A23        1.86093   0.00392   0.00000   0.01893   0.01854   1.87947
   A24        1.87143   0.00127   0.00000   0.00767   0.00790   1.87933
   A25        1.92221   0.00033   0.00000   0.00265   0.00259   1.92480
   A26        1.86311   0.00527   0.00000   0.03152   0.03145   1.89456
   A27        1.86267  -0.00238   0.00000  -0.01222  -0.01235   1.85033
   A28        2.09045  -0.00373   0.00000  -0.01635  -0.01637   2.07408
   A29        2.14867   0.00017   0.00000  -0.00221  -0.00222   2.14644
   A30        2.03410   0.00350   0.00000   0.01721   0.01719   2.05129
   A31        1.93636   0.01367   0.00000   0.05229   0.05229   1.98864
   A32        1.92555  -0.01869   0.00000  -0.07146  -0.07146   1.85409
   A33        1.78012  -0.00359   0.00000  -0.02096  -0.02096   1.75916
    D1       -3.13924   0.00127   0.00000   0.02378   0.02383  -3.11541
    D2        1.00693   0.00122   0.00000   0.01599   0.01588   1.02281
    D3       -0.99007  -0.00121   0.00000  -0.01376  -0.01382  -1.00389
    D4        1.06326   0.00122   0.00000   0.02320   0.02333   1.08659
    D5       -1.07375   0.00117   0.00000   0.01541   0.01538  -1.05837
    D6       -3.07076  -0.00127   0.00000  -0.01434  -0.01432  -3.08508
    D7       -1.05180   0.00017   0.00000   0.00718   0.00726  -1.04454
    D8        3.09437   0.00013   0.00000  -0.00061  -0.00068   3.09369
    D9        1.09737  -0.00231   0.00000  -0.03036  -0.03039   1.06698
   D10       -1.04433  -0.00278   0.00000  -0.08212  -0.08186  -1.12619
   D11        1.08906  -0.00108   0.00000  -0.02419  -0.02457   1.06449
   D12        3.08982   0.00184   0.00000   0.00191   0.00202   3.09184
   D13        1.08195  -0.00127   0.00000  -0.05717  -0.05711   1.02483
   D14       -3.06785   0.00043   0.00000   0.00076   0.00018  -3.06767
   D15       -1.06709   0.00335   0.00000   0.02687   0.02677  -1.04032
   D16        3.10653  -0.00323   0.00000  -0.07201  -0.07154   3.03499
   D17       -1.04326  -0.00152   0.00000  -0.01408  -0.01425  -1.05751
   D18        0.95749   0.00140   0.00000   0.01202   0.01235   0.96984
   D19        1.07333   0.00467   0.00000   0.07767   0.07827   1.15160
   D20       -1.03156   0.00403   0.00000   0.06785   0.06851  -0.96305
   D21       -3.11689   0.00399   0.00000   0.06713   0.06801  -3.04888
   D22       -1.03784   0.00307   0.00000   0.03924   0.03849  -0.99934
   D23        3.14046   0.00243   0.00000   0.02942   0.02874  -3.11399
   D24        1.05513   0.00239   0.00000   0.02870   0.02824   1.08336
   D25       -3.04553  -0.00591   0.00000  -0.06069  -0.06089  -3.10642
   D26        1.13277  -0.00654   0.00000  -0.07051  -0.07064   1.06213
   D27       -0.95256  -0.00659   0.00000  -0.07123  -0.07115  -1.02371
   D28       -1.18077  -0.00573   0.00000  -0.07323  -0.07290  -1.25368
   D29        3.08670  -0.00598   0.00000  -0.07749  -0.07723   3.00947
   D30        0.94667   0.00056   0.00000  -0.02552  -0.02662   0.92005
   D31       -1.06904   0.00031   0.00000  -0.02977  -0.03094  -1.09998
   D32        3.01830   0.00364   0.00000   0.01615   0.01703   3.03533
   D33        1.00258   0.00339   0.00000   0.01190   0.01270   1.01529
   D34        3.09976   0.00060   0.00000  -0.02354  -0.02114   3.07862
   D35        0.11477   0.00081   0.00000  -0.01450  -0.01213   0.10263
   D36        0.94813   0.00096   0.00000   0.04073   0.03943   0.98756
   D37       -2.03686   0.00116   0.00000   0.04977   0.04844  -1.98842
   D38       -1.13328  -0.00196   0.00000  -0.03481  -0.03586  -1.16914
   D39        2.16491  -0.00175   0.00000  -0.02577  -0.02685   2.13806
   D40       -3.07539   0.00052   0.00000   0.01506   0.01510  -3.06029
   D41       -0.08035   0.00009   0.00000   0.00512   0.00508  -0.07528
   D42       -3.13347   0.00073   0.00000   0.01624   0.01624  -3.11723
   D43        3.10607   0.00030   0.00000   0.01212   0.01212   3.11819
         Item               Value     Threshold  Converged?
 Maximum Force            0.020335     0.000450     NO 
 RMS     Force            0.004640     0.000300     NO 
 Maximum Displacement     0.220041     0.001800     NO 
 RMS     Displacement     0.084616     0.001200     NO 
 Predicted change in Energy=-6.410760D-03
 GradGradGradGradGradGradGradGradGradGradGradGradGradGradGradGradGradGrad

                          Input orientation:                          
 ---------------------------------------------------------------------
 Center     Atomic      Atomic             Coordinates (Angstroms)
 Number     Number       Type             X           Y           Z
 ---------------------------------------------------------------------
      1          6           0        1.086110   -0.074006    0.204754
      2          6           0        2.604605    0.026741    0.019948
      3          6           0        3.070062    0.801845   -1.224571
      4          6           0        2.639925    0.088799   -2.527586
      5          7           0        2.579432    2.196558   -1.136656
      6          7           0        4.522067    0.821277   -1.147218
      7          7           0        5.217644    1.376569   -2.154657
      8          7           0        6.448849    1.263079   -2.039528
      9          8           0        7.006091    1.916289   -3.141976
     10          1           0        0.862926   -0.617677    1.126820
     11          1           0        0.600585   -0.611365   -0.614154
     12          1           0        0.620992    0.912606    0.292083
     13          1           0        3.034416   -0.983033   -0.013696
     14          1           0        3.033412    0.522529    0.898459
     15          1           0        1.552803    0.084474   -2.640975
     16          1           0        2.990930   -0.950275   -2.557508
     17          1           0        3.061905    0.606689   -3.392553
     18          1           0        1.575017    2.226880   -1.288176
     19          1           0        2.993764    2.733590   -1.894177
     20          1           0        5.042700    0.316325   -0.442268
     21          1           0        7.946314    1.800645   -2.964024
 ---------------------------------------------------------------------
                    Distance matrix (angstroms):
                    1          2          3          4          5
     1  C    0.000000
     2  C    1.533014   0.000000
     3  C    2.597336   1.538267   0.000000
     4  C    3.147463   2.548534   1.546383   0.000000
     5  N    3.030652   2.458957   1.481105   2.526063   0.000000
     6  N    3.799363   2.381223   1.454193   2.446303   2.380197
     7  N    4.973989   3.657720   2.409870   2.905523   2.944295
     8  N    5.965196   4.533010   3.506150   4.015599   4.081537
     9  O    7.085764   5.739446   4.517826   4.772903   4.867769
    10  H    1.093433   2.161917   3.523569   4.124501   3.998704
    11  H    1.093206   2.196671   2.909998   2.882769   3.474662
    12  H    1.094241   2.189414   2.882785   3.564446   2.743230
    13  H    2.161006   1.097958   2.157146   2.761175   3.402623
    14  H    2.151526   1.096112   2.141639   3.475735   2.673979
    15  H    2.888095   2.861841   2.196109   1.093027   2.788878
    16  H    3.467893   2.783359   2.202931   1.097167   3.477170
    17  H    4.160256   3.491508   2.176763   1.092907   2.801703
    18  H    2.786026   2.758958   2.066381   2.691013   1.016232
    19  H    3.990896   3.338016   2.045931   2.742504   1.016815
    20  H    4.028101   2.498361   2.176930   3.189615   3.175710
    21  H    7.785747   6.370610   5.272677   5.592733   5.683260
                    6          7          8          9         10
     6  N    0.000000
     7  N    1.344288   0.000000
     8  N    2.168846   1.241773   0.000000
     9  O    3.368751   2.112969   1.397352   0.000000
    10  H    4.542153   5.805918   6.690706   7.898233   0.000000
    11  H    4.208877   5.257591   6.304556   7.335491   1.760640
    12  H    4.159124   5.227906   6.286744   7.319127   1.759854
    13  H    2.598752   3.862372   4.561509   5.828070   2.479845
    14  H    2.547575   3.849906   4.565675   5.835226   2.462363
    15  H    3.404514   3.916257   5.071697   5.774504   3.894255
    16  H    2.733440   3.245727   4.138169   4.967928   4.267704
    17  H    2.686941   2.602367   3.705795   4.163465   5.172941
    18  H    3.268133   3.839603   5.024707   5.747139   3.798787
    19  H    2.559413   2.618205   3.757810   4.280625   4.989779
    20  H    1.011429   2.021633   2.329128   3.701785   4.561240
    21  H    3.998176   2.877595   1.840128   0.963877   8.529811
                   11         12         13         14         15
    11  H    0.000000
    12  H    1.773181   0.000000
    13  H    2.534210   3.084082   0.000000
    14  H    3.080968   2.517861   1.760324   0.000000
    15  H    2.344977   3.186989   3.199585   3.861565   0.000000
    16  H    3.099231   4.148144   2.544395   3.756949   1.773663
    17  H    3.906565   4.430370   3.734253   4.291932   1.764927
    18  H    3.075623   2.265986   3.749358   3.132587   2.533863
    19  H    4.307493   3.704829   4.165471   3.562187   3.106750
    20  H    4.541204   4.521760   2.430063   2.424315   4.131276
    21  H    8.080805   8.065431   6.370246   6.378789   6.627713
                   16         17         18         19         20
    16  H    0.000000
    17  H    1.768184   0.000000
    18  H    3.702746   3.043724   0.000000
    19  H    3.743111   2.602592   1.623834   0.000000
    20  H    3.207534   3.565395   4.048531   3.485591   0.000000
    21  H    5.682309   5.046446   6.601785   5.151961   4.122309
                   21
    21  H    0.000000
 Stoichiometry    C4H12N4O
 Framework group  C1[X(C4H12N4O)]
 Deg. of freedom    57
 Full point group                 C1      NOp   1
 Largest Abelian subgroup         C1      NOp   1
 Largest concise Abelian subgroup C1      NOp   1
                         Standard orientation:                         
 ---------------------------------------------------------------------
 Center     Atomic      Atomic             Coordinates (Angstroms)
 Number     Number       Type             X           Y           Z
 ---------------------------------------------------------------------
      1          6           0       -3.353301   -0.379329   -0.029942
      2          6           0       -1.919093   -0.918145   -0.083389
      3          6           0       -0.809338    0.140637    0.033618
      4          6           0       -0.826727    1.112295   -1.169244
      5          7           0       -0.934634    0.829747    1.338647
      6          7           0        0.438896   -0.605388    0.027486
      7          7           0        1.599546    0.072622    0.044982
      8          7           0        2.605781   -0.648252   -0.054166
      9          8           0        3.707942    0.208025    0.013835
     10          1           0       -4.061161   -1.210235   -0.094160
     11          1           0       -3.575089    0.300274   -0.857015
     12          1           0       -3.555935    0.144424    0.909200
     13          1           0       -1.775188   -1.476445   -1.017790
     14          1           0       -1.781779   -1.633726    0.735482
     15          1           0       -1.735999    1.718768   -1.180340
     16          1           0       -0.760741    0.577556   -2.125003
     17          1           0        0.025963    1.793404   -1.110466
     18          1           0       -1.747121    1.440150    1.338133
     19          1           0       -0.128093    1.436347    1.462909
     20          1           0        0.482946   -1.603658   -0.129052
     21          1           0        4.432293   -0.424915   -0.047484
 ---------------------------------------------------------------------
 Rotational constants (GHZ):           4.0653114           0.7316048           0.7187063
 Standard basis: 6-31G(2df,p) (6D, 7F)
 There are   339 symmetry adapted cartesian basis functions of A   symmetry.
 There are   312 symmetry adapted basis functions of A   symmetry.
   312 basis functions,   480 primitive gaussians,   339 cartesian basis functions
    36 alpha electrons       36 beta electrons
       nuclear repulsion energy       483.8392827095 Hartrees.
 NAtoms=   21 NActive=   21 NUniq=   21 SFac= 1.00D+00 NAtFMM=   60 NAOKFM=F Big=F
 Integral buffers will be    131072 words long.
 Raffenetti 2 integral format.
 Two-electron integral symmetry is turned on.
 One-electron integrals computed using PRISM.
 PrsmSu:  requested number of processors reduced to:  13 ShMem   1 Linda.
 NBasis=   312 RedAO= T EigKep=  2.06D-04  NBF=   312
 NBsUse=   312 1.00D-06 EigRej= -1.00D+00 NBFU=   312
 Initial guess from the checkpoint file:  "CCCpCppNpNNdNO.chk"
 B after Tr=    -0.000000    0.000000    0.000000
         Rot=    0.997908    0.064499    0.004303   -0.000996 Ang=   7.41 deg.
 ExpMin= 1.61D-01 ExpMax= 5.48D+03 ExpMxC= 8.25D+02 IAcc=2 IRadAn=         4 AccDes= 0.00D+00
 Harris functional with IExCor=  402 and IRadAn=       4 diagonalized for initial guess.
 HarFok:  IExCor=  402 AccDes= 0.00D+00 IRadAn=         4 IDoV= 1 UseB2=F ITyADJ=14
 ICtDFT=  3500011 ScaDFX=  1.000000  1.000000  1.000000  1.000000
 FoFCou: FMM=F IPFlag=           0 FMFlag=      100000 FMFlg1=           0
         NFxFlg=           0 DoJE=T BraDBF=F KetDBF=T FulRan=T
         wScrn=  0.000000 ICntrl=       500 IOpCl=  0 I1Cent=   200000004 NGrid=           0
         NMat0=    1 NMatS0=      1 NMatT0=    0 NMatD0=    1 NMtDS0=    0 NMtDT0=    0
 Petite list used in FoFCou.
 Requested convergence on RMS density matrix=1.00D-08 within 128 cycles.
 Requested convergence on MAX density matrix=1.00D-06.
 Requested convergence on             energy=1.00D-06.
 No special actions if energy rises.
 Integral accuracy reduced to 1.0D-05 until final iterations.
 Initial convergence to 1.0D-05 achieved.  Increase integral accuracy.
 SCF Done:  E(RB3LYP) =  -453.812168860     A.U. after   12 cycles
            NFock= 12  Conv=0.93D-08     -V/T= 2.0074
 PrsmSu:  requested number of processors reduced to:  13 ShMem   1 Linda.
 Calling FoFJK, ICntrl=      2127 FMM=F ISym2X=0 I1Cent= 0 IOpClX= 0 NMat=1 NMatS=1 NMatT=0.
 ***** Axes restored to original set *****
 -------------------------------------------------------------------
 Center     Atomic                   Forces (Hartrees/Bohr)
 Number     Number              X              Y              Z
 -------------------------------------------------------------------
      1        6           0.001107477   -0.000150413    0.000465600
      2        6          -0.002065986   -0.000777190    0.003946860
      3        6          -0.002924922   -0.001526816   -0.002339918
      4        6          -0.000320905    0.000398902   -0.001977899
      5        7           0.003129323   -0.002765081    0.001274497
      6        7           0.006454311    0.005530508   -0.006893070
      7        7          -0.008016179   -0.003890659    0.009171704
      8        7          -0.006682782    0.000814513   -0.000057462
      9        8           0.009201564    0.000856500   -0.002594213
     10        1          -0.000321236   -0.000110316    0.000310984
     11        1           0.000131205   -0.000115633   -0.000728753
     12        1           0.000547296    0.000196257    0.000015745
     13        1          -0.000462141    0.000397451   -0.001417060
     14        1           0.000044977    0.001080108   -0.000557262
     15        1          -0.000877096    0.000221460    0.000946691
     16        1          -0.000121169    0.001280372    0.001278088
     17        1           0.000616225    0.000475390    0.000520874
     18        1           0.000443443   -0.002065285   -0.000956582
     19        1           0.001041233   -0.000543225    0.000028617
     20        1          -0.002166363   -0.000342938    0.001713061
     21        1           0.001241725    0.001036096   -0.002150500
 -------------------------------------------------------------------
 Cartesian Forces:  Max     0.009201564 RMS     0.002858685

 GradGradGradGradGradGradGradGradGradGradGradGradGradGradGradGradGradGrad
 Berny optimization.
 Using GEDIIS/GDIIS optimizer.
 FormGI is forming the generalized inverse of G from B-inverse, IUseBI=4.
 Internal  Forces:  Max     0.015305486 RMS     0.002278238
 Search for a local minimum.
 Step number   2 out of a maximum of  106
 All quantities printed in internal units (Hartrees-Bohrs-Radians)
 Mixed Optimization -- RFO/linear search
 Update second derivatives using D2CorX and points    1    2
 DE= -4.62D-03 DEPred=-6.41D-03 R= 7.21D-01
 TightC=F SS=  1.41D+00  RLast= 3.35D-01 DXNew= 5.0454D-01 1.0055D+00
 Trust test= 7.21D-01 RLast= 3.35D-01 DXMaxT set to 5.05D-01
 ITU=  1  0
 Use linear search instead of GDIIS.
     Eigenvalues ---    0.00231   0.00286   0.00340   0.00980   0.01055
     Eigenvalues ---    0.01301   0.01312   0.01883   0.03231   0.03379
     Eigenvalues ---    0.04589   0.04665   0.04721   0.05272   0.05349
     Eigenvalues ---    0.05567   0.05617   0.06270   0.06890   0.08640
     Eigenvalues ---    0.12511   0.14898   0.15764   0.15926   0.15961
     Eigenvalues ---    0.16000   0.16000   0.16000   0.16000   0.16000
     Eigenvalues ---    0.16000   0.16000   0.16819   0.21773   0.22022
     Eigenvalues ---    0.24640   0.27659   0.28616   0.29157   0.30438
     Eigenvalues ---    0.33850   0.33925   0.34072   0.34157   0.34291
     Eigenvalues ---    0.34359   0.34378   0.34400   0.38446   0.39674
     Eigenvalues ---    0.44479   0.45228   0.45946   0.47811   0.52541
     Eigenvalues ---    0.53676   0.86132
 RFO step:  Lambda=-1.33080419D-03 EMin= 2.30951952D-03
 Quartic linear search produced a step of -0.16424.
 Iteration  1 RMS(Cart)=  0.03340429 RMS(Int)=  0.00053190
 Iteration  2 RMS(Cart)=  0.00080933 RMS(Int)=  0.00012155
 Iteration  3 RMS(Cart)=  0.00000042 RMS(Int)=  0.00012155
 Variable       Old X    -DE/DX   Delta X   Delta X   Delta X     New X
                                 (Linear)    (Quad)   (Total)
    R1        2.89698  -0.00143  -0.00024  -0.00369  -0.00393   2.89305
    R2        2.06629   0.00038   0.00006   0.00082   0.00089   2.06718
    R3        2.06586   0.00054   0.00024   0.00094   0.00118   2.06704
    R4        2.06782  -0.00005   0.00010  -0.00029  -0.00019   2.06763
    R5        2.90690   0.00170   0.00303   0.00022   0.00325   2.91015
    R6        2.07484  -0.00050  -0.00004  -0.00117  -0.00121   2.07363
    R7        2.07135   0.00006   0.00073  -0.00101  -0.00028   2.07107
    R8        2.92224  -0.00155  -0.00312   0.00053  -0.00259   2.91965
    R9        2.79888  -0.00657  -0.00858  -0.00083  -0.00940   2.78948
   R10        2.74803   0.00004  -0.00189   0.00309   0.00120   2.74923
   R11        2.06552   0.00077   0.00028   0.00142   0.00170   2.06722
   R12        2.07334  -0.00129  -0.00016  -0.00288  -0.00304   2.07030
   R13        2.06530   0.00005   0.00088  -0.00128  -0.00040   2.06490
   R14        1.92040  -0.00036  -0.00055   0.00022  -0.00034   1.92007
   R15        1.92150   0.00012   0.00069  -0.00088  -0.00019   1.92132
   R16        2.54034  -0.00596   0.00348  -0.01471  -0.01123   2.52911
   R17        1.91132   0.00025  -0.00041   0.00110   0.00069   1.91201
   R18        2.34661   0.00303   0.00032   0.00244   0.00276   2.34937
   R19        2.64061   0.00879   0.00039   0.01532   0.01572   2.65633
   R20        1.82146   0.00069   0.00238  -0.00268  -0.00030   1.82116
    A1        1.91401   0.00065   0.00265   0.00001   0.00266   1.91667
    A2        1.96267  -0.00055  -0.00217   0.00058  -0.00159   1.96108
    A3        1.95131  -0.00083  -0.00033  -0.00463  -0.00496   1.94636
    A4        1.87196   0.00016  -0.00036   0.00307   0.00270   1.87466
    A5        1.86947   0.00010   0.00095  -0.00094   0.00002   1.86949
    A6        1.89041   0.00054  -0.00065   0.00216   0.00151   1.89192
    A7        2.01569   0.00036  -0.00374   0.00506   0.00132   2.01701
    A8        1.90817   0.00015  -0.00257   0.00550   0.00292   1.91109
    A9        1.89717   0.00015  -0.00097   0.00379   0.00277   1.89994
   A10        1.89670  -0.00073   0.00253  -0.01097  -0.00838   1.88833
   A11        1.87774  -0.00056   0.00730  -0.01689  -0.00957   1.86816
   A12        1.86231   0.00067  -0.00253   0.01424   0.01176   1.87407
   A13        1.94465   0.00023  -0.00266   0.01356   0.01135   1.95600
   A14        1.90311   0.00016  -0.00040  -0.00257  -0.00323   1.89988
   A15        1.83986   0.00049   0.01815  -0.02362  -0.00558   1.83427
   A16        1.97369  -0.00030  -0.00581   0.00488  -0.00079   1.97290
   A17        1.90575   0.00122   0.00298   0.00615   0.00962   1.91536
   A18        1.89127  -0.00180  -0.01177  -0.00075  -0.01250   1.87877
   A19        1.94539  -0.00094   0.00208  -0.00827  -0.00618   1.93920
   A20        1.95054  -0.00145  -0.00377  -0.00241  -0.00623   1.94431
   A21        1.91876  -0.00069   0.00612  -0.01244  -0.00632   1.91243
   A22        1.88769   0.00104  -0.00032   0.00398   0.00362   1.89131
   A23        1.87947   0.00111  -0.00304   0.01266   0.00968   1.88915
   A24        1.87933   0.00111  -0.00130   0.00782   0.00647   1.88580
   A25        1.92480  -0.00349  -0.00043  -0.02003  -0.02052   1.90428
   A26        1.89456  -0.00112  -0.00517  -0.00023  -0.00546   1.88910
   A27        1.85033   0.00144   0.00203  -0.00176   0.00012   1.85045
   A28        2.07408   0.00023   0.00269  -0.00280  -0.00015   2.07393
   A29        2.14644  -0.00265   0.00036  -0.01330  -0.01299   2.13346
   A30        2.05129   0.00245  -0.00282   0.01849   0.01563   2.06692
   A31        1.98864  -0.00133  -0.00859   0.00933   0.00074   1.98938
   A32        1.85409   0.01531   0.01174   0.03200   0.04373   1.89782
   A33        1.75916   0.00472   0.00344   0.01884   0.02228   1.78144
    D1       -3.11541  -0.00005  -0.00391  -0.00221  -0.00613  -3.12154
    D2        1.02281   0.00054  -0.00261   0.00428   0.00170   1.02451
    D3       -1.00389  -0.00042   0.00227  -0.01785  -0.01558  -1.01947
    D4        1.08659  -0.00033  -0.00383  -0.00646  -0.01031   1.07628
    D5       -1.05837   0.00027  -0.00253   0.00003  -0.00248  -1.06085
    D6       -3.08508  -0.00070   0.00235  -0.02210  -0.01976  -3.10483
    D7       -1.04454  -0.00001  -0.00119  -0.00627  -0.00748  -1.05202
    D8        3.09369   0.00058   0.00011   0.00022   0.00035   3.09403
    D9        1.06698  -0.00038   0.00499  -0.02191  -0.01693   1.05005
   D10       -1.12619   0.00059   0.01344  -0.04853  -0.03513  -1.16132
   D11        1.06449   0.00048   0.00404  -0.03459  -0.03049   1.03400
   D12        3.09184  -0.00128  -0.00033  -0.04896  -0.04931   3.04253
   D13        1.02483   0.00047   0.00938  -0.04633  -0.03696   0.98787
   D14       -3.06767   0.00035  -0.00003  -0.03239  -0.03232  -3.09999
   D15       -1.04032  -0.00140  -0.00440  -0.04676  -0.05114  -1.09146
   D16        3.03499   0.00058   0.01175  -0.04405  -0.03238   3.00262
   D17       -1.05751   0.00047   0.00234  -0.03011  -0.02774  -1.08525
   D18        0.96984  -0.00128  -0.00203  -0.04448  -0.04656   0.92328
   D19        1.15160  -0.00061  -0.01285   0.02478   0.01181   1.16341
   D20       -0.96305  -0.00028  -0.01125   0.02718   0.01580  -0.94725
   D21       -3.04888  -0.00028  -0.01117   0.02718   0.01584  -3.03304
   D22       -0.99934  -0.00077  -0.00632   0.01412   0.00793  -0.99142
   D23       -3.11399  -0.00043  -0.00472   0.01653   0.01191  -3.10207
   D24        1.08336  -0.00043  -0.00464   0.01653   0.01196   1.09532
   D25       -3.10642   0.00086   0.01000   0.00754   0.01760  -3.08881
   D26        1.06213   0.00119   0.01160   0.00995   0.02159   1.08371
   D27       -1.02371   0.00119   0.01168   0.00995   0.02164  -1.00208
   D28       -1.25368  -0.00102   0.01197  -0.06757  -0.05559  -1.30926
   D29        3.00947  -0.00019   0.01268  -0.05430  -0.04168   2.96779
   D30        0.92005  -0.00082   0.00437  -0.04842  -0.04383   0.87622
   D31       -1.09998   0.00001   0.00508  -0.03514  -0.02993  -1.12991
   D32        3.03533  -0.00073  -0.00280  -0.03801  -0.04091   2.99442
   D33        1.01529   0.00011  -0.00209  -0.02473  -0.02701   0.98828
   D34        3.07862   0.00072   0.00347   0.01265   0.01566   3.09428
   D35        0.10263   0.00024   0.00199  -0.00641  -0.00480   0.09783
   D36        0.98756  -0.00045  -0.00648   0.00670   0.00040   0.98796
   D37       -1.98842  -0.00093  -0.00796  -0.01236  -0.02007  -2.00849
   D38       -1.16914   0.00030   0.00589  -0.00270   0.00336  -1.16578
   D39        2.13806  -0.00018   0.00441  -0.02177  -0.01710   2.12095
   D40       -3.06029   0.00018  -0.00248   0.00288   0.00027  -3.06002
   D41       -0.07528   0.00016  -0.00083   0.01800   0.01729  -0.05799
   D42       -3.11723  -0.00145  -0.00267  -0.02953  -0.03220   3.13376
   D43        3.11819   0.00036  -0.00199   0.02539   0.02340   3.14159
         Item               Value     Threshold  Converged?
 Maximum Force            0.015305     0.000450     NO 
 RMS     Force            0.002278     0.000300     NO 
 Maximum Displacement     0.102805     0.001800     NO 
 RMS     Displacement     0.033492     0.001200     NO 
 Predicted change in Energy=-8.758389D-04
 GradGradGradGradGradGradGradGradGradGradGradGradGradGradGradGradGradGrad

                          Input orientation:                          
 ---------------------------------------------------------------------
 Center     Atomic      Atomic             Coordinates (Angstroms)
 Number     Number       Type             X           Y           Z
 ---------------------------------------------------------------------
      1          6           0        1.091415   -0.058497    0.233053
      2          6           0        2.604652    0.010496    0.011434
      3          6           0        3.058460    0.785481   -1.239572
      4          6           0        2.632521    0.079405   -2.546128
      5          7           0        2.565229    2.173606   -1.145813
      6          7           0        4.510183    0.826564   -1.153922
      7          7           0        5.199353    1.398766   -2.148307
      8          7           0        6.433094    1.303380   -2.028271
      9          8           0        7.043565    1.928085   -3.129624
     10          1           0        0.876101   -0.609633    1.153114
     11          1           0        0.574118   -0.570208   -0.583657
     12          1           0        0.656460    0.939096    0.346034
     13          1           0        3.012729   -1.006344   -0.048709
     14          1           0        3.067548    0.498292    0.876834
     15          1           0        1.544477    0.083273   -2.659372
     16          1           0        2.978333   -0.959871   -2.569943
     17          1           0        3.067361    0.600590   -3.402437
     18          1           0        1.568490    2.186414   -1.342578
     19          1           0        3.004040    2.717755   -1.884094
     20          1           0        5.022614    0.332668   -0.434751
     21          1           0        7.979806    1.799221   -2.940953
 ---------------------------------------------------------------------
                    Distance matrix (angstroms):
                    1          2          3          4          5
     1  C    0.000000
     2  C    1.530935   0.000000
     3  C    2.598112   1.539986   0.000000
     4  C    3.180860   2.558642   1.545010   0.000000
     5  N    3.009266   2.453532   1.476130   2.520137   0.000000
     6  N    3.794075   2.378039   1.454828   2.453996   2.365890
     7  N    4.966855   3.650239   2.405274   2.913349   2.923009
     8  N    5.958342   4.526469   3.504059   4.026245   4.061578
     9  O    7.119143   5.766050   4.556194   4.818235   4.904211
    10  H    1.093903   2.162379   3.526184   4.152611   3.985553
    11  H    1.093828   2.194179   2.905180   2.917245   3.436431
    12  H    1.094140   2.183966   2.882247   3.606729   2.719011
    13  H    2.160845   1.097318   2.151948   2.749638   3.393520
    14  H    2.151643   1.095963   2.135821   3.475828   2.673967
    15  H    2.931124   2.874451   2.191134   1.093928   2.775299
    16  H    3.497102   2.782940   2.196033   1.095558   3.466624
    17  H    4.189934   3.495258   2.170772   1.092696   2.796225
    18  H    2.783854   2.764345   2.047739   2.649563   1.016055
    19  H    3.980957   3.328932   2.037659   2.745397   1.016716
    20  H    4.006657   2.479801   2.170410   3.199156   3.151731
    21  H    7.808672   6.388146   5.304905   5.630907   5.716673
                    6          7          8          9         10
     6  N    0.000000
     7  N    1.338346   0.000000
     8  N    2.165509   1.243232   0.000000
     9  O    3.396288   2.155059   1.405670   0.000000
    10  H    4.537800   5.798582   6.682889   7.925873   0.000000
    11  H    4.215304   5.264769   6.318612   7.387636   1.763270
    12  H    4.136873   5.202972   6.256160   7.338488   1.760165
    13  H    2.612167   3.869650   4.577378   5.860934   2.483332
    14  H    2.512554   3.808795   4.518263   5.822776   2.471087
    15  H    3.407971   3.917885   5.077945   5.819315   3.932161
    16  H    2.746457   3.267089   4.165464   5.017932   4.289895
    17  H    2.681160   2.599099   3.702756   4.200817   5.198010
    18  H    3.246281   3.801678   4.991422   5.765128   3.811268
    19  H    2.525513   2.574673   3.712096   4.300312   4.982396
    20  H    1.011794   2.025852   2.339027   3.727189   4.539033
    21  H    4.022167   2.918831   1.863106   0.963717   8.545559
                   11         12         13         14         15
    11  H    0.000000
    12  H    1.774572   0.000000
    13  H    2.534405   3.081001   0.000000
    14  H    3.080896   2.507868   1.767361   0.000000
    15  H    2.382694   3.248611   3.187254   3.872562   0.000000
    16  H    3.142837   4.183312   2.521897   3.743590   1.775413
    17  H    3.941137   4.469684   3.719236   4.280493   1.771705
    18  H    3.027162   2.288889   3.735456   3.165868   2.481476
    19  H    4.290263   3.694351   4.151822   3.542988   3.109963
    20  H    4.541638   4.476682   2.445735   2.360078   4.136251
    21  H    8.124978   8.073135   6.395946   6.355957   6.666125
                   16         17         18         19         20
    16  H    0.000000
    17  H    1.770878   0.000000
    18  H    3.659671   3.000746   0.000000
    19  H    3.741120   2.606101   1.623689   0.000000
    20  H    3.226265   3.563981   4.023866   3.444398   0.000000
    21  H    5.724069   5.077578   6.618889   5.169033   4.144492
                   21
    21  H    0.000000
 Stoichiometry    C4H12N4O
 Framework group  C1[X(C4H12N4O)]
 Deg. of freedom    57
 Full point group                 C1      NOp   1
 Largest Abelian subgroup         C1      NOp   1
 Largest concise Abelian subgroup C1      NOp   1
                         Standard orientation:                         
 ---------------------------------------------------------------------
 Center     Atomic      Atomic             Coordinates (Angstroms)
 Number     Number       Type             X           Y           Z
 ---------------------------------------------------------------------
      1          6           0       -3.354926   -0.400741   -0.019842
      2          6           0       -1.918300   -0.911283   -0.158463
      3          6           0       -0.815914    0.148584    0.023158
      4          6           0       -0.831585    1.202050   -1.106895
      5          7           0       -0.942311    0.742658    1.368542
      6          7           0        0.434192   -0.594583   -0.015099
      7          7           0        1.587998    0.078910    0.064334
      8          7           0        2.598698   -0.632689   -0.068848
      9          8           0        3.740153    0.182580    0.022390
     10          1           0       -4.056987   -1.230222   -0.145121
     11          1           0       -3.602680    0.354124   -0.771678
     12          1           0       -3.535081    0.026686    0.971113
     13          1           0       -1.788125   -1.375575   -1.144159
     14          1           0       -1.744162   -1.688074    0.594800
     15          1           0       -1.739860    1.810351   -1.065843
     16          1           0       -0.776512    0.730186   -2.094092
     17          1           0        0.029767    1.865927   -1.000467
     18          1           0       -1.734050    1.379391    1.377917
     19          1           0       -0.119995    1.314779    1.542282
     20          1           0        0.467550   -1.584386   -0.222234
     21          1           0        4.453222   -0.455563   -0.091882
 ---------------------------------------------------------------------
 Rotational constants (GHZ):           4.0724465           0.7285262           0.7150487
 Standard basis: 6-31G(2df,p) (6D, 7F)
 There are   339 symmetry adapted cartesian basis functions of A   symmetry.
 There are   312 symmetry adapted basis functions of A   symmetry.
   312 basis functions,   480 primitive gaussians,   339 cartesian basis functions
    36 alpha electrons       36 beta electrons
       nuclear repulsion energy       483.5452972463 Hartrees.
 NAtoms=   21 NActive=   21 NUniq=   21 SFac= 1.00D+00 NAtFMM=   60 NAOKFM=F Big=F
 Integral buffers will be    131072 words long.
 Raffenetti 2 integral format.
 Two-electron integral symmetry is turned on.
 One-electron integrals computed using PRISM.
 PrsmSu:  requested number of processors reduced to:  13 ShMem   1 Linda.
 NBasis=   312 RedAO= T EigKep=  2.05D-04  NBF=   312
[...]
 8,0.00010213,-0.00010728,0.00002676,0.00000598,-0.00008054,-0.00004460
 ,-0.00002310,0.00007549,0.03483704,0.12367934,0.05156924,0.11296286,-0
 .22657783,0.00043813,0.00159220,-0.00358531,0.00011450,-0.00097895,0.0
 0114911,-0.00030681,0.00025717,-0.00000267,-0.00009122,0.00004535,0.00
 021870,0.00016598,0.00025003,-0.00042595,0.00008548,0.00000697,0.00020
 937,-0.00000451,-0.00003135,0.00013012,0.00012408,0.00006746,-0.000167
 22,-0.05696470,-0.12387638,0.24415806,-0.11495133,-0.05113752,-0.10189
 159,-0.01706006,-0.01351965,-0.02629815,0.00076910,-0.00014855,-0.0019
 6513,-0.00053140,0.00019635,-0.00008876,0.00008310,0.00006316,0.000473
 20,-0.00007116,-0.00006122,0.00029992,0.00017636,0.00009105,0.00015400
 ,0.00001105,0.00002435,-0.00005526,-0.00006859,-0.00005300,0.00010814,
 0.00359773,0.00369164,0.00572867,0.12735043,-0.05146952,-0.08820320,-0
 .07854473,0.00100908,0.00035806,0.00282778,-0.00042373,0.00001909,-0.0
 0112768,-0.00054064,0.00038606,-0.00021459,-0.00019659,-0.00005353,0.0
 0044913,0.00000647,-0.00000683,0.00020783,0.00002416,-0.00001409,0.000
 01249,-0.00000240,-0.00001814,0.00006626,0.00001103,0.00001378,-0.0000
 2844,0.00958082,0.00680320,0.01333702,0.05703109,0.09032895,-0.1030702
 7,-0.07878941,-0.20067188,0.00258100,0.00282733,0.00544589,-0.00011136
 ,0.00065497,0.00004152,0.00032138,0.00010611,-0.00067557,-0.00007600,-
 0.00006573,0.00010099,-0.00010166,-0.00023324,0.00018077,0.00000834,0.
 00006294,-0.00018217,-0.00000809,-0.00003700,-0.00003007,-0.00007777,-
 0.00002183,0.00009344,-0.01334520,-0.01150812,-0.02028915,0.11265047,0
 .08654712,0.21866283,-0.06763241,0.06925200,0.00935643,-0.00992097,0.0
 3317643,0.00439020,0.00070126,0.00207050,-0.00054937,-0.00008103,-0.00
 017464,0.00000072,0.00057452,-0.00036064,-0.00040807,0.00023968,-0.000
 59214,0.00013825,0.00011783,-0.00014579,-0.00009043,-0.00005198,-0.000
 04152,-0.00003716,-0.00006237,-0.00002014,0.00007338,0.00150969,-0.007
 11991,-0.00174814,0.00460504,-0.01610461,-0.00086384,0.07493296,0.0708
 5555,-0.28215009,-0.03514183,0.00120064,-0.00052000,-0.00055059,0.0003
 1034,-0.00120587,0.00079006,0.00009853,0.00016952,-0.00016039,-0.00023
 533,-0.00017096,0.00107813,0.00005600,0.00035329,-0.00038626,0.0000172
 1,-0.00001044,0.00010989,0.00002829,-0.00001089,0.00006037,0.00007398,
 0.00006797,-0.00010200,0.00419854,-0.01591648,-0.00300066,0.00289949,-
 0.01069668,-0.00036269,-0.07853101,0.30761851,0.00970288,-0.03540412,-
 0.05298496,0.00133222,-0.00464077,-0.00147771,0.00008937,-0.00152147,0
 .00014112,0.00007360,0.00020865,-0.00021646,0.00022901,0.00019251,0.00
 007089,-0.00017677,0.00025358,0.00012851,0.00000933,0.00014994,-0.0000
 9250,0.00001596,-0.00001120,-0.00007135,-0.00004272,-0.00002624,0.0000
 6385,-0.00816172,0.02623301,0.00434565,0.00803770,-0.02430494,-0.00296
 612,-0.01243997,0.03707664,0.05325551,-0.01139081,0.03282308,0.0036568
 4,-0.06508067,0.06795146,0.00418073,0.00166935,-0.00884333,-0.00131064
 ,-0.00008913,0.00032704,-0.00019777,-0.00089929,-0.00168179,0.00194828
 ,0.00026433,-0.00036384,0.00000301,0.00005758,0.00007464,-0.00004363,-
 0.00001878,0.00002406,0.00005755,0.00009739,0.00004061,-0.00011374,0.0
 0151820,-0.00037148,0.00007299,0.00136899,-0.00024544,-0.00066040,-0.0
 0671177,-0.00005560,0.00097146,0.07447215,0.00015788,0.00002090,-0.000
 15661,0.06637396,-0.28517162,-0.01832541,0.00512085,-0.01735587,-0.003
 55779,0.00025408,0.00017614,-0.00109058,-0.00242697,-0.00124153,0.0038
 2278,0.00053995,0.00152652,-0.00138783,-0.00062490,0.00031151,0.000504
 58,0.00014826,0.00012484,0.00012626,0.00011695,0.00001444,-0.00015598,
 0.00045856,0.00061628,-0.00033870,0.00043031,0.00040711,0.00016085,-0.
 00031706,0.00156274,0.00011665,-0.07384053,0.31068418,0.00165604,-0.00
 455897,-0.00090499,0.00466096,-0.02182886,-0.05130262,-0.00780773,0.02
 659418,0.00141695,-0.00041289,0.00055034,0.00093313,0.00316564,0.00280
 144,-0.00402943,-0.00085078,-0.00054201,0.00106638,-0.00010514,-0.0003
 6260,-0.00021814,-0.00009429,0.00004287,-0.00000279,-0.00008835,-0.000
 03048,0.00007691,-0.00014460,-0.00036429,0.00003402,0.00003926,0.00059
 084,0.00028368,0.00132035,0.00043134,0.00081930,-0.00840880,0.02005490
 ,0.05407789,-0.01953835,-0.01368657,-0.02677658,-0.09924780,-0.0457611
 4,-0.09319479,0.00278699,0.00306892,0.00782683,-0.00071124,-0.00069203
 ,0.00156486,-0.00003932,0.00052392,0.00003784,0.00061944,0.00011288,0.
 00213520,0.00031282,0.00029178,-0.00005184,-0.00005494,0.00008966,-0.0
 0004434,0.00007309,-0.00000073,-0.00006056,0.00133301,-0.00026966,0.00
 026485,-0.00662863,0.00075588,0.00169751,0.00149775,0.00048502,-0.0001
 6232,0.00391808,0.00308783,0.00729110,0.11569800,0.00135025,0.00086548
 ,0.00199171,-0.04670984,-0.08880585,-0.08098404,0.00669408,0.00484546,
 0.01405672,-0.00115788,-0.00140410,0.00157148,0.00037597,0.00138474,-0
 .00024740,0.00085037,0.00004918,0.00014791,0.00037283,-0.00002798,0.00
 027317,-0.00002510,0.00001723,-0.00013999,0.00003940,-0.00000186,0.000
 01909,-0.00035283,-0.00010542,-0.00007122,0.00076077,0.00115374,0.0004
 6509,-0.00016404,0.00058300,0.00062987,-0.01453992,-0.01150965,-0.0244
 0334,0.05250138,0.09128656,0.00301332,0.00223561,0.00450087,-0.0924703
 9,-0.07833543,-0.20619696,-0.01267858,-0.01250953,-0.02645323,0.003502
 90,0.00415051,-0.00315365,0.00011122,-0.00108290,0.00254157,-0.0022090
 9,-0.00058036,0.00090949,0.00039630,0.00012406,0.00070708,0.00011355,0
 .00012006,-0.00013093,-0.00010562,-0.00007875,0.00018842,-0.00051058,0
 .00011053,0.00075169,0.00171570,-0.00001917,0.00095237,-0.00048548,0.0
 0011517,0.00025224,-0.00057464,-0.00060340,-0.00155051,0.09873180,0.08
 636602,0.22764926,-0.00056747,-0.00050807,0.00058944,-0.00057036,-0.00
 038098,0.00027774,-0.01098618,0.00353049,0.00137397,-0.30785082,0.0253
 5121,-0.01519835,0.00138186,0.00008408,0.00067462,-0.00025627,-0.00137
 791,-0.00215002,0.00016557,0.00032071,-0.00078497,-0.00009652,0.000056
 26,-0.00066393,-0.00026460,-0.00019437,0.00057770,0.00028177,0.0000953
 9,0.00032911,0.00053989,0.00028129,0.00109264,0.00004910,0.00004362,0.
 00001128,-0.00001981,-0.00011549,0.00000304,0.00009711,0.00005837,-0.0
 0013698,0.33631007,0.00040264,0.00039896,0.00027427,0.00046467,0.00000
 131,0.00048468,-0.01319003,-0.00054563,0.00033211,0.02688969,-0.049719
 82,0.00104846,0.00017042,0.00096878,0.00094722,-0.00126921,-0.00015939
 ,-0.00239623,-0.00042127,-0.00003249,-0.00015526,0.00003967,0.00003545
 ,-0.00036408,-0.00005884,-0.00006207,0.00022116,-0.00003361,-0.0001206
 3,-0.00009014,-0.00035417,0.00006208,0.00018188,-0.00001942,-0.0000955
 9,-0.00016538,0.00005134,0.00007964,0.00000400,-0.00010855,-0.00003823
 ,0.00005763,-0.02814508,0.04977722,-0.00010295,-0.00030188,-0.00088692
 ,-0.00013135,0.00045302,0.00117630,-0.02764677,0.00408600,0.00005877,-
 0.01252673,-0.00029973,-0.04687299,0.00084693,0.00188956,0.00106192,-0
 .00273935,-0.00232528,-0.00606603,0.00166749,0.00103432,-0.00057778,-0
 .00041644,-0.00040466,0.00025315,-0.00023171,-0.00000165,0.00025258,0.
 00020188,0.00010215,0.00024588,0.00094904,0.00049070,-0.00110757,0.000
 09842,0.00000176,0.00001968,0.00001261,0.00001178,-0.00014840,0.000134
 18,-0.00010446,0.00022977,0.01541093,0.00047649,0.05081423,-0.00003331
 ,-0.00011220,0.00014024,0.00020345,0.00026443,0.00034166,0.00108480,-0
 .01014037,0.00123014,-0.06167678,0.06097321,0.00135515,0.00088752,-0.0
 0227998,-0.00229475,0.00046549,-0.00002644,0.00011808,-0.00032617,-0.0
 0002223,0.00021797,0.00001552,-0.00007914,0.00009904,0.00005189,0.0000
 8320,-0.00012332,0.00003372,-0.00002330,0.00005344,-0.00010272,0.00015
 774,-0.00003950,-0.00004180,-0.00009430,-0.00014093,0.00026367,0.00001
 498,0.00005307,-0.00006793,-0.00009699,0.00006976,-0.00595547,0.031395
 36,0.00073875,0.06176403,0.00014000,0.00008396,-0.00022859,0.00008428,
 -0.00018419,0.00102728,0.00466809,-0.01357633,0.00240511,0.05944999,-0
 .29538031,-0.00675790,-0.00143811,-0.00191058,-0.00462225,0.00036609,0
 .00138040,0.00052200,-0.00070779,-0.00003699,0.00034474,0.00015470,-0.
 00009493,-0.00008406,-0.00001439,0.00008594,0.00000838,0.00002490,0.00
 003709,-0.00002150,0.00009185,-0.00011675,-0.00002661,-0.00014586,0.00
 008696,0.00010907,-0.00008618,0.00089183,-0.00025640,-0.00012875,0.000
 30053,0.00007075,-0.00012378,-0.00128304,0.00039390,-0.06641252,0.3217
 3217,0.00005289,0.00013102,-0.00014712,0.00040687,-0.00071567,0.000928
 50,0.00852387,-0.02520734,0.00151117,0.00038883,-0.00409169,-0.0480839
 5,-0.00190213,-0.00617504,-0.00514402,0.00080869,0.00089243,0.00115504
 ,-0.00003073,-0.00031560,0.00000384,0.00006319,0.00002183,0.00016227,0
 .00006441,-0.00000552,-0.00010647,0.00003967,0.00003669,-0.00001041,0.
 00009436,-0.00005305,-0.00001399,-0.00016590,0.00006232,0.00011238,-0.
 00009464,0.00046840,-0.00081433,-0.00008219,0.00024413,0.00038660,0.00
 007977,0.00157750,-0.00104436,-0.00061113,0.00782226,0.04954808,-0.000
 35237,-0.00030473,-0.00003402,-0.00131598,-0.00122182,-0.00198139,0.00
 512641,0.00610627,-0.01008534,-0.09135321,-0.05114723,0.09114856,-0.00
 047344,0.00089212,0.00020226,0.00064804,0.00027324,0.00119960,-0.00220
 049,-0.00062944,-0.00215039,-0.00051898,-0.00020142,0.00067562,0.00017
 095,0.00010027,-0.00030427,0.00016576,0.00009469,0.00018605,0.00043702
 ,0.00024562,0.00011287,0.00005251,0.00003028,0.00005498,-0.00001731,-0
 .00022976,0.00013777,0.00025655,0.00009380,-0.00090775,-0.01223028,-0.
 01483422,0.02521988,0.00307177,0.00408295,-0.00744448,0.09811094,-0.00
 013637,0.00009175,-0.00007431,-0.00110998,-0.00116814,-0.00185769,0.00
 702334,0.00503529,-0.01190561,-0.05005950,-0.10312892,0.09778377,0.000
 33984,0.00188868,0.00061697,0.00032616,0.00026894,0.00124485,-0.001399
 56,-0.00093369,-0.00077608,-0.00007230,0.00040389,-0.00017936,0.000059
 69,-0.00018974,0.00002674,0.00001323,-0.00000192,-0.00001358,0.0000840
 3,-0.00009813,0.00003432,0.00000587,0.00001610,0.00002590,-0.00013574,
 0.00035942,-0.00023220,-0.00001573,0.00067108,-0.00064591,0.00201624,0
 .00108959,-0.00411922,-0.01374512,-0.01304390,0.02463480,0.05678830,0.
 10907658,-0.00070364,-0.00004298,0.00017277,-0.00320870,-0.00366023,-0
 .00307068,0.01200642,0.01461244,-0.02432554,0.08848977,0.09572251,-0.2
 1528033,-0.00043908,0.00101437,0.00271166,0.00140851,-0.00009877,0.000
 93850,0.00135533,0.00046201,-0.00017537,-0.00044981,-0.00045324,0.0013
 6934,0.00004464,0.00010315,-0.00044724,0.00013879,0.00002753,0.0000460
 8,0.00014290,0.00005006,0.00019068,0.00010741,-0.00006334,-0.00003224,
 -0.00005502,-0.00002446,0.00027554,0.00058595,0.00070220,-0.00166750,-
 0.00143934,-0.00180506,0.00248244,-0.00101289,-0.00107468,0.00158094,-
 0.09688441,-0.10430264,0.23542733,-0.00010860,-0.00055192,0.00060759,-
 0.00005521,0.00042552,-0.00005997,-0.00960393,-0.00348602,-0.00475457,
 0.00075799,-0.00161014,0.00008375,-0.41143590,0.04993917,-0.00618495,-
 0.00136038,0.00385846,0.00158700,0.00154474,0.00059016,-0.00155377,-0.
 00017671,-0.00008236,-0.00036021,-0.00027071,-0.00025065,0.00046112,-0
 .00005958,-0.00020262,0.00004335,0.00000205,-0.00014852,-0.00006013,0.
 00010553,-0.00085970,0.00076460,-0.00008167,-0.00006237,0.00003139,-0.
 00006917,0.00005981,0.00012822,0.00061295,0.00004134,0.00021885,0.0001
 1487,-0.00039241,-0.00040579,-0.00012842,0.00010311,0.00005723,0.43742
 058,-0.00017136,-0.00064022,-0.00002585,0.00039387,0.00045296,0.000389
 24,0.03757393,-0.00235749,0.00220737,0.00044115,0.00116528,0.00001134,
 0.02898198,-0.05697767,0.01685795,0.00604215,-0.00678111,-0.00127082,-
 0.00202431,-0.00114494,0.00168553,0.00098281,0.00047597,0.00039115,0.0
 0027308,0.00029478,-0.00045622,-0.00021336,0.00040736,-0.00011054,-0.0
 0023033,-0.00034530,0.00000654,-0.00059482,0.00022014,0.00099739,-0.00
 016786,0.00011103,-0.00020984,-0.00011575,-0.00005558,-0.00012653,-0.0
 0069384,-0.00047447,-0.00071619,-0.00031087,0.00033204,0.00040075,-0.0
 0008477,-0.00001944,-0.00005040,-0.04957671,0.06297893,-0.00063160,0.0
 0171039,0.00082899,-0.00073872,0.00039527,0.00005158,0.00470704,-0.007
 83924,-0.00402456,0.00031973,0.00080580,0.00019664,-0.05467408,0.02621
 403,-0.02533939,-0.00097245,0.00126113,0.00211960,0.00113035,0.0005905
 3,-0.00070142,-0.00057580,-0.00014182,-0.00063169,-0.00025935,-0.00030
 195,0.00051255,0.00020385,-0.00069804,-0.00022136,-0.00008844,-0.00045
 947,-0.00006801,0.00165680,0.00018513,-0.00144937,0.00030507,-0.000152
 04,-0.00005865,-0.00007508,0.00025614,-0.00006890,-0.00041596,-0.00066
 425,-0.00000826,-0.00025866,0.00042127,0.00027820,0.00026889,-0.000128
 75,-0.00013500,0.01619567,-0.01654146,0.02969652,-0.00025177,0.0002198
 8,0.00044195,-0.00075859,0.00309357,0.00009870,0.00471188,0.00319998,-
 0.00754705,-0.00052893,0.00067181,0.00018395,-0.10703278,-0.05370256,0
 .11085472,0.00065151,-0.00088412,-0.00032653,0.00128155,0.00050284,-0.
 00083621,-0.00190406,-0.00048098,0.00065510,0.00027268,-0.00002495,-0.
 00049853,0.00013712,-0.00025477,-0.00005302,0.00001070,-0.00001195,-0.
 00001847,0.00014161,-0.00048773,-0.00018153,0.00061382,0.00082507,-0.0
 0059427,0.00000345,-0.00018966,0.00028804,-0.00016255,-0.00028871,0.00
 005459,0.00011523,0.00041488,0.00005512,0.00049013,-0.00021405,-0.0001
 0609,-0.01768843,-0.02049188,0.03352665,0.12015346,0.00080462,0.000129
 25,-0.00049749,0.00262422,-0.00630099,-0.00232464,-0.01606011,-0.02430
 479,0.03342446,-0.00058236,0.00160274,0.00086130,-0.05550291,-0.121655
 68,0.12741204,-0.00163992,0.00167414,0.00005657,0.00008124,0.00097578,
 -0.00004589,0.00100834,0.00015372,-0.00148168,-0.00039880,-0.00029292,
 0.00084308,-0.00008557,0.00018793,0.00000308,-0.00013183,0.00000787,0.
 00000107,-0.00044554,0.00019343,0.00014588,-0.00056672,-0.00094482,0.0
 0182683,0.00018264,0.00010445,0.00000725,0.00001873,-0.00008317,-0.000
 12962,0.00040029,0.00065215,0.00007257,-0.00005509,-0.00036765,-0.0012
 6392,0.00234146,0.00270396,-0.00432188,0.06782998,0.14574997,-0.000246
 28,-0.00005889,0.00018662,-0.00032340,0.00072186,0.00104669,-0.0026563
 5,-0.00688647,-0.00231883,-0.00034272,-0.00097220,0.00161442,0.1466386
 3,0.16526798,-0.26349701,-0.00004633,-0.00041470,-0.00009696,-0.000089
 01,-0.00009336,0.00092502,-0.00038038,-0.00028709,-0.00022780,0.000076
 38,-0.00001818,-0.00017195,0.00004827,-0.00001731,0.00000664,0.0000471
 1,0.00015704,0.00001729,-0.00031981,-0.00014034,0.00003459,0.00037372,
 0.00047988,0.00006741,0.00006203,-0.00029250,0.00035370,0.00001432,-0.
 00005607,-0.00000489,0.00004770,-0.00000648,-0.00034425,0.00034205,-0.
 00011742,-0.00004928,-0.00720195,-0.00321594,-0.00118766,-0.13581784,-
 0.15461269,0.26397135,0.00006608,0.00033202,0.00070103,0.00042704,-0.0
 0040343,-0.00268607,-0.01110187,-0.01343430,-0.03083397,-0.00625226,0.
 00151534,0.00170882,0.00221830,-0.00015622,0.00071373,-0.11803124,-0.0
 4859282,-0.11011411,0.01219419,0.00532172,0.01733174,0.00297505,0.0014
 4754,0.00148542,-0.00290795,-0.00018035,0.00002240,-0.00003636,0.00002
 825,0.00002262,0.00045013,0.00004665,-0.00004704,-0.00002420,-0.000021
 99,-0.00000222,0.00007308,0.00009105,0.00014579,-0.00023788,0.00008058
 ,0.00198485,-0.00056299,-0.00075532,-0.00179568,0.00015376,-0.00003884
 ,0.00016862,0.00013327,0.00013394,0.00003700,0.00041117,0.00005522,0.0
 0028147,-0.00011344,0.00010253,-0.00017099,0.12030017,0.00002485,-0.00
 014756,0.00048587,-0.00055071,-0.00005973,-0.00053058,0.00710141,-0.00
 308710,0.00374363,-0.00146651,0.00041331,0.00000293,-0.00062218,0.0007
 0171,0.00074527,-0.06260568,-0.05036612,-0.12218699,-0.00460922,0.0041
 3555,0.02986545,0.00858737,-0.00368718,0.00276217,0.00015199,0.0010750
 7,-0.00201590,-0.00003773,-0.00001746,0.00001972,0.00027012,0.00001551
 ,-0.00000798,0.00025257,-0.00008237,-0.00006498,-0.00038259,-0.0006147
 5,-0.00012121,-0.00031251,0.00067266,0.00062234,-0.00035988,0.00019402
 ,-0.00054993,0.00007000,0.00007038,0.00021064,0.00003866,0.00003930,0.
 00018154,-0.00017459,-0.00032885,-0.00062583,0.00027410,-0.00028720,0.
 00053731,0.05484291,0.05160467,-0.00010314,0.00003000,-0.00026717,0.00
 161035,0.00055993,0.00239703,-0.00001796,-0.00328699,0.00023898,0.0004
 0885,0.00067271,0.00078121,0.00150645,0.00053625,-0.00015998,-0.119161
 79,-0.08012690,-0.31318587,-0.00065368,-0.00068854,-0.04212030,-0.0040
 8505,-0.00635941,0.00249075,-0.00139113,0.00188307,0.00175992,0.000072
 48,0.00003619,-0.00001221,-0.00005128,0.00001596,0.00003466,-0.0000425
 4,0.00000142,0.00004624,-0.00011570,0.00005968,-0.00003483,0.00012497,
 -0.00046633,-0.00019323,0.00036585,0.00010139,0.00010084,0.00001617,-0
 .00003531,0.00003760,0.00020893,-0.00001464,-0.00005934,0.00039559,-0.
 00019587,0.00020346,-0.00022813,0.00002304,-0.00033936,0.12080428,0.08
 700951,0.34818490,-0.00002316,0.00002523,-0.00003234,-0.00002350,-0.00
 003409,0.00005061,-0.00103686,-0.00050820,-0.00016437,0.00013651,-0.00
 005265,-0.00002041,0.00048770,-0.00010940,-0.00006266,0.00181491,0.001
 52054,-0.00190073,-0.00489722,-0.00467422,0.00916958,-0.01946409,-0.00
 259595,-0.01249706,-0.40483859,-0.12951993,-0.13313990,0.00003467,0.00
 001731,-0.00003008,0.00001232,-0.00000642,0.00001552,-0.00000094,-0.00
 001184,0.00001579,-0.00000739,-0.00000266,0.00000245,-0.00000104,-0.00
 000136,0.00002344,0.00008502,0.00002330,0.00003742,-0.00002154,0.00001
 088,-0.00000930,-0.00007287,-0.00000539,-0.00007496,0.00006886,-0.0000
 6832,0.00009460,-0.00014260,0.00007478,-0.00005513,-0.00013403,-0.0004
 9239,0.00033650,0.42802385,-0.00000529,-0.00002700,0.00000185,-0.00007
 398,0.00000646,0.00000056,-0.00071271,0.00009581,0.00055329,0.00009583
 ,-0.00001849,-0.00001138,0.00016515,-0.00026205,-0.00004554,-0.0007790
 5,0.00297962,-0.00037356,-0.00352697,-0.00179605,0.00527110,-0.0138302
 5,-0.01069462,-0.00825824,-0.11736171,-0.04219157,-0.02936400,0.000002
 78,0.00000433,-0.00000883,0.00000207,-0.00000278,0.00000439,0.00001976
 ,-0.00001229,0.00000002,-0.00001122,-0.00004834,0.00001345,-0.00000849
 ,0.00001454,0.00000203,0.00004301,0.00000750,0.00001293,-0.00001572,-0
 .00002644,-0.00001144,-0.00003773,0.00001090,-0.00003609,0.00003898,-0
 .00001737,0.00003504,-0.00000076,0.00010182,0.00002555,-0.00041450,-0.
 00024384,0.00024484,0.13641079,0.05211986,-0.00000819,0.00003422,-0.00
 007178,0.00025738,-0.00004224,0.00007309,-0.00025951,0.00043204,-0.000
 58377,-0.00002753,0.00001150,-0.00006180,-0.00001719,-0.00008155,-0.00
 000887,0.00273803,0.00156295,0.00015887,0.00534750,0.00410979,-0.00898
 727,0.04594381,0.01487006,0.00816530,-0.19255866,-0.05267704,-0.111957
 58,0.00003130,-0.00000107,-0.00000320,-0.00000185,-0.00000018,0.000000
 41,0.00000874,-0.00000410,0.00000076,-0.00000730,-0.00001298,0.0000134
 7,-0.00000942,-0.00001425,-0.00000814,-0.00001087,-0.00001032,0.000021
 63,0.00000001,-0.00001097,0.00000426,0.00003460,0.00000005,0.00004721,
 0.00000696,-0.00002759,0.00000673,0.00004886,0.00000064,0.00001425,0.0
 0024230,-0.00008299,0.00009671,0.13824101,0.03194403,0.11307971\\-0.00
 000269,0.00000091,0.00000152,0.00000049,-0.00000030,-0.00000091,-0.000
 01143,0.00000914,-0.00000217,-0.00000036,0.00000216,-0.00000039,0.0000
 0319,-0.00001878,-0.00000419,-0.00001112,-0.00000267,0.00001417,0.0000
 0624,0.00000227,0.00000026,0.00002563,0.00001165,-0.00000898,-0.000005
 87,-0.00000343,0.00000279,0.00000094,-0.00000065,0.00000031,0.00000054
 ,0.00000034,0.00000077,-0.00000032,0.00000047,-0.00000104,-0.00000021,
 0.00000127,-0.00000387,0.00000074,-0.00000149,0.00000137,-0.00000243,0
 .00000123,0.00000096,-0.00000159,0.00000183,-0.00000122,-0.00000198,-0
 .00000005,-0.00000019,0.00000155,0.00000164,0.00000299,-0.00000032,-0.
 00000110,0.00000404,0.00000170,-0.00000264,-0.00000805,-0.00000270,-0.
 00000176,0.00000182\\\@


 THERE ARE PEOPLE SO ADDICTED TO EXAGERATING THEY
 CAN'T TELL THE TRUTH WITHOUT LYING. -- FORTUNE COOKIE
 Job cpu time:       0 days  1 hours 55 minutes 35.8 seconds.
 Elapsed time:       0 days  0 hours 28 minutes 55.4 seconds.
 File lengths (MBytes):  RWF=    161 Int=      0 D2E=      0 Chk=      9 Scr=      1
 Normal termination of Gaussian 16 at Mon May 31 16:46:04 2021.
### All Done ###
