### Starting Gaussian ###
 Entering Gaussian System, Link 0=g16
 Initial command:
 /cluster/software/gaussian/gaussian-16-A.03/avx2/g16/l1.exe "/local/scratch/cz9n3/Gau-3775.inp" -scrdir="/local/scratch/cz9n3/"
 Entering Link 1 = /cluster/software/gaussian/gaussian-16-A.03/avx2/g16/l1.exe PID=      3776.
  
 Copyright (c) 1988,1990,1992,1993,1995,1998,2003,2009,2016,
            Gaussian, Inc.  All Rights Reserved.
  
 This is part of the Gaussian(R) 16 program.  It is based on
 the Gaussian(R) 09 system (copyright 2009, Gaussian, Inc.),
 the Gaussian(R) 03 system (copyright 2003, Gaussian, Inc.),
 the Gaussian(R) 98 system (copyright 1998, Gaussian, Inc.),
 the Gaussian(R) 94 system (copyright 1995, Gaussian, Inc.),
 the Gaussian 92(TM) system (copyright 1992, Gaussian, Inc.),
 the Gaussian 90(TM) system (copyright 1990, Gaussian, Inc.),
 the Gaussian 88(TM) system (copyright 1988, Gaussian, Inc.),
 the Gaussian 86(TM) system (copyright 1986, Carnegie Mellon
 University), and the Gaussian 82(TM) system (copyright 1983,
 Carnegie Mellon University). Gaussian is a federally registered
 trademark of Gaussian, Inc.
  
 This software contains proprietary and confidential information,
 including trade secrets, belonging to Gaussian, Inc.
  
 This software is provided under written license and may be
 used, copied, transmitted, or stored only in accord with that
 written license.
  
 The following legend is applicable only to US Government
 contracts under FAR:
  
                    RESTRICTED RIGHTS LEGEND
  
 Use, reproduction and disclosure by the US Government is
 subject to restrictions as set forth in subparagraphs (a)
 and (c) of the Commercial Computer Software - Restricted
 Rights clause in FAR 52.227-19.
  
 Gaussian, Inc.
 340 Quinnipiac St., Bldg. 40, Wallingford CT 06492
  
  
 ---------------------------------------------------------------
 Warning -- This program may not be used in any manner that
 competes with the business of Gaussian, Inc. or will provide
 assistance to any competitor of Gaussian, Inc.  The licensee
 of this program is prohibited from giving any competitor of
 Gaussian, Inc. access to this program.  By using this program,
 the user acknowledges that Gaussian, Inc. is engaged in the
 business of creating and licensing software in the field of
 computational chemistry and represents and warrants to the
 licensee that it is not a competitor of Gaussian, Inc. and that
 it will not use this program in any manner prohibited above.
 ---------------------------------------------------------------
  

 Cite this work as:
 Gaussian 16, Revision A.03,
 M. J. Frisch, G. W. Trucks, H. B. Schlegel, G. E. Scuseria, 
 M. A. Robb, J. R. Cheeseman, G. Scalmani, V. Barone, 
 G. A. Petersson, H. Nakatsuji, X. Li, M. Caricato, A. V. Marenich, 
 J. Bloino, B. G. Janesko, R. Gomperts, B. Mennucci, H. P. Hratchian, 
 J. V. Ortiz, A. F. Izmaylov, J. L. Sonnenberg, D. Williams-Young, 
 F. Ding, F. Lipparini, F. Egidi, J. Goings, B. Peng, A. Petrone, 
 T. Henderson, D. Ranasinghe, V. G. Zakrzewski, J. Gao, N. Rega, 
 G. Zheng, W. Liang, M. Hada, M. Ehara, K. Toyota, R. Fukuda, 
 J. Hasegawa, M. Ishida, T. Nakajima, Y. Honda, O. Kitao, H. Nakai, 
 T. Vreven, K. Throssell, J. A. Montgomery, Jr., J. E. Peralta, 
 F. Ogliaro, M. J. Bearpark, J. J. Heyd, E. N. Brothers, K. N. Kudin, 
 V. N. Staroverov, T. A. Keith, R. Kobayashi, J. Normand, 
 K. Raghavachari, A. P. Rendell, J. C. Burant, S. S. Iyengar, 
 J. Tomasi, M. Cossi, J. M. Millam, M. Klene, C. Adamo, R. Cammi, 
 J. W. Ochterski, R. L. Martin, K. Morokuma, O. Farkas, 
 J. B. Foresman, and D. J. Fox, Gaussian, Inc., Wallingford CT, 2016.
 
 ******************************************
 Gaussian 16:  ES64L-G16RevA.03 25-Dec-2016
                 1-Jun-2021 
 ******************************************
 %chk=CCCpdNpCpCpN.chk
 %NProcShared=20
 Will use up to   20 processors via shared memory.
 -----------------------------
 # opt freq b3lyp/6-31g(2df,p)
 -----------------------------
 1/18=20,19=15,26=3,38=1/1,3;
 2/9=110,12=2,17=6,18=5,40=1/2;
 3/5=1,6=6,7=104,11=2,25=1,30=1,71=1,74=-5/1,2,3;
 4//1;
 5/5=2,38=5/2;
 6/7=2,8=2,9=2,10=2,28=1/1;
 7//1,2,3,16;
 1/18=20,19=15,26=3/3(2);
 2/9=110/2;
 99//99;
 2/9=110/2;
 3/5=1,6=6,7=104,11=2,25=1,30=1,71=1,74=-5/1,2,3;
 4/5=5,16=3,69=1/1;
 5/5=2,38=5/2;
 7//1,2,3,16;
 1/18=20,19=15,26=3/3(-5);
 2/9=110/2;
 6/7=2,8=2,9=2,10=2,19=2,28=1/1;
 99/9=1/99;
 -------------------
 Title Card Required
 -------------------
 Symbolic Z-matrix:
 Charge =  0 Multiplicity = 1
 C                     1.02221   0.13954   0.01515 
 C                     2.53487   0.02688  -0.01426 
 C                     3.05001  -1.38028  -0.30529 
 N                     2.25591  -2.39747  -0.48281 
 C                     4.58067  -1.584    -0.3638 
 C                     5.21826  -1.27223   0.98358 
 N                     4.87692  -2.9722   -0.74341 
 H                     0.70578   1.15902   0.25039 
 H                     0.60244  -0.52657   0.77743 
 H                     0.59578  -0.13742  -0.95437 
 H                     2.92296   0.3396    0.96172 
 H                     2.94906   0.71137  -0.76329 
 H                     1.27003  -2.14094  -0.45791 
 H                     4.98339  -0.92009  -1.1359 
 H                     4.77261  -1.87263   1.78471 
 H                     5.08231  -0.21874   1.24817 
 H                     6.2961   -1.46455   0.96531 
 H                     4.35016  -3.58292  -0.11322 
 H                     5.86172  -3.18693  -0.63473 
 

 GradGradGradGradGradGradGradGradGradGradGradGradGradGradGradGradGradGrad
 Berny optimization.
 Initialization pass.
                           ----------------------------
                           !    Initial Parameters    !
                           ! (Angstroms and Degrees)  !
 --------------------------                            --------------------------
 ! Name  Definition              Value          Derivative Info.                !
 --------------------------------------------------------------------------------
 ! R1    R(1,2)                  1.5171         estimate D2E/DX2                !
 ! R2    R(1,8)                  1.0931         estimate D2E/DX2                !
 ! R3    R(1,9)                  1.0959         estimate D2E/DX2                !
 ! R4    R(1,10)                 1.0948         estimate D2E/DX2                !
 ! R5    R(2,3)                  1.5265         estimate D2E/DX2                !
 ! R6    R(2,11)                 1.0959         estimate D2E/DX2                !
 ! R7    R(2,12)                 1.096          estimate D2E/DX2                !
 ! R8    R(3,4)                  1.3026         estimate D2E/DX2                !
 ! R9    R(3,5)                  1.5453         estimate D2E/DX2                !
 ! R10   R(4,13)                 1.019          estimate D2E/DX2                !
 ! R11   R(5,6)                  1.5229         estimate D2E/DX2                !
 ! R12   R(5,7)                  1.4693         estimate D2E/DX2                !
 ! R13   R(5,14)                 1.095          estimate D2E/DX2                !
 ! R14   R(6,15)                 1.0959         estimate D2E/DX2                !
 ! R15   R(6,16)                 1.0947         estimate D2E/DX2                !
 ! R16   R(6,17)                 1.095          estimate D2E/DX2                !
 ! R17   R(7,18)                 1.0235         estimate D2E/DX2                !
 ! R18   R(7,19)                 1.0138         estimate D2E/DX2                !
 ! A1    A(2,1,8)              111.227          estimate D2E/DX2                !
 ! A2    A(2,1,9)              110.5031         estimate D2E/DX2                !
 ! A3    A(2,1,10)             110.635          estimate D2E/DX2                !
 ! A4    A(8,1,9)              107.8377         estimate D2E/DX2                !
 ! A5    A(8,1,10)             108.2873         estimate D2E/DX2                !
 ! A6    A(9,1,10)             108.2419         estimate D2E/DX2                !
 ! A7    A(1,2,3)              114.1183         estimate D2E/DX2                !
 ! A8    A(1,2,11)             108.3389         estimate D2E/DX2                !
 ! A9    A(1,2,12)             110.1013         estimate D2E/DX2                !
 ! A10   A(3,2,11)             108.2605         estimate D2E/DX2                !
 ! A11   A(3,2,12)             108.5358         estimate D2E/DX2                !
 ! A12   A(11,2,12)            107.2542         estimate D2E/DX2                !
 ! A13   A(2,3,4)              122.6904         estimate D2E/DX2                !
 ! A14   A(2,3,5)              117.5825         estimate D2E/DX2                !
 ! A15   A(4,3,5)              119.7194         estimate D2E/DX2                !
 ! A16   A(3,4,13)             112.9476         estimate D2E/DX2                !
 ! A17   A(3,5,6)              110.7461         estimate D2E/DX2                !
 ! A18   A(3,5,7)              109.5149         estimate D2E/DX2                !
 ! A19   A(3,5,14)             108.1232         estimate D2E/DX2                !
 ! A20   A(6,5,7)              109.7299         estimate D2E/DX2                !
 ! A21   A(6,5,14)             110.2269         estimate D2E/DX2                !
 ! A22   A(7,5,14)             108.4512         estimate D2E/DX2                !
 ! A23   A(5,6,15)             111.3695         estimate D2E/DX2                !
 ! A24   A(5,6,16)             111.0311         estimate D2E/DX2                !
 ! A25   A(5,6,17)             111.1855         estimate D2E/DX2                !
 ! A26   A(15,6,16)            107.4613         estimate D2E/DX2                !
 ! A27   A(15,6,17)            108.437          estimate D2E/DX2                !
 ! A28   A(16,6,17)            107.1755         estimate D2E/DX2                !
 ! A29   A(5,7,18)             107.5116         estimate D2E/DX2                !
 ! A30   A(5,7,19)             111.6093         estimate D2E/DX2                !
 ! A31   A(18,7,19)            107.9118         estimate D2E/DX2                !
 ! D1    D(8,1,2,3)            178.6434         estimate D2E/DX2                !
 ! D2    D(8,1,2,11)            57.9743         estimate D2E/DX2                !
 ! D3    D(8,1,2,12)           -59.0302         estimate D2E/DX2                !
 ! D4    D(9,1,2,3)             58.9018         estimate D2E/DX2                !
 ! D5    D(9,1,2,11)           -61.7672         estimate D2E/DX2                !
 ! D6    D(9,1,2,12)          -178.7718         estimate D2E/DX2                !
 ! D7    D(10,1,2,3)           -60.9613         estimate D2E/DX2                !
 ! D8    D(10,1,2,11)          178.3697         estimate D2E/DX2                !
 ! D9    D(10,1,2,12)           61.3651         estimate D2E/DX2                !
 ! D10   D(1,2,3,4)             -1.4343         estimate D2E/DX2                !
 ! D11   D(1,2,3,5)            179.5767         estimate D2E/DX2                !
 ! D12   D(11,2,3,4)           119.2784         estimate D2E/DX2                !
 ! D13   D(11,2,3,5)           -59.7106         estimate D2E/DX2                !
 ! D14   D(12,2,3,4)          -124.6138         estimate D2E/DX2                !
 ! D15   D(12,2,3,5)            56.3971         estimate D2E/DX2                !
 ! D16   D(2,3,4,13)             3.1926         estimate D2E/DX2                !
 ! D17   D(5,3,4,13)          -177.8392         estimate D2E/DX2                !
 ! D18   D(2,3,5,6)             62.7025         estimate D2E/DX2                !
 ! D19   D(2,3,5,7)           -176.1501         estimate D2E/DX2                !
 ! D20   D(2,3,5,14)           -58.1604         estimate D2E/DX2                !
 ! D21   D(4,3,5,6)           -116.3178         estimate D2E/DX2                !
 ! D22   D(4,3,5,7)              4.8296         estimate D2E/DX2                !
 ! D23   D(4,3,5,14)           122.8192         estimate D2E/DX2                !
 ! D24   D(3,5,6,15)            55.9708         estimate D2E/DX2                !
 ! D25   D(3,5,6,16)           -63.7421         estimate D2E/DX2                !
 ! D26   D(3,5,6,17)           177.0272         estimate D2E/DX2                !
 ! D27   D(7,5,6,15)           -65.0494         estimate D2E/DX2                !
 ! D28   D(7,5,6,16)           175.2377         estimate D2E/DX2                !
 ! D29   D(7,5,6,17)            56.007          estimate D2E/DX2                !
 ! D30   D(14,5,6,15)          175.5785         estimate D2E/DX2                !
 ! D31   D(14,5,6,16)           55.8656         estimate D2E/DX2                !
 ! D32   D(14,5,6,17)          -63.3651         estimate D2E/DX2                !
 ! D33   D(3,5,7,18)           -51.8742         estimate D2E/DX2                !
 ! D34   D(3,5,7,19)          -170.0293         estimate D2E/DX2                !
 ! D35   D(6,5,7,18)            69.8857         estimate D2E/DX2                !
 ! D36   D(6,5,7,19)           -48.2695         estimate D2E/DX2                !
 ! D37   D(14,5,7,18)         -169.659          estimate D2E/DX2                !
 ! D38   D(14,5,7,19)           72.1859         estimate D2E/DX2                !
 --------------------------------------------------------------------------------
 Trust Radius=3.00D-01 FncErr=1.00D-07 GrdErr=1.00D-06 EigMax=2.50D+02 EigMin=1.00D-04
 Number of steps in this run=     97 maximum allowed number of steps=    114.
 GradGradGradGradGradGradGradGradGradGradGradGradGradGradGradGradGradGrad

                          Input orientation:                          
 ---------------------------------------------------------------------
 Center     Atomic      Atomic             Coordinates (Angstroms)
 Number     Number       Type             X           Y           Z
 ---------------------------------------------------------------------
      1          6           0        1.022210    0.139540    0.015150
      2          6           0        2.534870    0.026880   -0.014260
      3          6           0        3.050010   -1.380280   -0.305290
      4          7           0        2.255910   -2.397470   -0.482810
      5          6           0        4.580670   -1.584000   -0.363800
      6          6           0        5.218260   -1.272230    0.983580
      7          7           0        4.876920   -2.972200   -0.743410
      8          1           0        0.705780    1.159020    0.250390
      9          1           0        0.602440   -0.526570    0.777430
     10          1           0        0.595780   -0.137420   -0.954370
     11          1           0        2.922960    0.339600    0.961720
     12          1           0        2.949060    0.711370   -0.763290
     13          1           0        1.270030   -2.140940   -0.457910
     14          1           0        4.983390   -0.920090   -1.135900
     15          1           0        4.772610   -1.872630    1.784710
     16          1           0        5.082310   -0.218740    1.248170
     17          1           0        6.296100   -1.464550    0.965310
     18          1           0        4.350160   -3.582920   -0.113220
     19          1           0        5.861720   -3.186930   -0.634730
 ---------------------------------------------------------------------
                    Distance matrix (angstroms):
                    1          2          3          4          5
     1  C    0.000000
     2  C    1.517135   0.000000
     3  C    2.554312   1.526488   0.000000
     4  N    2.864681   2.484921   1.302606   0.000000
     5  C    3.972006   2.627244   1.545265   2.465848   0.000000
     6  C    4.531864   3.143876   2.524712   3.491702   1.522877
     7  N    5.011699   3.874447   2.462470   2.695908   1.469342
     8  H    1.093071   2.167337   3.500320   3.948304   4.787083
     9  H    1.095892   2.160409   2.809217   2.796862   4.271636
    10  H    1.094769   2.161220   2.826526   2.843629   4.280270
    11  H    2.132808   1.095876   2.139963   3.165940   2.864479
    12  H    2.155391   1.095959   2.143585   3.197501   2.844375
    13  H    2.342176   2.548743   1.941707   1.019013   3.358478
    14  H    4.258953   2.854834   2.153984   3.169909   1.095033
    15  H    4.609303   3.442661   2.752791   3.427956   2.176291
    16  H    4.258300   2.853683   2.809387   3.966320   2.171181
    17  H    5.593731   4.163024   3.486922   4.392098   2.173362
    18  H    4.994841   4.041748   2.564937   2.434702   2.027710
    19  H    5.908350   4.667064   3.358307   3.694346   2.069753
                    6          7          8          9         10
     6  C    0.000000
     7  N    2.447224   0.000000
     8  H    5.177936   5.954244   0.000000
     9  H    4.680203   5.154148   1.769086   0.000000
    10  H    5.139141   5.138934   1.773218   1.774997   0.000000
    11  H    2.804795   4.206358   2.468466   2.483752   3.052002
    12  H    3.483603   4.157611   2.502048   3.068051   2.508960
    13  H    4.291977   3.712433   3.421959   2.139610   2.171446
    14  H    2.161333   2.092018   4.954033   4.796709   4.460566
    15  H    1.095853   2.758863   5.299448   4.496311   5.287667
    16  H    1.094683   3.404426   4.695509   4.515040   4.998675
    17  H    1.095016   2.684549   6.216583   5.773463   6.159553
    18  H    2.701084   1.023521   5.991637   4.917310   5.164724
    19  H    2.588251   1.013781   6.801061   6.060671   6.093587
                   11         12         13         14         15
    11  H    0.000000
    12  H    1.764810   0.000000
    13  H    3.301607   3.323864   0.000000
    14  H    3.198781   2.634198   3.967265   0.000000
    15  H    2.998746   4.061366   4.167661   3.079241   0.000000
    16  H    2.248686   3.076009   4.597721   2.487060   1.766109
    17  H    3.825316   4.350329   5.267299   2.536677   1.777348
    18  H    4.310285   4.563617   3.418379   2.921903   2.589536
    19  H    4.860183   4.867942   4.712640   2.482176   2.960952
                   16         17         18         19
    16  H    0.000000
    17  H    1.762197   0.000000
    18  H    3.702315   3.072035   0.000000
    19  H    3.600409   2.390692   1.647299   0.000000
 Stoichiometry    C5H12N2
 Framework group  C1[X(C5H12N2)]
 Deg. of freedom    51
 Full point group                 C1      NOp   1
 Largest Abelian subgroup         C1      NOp   1
 Largest concise Abelian subgroup C1      NOp   1
                         Standard orientation:                         
 ---------------------------------------------------------------------
 Center     Atomic      Atomic             Coordinates (Angstroms)
 Number     Number       Type             X           Y           Z
 ---------------------------------------------------------------------
      1          6           0        2.762111    0.142236   -0.049388
      2          6           0        1.392858    0.699185    0.292157
      3          6           0        0.248803   -0.291290    0.091494
      4          7           0        0.434565   -1.498313   -0.361686
      5          6           0       -1.181126    0.190009    0.425409
      6          6           0       -1.585505    1.347344   -0.478033
      7          7           0       -2.125355   -0.923267    0.258033
      8          1           0        3.541566    0.896120    0.088143
      9          1           0        2.793210   -0.185988   -1.094511
     10          1           0        2.998893   -0.716703    0.586753
     11          1           0        1.207078    1.571881   -0.344106
     12          1           0        1.375667    1.045348    1.331870
     13          1           0        1.417769   -1.718619   -0.513878
     14          1           0       -1.198472    0.504466    1.474177
     15          1           0       -1.499498    1.076616   -1.536430
     16          1           0       -0.946016    2.219606   -0.309086
     17          1           0       -2.616742    1.659834   -0.283197
     18          1           0       -1.973355   -1.318575   -0.673752
     19          1           0       -3.087421   -0.607825    0.309754
 ---------------------------------------------------------------------
 Rotational constants (GHZ):           4.6129007           1.6502105           1.3295550
 Standard basis: 6-31G(2df,p) (6D, 7F)
 There are   277 symmetry adapted cartesian basis functions of A   symmetry.
 There are   256 symmetry adapted basis functions of A   symmetry.
   256 basis functions,   392 primitive gaussians,   277 cartesian basis functions
    28 alpha electrons       28 beta electrons
       nuclear repulsion energy       315.4238619867 Hartrees.
 NAtoms=   19 NActive=   19 NUniq=   19 SFac= 1.00D+00 NAtFMM=   60 NAOKFM=F Big=F
 Integral buffers will be    131072 words long.
 Raffenetti 2 integral format.
 Two-electron integral symmetry is turned on.
 One-electron integrals computed using PRISM.
 PrsmSu:  requested number of processors reduced to:  13 ShMem   1 Linda.
 NBasis=   256 RedAO= T EigKep=  3.28D-04  NBF=   256
 NBsUse=   256 1.00D-06 EigRej= -1.00D+00 NBFU=   256
 ExpMin= 1.61D-01 ExpMax= 4.17D+03 ExpMxC= 6.27D+02 IAcc=3 IRadAn=         5 AccDes= 0.00D+00
 Harris functional with IExCor=  402 and IRadAn=       5 diagonalized for initial guess.
 HarFok:  IExCor=  402 AccDes= 0.00D+00 IRadAn=         5 IDoV= 1 UseB2=F ITyADJ=14
 ICtDFT=  3500011 ScaDFX=  1.000000  1.000000  1.000000  1.000000
 FoFCou: FMM=F IPFlag=           0 FMFlag=      100000 FMFlg1=           0
         NFxFlg=           0 DoJE=T BraDBF=F KetDBF=T FulRan=T
         wScrn=  0.000000 ICntrl=       500 IOpCl=  0 I1Cent=   200000004 NGrid=           0
         NMat0=    1 NMatS0=      1 NMatT0=    0 NMatD0=    1 NMtDS0=    0 NMtDT0=    0
 Petite list used in FoFCou.
 Requested convergence on RMS density matrix=1.00D-08 within 128 cycles.
 Requested convergence on MAX density matrix=1.00D-06.
 Requested convergence on             energy=1.00D-06.
 No special actions if energy rises.
 Integral accuracy reduced to 1.0D-05 until final iterations.
 Initial convergence to 1.0D-05 achieved.  Increase integral accuracy.
 SCF Done:  E(RB3LYP) =  -307.264884049     A.U. after   13 cycles
            NFock= 13  Conv=0.42D-08     -V/T= 2.0086

 **********************************************************************

            Population analysis using the SCF density.

 **********************************************************************

 Orbital symmetries:
       Occupied  (A) (A) (A) (A) (A) (A) (A) (A) (A) (A) (A) (A)
                 (A) (A) (A) (A) (A) (A) (A) (A) (A) (A) (A) (A)
                 (A) (A) (A) (A)
       Virtual   (A) (A) (A) (A) (A) (A) (A) (A) (A) (A) (A) (A)
                 (A) (A) (A) (A) (A) (A) (A) (A) (A) (A) (A) (A)
                 (A) (A) (A) (A) (A) (A) (A) (A) (A) (A) (A) (A)
                 (A) (A) (A) (A) (A) (A) (A) (A) (A) (A) (A) (A)
                 (A) (A) (A) (A) (A) (A) (A) (A) (A) (A) (A) (A)
                 (A) (A) (A) (A) (A) (A) (A) (A) (A) (A) (A) (A)
                 (A) (A) (A) (A) (A) (A) (A) (A) (A) (A) (A) (A)
                 (A) (A) (A) (A) (A) (A) (A) (A) (A) (A) (A) (A)
                 (A) (A) (A) (A) (A) (A) (A) (A) (A) (A) (A) (A)
                 (A) (A) (A) (A) (A) (A) (A) (A) (A) (A) (A) (A)
                 (A) (A) (A) (A) (A) (A) (A) (A) (A) (A) (A) (A)
                 (A) (A) (A) (A) (A) (A) (A) (A) (A) (A) (A) (A)
                 (A) (A) (A) (A) (A) (A) (A) (A) (A) (A) (A) (A)
                 (A) (A) (A) (A) (A) (A) (A) (A) (A) (A) (A) (A)
                 (A) (A) (A) (A) (A) (A) (A) (A) (A) (A) (A) (A)
                 (A) (A) (A) (A) (A) (A) (A) (A) (A) (A) (A) (A)
                 (A) (A) (A) (A) (A) (A) (A) (A) (A) (A) (A) (A)
                 (A) (A) (A) (A) (A) (A) (A) (A) (A) (A) (A) (A)
                 (A) (A) (A) (A) (A) (A) (A) (A) (A) (A) (A) (A)
 The electronic state is 1-A.
 Alpha  occ. eigenvalues --  -14.30344 -14.29193 -10.23011 -10.21521 -10.19424
 Alpha  occ. eigenvalues --  -10.18452 -10.17776  -0.90061  -0.85652  -0.77029
 Alpha  occ. eigenvalues --   -0.73337  -0.66227  -0.61247  -0.53661  -0.48354
 Alpha  occ. eigenvalues --   -0.46800  -0.45904  -0.44221  -0.41884  -0.40084
 Alpha  occ. eigenvalues --   -0.38995  -0.37018  -0.36427  -0.35217  -0.33873
 Alpha  occ. eigenvalues --   -0.28890  -0.24796  -0.22012
 Alpha virt. eigenvalues --    0.00537   0.07691   0.10165   0.11502   0.13040
 Alpha virt. eigenvalues --    0.14724   0.15319   0.15661   0.16100   0.17493
 Alpha virt. eigenvalues --    0.18842   0.19401   0.20457   0.21998   0.23976
 Alpha virt. eigenvalues --    0.24455   0.26794   0.29983   0.39486   0.43332
 Alpha virt. eigenvalues --    0.46721   0.48585   0.49804   0.51516   0.51923
 Alpha virt. eigenvalues --    0.54541   0.55303   0.55640   0.57288   0.59020
 Alpha virt. eigenvalues --    0.60214   0.61210   0.65902   0.68271   0.70623
 Alpha virt. eigenvalues --    0.70785   0.71683   0.72595   0.72808   0.74010
 Alpha virt. eigenvalues --    0.74954   0.75926   0.76481   0.76799   0.78830
 Alpha virt. eigenvalues --    0.79664   0.81751   0.82707   0.83166   0.85133
 Alpha virt. eigenvalues --    0.86541   0.87476   0.90523   0.92950   0.93646
 Alpha virt. eigenvalues --    0.94847   1.01307   1.04240   1.11160   1.15414
 Alpha virt. eigenvalues --    1.15981   1.17451   1.21065   1.23173   1.27590
 Alpha virt. eigenvalues --    1.29105   1.29819   1.33204   1.38670   1.39227
 Alpha virt. eigenvalues --    1.44925   1.45190   1.48558   1.51502   1.52957
 Alpha virt. eigenvalues --    1.54079   1.55860   1.56729   1.61880   1.63696
 Alpha virt. eigenvalues --    1.65196   1.71562   1.72140   1.76359   1.81256
 Alpha virt. eigenvalues --    1.84437   1.86270   1.89520   1.90783   1.93520
 Alpha virt. eigenvalues --    1.94660   1.97698   2.00859   2.05599   2.07625
 Alpha virt. eigenvalues --    2.15097   2.17428   2.21910   2.23526   2.24898
 Alpha virt. eigenvalues --    2.27934   2.31528   2.36543   2.38804   2.38961
 Alpha virt. eigenvalues --    2.43939   2.48205   2.52002   2.54839   2.57774
 Alpha virt. eigenvalues --    2.60192   2.64400   2.71545   2.72167   2.75803
 Alpha virt. eigenvalues --    2.76569   2.78486   2.79934   2.82797   2.85592
 Alpha virt. eigenvalues --    2.85697   2.87837   2.90901   2.91588   2.92806
 Alpha virt. eigenvalues --    2.93689   2.94892   2.98492   3.00176   3.02982
 Alpha virt. eigenvalues --    3.04549   3.07661   3.10159   3.13818   3.17092
 Alpha virt. eigenvalues --    3.18042   3.23752   3.26605   3.30175   3.33494
 Alpha virt. eigenvalues --    3.34840   3.35855   3.39975   3.45571   3.47088
 Alpha virt. eigenvalues --    3.52096   3.57220   3.58356   3.60282   3.62369
 Alpha virt. eigenvalues --    3.64069   3.66993   3.70892   3.71891   3.77694
 Alpha virt. eigenvalues --    3.79953   3.81926   3.88131   3.90388   3.91259
 Alpha virt. eigenvalues --    3.95946   3.97643   4.00077   4.02660   4.04606
 Alpha virt. eigenvalues --    4.08964   4.12098   4.14983   4.18634   4.23061
 Alpha virt. eigenvalues --    4.28729   4.32922   4.35763   4.37165   4.38133
 Alpha virt. eigenvalues --    4.39526   4.39694   4.43400   4.47832   4.48171
 Alpha virt. eigenvalues --    4.49128   4.51561   4.53235   4.54457   4.57242
 Alpha virt. eigenvalues --    4.60136   4.60569   4.64628   4.66695   4.68583
 Alpha virt. eigenvalues --    4.69965   4.70554   4.72391   4.73965   4.77095
 Alpha virt. eigenvalues --    4.79544   4.80286   4.80886   4.83378   4.85800
 Alpha virt. eigenvalues --    4.88427   4.90246   4.92878   4.95861   4.96753
 Alpha virt. eigenvalues --    4.98312   5.03346   5.10379   5.25079   5.29642
 Alpha virt. eigenvalues --    5.33540   5.37853   5.38855   5.48306   5.56574
 Alpha virt. eigenvalues --    5.65645   5.68833   5.74080   5.98555   9.89376
 Alpha virt. eigenvalues --   10.80337  11.09521  11.42539  11.51562  11.69488
 Alpha virt. eigenvalues --   12.02983  12.53265  13.52025
          Condensed to atoms (all electrons):
               1          2          3          4          5          6
     1  C    4.970293   0.396252  -0.020072  -0.011411   0.002532   0.000345
     2  C    0.396252   5.037098   0.400617  -0.097012  -0.102955   0.005472
     3  C   -0.020072   0.400617   4.462423   0.735653   0.327976  -0.036618
     4  N   -0.011411  -0.097012   0.735653   6.501457  -0.017768  -0.002948
     5  C    0.002532  -0.102955   0.327976  -0.017768   4.861652   0.388085
     6  C    0.000345   0.005472  -0.036618  -0.002948   0.388085   5.090638
     7  N   -0.000066   0.002706  -0.025344  -0.005585   0.398118  -0.068634
     8  H    0.370647  -0.021125   0.002496   0.000866  -0.000077   0.000002
     9  H    0.377136  -0.027536  -0.004177   0.001783   0.000159  -0.000028
    10  H    0.377916  -0.027690  -0.003414   0.001177   0.000034   0.000002
    11  H   -0.035185   0.354454  -0.020096   0.001916  -0.001357  -0.000890
    12  H   -0.035552   0.355122  -0.023698   0.002332   0.001349  -0.000818
    13  H    0.009481  -0.028457  -0.085558   0.341003   0.010613  -0.000231
    14  H   -0.000030  -0.003136  -0.029084   0.000192   0.355965  -0.057078
    15  H   -0.000054   0.000059  -0.004256   0.001109  -0.025969   0.369258
    16  H   -0.000078  -0.000665  -0.002718   0.000068  -0.018838   0.333850
    17  H   -0.000003  -0.000138   0.003265   0.000024  -0.022370   0.369920
    18  H   -0.000013   0.000829  -0.000815   0.013445  -0.068250  -0.002162
    19  H    0.000001  -0.000142   0.005508   0.000328  -0.057700  -0.004429
               7          8          9         10         11         12
     1  C   -0.000066   0.370647   0.377136   0.377916  -0.035185  -0.035552
     2  C    0.002706  -0.021125  -0.027536  -0.027690   0.354454   0.355122
     3  C   -0.025344   0.002496  -0.004177  -0.003414  -0.020096  -0.023698
     4  N   -0.005585   0.000866   0.001783   0.001177   0.001916   0.002332
     5  C    0.398118  -0.000077   0.000159   0.000034  -0.001357   0.001349
     6  C   -0.068634   0.000002  -0.000028   0.000002  -0.000890  -0.000818
     7  N    6.530822   0.000000   0.000001  -0.000001   0.000060   0.000031
     8  H    0.000000   0.593409  -0.029275  -0.029052  -0.002225  -0.001798
     9  H    0.000001  -0.029275   0.586495  -0.037101  -0.005218   0.005704
    10  H   -0.000001  -0.029052  -0.037101   0.584193   0.005614  -0.004875
    11  H    0.000060  -0.002225  -0.005218   0.005614   0.612361  -0.036366
    12  H    0.000031  -0.001798   0.005704  -0.004875  -0.036366   0.619084
    13  H    0.000064  -0.000350   0.004694   0.004537   0.000485   0.000540
    14  H   -0.023112  -0.000001   0.000010  -0.000009   0.000215   0.003136
    15  H   -0.000133  -0.000000   0.000011  -0.000000   0.000626   0.000088
    16  H    0.006805  -0.000000   0.000008   0.000002   0.004658   0.000569
    17  H   -0.003202  -0.000000  -0.000000   0.000000  -0.000078  -0.000017
    18  H    0.342560  -0.000000  -0.000001  -0.000001  -0.000031   0.000001
    19  H    0.341675  -0.000000   0.000000   0.000000   0.000003  -0.000001
              13         14         15         16         17         18
     1  C    0.009481  -0.000030  -0.000054  -0.000078  -0.000003  -0.000013
     2  C   -0.028457  -0.003136   0.000059  -0.000665  -0.000138   0.000829
     3  C   -0.085558  -0.029084  -0.004256  -0.002718   0.003265  -0.000815
     4  N    0.341003   0.000192   0.001109   0.000068   0.000024   0.013445
     5  C    0.010613   0.355965  -0.025969  -0.018838  -0.022370  -0.068250
     6  C   -0.000231  -0.057078   0.369258   0.333850   0.369920  -0.002162
     7  N    0.000064  -0.023112  -0.000133   0.006805  -0.003202   0.342560
     8  H   -0.000350  -0.000001  -0.000000  -0.000000  -0.000000  -0.000000
     9  H    0.004694   0.000010   0.000011   0.000008  -0.000000  -0.000001
    10  H    0.004537  -0.000009  -0.000000   0.000002   0.000000  -0.000001
    11  H    0.000485   0.000215   0.000626   0.004658  -0.000078  -0.000031
    12  H    0.000540   0.003136   0.000088   0.000569  -0.000017   0.000001
    13  H    0.524236  -0.000249  -0.000060  -0.000006   0.000007  -0.000806
    14  H   -0.000249   0.652440   0.005885  -0.000322  -0.002563   0.006943
    15  H   -0.000060   0.005885   0.590724  -0.029820  -0.031568   0.004569
    16  H   -0.000006  -0.000322  -0.029820   0.628731  -0.028211   0.000027
    17  H    0.000007  -0.002563  -0.031568  -0.028211   0.598210  -0.000127
    18  H   -0.000806   0.006943   0.004569   0.000027  -0.000127   0.499128
    19  H    0.000002  -0.001033   0.000205   0.000157   0.005071  -0.028254
              19
     1  C    0.000001
     2  C   -0.000142
     3  C    0.005508
     4  N    0.000328
     5  C   -0.057700
     6  C   -0.004429
     7  N    0.341675
     8  H   -0.000000
     9  H    0.000000
    10  H    0.000000
    11  H    0.000003
    12  H   -0.000001
    13  H    0.000002
    14  H   -0.001033
    15  H    0.000205
    16  H    0.000157
    17  H    0.005071
    18  H   -0.028254
    19  H    0.522748
 Mulliken charges:
               1
     1  C   -0.402142
     2  C   -0.243753
     3  C    0.317911
     4  N   -0.466627
     5  C   -0.031198
     6  C   -0.383734
     7  N   -0.496764
     8  H    0.116484
     9  H    0.127336
    10  H    0.128668
    11  H    0.121054
    12  H    0.115170
    13  H    0.220053
    14  H    0.091832
    15  H    0.119327
    16  H    0.105782
    17  H    0.111781
    18  H    0.232957
    19  H    0.215861
 Sum of Mulliken charges =  -0.00000
 Mulliken charges with hydrogens summed into heavy atoms:
               1
     1  C   -0.029654
     2  C   -0.007529
     3  C    0.317911
     4  N   -0.246573
     5  C    0.060634
     6  C   -0.046843
     7  N   -0.047946
 Electronic spatial extent (au):  <R**2>=            965.0416
 Charge=             -0.0000 electrons
 Dipole moment (field-independent basis, Debye):
    X=              0.8372    Y=              2.6310    Z=             -0.3393  Tot=              2.7817
 Quadrupole moment (field-independent basis, Debye-Ang):
   XX=            -39.1189   YY=            -49.4800   ZZ=            -44.4424
   XY=             -2.6763   XZ=              1.3136   YZ=              1.6851
 Traceless Quadrupole moment (field-independent basis, Debye-Ang):
   XX=              5.2282   YY=             -5.1329   ZZ=             -0.0953
   XY=             -2.6763   XZ=              1.3136   YZ=              1.6851
 Octapole moment (field-independent basis, Debye-Ang**2):
  XXX=            -13.7314  YYY=              4.9873  ZZZ=             -0.0231  XYY=              6.4978
  XXY=             -1.0404  XXZ=             -2.9321  XZZ=             -0.2096  YZZ=              0.0369
  YYZ=             -1.9236  XYZ=             -3.6335
 Hexadecapole moment (field-independent basis, Debye-Ang**3):
 XXXX=           -808.3062 YYYY=           -327.3326 ZZZZ=           -101.9706 XXXY=              1.5429
 XXXZ=              1.4682 YYYX=             -6.5397 YYYZ=              4.3637 ZZZX=              0.1094
 ZZZY=              3.5948 XXYY=           -193.5787 XXZZ=           -162.1597 YYZZ=            -71.2951
 XXYZ=             11.0458 YYXZ=              4.0838 ZZXY=             -0.7501
 N-N= 3.154238619867D+02 E-N=-1.343745087484D+03  KE= 3.046414238562D+02
 PrsmSu:  requested number of processors reduced to:  13 ShMem   1 Linda.
 Calling FoFJK, ICntrl=      2127 FMM=F ISym2X=0 I1Cent= 0 IOpClX= 0 NMat=1 NMatS=1 NMatT=0.
 ***** Axes restored to original set *****
 -------------------------------------------------------------------
 Center     Atomic                   Forces (Hartrees/Bohr)
 Number     Number              X              Y              Z
 -------------------------------------------------------------------
      1        6          -0.004615850   -0.000965802   -0.000861995
      2        6           0.006051897   -0.003582328   -0.000171738
      3        6          -0.026727111   -0.024349689   -0.006176833
      4        7           0.034193862    0.019786536    0.002175365
      5        6          -0.008573626   -0.021852714    0.003443329
      6        6           0.001100393    0.015616569    0.008302161
      7        7          -0.010633533   -0.002734005   -0.004610354
      8        1           0.000324002    0.000246547   -0.000471068
      9        1          -0.001358815    0.001399056   -0.000553320
     10        1          -0.002175442    0.001068642    0.000456202
     11        1           0.003468784    0.002104993   -0.001021893
     12        1           0.002333462    0.002116473    0.001112281
     13        1           0.001339641    0.003483979    0.003408895
     14        1           0.000165864    0.002549157   -0.000721082
     15        1           0.000189034   -0.001322120   -0.001686892
     16        1           0.001853601    0.001725948    0.003188216
     17        1          -0.000766278   -0.000574527   -0.001148851
     18        1           0.002993339    0.001967170   -0.007212966
     19        1           0.000836775    0.003316116    0.002550545
 -------------------------------------------------------------------
 Cartesian Forces:  Max     0.034193862 RMS     0.008563901

 GradGradGradGradGradGradGradGradGradGradGradGradGradGradGradGradGradGrad
 Berny optimization.
 FormGI is forming the generalized inverse of G from B-inverse, IUseBI=4.
 Internal  Forces:  Max     0.040594559 RMS     0.006049903
 Search for a local minimum.
 Step number   1 out of a maximum of   97
 All quantities printed in internal units (Hartrees-Bohrs-Radians)
 Mixed Optimization -- RFO/linear search
 Second derivative matrix not updated -- first step.
 ITU=  0
     Eigenvalues ---    0.00230   0.00416   0.00463   0.00539   0.00729
     Eigenvalues ---    0.00775   0.02980   0.03986   0.04330   0.04693
     Eigenvalues ---    0.05082   0.05437   0.05507   0.05598   0.05641
     Eigenvalues ---    0.05714   0.06402   0.09560   0.12975   0.16000
     Eigenvalues ---    0.16000   0.16000   0.16000   0.16000   0.16000
     Eigenvalues ---    0.16000   0.16000   0.16000   0.17191   0.18102
     Eigenvalues ---    0.21998   0.24996   0.24999   0.28058   0.29750
     Eigenvalues ---    0.30091   0.30644   0.34133   0.34140   0.34142
     Eigenvalues ---    0.34145   0.34237   0.34239   0.34267   0.34277
     Eigenvalues ---    0.34460   0.35819   0.43781   0.44496   0.45345
     Eigenvalues ---    0.66474
 RFO step:  Lambda=-1.19001124D-02 EMin= 2.30000000D-03
 Linear search not attempted -- first point.
 Iteration  1 RMS(Cart)=  0.09214636 RMS(Int)=  0.00323895
 Iteration  2 RMS(Cart)=  0.00444681 RMS(Int)=  0.00038505
 Iteration  3 RMS(Cart)=  0.00000710 RMS(Int)=  0.00038502
 Iteration  4 RMS(Cart)=  0.00000000 RMS(Int)=  0.00038502
 Variable       Old X    -DE/DX   Delta X   Delta X   Delta X     New X
                                 (Linear)    (Quad)   (Total)
    R1        2.86697   0.00791   0.00000   0.02483   0.02483   2.89180
    R2        2.06561   0.00003   0.00000   0.00010   0.00010   2.06570
    R3        2.07094  -0.00071   0.00000  -0.00202  -0.00202   2.06891
    R4        2.06881   0.00017   0.00000   0.00049   0.00049   2.06930
    R5        2.88465   0.00055   0.00000   0.00178   0.00178   2.88643
    R6        2.07091   0.00092   0.00000   0.00260   0.00260   2.07351
    R7        2.07106   0.00144   0.00000   0.00409   0.00409   2.07515
    R8        2.46157  -0.04059   0.00000  -0.05999  -0.05999   2.40158
    R9        2.92013  -0.01262   0.00000  -0.04315  -0.04315   2.87698
   R10        1.92566  -0.00034   0.00000  -0.00074  -0.00074   1.92492
   R11        2.87782   0.01182   0.00000   0.03777   0.03777   2.91559
   R12        2.77665  -0.00139   0.00000  -0.00374  -0.00374   2.77291
   R13        2.06931   0.00212   0.00000   0.00597   0.00597   2.07528
   R14        2.07086  -0.00059   0.00000  -0.00166  -0.00166   2.06920
   R15        2.06865   0.00220   0.00000   0.00621   0.00621   2.07486
   R16        2.06928  -0.00063   0.00000  -0.00179  -0.00179   2.06749
   R17        1.93417  -0.00716   0.00000  -0.01591  -0.01591   1.91826
   R18        1.91577   0.00038   0.00000   0.00083   0.00083   1.91659
    A1        1.94128  -0.00181   0.00000  -0.01417  -0.01408   1.92719
    A2        1.92864   0.00241   0.00000   0.01622   0.01607   1.94472
    A3        1.93095   0.00317   0.00000   0.01983   0.01969   1.95063
    A4        1.88212  -0.00072   0.00000  -0.00691  -0.00684   1.87528
    A5        1.88997  -0.00135   0.00000  -0.01211  -0.01202   1.87795
    A6        1.88918  -0.00187   0.00000  -0.00382  -0.00415   1.88502
    A7        1.99174   0.00602   0.00000   0.03321   0.03290   2.02464
    A8        1.89087   0.00079   0.00000   0.01732   0.01705   1.90792
    A9        1.92163  -0.00140   0.00000  -0.00560  -0.00548   1.91615
   A10        1.88950  -0.00241   0.00000  -0.00556  -0.00627   1.88324
   A11        1.89431  -0.00199   0.00000  -0.01072  -0.01079   1.88352
   A12        1.87194  -0.00144   0.00000  -0.03272  -0.03278   1.83916
   A13        2.14135   0.01630   0.00000   0.06220   0.06218   2.20353
   A14        2.05220  -0.00734   0.00000  -0.02808  -0.02809   2.02411
   A15        2.08950  -0.00896   0.00000  -0.03428  -0.03429   2.05521
   A16        1.97131  -0.00809   0.00000  -0.04709  -0.04709   1.92422
   A17        1.93288  -0.00397   0.00000  -0.00542  -0.00735   1.92554
   A18        1.91140  -0.00329   0.00000   0.00255   0.00094   1.91234
   A19        1.88711   0.00167   0.00000  -0.02454  -0.02522   1.86188
   A20        1.91515   0.01264   0.00000   0.08885   0.08873   2.00388
   A21        1.92382  -0.00355   0.00000  -0.03482  -0.03464   1.88918
   A22        1.89283  -0.00372   0.00000  -0.02887  -0.02820   1.86463
   A23        1.94376  -0.00287   0.00000  -0.01883  -0.01909   1.92467
   A24        1.93786   0.00608   0.00000   0.04193   0.04203   1.97989
   A25        1.94055  -0.00267   0.00000  -0.01999  -0.02019   1.92036
   A26        1.87555  -0.00054   0.00000   0.00524   0.00528   1.88084
   A27        1.89258   0.00127   0.00000  -0.00477  -0.00533   1.88725
   A28        1.87056  -0.00122   0.00000  -0.00305  -0.00289   1.86767
   A29        1.87643   0.00595   0.00000   0.03555   0.03576   1.91219
   A30        1.94795  -0.00744   0.00000  -0.04240  -0.04218   1.90577
   A31        1.88342   0.00068   0.00000   0.00584   0.00628   1.88970
    D1        3.11792   0.00042   0.00000   0.01267   0.01283   3.13075
    D2        1.01184  -0.00099   0.00000  -0.01428  -0.01448   0.99736
    D3       -1.03027   0.00107   0.00000   0.01816   0.01821  -1.01206
    D4        1.02803   0.00092   0.00000   0.01988   0.02014   1.04817
    D5       -1.07804  -0.00049   0.00000  -0.00707  -0.00717  -1.08521
    D6       -3.12016   0.00157   0.00000   0.02537   0.02552  -3.09464
    D7       -1.06397  -0.00036   0.00000   0.00128   0.00133  -1.06264
    D8        3.11314  -0.00177   0.00000  -0.02566  -0.02598   3.08716
    D9        1.07102   0.00028   0.00000   0.00677   0.00671   1.07773
   D10       -0.02503  -0.00118   0.00000  -0.03118  -0.03132  -0.05635
   D11        3.13420  -0.00086   0.00000  -0.02021  -0.02007   3.11413
   D12        2.08180   0.00201   0.00000   0.00847   0.00822   2.09003
   D13       -1.04215   0.00233   0.00000   0.01944   0.01947  -1.02267
   D14       -2.17492  -0.00204   0.00000  -0.03886  -0.03888  -2.21381
   D15        0.98432  -0.00172   0.00000  -0.02788  -0.02764   0.95668
   D16        0.05572  -0.00232   0.00000  -0.05371  -0.05359   0.00213
   D17       -3.10388  -0.00262   0.00000  -0.06482  -0.06494   3.11437
   D18        1.09437  -0.00422   0.00000   0.03653   0.03716   1.13153
   D19       -3.07440   0.00684   0.00000   0.14559   0.14537  -2.92903
   D20       -1.01509   0.00150   0.00000   0.09828   0.09845  -0.91664
   D21       -2.03013  -0.00417   0.00000   0.04615   0.04639  -1.98374
   D22        0.08429   0.00688   0.00000   0.15520   0.15460   0.23889
   D23        2.14360   0.00154   0.00000   0.10789   0.10768   2.25128
   D24        0.97688   0.00279   0.00000   0.06291   0.06291   1.03978
   D25       -1.11251   0.00131   0.00000   0.04074   0.04087  -1.07164
   D26        3.08971   0.00059   0.00000   0.03007   0.03042   3.12013
   D27       -1.13533   0.00116   0.00000   0.00480   0.00415  -1.13117
   D28        3.05848  -0.00033   0.00000  -0.01737  -0.01789   3.04059
   D29        0.97751  -0.00104   0.00000  -0.02804  -0.02833   0.94917
   D30        3.06442   0.00005   0.00000   0.00642   0.00658   3.07100
   D31        0.97504  -0.00143   0.00000  -0.01575  -0.01546   0.95958
   D32       -1.10593  -0.00215   0.00000  -0.02642  -0.02590  -1.13183
   D33       -0.90538   0.00021   0.00000   0.02573   0.02509  -0.88028
   D34       -2.96757  -0.00006   0.00000   0.02080   0.02041  -2.94716
   D35        1.21974   0.00126   0.00000   0.07740   0.07789   1.29762
   D36       -0.84246   0.00098   0.00000   0.07248   0.07320  -0.76926
   D37       -2.96111   0.00220   0.00000   0.07041   0.07020  -2.89091
   D38        1.25988   0.00193   0.00000   0.06549   0.06551   1.32539
         Item               Value     Threshold  Converged?
 Maximum Force            0.040595     0.000450     NO 
 RMS     Force            0.006050     0.000300     NO 
 Maximum Displacement     0.381998     0.001800     NO 
 RMS     Displacement     0.092159     0.001200     NO 
 Predicted change in Energy=-6.841354D-03
 GradGradGradGradGradGradGradGradGradGradGradGradGradGradGradGradGradGrad

                          Input orientation:                          
 ---------------------------------------------------------------------
 Center     Atomic      Atomic             Coordinates (Angstroms)
 Number     Number       Type             X           Y           Z
 ---------------------------------------------------------------------
      1          6           0        1.022886    0.176461   -0.013734
      2          6           0        2.542122   -0.005500   -0.037401
      3          6           0        3.042429   -1.430111   -0.268113
      4          7           0        2.321601   -2.470504   -0.382443
      5          6           0        4.553634   -1.604455   -0.328644
      6          6           0        5.187760   -1.261219    1.035359
      7          7           0        4.873963   -2.943045   -0.837286
      8          1           0        0.766969    1.223628    0.167551
      9          1           0        0.561426   -0.416768    0.782362
     10          1           0        0.564006   -0.116830   -0.963731
     11          1           0        2.965189    0.351254    0.910071
     12          1           0        2.981390    0.636505   -0.812478
     13          1           0        1.335874   -2.227244   -0.300216
     14          1           0        4.924418   -0.885015   -1.070906
     15          1           0        4.785046   -1.914697    1.816230
     16          1           0        5.017385   -0.222331    1.347158
     17          1           0        6.270958   -1.409068    0.992828
     18          1           0        4.350934   -3.639082   -0.315365
     19          1           0        5.863202   -3.122538   -0.703771
 ---------------------------------------------------------------------
                    Distance matrix (angstroms):
                    1          2          3          4          5
     1  C    0.000000
     2  C    1.530277   0.000000
     3  C    2.593132   1.527432   0.000000
     4  N    2.971368   2.498785   1.270859   0.000000
     5  C    3.966990   2.586051   1.522433   2.394767   0.000000
     6  C    4.529204   3.118821   2.515951   3.418684   1.542864
     7  N    5.023977   3.834901   2.442836   2.635286   1.467362
     8  H    1.093123   2.168854   3.522761   4.045489   4.752167
     9  H    1.094822   2.182730   2.878495   2.944965   4.310761
    10  H    1.095027   2.187104   2.889839   2.994465   4.305055
    11  H    2.157894   1.097252   2.137134   3.169719   2.807556
    12  H    2.164571   1.098121   2.137980   3.205270   2.779919
    13  H    2.440867   2.541702   1.883821   1.018624   3.277599
    14  H    4.179269   2.741717   2.117425   3.124486   1.098193
    15  H    4.677132   3.480186   2.759714   3.348380   2.179515
    16  H    4.238760   2.844459   2.822815   3.913190   2.221181
    17  H    5.573986   4.115288   3.466095   4.314561   2.175698
    18  H    5.072007   4.068413   2.567874   2.342705   2.044742
    19  H    5.898153   4.603211   3.318264   3.615431   2.039673
                    6          7          8          9         10
     6  C    0.000000
     7  N    2.536495   0.000000
     8  H    5.144992   5.936182   0.000000
     9  H    4.709572   5.253885   1.763843   0.000000
    10  H    5.165761   5.155503   1.765735   1.771669   0.000000
    11  H    2.748743   4.189162   2.478818   2.526706   3.081544
    12  H    3.447307   4.049151   2.491752   3.083686   2.536560
    13  H    4.189748   3.649506   3.528594   2.247124   2.343050
    14  H    2.155744   2.071862   4.823331   4.763355   4.428858
    15  H    1.094975   2.847201   5.358374   4.599091   5.364485
    16  H    1.097968   3.492084   4.642015   4.495817   5.018359
    17  H    1.094069   2.766585   6.156789   5.798940   6.169871
    18  H    2.859889   1.015100   6.060030   5.093985   5.212242
    19  H    2.635395   1.014218   6.754254   6.135032   6.097815
                   11         12         13         14         15
    11  H    0.000000
    12  H    1.746082   0.000000
    13  H    3.281481   3.342333   0.000000
    14  H    3.048148   2.481363   3.908093   0.000000
    15  H    3.044264   4.083126   4.058795   3.068423   0.000000
    16  H    2.175214   3.089806   4.504114   2.508949   1.771473
    17  H    3.746157   4.273728   5.166858   2.519285   1.772452
    18  H    4.398269   4.517014   3.329280   2.912836   2.775906
    19  H    4.803145   4.737833   4.632614   2.454102   2.995281
                   16         17         18         19
    16  H    0.000000
    17  H    1.762197   0.000000
    18  H    3.857762   3.220376   0.000000
    19  H    3.651427   2.445546   1.644576   0.000000
 Stoichiometry    C5H12N2
 Framework group  C1[X(C5H12N2)]
 Deg. of freedom    51
 Full point group                 C1      NOp   1
 Largest Abelian subgroup         C1      NOp   1
 Largest concise Abelian subgroup C1      NOp   1
                         Standard orientation:                         
 ---------------------------------------------------------------------
 Center     Atomic      Atomic             Coordinates (Angstroms)
 Number     Number       Type             X           Y           Z
 ---------------------------------------------------------------------
      1          6           0        2.788394    0.114397    0.000427
      2          6           0        1.387766    0.645241    0.313783
      3          6           0        0.231579   -0.315839    0.044328
      4          7           0        0.322567   -1.477366   -0.463273
      5          6           0       -1.158386    0.199398    0.391213
      6          6           0       -1.525115    1.398658   -0.507518
      7          7           0       -2.116807   -0.911206    0.357487
      8          1           0        3.542009    0.876492    0.215354
      9          1           0        2.886629   -0.155604   -1.056022
     10          1           0        3.031056   -0.769438    0.599623
     11          1           0        1.208212    1.559676   -0.265469
     12          1           0        1.333520    0.952204    1.366732
     13          1           0        1.295250   -1.695227   -0.673081
     14          1           0       -1.114170    0.549902    1.431030
     15          1           0       -1.508157    1.102186   -1.561457
     16          1           0       -0.848916    2.255631   -0.389671
     17          1           0       -2.533047    1.751135   -0.269153
     18          1           0       -2.018790   -1.418286   -0.516407
     19          1           0       -3.059345   -0.539800    0.405623
 ---------------------------------------------------------------------
 Rotational constants (GHZ):           4.5115715           1.6578409           1.3412834
 Standard basis: 6-31G(2df,p) (6D, 7F)
 There are   277 symmetry adapted cartesian basis functions of A   symmetry.
 There are   256 symmetry adapted basis functions of A   symmetry.
   256 basis functions,   392 primitive gaussians,   277 cartesian basis functions
    28 alpha electrons       28 beta electrons
       nuclear repulsion energy       315.8565909840 Hartrees.
 NAtoms=   19 NActive=   19 NUniq=   19 SFac= 1.00D+00 NAtFMM=   60 NAOKFM=F Big=F
 Integral buffers will be    131072 words long.
 Raffenetti 2 integral format.
 Two-electron integral symmetry is turned on.
 One-electron integrals computed using PRISM.
 PrsmSu:  requested number of processors reduced to:  13 ShMem   1 Linda.
 NBasis=   256 RedAO= T EigKep=  3.06D-04  NBF=   256
 NBsUse=   256 1.00D-06 EigRej= -1.00D+00 NBFU=   256
 Initial guess from the checkpoint file:  "CCCpdNpCpCpN.chk"
 B after Tr=    -0.000000   -0.000000   -0.000000
         Rot=    0.999935   -0.005735   -0.001333    0.009802 Ang=  -1.31 deg.
 ExpMin= 1.61D-01 ExpMax= 4.17D+03 ExpMxC= 6.27D+02 IAcc=2 IRadAn=         4 AccDes= 0.00D+00
 Harris functional with IExCor=  402 and IRadAn=       4 diagonalized for initial guess.
 HarFok:  IExCor=  402 AccDes= 0.00D+00 IRadAn=         4 IDoV= 1 UseB2=F ITyADJ=14
 ICtDFT=  3500011 ScaDFX=  1.000000  1.000000  1.000000  1.000000
 FoFCou: FMM=F IPFlag=           0 FMFlag=      100000 FMFlg1=           0
         NFxFlg=           0 DoJE=T BraDBF=F KetDBF=T FulRan=T
         wScrn=  0.000000 ICntrl=       500 IOpCl=  0 I1Cent=   200000004 NGrid=           0
         NMat0=    1 NMatS0=      1 NMatT0=    0 NMatD0=    1 NMtDS0=    0 NMtDT0=    0
 Petite list used in FoFCou.
 Requested convergence on RMS density matrix=1.00D-08 within 128 cycles.
 Requested convergence on MAX density matrix=1.00D-06.
 Requested convergence on             energy=1.00D-06.
 No special actions if energy rises.
 Integral accuracy reduced to 1.0D-05 until final iterations.
 Initial convergence to 1.0D-05 achieved.  Increase integral accuracy.
 SCF Done:  E(RB3LYP) =  -307.270546595     A.U. after   12 cycles
            NFock= 12  Conv=0.48D-08     -V/T= 2.0083
 PrsmSu:  requested number of processors reduced to:  13 ShMem   1 Linda.
 Calling FoFJK, ICntrl=      2127 FMM=F ISym2X=0 I1Cent= 0 IOpClX= 0 NMat=1 NMatS=1 NMatT=0.
 ***** Axes restored to original set *****
 -------------------------------------------------------------------
 Center     Atomic                   Forces (Hartrees/Bohr)
 Number     Number              X              Y              Z
 -------------------------------------------------------------------
      1        6           0.000806026   -0.001716860   -0.000453663
      2        6           0.000068714   -0.001915244   -0.001050476
      3        6          -0.000164908    0.001113840    0.001686767
      4        7          -0.001626181    0.001880359    0.002196508
      5        6          -0.001520554   -0.003496253   -0.004693960
      6        6           0.001370135    0.000458282    0.002239660
      7        7           0.002420314    0.005640136    0.002001894
      8        1           0.000258507    0.000228907    0.000005967
      9        1          -0.000323770   -0.000010396    0.000131636
     10        1           0.000226417   -0.000209162    0.000064897
     11        1          -0.000194775    0.000576538   -0.000613831
     12        1           0.000489665    0.000147077    0.000286771
     13        1          -0.003733584   -0.001209914   -0.000424896
     14        1           0.001523185    0.001939577    0.000202152
     15        1           0.000260341   -0.000798234    0.000240519
     16        1           0.000029823   -0.001648684   -0.001953610
     17        1           0.000578408   -0.000474355   -0.000115382
     18        1          -0.001235632    0.000522133   -0.000794140
     19        1           0.000767869   -0.001027748    0.001043188
 -------------------------------------------------------------------
 Cartesian Forces:  Max     0.005640136 RMS     0.001596161

 GradGradGradGradGradGradGradGradGradGradGradGradGradGradGradGradGradGrad
 Berny optimization.
 Using GEDIIS/GDIIS optimizer.
 FormGI is forming the generalized inverse of G from B-inverse, IUseBI=4.
 Internal  Forces:  Max     0.005038135 RMS     0.001471124
 Search for a local minimum.
 Step number   2 out of a maximum of   97
 All quantities printed in internal units (Hartrees-Bohrs-Radians)
 Mixed Optimization -- RFO/linear search
 Update second derivatives using D2CorX and points    1    2
 DE= -5.66D-03 DEPred=-6.84D-03 R= 8.28D-01
 TightC=F SS=  1.41D+00  RLast= 3.87D-01 DXNew= 5.0454D-01 1.1611D+00
 Trust test= 8.28D-01 RLast= 3.87D-01 DXMaxT set to 5.05D-01
 ITU=  1  0
 Use linear search instead of GDIIS.
     Eigenvalues ---    0.00227   0.00416   0.00464   0.00539   0.00750
     Eigenvalues ---    0.00770   0.03021   0.03731   0.04178   0.04354
     Eigenvalues ---    0.05217   0.05357   0.05387   0.05527   0.05683
     Eigenvalues ---    0.05714   0.06703   0.09934   0.13214   0.15832
     Eigenvalues ---    0.16000   0.16000   0.16000   0.16000   0.16000
     Eigenvalues ---    0.16000   0.16000   0.16548   0.18418   0.18993
     Eigenvalues ---    0.22262   0.24824   0.26163   0.28865   0.29564
     Eigenvalues ---    0.30269   0.31047   0.34121   0.34140   0.34143
     Eigenvalues ---    0.34150   0.34211   0.34242   0.34267   0.34455
     Eigenvalues ---    0.34476   0.36237   0.43670   0.44670   0.45353
     Eigenvalues ---    0.65970
 RFO step:  Lambda=-2.88397941D-03 EMin= 2.26917055D-03
 Quartic linear search produced a step of -0.04774.
 Iteration  1 RMS(Cart)=  0.12695604 RMS(Int)=  0.01329060
 Iteration  2 RMS(Cart)=  0.03056177 RMS(Int)=  0.00028359
 Iteration  3 RMS(Cart)=  0.00044717 RMS(Int)=  0.00006677
 Iteration  4 RMS(Cart)=  0.00000009 RMS(Int)=  0.00006677
 Variable       Old X    -DE/DX   Delta X   Delta X   Delta X     New X
                                 (Linear)    (Quad)   (Total)
    R1        2.89180  -0.00117  -0.00119  -0.00047  -0.00166   2.89015
    R2        2.06570   0.00016  -0.00000   0.00043   0.00043   2.06613
    R3        2.06891   0.00024   0.00010   0.00039   0.00048   2.06940
    R4        2.06930  -0.00009  -0.00002  -0.00019  -0.00021   2.06909
    R5        2.88643  -0.00339  -0.00009  -0.01008  -0.01016   2.87627
    R6        2.07351  -0.00042  -0.00012  -0.00080  -0.00092   2.07258
    R7        2.07515   0.00008  -0.00020   0.00070   0.00050   2.07565
    R8        2.40158   0.00233   0.00286  -0.00391  -0.00105   2.40052
    R9        2.87698   0.00411   0.00206   0.00805   0.01011   2.88709
   R10        1.92492   0.00329   0.00004   0.00662   0.00665   1.93157
   R11        2.91559   0.00074  -0.00180   0.00673   0.00493   2.92052
   R12        2.77291  -0.00504   0.00018  -0.01318  -0.01300   2.75991
   R13        2.07528   0.00165  -0.00029   0.00507   0.00478   2.08007
   R14        2.06920   0.00055   0.00008   0.00126   0.00134   2.07055
   R15        2.07486  -0.00212  -0.00030  -0.00485  -0.00515   2.06971
   R16        2.06749   0.00064   0.00009   0.00148   0.00157   2.06906
   R17        1.91826  -0.00013   0.00076  -0.00216  -0.00140   1.91686
   R18        1.91659   0.00107  -0.00004   0.00223   0.00219   1.91879
    A1        1.92719  -0.00044   0.00067  -0.00436  -0.00369   1.92351
    A2        1.94472   0.00050  -0.00077   0.00507   0.00431   1.94903
    A3        1.95063  -0.00034  -0.00094   0.00037  -0.00056   1.95007
    A4        1.87528   0.00002   0.00033  -0.00044  -0.00011   1.87517
    A5        1.87795   0.00034   0.00057  -0.00020   0.00037   1.87832
    A6        1.88502  -0.00007   0.00020  -0.00058  -0.00037   1.88466
    A7        2.02464  -0.00301  -0.00157  -0.00825  -0.00981   2.01483
    A8        1.90792   0.00070  -0.00081   0.00642   0.00563   1.91355
    A9        1.91615   0.00105   0.00026   0.00182   0.00205   1.91820
   A10        1.88324   0.00148   0.00030   0.00901   0.00936   1.89259
   A11        1.88352   0.00068   0.00052  -0.00165  -0.00115   1.88237
   A12        1.83916  -0.00071   0.00156  -0.00740  -0.00584   1.83332
   A13        2.20353  -0.00376  -0.00297  -0.00580  -0.00895   2.19458
   A14        2.02411  -0.00024   0.00134  -0.00400  -0.00284   2.02126
   A15        2.05521   0.00401   0.00164   0.01066   0.01211   2.06732
   A16        1.92422   0.00412   0.00225   0.01735   0.01959   1.94381
   A17        1.92554   0.00091   0.00035   0.00466   0.00516   1.93070
   A18        1.91234   0.00177  -0.00005   0.01150   0.01155   1.92389
   A19        1.86188   0.00006   0.00120   0.00817   0.00942   1.87130
   A20        2.00388  -0.00302  -0.00424  -0.00727  -0.01158   1.99230
   A21        1.88918  -0.00013   0.00165  -0.01312  -0.01156   1.87762
   A22        1.86463   0.00056   0.00135  -0.00350  -0.00238   1.86225
   A23        1.92467   0.00037   0.00091   0.00077   0.00170   1.92637
   A24        1.97989  -0.00183  -0.00201  -0.00488  -0.00689   1.97299
   A25        1.92036  -0.00008   0.00096  -0.00417  -0.00321   1.91716
   A26        1.88084   0.00104  -0.00025   0.00868   0.00843   1.88927
   A27        1.88725  -0.00021   0.00025  -0.00244  -0.00216   1.88509
   A28        1.86767   0.00079   0.00014   0.00233   0.00244   1.87011
   A29        1.91219  -0.00083  -0.00171   0.00020  -0.00152   1.91067
   A30        1.90577   0.00084   0.00201   0.00006   0.00207   1.90783
   A31        1.88970   0.00009  -0.00030   0.00227   0.00195   1.89164
    D1        3.13075   0.00038  -0.00061   0.01419   0.01356  -3.13887
    D2        0.99736   0.00004   0.00069   0.00308   0.00379   1.00115
    D3       -1.01206  -0.00009  -0.00087   0.00735   0.00648  -1.00558
    D4        1.04817   0.00032  -0.00096   0.01432   0.01335   1.06152
    D5       -1.08521  -0.00002   0.00034   0.00322   0.00357  -1.08164
    D6       -3.09464  -0.00015  -0.00122   0.00749   0.00626  -3.08837
    D7       -1.06264   0.00029  -0.00006   0.01125   0.01118  -1.05146
    D8        3.08716  -0.00005   0.00124   0.00015   0.00141   3.08856
    D9        1.07773  -0.00018  -0.00032   0.00441   0.00410   1.08183
   D10       -0.05635   0.00004   0.00150  -0.00901  -0.00761  -0.06396
   D11        3.11413  -0.00046   0.00096  -0.04538  -0.04430   3.06983
   D12        2.09003   0.00002  -0.00039   0.00076   0.00026   2.09029
   D13       -1.02267  -0.00048  -0.00093  -0.03561  -0.03643  -1.05910
   D14       -2.21381   0.00025   0.00186  -0.00421  -0.00248  -2.21628
   D15        0.95668  -0.00025   0.00132  -0.04058  -0.03917   0.91751
   D16        0.00213   0.00016   0.00256  -0.01592  -0.01339  -0.01127
   D17        3.11437   0.00061   0.00310   0.02080   0.02394   3.13831
   D18        1.13153   0.00220  -0.00177   0.26299   0.26128   1.39281
   D19       -2.92903   0.00027  -0.00694   0.26547   0.25866  -2.67037
   D20       -0.91664   0.00185  -0.00470   0.27147   0.26689  -0.64975
   D21       -1.98374   0.00188  -0.00221   0.23012   0.22776  -1.75598
   D22        0.23889  -0.00005  -0.00738   0.23260   0.22514   0.46403
   D23        2.25128   0.00152  -0.00514   0.23860   0.23337   2.48465
   D24        1.03978   0.00021  -0.00300   0.00528   0.00227   1.04206
   D25       -1.07164  -0.00013  -0.00195  -0.00311  -0.00506  -1.07670
   D26        3.12013   0.00014  -0.00145   0.00012  -0.00135   3.11878
   D27       -1.13117  -0.00059  -0.00020  -0.00837  -0.00850  -1.13967
   D28        3.04059  -0.00094   0.00085  -0.01676  -0.01583   3.02476
   D29        0.94917  -0.00067   0.00135  -0.01353  -0.01212   0.93706
   D30        3.07100   0.00071  -0.00031   0.01008   0.00971   3.08071
   D31        0.95958   0.00037   0.00074   0.00169   0.00238   0.96196
   D32       -1.13183   0.00064   0.00124   0.00493   0.00609  -1.12574
   D33       -0.88028   0.00116  -0.00120   0.08218   0.08103  -0.79925
   D34       -2.94716   0.00104  -0.00097   0.07927   0.07834  -2.86882
   D35        1.29762   0.00154  -0.00372   0.09223   0.08846   1.38608
   D36       -0.76926   0.00142  -0.00349   0.08932   0.08577  -0.68349
   D37       -2.89091  -0.00010  -0.00335   0.06870   0.06536  -2.82555
   D38        1.32539  -0.00022  -0.00313   0.06579   0.06267   1.38807
         Item               Value     Threshold  Converged?
 Maximum Force            0.005038     0.000450     NO 
 RMS     Force            0.001471     0.000300     NO 
 Maximum Displacement     0.482602     0.001800     NO 
 RMS     Displacement     0.155658     0.001200     NO 
 Predicted change in Energy=-2.063671D-03
 GradGradGradGradGradGradGradGradGradGradGradGradGradGradGradGradGradGrad

                          Input orientation:                          
 ---------------------------------------------------------------------
 Center     Atomic      Atomic             Coordinates (Angstroms)
 Number     Number       Type             X           Y           Z
 ---------------------------------------------------------------------
      1          6           0        0.999204    0.171153   -0.088764
      2          6           0        2.521449    0.024352   -0.105598
      3          6           0        3.039864   -1.405631   -0.160801
      4          7           0        2.325680   -2.455618   -0.127061
      5          6           0        4.555446   -1.559722   -0.276523
      6          6           0        5.228109   -1.375948    1.102693
      7          7           0        4.885952   -2.818350   -0.939570
      8          1           0        0.722086    1.228145   -0.051560
      9          1           0        0.555666   -0.315412    0.786294
     10          1           0        0.540387   -0.260440   -0.984336
     11          1           0        2.948811    0.514399    0.777639
     12          1           0        2.940062    0.567631   -0.963542
     13          1           0        1.332500   -2.228117   -0.045747
     14          1           0        4.915873   -0.752554   -0.932392
     15          1           0        4.853045   -2.121710    1.812406
     16          1           0        5.063185   -0.381519    1.531029
     17          1           0        6.310529   -1.511818    1.009383
     18          1           0        4.327362   -3.566386   -0.542903
     19          1           0        5.865980   -3.033017   -0.783178
 ---------------------------------------------------------------------
                    Distance matrix (angstroms):
                    1          2          3          4          5
     1  C    0.000000
     2  C    1.529400   0.000000
     3  C    2.579870   1.522055   0.000000
     4  N    2.942946   2.487777   1.270303   0.000000
     5  C    3.959551   2.583728   1.527784   2.407660   0.000000
     6  C    4.657975   3.278233   2.526997   3.331978   1.545472
     7  N    4.976727   3.790427   2.451591   2.710487   1.460483
     8  H    1.093348   2.165582   3.510100   4.018373   4.745257
     9  H    1.095079   2.185226   2.873466   2.923636   4.321589
    10  H    1.094914   2.185840   2.870027   2.956517   4.278999
    11  H    2.160889   1.096764   2.139036   3.166666   2.827457
    12  H    2.165493   1.098388   2.132631   3.196435   2.758096
    13  H    2.422691   2.547704   1.898635   1.022143   3.299605
    14  H    4.111599   2.649611   2.131026   3.202825   1.100724
    15  H    4.870704   3.704141   2.773796   3.203218   2.183580
    16  H    4.409662   3.050197   2.829297   3.813802   2.216576
    17  H    5.678775   4.237939   3.475321   4.249857   2.176273
    18  H    5.025145   4.043014   2.544115   2.326685   2.037077
    19  H    5.868086   4.581758   3.320041   3.646588   2.035877
                    6          7          8          9         10
     6  C    0.000000
     7  N    2.523575   0.000000
     8  H    5.330838   5.873710   0.000000
     9  H    4.801725   5.291000   1.764160   0.000000
    10  H    5.251170   5.042702   1.766061   1.771549   0.000000
    11  H    2.978971   4.220016   2.480989   2.532944   3.083089
    12  H    3.644445   3.905372   2.487450   3.086589   2.538617
    13  H    4.149805   3.711377   3.509755   2.225804   2.319513
    14  H    2.151205   2.066025   4.720899   4.707057   4.403380
    15  H    1.095686   2.838972   5.635665   4.773163   5.466728
    16  H    1.095244   3.474682   4.892928   4.569106   5.176623
    17  H    1.094898   2.744970   6.313770   5.882143   6.231805
    18  H    2.883982   1.014360   6.018884   5.153765   5.046318
    19  H    2.590225   1.015379   6.719554   6.168311   6.007461
                   11         12         13         14         15
    11  H    0.000000
    12  H    1.742016   0.000000
    13  H    3.288133   3.353030   0.000000
    14  H    2.898053   2.376487   3.975424   0.000000
    15  H    3.412612   4.312534   3.982248   3.067973   0.000000
    16  H    2.416784   3.410487   4.451310   2.495559   1.775273
    17  H    3.931972   4.424544   5.138789   2.508393   1.772308
    18  H    4.505224   4.380826   3.317730   2.900983   2.812635
    19  H    4.850792   4.643080   4.663059   2.474970   2.931480
                   16         17         18         19
    16  H    0.000000
    17  H    1.762259   0.000000
    18  H    3.871177   3.250199   0.000000
    19  H    3.609775   2.392685   1.646075   0.000000
 Stoichiometry    C5H12N2
 Framework group  C1[X(C5H12N2)]
 Deg. of freedom    51
 Full point group                 C1      NOp   1
 Largest Abelian subgroup         C1      NOp   1
 Largest concise Abelian subgroup C1      NOp   1
                         Standard orientation:                         
 ---------------------------------------------------------------------
 Center     Atomic      Atomic             Coordinates (Angstroms)
 Number     Number       Type             X           Y           Z
 ---------------------------------------------------------------------
      1          6           0        2.798656    0.115675    0.049414
      2          6           0        1.401728    0.646866    0.374211
      3          6           0        0.247715   -0.262816   -0.022504
      4          7           0        0.352114   -1.365472   -0.644535
      5          6           0       -1.145411    0.213727    0.385212
      6          6           0       -1.662638    1.287960   -0.598141
      7          7           0       -2.041775   -0.927649    0.548925
      8          1           0        3.559391    0.831875    0.371516
      9          1           0        2.931210   -0.042462   -1.026048
     10          1           0        3.000028   -0.832860    0.557909
     11          1           0        1.256698    1.621376   -0.107648
     12          1           0        1.318502    0.846174    1.451154
     13          1           0        1.327219   -1.577326   -0.866037
     14          1           0       -1.051386    0.686534    1.374760
     15          1           0       -1.714572    0.881509   -1.614324
     16          1           0       -1.036631    2.186409   -0.619725
     17          1           0       -2.670134    1.603356   -0.307835
     18          1           0       -1.930055   -1.560642   -0.235782
     19          1           0       -3.002939   -0.600565    0.562174
 ---------------------------------------------------------------------
 Rotational constants (GHZ):           4.5614677           1.6005925           1.3609568
 Standard basis: 6-31G(2df,p) (6D, 7F)
 There are   277 symmetry adapted cartesian basis functions of A   symmetry.
 There are   256 symmetry adapted basis functions of A   symmetry.
   256 basis functions,   392 primitive gaussians,   277 cartesian basis functions
    28 alpha electrons       28 beta electrons
       nuclear repulsion energy       315.3726342146 Hartrees.
 NAtoms=   19 NActive=   19 NUniq=   19 SFac= 1.00D+00 NAtFMM=   60 NAOKFM=F Big=F
 Integral buffers will be    131072 words long.
 Raffenetti 2 integral format.
 Two-electron integral symmetry is turned on.
 One-electron integrals computed using PRISM.
 PrsmSu:  requested number of processors reduced to:  13 ShMem   1 Linda.
 NBasis=   256 RedAO= T EigKep=  3.20D-04  NBF=   256
 NBsUse=   256 1.00D-06 EigRej= -1.00D+00 NBFU=   256
 Initial guess from the checkpoint file:  "CCCpdNpCpCpN.chk"
 B after Tr=     0.000000   -0.000000    0.000000
         Rot=    0.999907    0.002135   -0.005677   -0.012247 Ang=   1.57 deg.
 ExpMin= 1.61D-01 ExpMax= 4.17D+03 ExpMxC= 6.27D+02 IAcc=2 IRadAn=         4 AccDes= 0.00D+00
 Harris functional with IExCor=  402 and IRadAn=       4 diagonalized for initial guess.
 HarFok:  IExCor=  402 AccDes= 0.00D+00 IRadAn=         4 IDoV= 1 UseB2=F ITyADJ=14
 ICtDFT=  3500011 ScaDFX=  1.000000  1.000000  1.000000  1.000000
 FoFCou: FMM=F IPFlag=           0 FMFlag=      100000 FMFlg1=           0
         NFxFlg=           0 DoJE=T BraDBF=F KetDBF=T FulRan=T
         wScrn=  0.000000 ICntrl=       500 IOpCl=  0 I1Cent=   200000004 NGrid=           0
         NMat0=    1 NMatS0=      1 NMatT0=    0 NMatD0=    1 NMtDS0=    0 NMtDT0=    0
 Petite list used in FoFCou.
 Requested convergence on RMS density matrix=1.00D-08 within 128 cycles.
 Requested convergence on MAX density matrix=1.00D-06.
 Requested convergence on             energy=1.00D-06.
 No special actions if energy rises.
 Integral accuracy reduced to 1.0D-05 until final iterations.
 Initial convergence to 1.0D-05 achieved.  Increase integral accuracy.
 SCF Done:  E(RB3LYP) =  -307.272119875     A.U. after   12 cycles
            NFock= 12  Conv=0.71D-08     -V/T= 2.0084
 PrsmSu:  requested number of processors reduced to:  13 ShMem   1 Linda.
 Calling FoFJK, ICntrl=      2127 FMM=F ISym2X=0 I1Cent= 0 IOpClX= 0 NMat=1 NMatS=1 NMatT=0.
 ***** Axes restored to original set *****
 -------------------------------------------------------------------
 Center     Atomic                   Forces (Hartrees/Bohr)
 Number     Number              X              Y              Z
 -------------------------------------------------------------------
      1        6           0.000419996    0.000231863    0.000526125
      2        6          -0.000463284   -0.000992851   -0.000776873
      3        6           0.000425853    0.001625051   -0.001861385
      4        7           0.000084431   -0.000940438    0.001006498
      5        6           0.000672313    0.001178197   -0.002849973
      6        6          -0.000809883   -0.001380855    0.001408633
      7        7           0.001397459    0.000688354   -0.000094973
      8        1          -0.000185854    0.000067956    0.000030977
      9        1          -0.000054762    0.000140557    0.000114074
     10        1           0.000425799   -0.000137591   -0.000010584
     11        1           0.000918931    0.000465779    0.000652665
     12        1          -0.000111251   -0.000315470    0.000207562
     13        1           0.000638165   -0.000843387    0.000150344
     14        1          -0.000573710    0.001108408    0.001570068
     15        1           0.000007472    0.000037594   -0.000393575
     16        1          -0.000939453    0.000419430   -0.000481585
     17        1           0.000240090    0.000166974   -0.000412963
     18        1          -0.001326195   -0.000136360    0.000872586
     19        1          -0.000766118   -0.001383211    0.000342379
 -------------------------------------------------------------------
 Cartesian Forces:  Max     0.002849973 RMS     0.000852130

 GradGradGradGradGradGradGradGradGradGradGradGradGradGradGradGradGradGrad
 Berny optimization.
 Using GEDIIS/GDIIS optimizer.
 FormGI is forming the generalized inverse of G from B-inverse, IUseBI=4.
 Internal  Forces:  Max     0.002640532 RMS     0.000837752
 Search for a local minimum.
 Step number   3 out of a maximum of   97
 All quantities printed in internal units (Hartrees-Bohrs-Radians)
 Mixed Optimization -- En-DIIS/RFO-DIIS
 Update second derivatives using D2CorX and points    2    3
 DE= -1.57D-03 DEPred=-2.06D-03 R= 7.62D-01
 TightC=F SS=  1.41D+00  RLast= 6.39D-01 DXNew= 8.4853D-01 1.9174D+00
 Trust test= 7.62D-01 RLast= 6.39D-01 DXMaxT set to 8.49D-01
 ITU=  1  1  0
 Use linear search instead of GDIIS.
     Eigenvalues ---    0.00256   0.00448   0.00485   0.00538   0.00664
     Eigenvalues ---    0.00944   0.03031   0.03761   0.04339   0.04575
     Eigenvalues ---    0.05329   0.05386   0.05508   0.05539   0.05696
     Eigenvalues ---    0.05750   0.06433   0.09866   0.13161   0.15647
     Eigenvalues ---    0.15999   0.16000   0.16000   0.16000   0.16000
     Eigenvalues ---    0.16000   0.16083   0.16184   0.18285   0.19135
     Eigenvalues ---    0.22079   0.24814   0.26613   0.29086   0.29979
     Eigenvalues ---    0.30501   0.31071   0.34078   0.34135   0.34141
     Eigenvalues ---    0.34148   0.34237   0.34244   0.34267   0.34459
     Eigenvalues ---    0.34651   0.36061   0.43767   0.44729   0.45391
     Eigenvalues ---    0.65506
 RFO step:  Lambda=-1.36838171D-03 EMin= 2.56318653D-03
 Quartic linear search produced a step of  0.11487.
 Iteration  1 RMS(Cart)=  0.10340497 RMS(Int)=  0.00458877
 Iteration  2 RMS(Cart)=  0.00599326 RMS(Int)=  0.00024581
 Iteration  3 RMS(Cart)=  0.00001712 RMS(Int)=  0.00024564
 Iteration  4 RMS(Cart)=  0.00000000 RMS(Int)=  0.00024564
 Variable       Old X    -DE/DX   Delta X   Delta X   Delta X     New X
                                 (Linear)    (Quad)   (Total)
    R1        2.89015  -0.00056  -0.00019  -0.00257  -0.00276   2.88738
    R2        2.06613   0.00011   0.00005   0.00046   0.00051   2.06664
    R3        2.06940   0.00005   0.00006   0.00031   0.00037   2.06977
    R4        2.06909  -0.00011  -0.00002  -0.00041  -0.00043   2.06865
    R5        2.87627  -0.00081  -0.00117  -0.00580  -0.00697   2.86930
    R6        2.07258   0.00109  -0.00011   0.00297   0.00286   2.07544
    R7        2.07565  -0.00036   0.00006  -0.00096  -0.00090   2.07475
    R8        2.40052   0.00110  -0.00012   0.00188   0.00176   2.40228
    R9        2.88709  -0.00215   0.00116  -0.00445  -0.00329   2.88380
   R10        1.93157  -0.00080   0.00076   0.00016   0.00092   1.93249
   R11        2.92052  -0.00063   0.00057  -0.00099  -0.00043   2.92009
   R12        2.75991   0.00005  -0.00149  -0.00370  -0.00519   2.75472
   R13        2.08007  -0.00031   0.00055   0.00045   0.00100   2.08106
   R14        2.07055  -0.00028   0.00015  -0.00044  -0.00028   2.07027
   R15        2.06971   0.00034  -0.00059  -0.00058  -0.00117   2.06854
   R16        2.06906   0.00025   0.00018   0.00123   0.00141   2.07047
   R17        1.91686   0.00117  -0.00016   0.00245   0.00229   1.91915
   R18        1.91879  -0.00039   0.00025  -0.00024   0.00001   1.91880
    A1        1.92351   0.00033  -0.00042   0.00136   0.00093   1.92444
    A2        1.94903   0.00014   0.00050   0.00209   0.00258   1.95161
    A3        1.95007  -0.00067  -0.00006  -0.00484  -0.00490   1.94517
    A4        1.87517  -0.00019  -0.00001  -0.00063  -0.00064   1.87453
    A5        1.87832   0.00017   0.00004   0.00121   0.00125   1.87957
    A6        1.88466   0.00023  -0.00004   0.00093   0.00089   1.88554
    A7        2.01483   0.00051  -0.00113  -0.00040  -0.00153   2.01330
    A8        1.91355  -0.00002   0.00065   0.00198   0.00263   1.91618
    A9        1.91820   0.00014   0.00023   0.00315   0.00338   1.92158
   A10        1.89259  -0.00029   0.00107   0.00044   0.00151   1.89411
   A11        1.88237  -0.00036  -0.00013  -0.00231  -0.00244   1.87993
   A12        1.83332  -0.00004  -0.00067  -0.00324  -0.00391   1.82941
[...]
 .00061107,0.03359544,0.57574274,0.00040684,0.00012706,0.00160136,0.001
 80463,0.00129843,0.00727109,0.01300718,0.00050374,-0.07417427,0.002786
 89,-0.00125344,-0.00708836,-0.03535584,-0.05331078,0.43565052,-0.00000
 987,0.00032172,0.00030982,-0.00025184,0.00029379,0.00139235,-0.0187609
 3,-0.00329200,-0.03271530,-0.00198874,0.00112667,-0.00224581,-0.088175
 86,-0.00125969,-0.03897132,0.54912784,0.00001735,-0.00017294,-0.000454
 67,0.00019339,-0.00047189,-0.00002251,-0.00332972,0.00157978,0.0017497
 9,0.00005021,-0.00013910,0.00091887,0.00534231,-0.07487082,0.01061275,
 -0.00042600,0.57075051,0.00005570,-0.00052428,-0.00012358,0.00037388,0
 .00047210,-0.00015258,-0.01517179,0.00038734,-0.00080696,0.00457754,0.
 00328047,-0.00039325,-0.02435769,0.00313263,-0.14330510,-0.04378025,-0
 .00807463,0.45329667,-0.00009727,0.00204832,-0.00046622,-0.00554361,-0
 .00183453,-0.00007176,-0.01692933,0.03457131,0.01757876,-0.00442518,0.
 00248665,0.00318084,-0.10387503,0.01424966,0.02539837,0.00407224,-0.00
 820979,-0.00261691,0.68072974,-0.00011613,-0.00003749,-0.00003840,0.00
 040492,0.00129284,-0.00105797,0.01351064,-0.00770848,-0.00513671,-0.00
 292576,-0.00248880,0.00143434,0.01526244,-0.17525104,-0.07878740,0.004
 73291,-0.01327349,-0.01357250,0.03117507,0.54923896,-0.00013189,0.0002
 0457,0.00002634,-0.00114112,0.00014310,-0.00015070,0.00140043,-0.00272
 912,-0.00215862,0.00122647,0.00036860,0.00255182,0.00715681,-0.0244564
 9,-0.08496760,0.00940750,-0.03753445,-0.02173676,0.01573624,-0.0156831
 3,0.19443836,-0.06182476,0.06514113,-0.00207375,-0.00975519,0.03380757
 ,-0.00119159,-0.00684748,-0.00253321,0.00124292,0.00009984,-0.00036936
 ,-0.00007087,0.00030824,0.00181702,0.00007747,-0.00005953,0.00004593,0
 .00014516,-0.00067598,0.00010313,-0.00005985,0.07025410,0.06690929,-0.
 29570276,0.00783826,-0.00102007,-0.00068447,0.00011561,-0.00071916,0.0
 0007588,0.00005522,0.00049013,0.00042423,-0.00008277,-0.00014648,-0.00
 006894,0.00001185,0.00006428,-0.00003475,-0.00006239,0.00017828,-0.000
 02237,-0.00000978,-0.07271422,0.31974319,-0.00208895,0.00806939,-0.046
 31360,0.00125498,-0.00555168,-0.00111206,0.00120660,0.00021796,0.00054
 886,0.00011791,0.00004059,0.00061766,-0.00001870,-0.00028037,0.0001665
 6,0.00003714,0.00001890,-0.00002133,0.00005020,0.00000801,0.00000182,0
 .00149039,-0.00855414,0.04629904,-0.06326184,-0.02418968,0.05733060,-0
 .00900025,-0.01215912,0.03115186,0.00086966,-0.00232542,0.00015508,0.0
 0084581,0.00102069,-0.00041088,-0.00029149,-0.00034005,-0.00015729,0.0
 0001626,0.00012193,0.00000403,0.00012493,0.00010615,-0.00002983,0.0013
 7652,0.00227071,-0.00782937,0.07032190,-0.02424249,-0.08175694,0.08529
 260,0.00002540,0.00062123,-0.00348522,0.00031442,0.00065583,-0.0008852
 2,-0.00017837,0.00010097,0.00033950,0.00011156,0.00010116,0.00019486,0
 .00002370,0.00001881,0.00006397,-0.00012891,-0.00002701,-0.00000380,-0
 .00806664,-0.01054654,0.02893700,0.02648544,0.08538265,0.05840236,0.08
 503200,-0.25780852,0.00155030,0.00071734,-0.00360138,0.00020579,0.0017
 5737,0.00025282,-0.00042960,-0.00059839,0.00066762,0.00004431,-0.00012
 846,-0.00016717,-0.00006664,0.00002898,0.00004804,-0.00001365,-0.00006
 897,0.00003667,-0.00057178,-0.00031682,-0.00019505,-0.06595995,-0.0944
 7097,0.27898472,-0.11692565,-0.06533852,-0.09468841,-0.01809987,-0.016
 30777,-0.02403025,0.00038319,-0.00268432,-0.00008212,0.00117226,0.0011
 4536,0.00041846,0.00001411,-0.00007211,0.00016006,0.00010443,-0.000149
 20,-0.00014818,0.00003878,0.00018033,0.00010724,0.00410562,0.00356170,
 0.00649257,0.00412954,0.00493078,0.00575858,0.13001210,-0.06533124,-0.
 10682327,-0.08826145,0.00077245,0.00154598,0.00332039,0.00034599,0.000
 03733,0.00051485,0.00012588,-0.00003535,-0.00006666,0.00004655,0.00005
 711,-0.00018587,-0.00006431,-0.00000743,0.00002319,-0.00006306,-0.0000
 1035,0.00004359,-0.01669258,-0.01452905,-0.02309449,0.00749228,0.00588
 773,0.00910075,0.07220626,0.11436456,-0.09591575,-0.08831876,-0.178061
 42,0.00338280,0.00412148,0.00483984,-0.00047466,-0.00111805,0.00021784
 ,0.00019894,0.00005461,0.00032782,-0.00000459,0.00021537,-0.00011123,0
 .00004635,-0.00001748,-0.00005560,0.00002058,0.00006263,-0.00000259,0.
 00151566,0.00113967,0.00069070,-0.01490772,-0.01503161,-0.01953065,0.1
 0494722,0.09775430,0.19010595,-0.01840519,-0.01716268,-0.02261221,-0.1
 0963375,-0.06592073,-0.08426794,0.00599479,0.00223987,0.00902790,0.000
 14882,0.00222057,-0.00241126,0.00005594,0.00005798,-0.00059583,-0.0007
 4087,0.00072428,-0.00000441,0.00024075,-0.00033454,-0.00014703,0.00129
 802,0.00036739,-0.00018282,0.00133161,-0.00024791,0.00042824,-0.006351
 62,0.00084069,0.00178581,0.12356418,0.00266314,0.00197908,0.00302453,-
 0.06788295,-0.11858992,-0.09614940,-0.01925169,-0.02011403,-0.02327777
 ,0.00413207,-0.00471422,0.00517679,-0.00017848,0.00024136,0.00101585,0
 .00031450,-0.00087327,-0.00048691,-0.00015028,0.00039899,0.00017346,-0
 .00023299,0.00053464,0.00043339,-0.00037431,-0.00004320,-0.00014286,0.
 00129397,0.00047177,-0.00011144,0.07315956,0.13175420,0.00350129,0.003
 90164,0.00435687,-0.08511692,-0.09406180,-0.15855716,0.00083751,0.0016
 4739,0.00150130,0.00028530,0.00099027,-0.00075924,-0.00012972,-0.00108
 039,0.00018019,-0.00028155,0.00023776,-0.00021269,0.00031335,0.0003544
 5,0.00001665,-0.00063962,0.00026093,0.00014396,-0.00032918,0.00026008,
 0.00066392,0.00170096,0.00030034,0.00112316,0.09432474,0.10273745,0.17
 316958,-0.00981493,-0.01254631,0.03052379,-0.05834801,-0.01959831,0.05
 094327,0.00228770,0.00095446,-0.00947599,0.00030816,0.00137957,0.00130
 400,-0.00006519,0.00023876,-0.00048952,-0.00005938,0.00010752,0.000072
 28,-0.00021848,-0.00026619,0.00030839,0.00134845,0.00026817,-0.0003264
 1,-0.00664688,0.00072163,0.00082298,0.00136673,-0.00042643,-0.00054753
 ,0.00298201,0.00593345,-0.01423817,0.06751224,0.00100277,0.00127174,-0
 .00374253,-0.02140193,-0.08034989,0.09096399,-0.00836336,-0.01649692,0
 .03126195,0.00221316,-0.00401923,-0.00621901,-0.00081698,-0.00043225,-
 0.00119155,-0.00045778,0.00024138,-0.00021644,0.00042058,0.00032845,-0
 .00026605,-0.00033247,0.00031247,-0.00038446,0.00115594,0.00046021,-0.
 00010125,-0.00022967,0.00008597,0.00043882,0.00361792,0.00704652,-0.01
 637482,0.02253026,0.09044407,0.00118278,0.00116363,-0.00360720,0.05251
 269,0.08669637,-0.24487886,0.00070597,0.00160522,-0.00022295,-0.001059
 67,-0.00080174,-0.00029622,0.00081098,0.00114343,0.00000285,-0.0003512
 7,-0.00045225,-0.00007680,-0.00036039,-0.00021870,-0.00006359,0.000260
 25,-0.00038677,0.00009567,0.00076541,-0.00041720,0.00148431,0.00015548
 ,-0.00003987,0.00086368,0.00440876,0.00867046,-0.02177211,-0.05864963,
 -0.09635255,0.26753099,0.00140808,0.00077384,0.00007523,0.00075477,0.0
 0285961,-0.00089372,-0.03245497,0.00846047,0.00169995,-0.38695257,0.05
 098810,0.02322136,0.00057297,-0.00446152,0.00277225,0.00021354,0.00000
 537,0.00002808,0.00041514,-0.00077961,-0.00033970,0.00049134,0.0004995
 6,-0.00023696,0.00006708,0.00023330,-0.00013583,-0.00006450,0.00076648
 ,-0.00006540,-0.00016008,0.00022196,0.00013158,-0.00015665,0.00043743,
 -0.00008212,0.41657572,-0.00039079,-0.00109764,-0.00026039,-0.00163217
 ,0.00061315,-0.00010095,-0.04746974,-0.00457200,0.00342028,0.10845897,
 -0.05189824,-0.00666754,-0.00008034,-0.00474497,0.00021365,-0.00022650
 ,0.00014428,0.00035834,0.00205899,0.00047450,-0.00043224,-0.00005217,0
 .00040455,0.00014819,0.00047250,-0.00074912,-0.00057936,0.00107440,-0.
 00104277,0.00070027,0.00034035,0.00038333,-0.00000450,0.00021954,0.000
 25787,-0.00017457,-0.05978120,0.06019358,0.00024847,-0.00001395,0.0018
 9022,-0.00098735,-0.00083842,-0.01152788,0.00399428,-0.00035129,0.0011
 1689,0.02103206,-0.00218525,-0.03672511,0.00025451,-0.00016912,0.01608
 801,0.00364854,-0.00012407,-0.00044658,-0.00094310,-0.00035371,-0.0000
 6594,-0.00011950,-0.00005117,-0.00092804,0.00044300,-0.00076155,-0.000
 82477,-0.00088763,0.00064930,-0.00043217,0.00048264,-0.00213428,0.0003
 5357,-0.00031252,0.00241807,0.00010667,-0.02543335,0.00287549,0.030800
 33,0.00009624,0.00011625,-0.00029410,0.00064134,-0.00075680,-0.0002650
 2,-0.01207300,-0.02690834,0.01870806,-0.00634597,0.00119651,0.00119343
 ,-0.08282129,-0.06537357,0.04820389,0.00515328,0.00954368,-0.01015761,
 0.00681821,0.00928229,-0.00291546,0.00003901,0.00004218,0.00000768,0.0
 0021425,-0.00006158,-0.00010098,0.00019058,-0.00003754,0.00009728,0.00
 002046,0.00026840,0.00026855,-0.00074047,0.00080281,-0.00050832,-0.001
 45974,-0.00121237,-0.00198666,0.09068468,-0.00019568,0.00038122,-0.000
 37960,0.00149142,-0.00011774,0.00031740,-0.00047756,0.00039525,-0.0011
 3029,0.00056766,0.00118942,0.00036088,-0.06626981,-0.18307320,0.099378
 61,-0.00092066,0.00141753,0.00125966,-0.01015496,-0.03189641,0.0014915
 6,-0.00002628,0.00000173,0.00001400,0.00018997,-0.00003820,-0.00007663
 ,0.00001961,0.00001327,0.00005138,-0.00024917,0.00019481,0.00004909,0.
 00032543,0.00044363,-0.00059426,0.00007212,0.00016249,0.00034869,0.070
 95700,0.21530816,0.00002422,-0.00037266,0.00006461,-0.00017719,0.00031
 389,0.00016651,-0.00153777,0.00123745,-0.00071128,0.00055333,0.0000015
 0,0.00030880,0.05004929,0.10108158,-0.11569149,0.01056397,0.02361276,-
 0.02187651,-0.00747396,-0.01741223,0.00872736,0.00004305,-0.00000413,-
 0.00000362,-0.00013458,0.00001787,0.00005389,-0.00010437,0.00000894,-0
 .00000692,0.00016008,-0.00010843,-0.00039003,-0.00000508,-0.00012791,0
 .00047625,-0.00011548,0.00008780,0.00010441,-0.05036239,-0.10284048,0.
 13133025,0.00001751,-0.00004230,-0.00005082,-0.00010834,0.00030330,-0.
 00001910,0.00161916,0.00170522,-0.00077753,0.00023753,-0.00011728,0.00
 048894,0.00318383,0.01023895,-0.00789188,-0.08080340,-0.07195235,0.052
 48950,-0.00002680,0.00057414,0.00100192,-0.00000265,-0.00001611,0.0000
 0556,-0.00004218,0.00001373,0.00002159,-0.00004220,0.00000023,-0.00000
 831,-0.00004859,-0.00011663,-0.00010064,-0.00006558,-0.00005667,0.0000
 6043,0.00005306,-0.00006043,0.00006946,-0.00033194,-0.00003515,-0.0028
 9609,0.08396956,-0.00000474,0.00004202,0.00014681,0.00009460,-0.000299
 68,-0.00006346,-0.00076253,-0.00044720,0.00007491,0.00057435,0.0006624
 9,-0.00040706,0.00092386,-0.00066969,-0.00106491,-0.07071322,-0.199581
 49,0.10968482,0.00038828,0.00189512,0.00015054,0.00000204,0.00000366,-
 0.00001409,0.00005462,0.00000373,-0.00003222,0.00006299,-0.00000196,-0
 .00002403,-0.00004692,0.00017944,0.00018051,0.00002951,0.00005154,0.00
 000659,0.00008182,-0.00006013,0.00001742,0.00013486,0.00122458,-0.0006
 7752,0.07800599,0.21378006,0.00000640,-0.00000691,0.00009339,-0.000102
 25,-0.00000034,-0.00026097,0.00318948,0.00119374,0.00046759,-0.0003298
 5,-0.00093599,0.00090557,0.00872906,0.02558139,-0.01992045,0.05224081,
 0.10824666,-0.12406275,0.00018900,-0.00028710,0.00418140,-0.00001948,-
 0.00000831,-0.00000204,-0.00005870,0.00000968,0.00002411,-0.00001678,0
 .00001031,-0.00001047,0.00000473,-0.00001725,-0.00001420,-0.00001710,-
 0.00011337,0.00017367,-0.00009253,-0.00017448,-0.00005903,-0.00311341,
 -0.00062332,-0.00559163,-0.05491645,-0.12099297,0.13748187,-0.00003006
 ,0.00006029,0.00005184,-0.00050212,-0.00005212,-0.00041717,0.00040131,
 -0.00060344,0.00019699,-0.00007861,0.00016231,0.00007663,0.00209199,-0
 .01124838,-0.00268339,-0.06244218,0.05570136,0.02781696,0.00032031,-0.
 00077424,-0.00393973,0.00000260,-0.00001618,0.00000211,-0.00002846,-0.
 00000781,0.00000125,0.00004338,-0.00000543,0.00000528,-0.00039633,0.00
 051560,-0.00042432,0.00008062,0.00002005,0.00010351,-0.00006623,0.0000
 1235,-0.00012334,0.00030446,0.00024855,0.00047492,0.00242701,-0.010217
 16,-0.00603930,0.06482965,-0.00002044,0.00021240,0.00011436,-0.0000722
 0,-0.00024699,0.00014164,0.00096540,-0.00066563,-0.00033993,-0.0005610
 4,0.00010689,0.00001537,-0.00066221,-0.00164025,0.00110930,0.05523583,
 -0.23965044,-0.09715302,0.00016945,0.00121849,-0.00253581,-0.00002776,
 0.00000947,0.00000698,-0.00005340,-0.00002901,-0.00001809,0.00011196,-
 0.00000041,0.00002729,0.00040900,0.00052646,0.00038220,0.00011069,0.00
 004866,0.00017037,-0.00009982,0.00002407,-0.00000152,-0.00025571,0.000
 40081,-0.00055592,0.00702287,-0.01927759,-0.01118587,-0.06211211,0.260
 00095,-0.00004519,0.00030953,0.00027046,-0.00060644,-0.00070389,-0.000
 53982,0.00102407,-0.00065978,0.00042478,-0.00045166,0.00019101,0.00032
 433,0.00951193,-0.02579001,-0.00714042,0.02774301,-0.09642939,-0.09774
 938,-0.00255713,-0.00278073,-0.00727674,-0.00004257,-0.00000081,-0.000
 00066,0.00001461,-0.00001752,-0.00003734,0.00017861,-0.00000351,-0.000
 01252,-0.00024123,0.00080600,0.00026265,0.00016224,0.00010019,0.000141
 69,-0.00012616,-0.00001795,-0.00015774,0.00060809,0.00097558,0.0007632
 1,-0.00544117,0.01529775,0.00855711,-0.02965698,0.10889087,0.10374188,
 0.00000744,0.00010938,0.00002988,0.00000247,-0.00015357,0.00016919,0.0
 0086316,-0.00033256,-0.00255853,-0.00011658,0.00025739,-0.00063593,-0.
 01280264,0.00145022,0.00070073,-0.30653593,0.01394679,0.01123832,0.001
 75292,0.00021661,0.00056461,-0.00005035,0.00004151,0.00001230,0.000013
 24,-0.00000917,-0.00001555,0.00000743,-0.00002540,0.00000985,-0.000031
 41,-0.00004811,0.00003932,-0.00005770,-0.00003908,-0.00004368,0.000089
 25,-0.00007076,0.00037453,0.00082125,0.00024347,-0.00027619,-0.0100996
 2,0.00152397,0.00009452,-0.00729023,0.00002952,0.00039508,0.33328739,-
 0.00003985,0.00011667,0.00008058,-0.00024364,-0.00029835,-0.00012693,-
 0.00079212,-0.00019421,-0.00027642,-0.00000312,0.00054176,-0.00031345,
 -0.00078512,-0.00103815,-0.00027394,0.01431166,-0.04749459,0.00041161,
 -0.00093126,0.00033072,0.00039415,-0.00000261,-0.00000013,-0.00000168,
 -0.00000157,-0.00002236,-0.00001697,0.00007865,0.00000531,0.00000254,0
 .00005942,0.00038787,0.00009157,0.00012136,0.00007388,0.00012003,0.000
 06387,-0.00001554,-0.00003872,0.00046336,0.00001860,-0.00012334,-0.024
 86403,0.00207139,0.00022347,0.02854540,-0.00152843,-0.00081943,-0.0160
 2372,0.04721416,0.00001102,0.00024199,0.00009915,-0.00034379,-0.000038
 45,0.00029908,0.00126432,-0.00095453,-0.00590821,-0.00180555,-0.000787
 71,-0.00020507,-0.03415622,0.00138737,-0.00354386,0.01164354,-0.000234
 70,-0.04466505,0.00022786,0.00261126,0.00242731,-0.00006540,0.00003138
 ,0.00002038,-0.00004298,-0.00001870,-0.00002274,0.00006173,-0.00003425
 ,0.00002878,-0.00008151,0.00029520,-0.00001457,-0.00002024,-0.00005870
 ,0.00002830,-0.00008952,-0.00014226,0.00103097,0.00082373,0.00001779,0
 .00180969,0.01741417,-0.00247045,-0.00106069,0.01434264,0.00000119,-0.
 00109493,-0.00978377,0.00108955,0.05062812,-0.00017816,-0.00003412,0.0
 0006549,-0.00060854,-0.00103481,0.00079770,0.00114557,0.00333997,0.000
 43668,-0.00184165,0.00244745,-0.00123091,0.00951819,0.00418233,-0.0042
 0484,-0.00095828,0.00058449,0.00068749,-0.20979465,-0.16163064,0.06030
 770,-0.00003233,-0.00008227,0.00000342,-0.00005116,0.00010343,0.000062
 89,-0.00011645,0.00006574,-0.00008610,0.00012833,-0.00037836,-0.000166
 66,0.00027990,-0.00052706,0.00009718,0.00058514,-0.00183570,0.00007985
 ,-0.00074339,0.00414483,0.00091954,0.00023586,-0.00024083,-0.00025480,
 0.00027429,0.00040275,0.00043249,-0.00020852,-0.00002892,-0.00020522,0
 .22528075,-0.00000858,0.00030935,-0.00004803,-0.00014117,-0.00024820,0
 .00000853,-0.00229864,-0.00263068,0.00061699,-0.00133657,0.00067873,0.
 00008268,-0.01933878,-0.03166141,0.01157974,0.00012095,0.00036147,0.00
 024828,-0.16672632,-0.23408725,0.05705189,-0.00004974,0.00008385,0.000
 00109,0.00006861,-0.00003318,-0.00006109,0.00008042,-0.00002637,0.0000
 4179,-0.00001502,0.00014087,0.00013924,-0.00006655,0.00015459,-0.00015
 341,-0.00031330,0.00115637,0.00036713,0.00165445,-0.00485655,-0.004045
 09,-0.00025447,0.00030818,-0.00063396,0.00015208,0.00037827,0.00009078
 ,-0.00000469,0.00002543,-0.00001225,0.17701263,0.26003338,0.00006162,0
 .00004914,0.00000342,-0.00016542,0.00028718,0.00032062,0.00124633,0.00
 062291,0.00175188,-0.00084050,-0.00172893,-0.00207766,-0.01331802,-0.0
 1835448,-0.00213370,-0.00022052,-0.00255754,0.00029202,0.09459066,0.09
 276669,-0.04395468,-0.00002087,0.00002889,0.00000416,-0.00000390,-0.00
 002148,-0.00001978,-0.00001650,-0.00003384,0.00002046,-0.00002155,0.00
 011117,-0.00003721,-0.00000901,0.00002102,0.00003728,-0.00027888,0.000
 81368,-0.00036753,0.00021914,0.00060743,0.00011432,0.00018231,0.000132
 64,-0.00059926,0.00033303,0.00038673,-0.00099905,0.00028305,-0.0000073
 5,0.00008213,-0.06965124,-0.06395412,0.04906481,0.00007701,0.00025651,
 0.00001129,-0.00034867,-0.00035527,0.00015123,-0.00056995,0.00118806,0
 .00034342,-0.00014492,0.00097845,0.00030563,-0.00818327,0.00218323,-0.
 00496838,0.00209923,-0.00231755,-0.00125207,-0.35292668,0.09127848,-0.
 08851272,-0.00007548,0.00002129,0.00000235,0.00001145,-0.00002050,-0.0
 0000431,0.00003213,-0.00001657,0.00000029,0.00000294,0.00011116,0.0000
 2418,0.00000746,0.00002408,-0.00000837,0.00008865,0.00017507,0.0001661
 2,-0.00046794,0.00006922,0.00029469,-0.00017221,0.00010850,0.00050665,
 0.00005860,-0.00059277,-0.00090159,0.00034843,0.00007223,0.00080521,-0
 .02291490,0.01146468,-0.01236972,0.38307812,0.00005207,-0.00047180,0.0
 0008722,0.00174129,0.00044096,-0.00030894,-0.00127689,-0.00600146,-0.0
 0172311,-0.00126873,0.00083715,0.00048016,0.03220467,-0.01080357,0.010
 02205,0.00081413,0.00205646,0.00076777,0.10045253,-0.09037538,0.023629
 40,0.00018322,-0.00000466,-0.00001459,0.00000470,0.00001325,-0.0000243
 6,0.00003515,0.00000793,0.00001121,-0.00006006,0.00009529,-0.00001143,
 -0.00003655,0.00007733,0.00001523,-0.00002848,0.00036621,0.00034695,0.
 00014411,-0.00116938,-0.00009407,-0.00034903,0.00011552,-0.00028538,-0
 .00038113,0.00011229,0.00056132,-0.00111181,-0.00019403,-0.00092375,-0
 .02649091,0.00991314,-0.00916973,-0.10462830,0.09498474,0.00001244,-0.
 00029088,0.00006341,0.00097706,0.00024706,0.00017507,0.00154851,-0.004
 23856,-0.00155581,0.00027193,0.00020021,0.00022784,0.02188228,-0.01067
 506,-0.00271691,0.00159963,0.00047522,0.00204820,-0.14278275,0.0381601
 9,-0.05203052,0.00010038,-0.00000472,-0.00001242,-0.00000019,-0.000002
 29,-0.00000871,-0.00000669,-0.00000603,0.00000534,-0.00005711,-0.00001
 595,-0.00001464,-0.00004575,-0.00005539,-0.00002362,-0.00003878,-0.000
 06345,0.00004373,-0.00042588,0.00077253,0.00035220,0.00036810,0.000054
 70,-0.00030322,-0.00012091,0.00054386,0.00052251,-0.00059773,-0.000415
 28,0.00006123,0.01190936,-0.00132021,-0.00150222,0.10540610,-0.0233659
 4,0.05466856\\-0.00000467,-0.00000235,-0.00000689,-0.00000051,-0.00000
 134,-0.00000170,-0.00000270,0.00000534,0.00000292,-0.00000048,-0.00000
 155,0.00000750,0.00000744,-0.00001605,-0.00002271,0.00000099,0.0000018
 0,0.00001494,-0.00000238,0.00000683,0.00001231,0.00000056,-0.00000009,
 0.00000455,-0.00000031,-0.00000049,0.00000091,0.00000286,-0.00000046,0
 .00000056,0.00000048,0.00000204,0.00000068,-0.00000099,-0.00000349,0.0
 0000092,0.00000037,-0.00000032,-0.00000615,0.00000113,0.00000214,0.000
 00274,0.00000031,0.00000167,-0.00000158,0.00000034,0.00000204,-0.00000
 130,-0.00000093,0.00000032,-0.00000195,0.00000053,0.00000036,-0.000002
 43,-0.00000204,0.00000358,-0.00000332\\\@


 I MET A TRAVELLER FROM AN ANTIQUE LAND
 WHO SAID... TWO VAST AND TRUNKLESS LEGS OF STONE
 STAND IN THE DESERT..... NEAR THEM,  ON THE SAND,
 HALF SUNK,  A SHATTERED VISAGE LIES,  WHOSE FROWN,
 AND WRINKLED LIP,  AND SNEER OF COLD COMMAND
 TELL THAT ITS SCULPTOR WELL THOSE PASSIONS READ
 WHICH YET SURVIVE,  STAMPED ON THESE LIFELESS THINGS
 THE HAND THAT MOCKED THEM,  AND THE HEART THAT FED-
 AND ON THE PEDESTAL THESE WORDS APPEAR 
 MY NAME IS OZYMANDIAS, KING OF KINGS--   
 LOOK ON MY WORKS YE MIGHTY AND DESPAIR. 
 NOTHING BESIDE REMAINS,  ROUND THE DECAY 
 OF THAT COLOSSAL WRECK,  BOUNDLESS AND BARE
 THE LONE AND LEVEL SANDS STRETCH FAR AWAY.
                                    SHELLEY
 Job cpu time:       0 days  1 hours 35 minutes  0.4 seconds.
 Elapsed time:       0 days  0 hours 23 minutes 54.6 seconds.
 File lengths (MBytes):  RWF=     98 Int=      0 D2E=      0 Chk=      7 Scr=      1
 Normal termination of Gaussian 16 at Tue Jun  1 09:29:55 2021.
### All Done ###
