### Starting Gaussian ###
 Entering Gaussian System, Link 0=g16
 Initial command:
 /cluster/software/gaussian/gaussian-16-A.03/avx2/g16/l1.exe "/local/scratch/cz9n3/Gau-27313.inp" -scrdir="/local/scratch/cz9n3/"
 Entering Link 1 = /cluster/software/gaussian/gaussian-16-A.03/avx2/g16/l1.exe PID=     27314.
  
 Copyright (c) 1988,1990,1992,1993,1995,1998,2003,2009,2016,
            Gaussian, Inc.  All Rights Reserved.
  
 This is part of the Gaussian(R) 16 program.  It is based on
 the Gaussian(R) 09 system (copyright 2009, Gaussian, Inc.),
 the Gaussian(R) 03 system (copyright 2003, Gaussian, Inc.),
 the Gaussian(R) 98 system (copyright 1998, Gaussian, Inc.),
 the Gaussian(R) 94 system (copyright 1995, Gaussian, Inc.),
 the Gaussian 92(TM) system (copyright 1992, Gaussian, Inc.),
 the Gaussian 90(TM) system (copyright 1990, Gaussian, Inc.),
 the Gaussian 88(TM) system (copyright 1988, Gaussian, Inc.),
 the Gaussian 86(TM) system (copyright 1986, Carnegie Mellon
 University), and the Gaussian 82(TM) system (copyright 1983,
 Carnegie Mellon University). Gaussian is a federally registered
 trademark of Gaussian, Inc.
  
 This software contains proprietary and confidential information,
 including trade secrets, belonging to Gaussian, Inc.
  
 This software is provided under written license and may be
 used, copied, transmitted, or stored only in accord with that
 written license.
  
 The following legend is applicable only to US Government
 contracts under FAR:
  
                    RESTRICTED RIGHTS LEGEND
  
 Use, reproduction and disclosure by the US Government is
 subject to restrictions as set forth in subparagraphs (a)
 and (c) of the Commercial Computer Software - Restricted
 Rights clause in FAR 52.227-19.
  
 Gaussian, Inc.
 340 Quinnipiac St., Bldg. 40, Wallingford CT 06492
  
  
 ---------------------------------------------------------------
 Warning -- This program may not be used in any manner that
 competes with the business of Gaussian, Inc. or will provide
 assistance to any competitor of Gaussian, Inc.  The licensee
 of this program is prohibited from giving any competitor of
 Gaussian, Inc. access to this program.  By using this program,
 the user acknowledges that Gaussian, Inc. is engaged in the
 business of creating and licensing software in the field of
 computational chemistry and represents and warrants to the
 licensee that it is not a competitor of Gaussian, Inc. and that
 it will not use this program in any manner prohibited above.
 ---------------------------------------------------------------
  

 Cite this work as:
 Gaussian 16, Revision A.03,
 M. J. Frisch, G. W. Trucks, H. B. Schlegel, G. E. Scuseria, 
 M. A. Robb, J. R. Cheeseman, G. Scalmani, V. Barone, 
 G. A. Petersson, H. Nakatsuji, X. Li, M. Caricato, A. V. Marenich, 
 J. Bloino, B. G. Janesko, R. Gomperts, B. Mennucci, H. P. Hratchian, 
 J. V. Ortiz, A. F. Izmaylov, J. L. Sonnenberg, D. Williams-Young, 
 F. Ding, F. Lipparini, F. Egidi, J. Goings, B. Peng, A. Petrone, 
 T. Henderson, D. Ranasinghe, V. G. Zakrzewski, J. Gao, N. Rega, 
 G. Zheng, W. Liang, M. Hada, M. Ehara, K. Toyota, R. Fukuda, 
 J. Hasegawa, M. Ishida, T. Nakajima, Y. Honda, O. Kitao, H. Nakai, 
 T. Vreven, K. Throssell, J. A. Montgomery, Jr., J. E. Peralta, 
 F. Ogliaro, M. J. Bearpark, J. J. Heyd, E. N. Brothers, K. N. Kudin, 
 V. N. Staroverov, T. A. Keith, R. Kobayashi, J. Normand, 
 K. Raghavachari, A. P. Rendell, J. C. Burant, S. S. Iyengar, 
 J. Tomasi, M. Cossi, J. M. Millam, M. Klene, C. Adamo, R. Cammi, 
 J. W. Ochterski, R. L. Martin, K. Morokuma, O. Farkas, 
 J. B. Foresman, and D. J. Fox, Gaussian, Inc., Wallingford CT, 2016.
 
 ******************************************
 Gaussian 16:  ES64L-G16RevA.03 25-Dec-2016
                 1-Jun-2021 
 ******************************************
 %chk=CCdCNNC1CNCpCpC1.chk
 %NProcShared=20
 Will use up to   20 processors via shared memory.
 -----------------------------
 # opt freq b3lyp/6-31g(2df,p)
 -----------------------------
 1/18=20,19=15,26=3,38=1/1,3;
 2/9=110,12=2,17=6,18=5,40=1/2;
 3/5=1,6=6,7=104,11=2,25=1,30=1,71=1,74=-5/1,2,3;
 4//1;
 5/5=2,38=5/2;
 6/7=2,8=2,9=2,10=2,28=1/1;
 7//1,2,3,16;
 1/18=20,19=15,26=3/3(2);
 2/9=110/2;
 99//99;
 2/9=110/2;
 3/5=1,6=6,7=104,11=2,25=1,30=1,71=1,74=-5/1,2,3;
 4/5=5,16=3,69=1/1;
 5/5=2,38=5/2;
 7//1,2,3,16;
 1/18=20,19=15,26=3/3(-5);
 2/9=110/2;
 6/7=2,8=2,9=2,10=2,19=2,28=1/1;
 99/9=1/99;
 -------------------
 Title Card Required
 -------------------
 Symbolic Z-matrix:
 Charge =  0 Multiplicity = 1
 C                     0.92454   0.02296   0.06172 
 C                     2.41011   0.04913   0.04764 
 C                     3.13024   1.17603  -0.08268 
 N                     4.48934   1.19272  -0.10917 
 N                     5.23896   2.36333  -0.19888 
 C                     6.69049   2.08905  -0.11144 
 C                     7.44466   3.00888   0.85662 
 N                     8.71353   2.31173   1.10952 
 C                     8.39336   0.88392   1.16933 
 C                     9.50502   0.0144    0.60795 
 C                     7.10828   0.69794   0.3802 
 H                     0.57474  -1.00769   0.18286 
 H                     0.52591   0.40458  -0.88216 
 H                     0.5329    0.61193   0.89559 
 H                     2.91936  -0.90446   0.15545 
 H                     2.65187   2.14552  -0.17876 
 H                     4.91803   0.27552  -0.22276 
 H                     4.96968   3.01326   0.54337 
 H                     7.10924   2.2386   -1.11788 
 H                     6.89032   3.13404   1.7945 
 H                     7.62575   4.00007   0.42797 
 H                     9.10761   2.61862   1.99901 
 H                     8.20572   0.59257   2.21118 
 H                     9.73486   0.28222  -0.42919 
 H                     9.19952  -1.03902   0.61658 
 H                     10.41779   0.10555   1.20258 
 H                     6.38375   0.27047   1.08174 
 H                     7.20375   0.01168  -0.47024 
 

 GradGradGradGradGradGradGradGradGradGradGradGradGradGradGradGradGradGrad
 Berny optimization.
 Initialization pass.
                           ----------------------------
                           !    Initial Parameters    !
                           ! (Angstroms and Degrees)  !
 --------------------------                            --------------------------
 ! Name  Definition              Value          Derivative Info.                !
 --------------------------------------------------------------------------------
 ! R1    R(1,2)                  1.4859         estimate D2E/DX2                !
 ! R2    R(1,12)                 1.0951         estimate D2E/DX2                !
 ! R3    R(1,13)                 1.0934         estimate D2E/DX2                !
 ! R4    R(1,14)                 1.0934         estimate D2E/DX2                !
 ! R5    R(2,3)                  1.3437         estimate D2E/DX2                !
 ! R6    R(2,15)                 1.0864         estimate D2E/DX2                !
 ! R7    R(3,4)                  1.3595         estimate D2E/DX2                !
 ! R8    R(3,16)                 1.0853         estimate D2E/DX2                !
 ! R9    R(4,5)                  1.3929         estimate D2E/DX2                !
 ! R10   R(4,17)                 1.0188         estimate D2E/DX2                !
 ! R11   R(5,6)                  1.4798         estimate D2E/DX2                !
 ! R12   R(5,18)                 1.0227         estimate D2E/DX2                !
 ! R13   R(6,7)                  1.5336         estimate D2E/DX2                !
 ! R14   R(6,11)                 1.5334         estimate D2E/DX2                !
 ! R15   R(6,19)                 1.1003         estimate D2E/DX2                !
 ! R16   R(7,8)                  1.4697         estimate D2E/DX2                !
 ! R17   R(7,20)                 1.0966         estimate D2E/DX2                !
 ! R18   R(7,21)                 1.095          estimate D2E/DX2                !
 ! R19   R(8,9)                  1.4645         estimate D2E/DX2                !
 ! R20   R(8,22)                 1.0201         estimate D2E/DX2                !
 ! R21   R(9,10)                 1.5189         estimate D2E/DX2                !
 ! R22   R(9,11)                 1.5195         estimate D2E/DX2                !
 ! R23   R(9,23)                 1.098          estimate D2E/DX2                !
 ! R24   R(10,24)                1.0955         estimate D2E/DX2                !
 ! R25   R(10,25)                1.0969         estimate D2E/DX2                !
 ! R26   R(10,26)                1.0932         estimate D2E/DX2                !
 ! R27   R(11,27)                1.0954         estimate D2E/DX2                !
 ! R28   R(11,28)                1.097          estimate D2E/DX2                !
 ! A1    A(2,1,12)             109.6929         estimate D2E/DX2                !
 ! A2    A(2,1,13)             110.4989         estimate D2E/DX2                !
 ! A3    A(2,1,14)             110.845          estimate D2E/DX2                !
 ! A4    A(12,1,13)            107.9101         estimate D2E/DX2                !
 ! A5    A(12,1,14)            107.9488         estimate D2E/DX2                !
 ! A6    A(13,1,14)            109.8622         estimate D2E/DX2                !
 ! A7    A(1,2,3)              123.4715         estimate D2E/DX2                !
 ! A8    A(1,2,15)             116.8882         estimate D2E/DX2                !
 ! A9    A(3,2,15)             119.6394         estimate D2E/DX2                !
 ! A10   A(2,3,4)              123.2287         estimate D2E/DX2                !
 ! A11   A(2,3,16)             121.4337         estimate D2E/DX2                !
 ! A12   A(4,3,16)             115.3372         estimate D2E/DX2                !
 ! A13   A(3,4,5)              123.3384         estimate D2E/DX2                !
 ! A14   A(3,4,17)             114.3174         estimate D2E/DX2                !
 ! A15   A(5,4,17)             121.5307         estimate D2E/DX2                !
 ! A16   A(4,5,6)              111.6109         estimate D2E/DX2                !
 ! A17   A(4,5,18)             110.2207         estimate D2E/DX2                !
 ! A18   A(6,5,18)             109.4623         estimate D2E/DX2                !
 ! A19   A(5,6,7)              114.1102         estimate D2E/DX2                !
 ! A20   A(5,6,11)             117.0223         estimate D2E/DX2                !
 ! A21   A(5,6,19)             107.1017         estimate D2E/DX2                !
 ! A22   A(7,6,11)             101.9903         estimate D2E/DX2                !
 ! A23   A(7,6,19)             107.9815         estimate D2E/DX2                !
 ! A24   A(11,6,19)            108.2327         estimate D2E/DX2                !
 ! A25   A(6,7,8)              104.3992         estimate D2E/DX2                !
 ! A26   A(6,7,20)             111.0832         estimate D2E/DX2                !
 ! A27   A(6,7,21)             112.157          estimate D2E/DX2                !
 ! A28   A(8,7,20)             110.0839         estimate D2E/DX2                !
 ! A29   A(8,7,21)             110.73           estimate D2E/DX2                !
 ! A30   A(20,7,21)            108.366          estimate D2E/DX2                !
 ! A31   A(7,8,9)              106.3049         estimate D2E/DX2                !
 ! A32   A(7,8,22)             109.929          estimate D2E/DX2                !
 ! A33   A(9,8,22)             110.0075         estimate D2E/DX2                !
 ! A34   A(8,9,10)             112.5217         estimate D2E/DX2                !
 ! A35   A(8,9,11)             106.4407         estimate D2E/DX2                !
 ! A36   A(8,9,23)             109.5617         estimate D2E/DX2                !
 ! A37   A(10,9,11)            110.9146         estimate D2E/DX2                !
 ! A38   A(10,9,23)            108.8977         estimate D2E/DX2                !
 ! A39   A(11,9,23)            108.4084         estimate D2E/DX2                !
 ! A40   A(9,10,24)            111.3151         estimate D2E/DX2                !
 ! A41   A(9,10,25)            110.0625         estimate D2E/DX2                !
 ! A42   A(9,10,26)            111.2435         estimate D2E/DX2                !
 ! A43   A(24,10,25)           107.4974         estimate D2E/DX2                !
 ! A44   A(24,10,26)           108.6262         estimate D2E/DX2                !
 ! A45   A(25,10,26)           107.9602         estimate D2E/DX2                !
 ! A46   A(6,11,9)             106.6126         estimate D2E/DX2                !
 ! A47   A(6,11,27)            112.2814         estimate D2E/DX2                !
 ! A48   A(6,11,28)            110.0406         estimate D2E/DX2                !
 ! A49   A(9,11,27)            105.936          estimate D2E/DX2                !
 ! A50   A(9,11,28)            113.929          estimate D2E/DX2                !
 ! A51   A(27,11,28)           108.0565         estimate D2E/DX2                !
 ! D1    D(12,1,2,3)          -179.7639         estimate D2E/DX2                !
 ! D2    D(12,1,2,15)           -0.1136         estimate D2E/DX2                !
 ! D3    D(13,1,2,3)            61.3861         estimate D2E/DX2                !
 ! D4    D(13,1,2,15)         -118.9636         estimate D2E/DX2                !
 ! D5    D(14,1,2,3)           -60.6521         estimate D2E/DX2                !
 ! D6    D(14,1,2,15)          118.9982         estimate D2E/DX2                !
 ! D7    D(1,2,3,4)           -179.2783         estimate D2E/DX2                !
 ! D8    D(1,2,3,16)             0.4781         estimate D2E/DX2                !
 ! D9    D(15,2,3,4)             1.0806         estimate D2E/DX2                !
 ! D10   D(15,2,3,16)         -179.1631         estimate D2E/DX2                !
 ! D11   D(2,3,4,5)           -177.7622         estimate D2E/DX2                !
 ! D12   D(2,3,4,17)            12.4444         estimate D2E/DX2                !
 ! D13   D(16,3,4,5)             2.4679         estimate D2E/DX2                !
 ! D14   D(16,3,4,17)         -167.3255         estimate D2E/DX2                !
 ! D15   D(3,4,5,6)            175.9727         estimate D2E/DX2                !
 ! D16   D(3,4,5,18)            54.1135         estimate D2E/DX2                !
 ! D17   D(17,4,5,6)           -14.9478         estimate D2E/DX2                !
 ! D18   D(17,4,5,18)         -136.807          estimate D2E/DX2                !
 ! D19   D(4,5,6,7)           -132.8927         estimate D2E/DX2                !
 ! D20   D(4,5,6,11)           -13.9625         estimate D2E/DX2                !
 ! D21   D(4,5,6,19)           107.6645         estimate D2E/DX2                !
 ! D22   D(18,5,6,7)           -10.5969         estimate D2E/DX2                !
 ! D23   D(18,5,6,11)          108.3334         estimate D2E/DX2                !
 ! D24   D(18,5,6,19)         -130.0397         estimate D2E/DX2                !
 ! D25   D(5,6,7,8)            162.5422         estimate D2E/DX2                !
 ! D26   D(5,6,7,20)            43.9254         estimate D2E/DX2                !
 ! D27   D(5,6,7,21)           -77.5151         estimate D2E/DX2                !
 ! D28   D(11,6,7,8)            35.3917         estimate D2E/DX2                !
 ! D29   D(11,6,7,20)          -83.2251         estimate D2E/DX2                !
 ! D30   D(11,6,7,21)          155.3344         estimate D2E/DX2                !
 ! D31   D(19,6,7,8)           -78.5127         estimate D2E/DX2                !
 ! D32   D(19,6,7,20)          162.8705         estimate D2E/DX2                !
 ! D33   D(19,6,7,21)           41.43           estimate D2E/DX2                !
 ! D34   D(5,6,11,9)          -145.9993         estimate D2E/DX2                !
 ! D35   D(5,6,11,27)          -30.4115         estimate D2E/DX2                !
 ! D36   D(5,6,11,28)           89.9876         estimate D2E/DX2                !
 ! D37   D(7,6,11,9)           -20.7526         estimate D2E/DX2                !
 ! D38   D(7,6,11,27)           94.8351         estimate D2E/DX2                !
 ! D39   D(7,6,11,28)         -144.7657         estimate D2E/DX2                !
 ! D40   D(19,6,11,9)           92.9656         estimate D2E/DX2                !
 ! D41   D(19,6,11,27)        -151.4467         estimate D2E/DX2                !
 ! D42   D(19,6,11,28)         -31.0475         estimate D2E/DX2                !
 ! D43   D(6,7,8,9)            -37.624          estimate D2E/DX2                !
 ! D44   D(6,7,8,22)          -156.6524         estimate D2E/DX2                !
 ! D45   D(20,7,8,9)            81.6711         estimate D2E/DX2                !
 ! D46   D(20,7,8,22)          -37.3573         estimate D2E/DX2                !
 ! D47   D(21,7,8,9)          -158.5213         estimate D2E/DX2                !
 ! D48   D(21,7,8,22)           82.4503         estimate D2E/DX2                !
 ! D49   D(7,8,9,10)           145.6882         estimate D2E/DX2                !
 ! D50   D(7,8,9,11)            24.0008         estimate D2E/DX2                !
 ! D51   D(7,8,9,23)           -93.0174         estimate D2E/DX2                !
 ! D52   D(22,8,9,10)          -95.3349         estimate D2E/DX2                !
 ! D53   D(22,8,9,11)          142.9777         estimate D2E/DX2                !
 ! D54   D(22,8,9,23)           25.9596         estimate D2E/DX2                !
 ! D55   D(8,9,10,24)          -57.5213         estimate D2E/DX2                !
 ! D56   D(8,9,10,25)         -176.6052         estimate D2E/DX2                !
 ! D57   D(8,9,10,26)           63.779          estimate D2E/DX2                !
 ! D58   D(11,9,10,24)          61.5871         estimate D2E/DX2                !
 ! D59   D(11,9,10,25)         -57.4967         estimate D2E/DX2                !
 ! D60   D(11,9,10,26)        -177.1126         estimate D2E/DX2                !
 ! D61   D(23,9,10,24)        -179.194          estimate D2E/DX2                !
 ! D62   D(23,9,10,25)          61.7222         estimate D2E/DX2                !
 ! D63   D(23,9,10,26)         -57.8937         estimate D2E/DX2                !
 ! D64   D(8,9,11,6)            -1.1139         estimate D2E/DX2                !
 ! D65   D(8,9,11,27)         -120.8941         estimate D2E/DX2                !
 ! D66   D(8,9,11,28)          120.4623         estimate D2E/DX2                !
 ! D67   D(10,9,11,6)         -123.818          estimate D2E/DX2                !
 ! D68   D(10,9,11,27)         116.4018         estimate D2E/DX2                !
 ! D69   D(10,9,11,28)          -2.2417         estimate D2E/DX2                !
 ! D70   D(23,9,11,6)          116.6697         estimate D2E/DX2                !
 ! D71   D(23,9,11,27)          -3.1106         estimate D2E/DX2                !
 ! D72   D(23,9,11,28)        -121.7541         estimate D2E/DX2                !
 --------------------------------------------------------------------------------
 Trust Radius=3.00D-01 FncErr=1.00D-07 GrdErr=1.00D-06 EigMax=2.50D+02 EigMin=1.00D-04
 Number of steps in this run=    161 maximum allowed number of steps=    168.
 GradGradGradGradGradGradGradGradGradGradGradGradGradGradGradGradGradGrad

                          Input orientation:                          
 ---------------------------------------------------------------------
 Center     Atomic      Atomic             Coordinates (Angstroms)
 Number     Number       Type             X           Y           Z
 ---------------------------------------------------------------------
      1          6           0        0.924540    0.022960    0.061720
      2          6           0        2.410110    0.049130    0.047640
      3          6           0        3.130240    1.176030   -0.082680
      4          7           0        4.489340    1.192720   -0.109170
      5          7           0        5.238960    2.363330   -0.198880
      6          6           0        6.690490    2.089050   -0.111440
      7          6           0        7.444660    3.008880    0.856620
      8          7           0        8.713530    2.311730    1.109520
      9          6           0        8.393360    0.883920    1.169330
     10          6           0        9.505020    0.014400    0.607950
     11          6           0        7.108280    0.697940    0.380200
     12          1           0        0.574740   -1.007690    0.182860
     13          1           0        0.525910    0.404580   -0.882160
     14          1           0        0.532900    0.611930    0.895590
     15          1           0        2.919360   -0.904460    0.155450
     16          1           0        2.651870    2.145520   -0.178760
     17          1           0        4.918030    0.275520   -0.222760
     18          1           0        4.969680    3.013260    0.543370
     19          1           0        7.109240    2.238600   -1.117880
     20          1           0        6.890320    3.134040    1.794500
     21          1           0        7.625750    4.000070    0.427970
     22          1           0        9.107610    2.618620    1.999010
     23          1           0        8.205720    0.592570    2.211180
     24          1           0        9.734860    0.282220   -0.429190
     25          1           0        9.199520   -1.039020    0.616580
     26          1           0       10.417790    0.105550    1.202580
     27          1           0        6.383750    0.270470    1.081740
     28          1           0        7.203750    0.011680   -0.470240
 ---------------------------------------------------------------------
                    Distance matrix (angstroms):
                    1          2          3          4          5
     1  C    0.000000
     2  C    1.485867   0.000000
     3  C    2.493097   1.343679   0.000000
     4  N    3.755708   2.378147   1.359461   0.000000
     5  N    4.915228   3.663152   2.422784   1.392949   0.000000
     6  C    6.127389   4.744284   3.675570   2.376652   1.479802
     7  C    7.215230   5.895868   4.780779   3.600709   2.529017
     8  N    8.185641   6.780859   5.821021   4.536647   3.713113
     9  C    7.599429   6.144456   5.417868   4.119623   3.743113
    10  C    8.597853   7.117085   6.516454   5.201898   4.936367
    11  C    6.228617   4.754403   4.033315   2.709822   2.569672
    12  H    1.095114   2.122201   3.371902   4.500131   5.767534
    13  H    1.093366   2.130982   2.831402   4.114299   5.149409
    14  H    1.093438   2.135341   2.832207   4.123139   5.139287
    15  H    2.201863   1.086413   2.104665   2.633064   4.023002
    16  H    2.747137   2.122394   1.085348   2.070982   2.596321
    17  H    4.011568   2.532594   2.006672   1.018790   2.112467
    18  H    5.053418   3.947558   2.674115   1.992712   1.022671
    19  H    6.674656   5.313571   4.246544   2.995870   2.087598
    20  H    6.947797   5.713184   4.636357   3.627311   2.700842
    21  H    7.801138   6.554195   5.333439   4.243442   2.961186
    22  H    8.800749   7.434153   6.491799   5.273142   4.456719
    23  H    7.613161   6.210099   5.600243   4.422181   4.212558
    24  H    8.827794   7.343954   6.673827   5.333564   4.959554
    25  H    8.361278   6.899554   6.498582   5.262430   5.284600
    26  H    9.561913   8.090736   7.477045   6.168399   5.820820
    27  H    5.559197   4.111954   3.572288   2.420248   2.707507
    28  H    6.301713   4.821679   4.254339   2.982155   3.076409
                    6          7          8          9         10
     6  C    0.000000
     7  C    1.533623   0.000000
     8  N    2.373399   1.469696   0.000000
     9  C    2.447954   2.348036   1.464489   0.000000
    10  C    3.569772   3.643327   2.481079   1.518881   0.000000
    11  C    1.533442   2.383395   2.390199   1.519456   2.502690
    12  H    6.861400   7.986400   8.838391   8.104451   8.998626
    13  H    6.436886   7.594395   8.639510   8.144639   9.110274
    14  H    6.411857   7.315690   8.358097   7.869927   8.996595
    15  H    4.822215   6.023638   6.695262   5.847301   6.664831
    16  H    4.039576   4.978779   6.199275   6.031060   7.219851
    17  H    2.538286   3.875587   4.508541   3.792886   4.668912
    18  H    2.060128   2.494729   3.850855   4.080135   5.437522
    19  H    1.100290   2.145807   2.745980   2.952194   3.696663
    20  H    2.182783   1.096621   2.114116   2.777230   4.239895
    21  H    2.194920   1.094985   2.120912   3.293817   4.410172
    22  H    3.252217   2.054936   1.020134   2.051269   2.979084
    23  H    3.151180   2.872734   2.104052   1.097973   2.143084
    24  H    3.554404   3.785895   2.744022   2.171850   1.095542
    25  H    4.075545   4.418444   3.421506   2.157110   1.096858
    26  H    4.421955   4.169954   2.789335   2.169166   1.093180
    27  H    2.196589   2.945352   3.097642   2.102980   3.167392
    28  H    2.169710   3.286610   3.172587   2.205485   2.541327
                   11         12         13         14         15
    11  C    0.000000
    12  H    6.755388   0.000000
    13  H    6.708741   1.769508   0.000000
    14  H    6.596108   1.770001   1.789815   0.000000
    15  H    4.490573   2.347051   2.918702   2.922745   0.000000
    16  H    4.718847   3.793148   2.836433   2.827748   3.079874
    17  H    2.310670   4.547013   4.443218   4.537978   2.351612
    18  H    3.156096   5.967705   5.346442   5.057219   4.438786
    19  H    2.148925   7.411479   6.838087   7.067416   5.390296
    20  H    2.825303   7.722555   7.424296   6.898251   5.896142
    21  H    3.342771   8.651848   8.065464   7.874432   6.802851
    22  H    3.210433   9.447666   9.319264   8.875246   7.355627
    23  H    2.137280   8.056474   8.281520   7.784813   5.866236
    24  H    2.779723   9.270721   9.220896   9.302678   6.942698
    25  H    2.728771   8.635735   8.919737   8.826879   6.298504
    26  H    3.461227   9.958151  10.113597   9.902611   7.638262
    27  H    1.095369   6.015503   6.179739   5.863761   3.773655
    28  H    1.096957   6.738652   6.702059   6.835644   4.425697
                   16         17         18         19         20
    16  H    0.000000
    17  H    2.938421   0.000000
    18  H    2.578117   2.843386   0.000000
    19  H    4.556178   3.075114   2.817369   0.000000
    20  H    4.778638   4.016267   2.295381   3.054782   0.000000
    21  H    5.342935   4.650534   2.835810   2.399836   1.777152
    22  H    6.829574   5.289514   4.404213   3.721949   2.285576
    23  H    6.242493   4.102864   4.371874   3.872250   2.891880
    24  H    7.328257   4.821256   5.577759   3.345982   4.600987
    25  H    7.324314   4.556716   5.858146   4.256808   4.912670
    26  H    8.147336   5.683999   6.210575   4.569567   4.686701
    27  H    4.362522   1.962162   3.132464   3.039441   2.994106
    28  H    5.035657   2.314168   3.876591   2.321108   3.869938
                   21         22         23         24         25
    21  H    0.000000
    22  H    2.563685   0.000000
    23  H    3.889378   2.227847   0.000000
    24  H    4.359527   3.427588   3.066943   0.000000
    25  H    5.282495   3.911252   2.488468   1.768021   0.000000
    26  H    4.854152   2.943874   2.479459   1.777717   1.771332
    27  H    3.984959   3.711416   2.167708   3.676001   3.140016
    28  H    4.110002   4.064236   2.920854   2.545858   2.503647
                   26         27         28
    26  H    0.000000
    27  H    4.039218   0.000000
    28  H    3.624526   1.774264   0.000000
 Stoichiometry    C8H17N3
 Framework group  C1[X(C8H17N3)]
 Deg. of freedom    78
 Full point group                 C1      NOp   1
 Largest Abelian subgroup         C1      NOp   1
 Largest concise Abelian subgroup C1      NOp   1
                         Standard orientation:                         
 ---------------------------------------------------------------------
 Center     Atomic      Atomic             Coordinates (Angstroms)
 Number     Number       Type             X           Y           Z
 ---------------------------------------------------------------------
      1          6           0        5.025459    0.525327    0.327256
      2          6           0        3.564225    0.698073    0.120478
      3          6           0        2.719216   -0.325542   -0.088439
      4          7           0        1.385103   -0.160726   -0.291195
      5          7           0        0.499983   -1.222471   -0.463144
      6          6           0       -0.899627   -0.753646   -0.568555
      7          6           0       -1.889392   -1.534740    0.304519
      8          7           0       -3.072758   -0.666582    0.381678
      9          6           0       -2.570560    0.706585    0.464974
     10          6           0       -3.472392    1.700058   -0.246862
     11          6           0       -1.182327    0.694981   -0.152618
     12          1           0        5.494655    1.502960    0.480112
     13          1           0        5.484881    0.065669   -0.552002
     14          1           0        5.223660   -0.085609    1.212174
     15          1           0        3.180635    1.714102    0.149383
     16          1           0        3.068805   -1.352831   -0.109533
     17          1           0        1.103825    0.801840   -0.470871
     18          1           0        0.581286   -1.880132    0.315783
     19          1           0       -1.203520   -0.875762   -1.618972
     20          1           0       -1.481145   -1.704954    1.307983
     21          1           0       -2.148355   -2.505093   -0.131766
     22          1           0       -3.614953   -0.891149    1.216104
     23          1           0       -2.478822    1.001189    1.518700
     24          1           0       -3.602969    1.434557   -1.301695
     25          1           0       -3.029301    2.702816   -0.211593
     26          1           0       -4.457168    1.749881    0.225130
     27          1           0       -0.501264    1.042286    0.631834
     28          1           0       -1.074155    1.362100   -1.016659
 ---------------------------------------------------------------------
 Rotational constants (GHZ):           2.6856160           0.4172457           0.3773846
 Standard basis: 6-31G(2df,p) (6D, 7F)
 There are   426 symmetry adapted cartesian basis functions of A   symmetry.
 There are   393 symmetry adapted basis functions of A   symmetry.
   393 basis functions,   603 primitive gaussians,   426 cartesian basis functions
    43 alpha electrons       43 beta electrons
       nuclear repulsion energy       629.9878218054 Hartrees.
 NAtoms=   28 NActive=   28 NUniq=   28 SFac= 1.00D+00 NAtFMM=   60 NAOKFM=F Big=F
 Integral buffers will be    131072 words long.
 Raffenetti 2 integral format.
 Two-electron integral symmetry is turned on.
 One-electron integrals computed using PRISM.
 PrsmSu:  requested number of processors reduced to:  13 ShMem   1 Linda.
 NBasis=   393 RedAO= T EigKep=  2.35D-04  NBF=   393
 NBsUse=   393 1.00D-06 EigRej= -1.00D+00 NBFU=   393
 ExpMin= 1.61D-01 ExpMax= 4.17D+03 ExpMxC= 6.27D+02 IAcc=3 IRadAn=         5 AccDes= 0.00D+00
 Harris functional with IExCor=  402 and IRadAn=       5 diagonalized for initial guess.
 HarFok:  IExCor=  402 AccDes= 0.00D+00 IRadAn=         5 IDoV= 1 UseB2=F ITyADJ=14
 ICtDFT=  3500011 ScaDFX=  1.000000  1.000000  1.000000  1.000000
 FoFCou: FMM=F IPFlag=           0 FMFlag=      100000 FMFlg1=           0
         NFxFlg=           0 DoJE=T BraDBF=F KetDBF=T FulRan=T
         wScrn=  0.000000 ICntrl=       500 IOpCl=  0 I1Cent=   200000004 NGrid=           0
         NMat0=    1 NMatS0=      1 NMatT0=    0 NMatD0=    1 NMtDS0=    0 NMtDT0=    0
 Petite list used in FoFCou.
 Requested convergence on RMS density matrix=1.00D-08 within 128 cycles.
 Requested convergence on MAX density matrix=1.00D-06.
 Requested convergence on             energy=1.00D-06.
 No special actions if energy rises.
 Integral accuracy reduced to 1.0D-05 until final iterations.
 Initial convergence to 1.0D-05 achieved.  Increase integral accuracy.
 SCF Done:  E(RB3LYP) =  -479.275477801     A.U. after   13 cycles
            NFock= 13  Conv=0.83D-08     -V/T= 2.0076

 **********************************************************************

            Population analysis using the SCF density.

 **********************************************************************

 Orbital symmetries:
       Occupied  (A) (A) (A) (A) (A) (A) (A) (A) (A) (A) (A) (A)
                 (A) (A) (A) (A) (A) (A) (A) (A) (A) (A) (A) (A)
                 (A) (A) (A) (A) (A) (A) (A) (A) (A) (A) (A) (A)
                 (A) (A) (A) (A) (A) (A) (A)
       Virtual   (A) (A) (A) (A) (A) (A) (A) (A) (A) (A) (A) (A)
                 (A) (A) (A) (A) (A) (A) (A) (A) (A) (A) (A) (A)
                 (A) (A) (A) (A) (A) (A) (A) (A) (A) (A) (A) (A)
                 (A) (A) (A) (A) (A) (A) (A) (A) (A) (A) (A) (A)
                 (A) (A) (A) (A) (A) (A) (A) (A) (A) (A) (A) (A)
                 (A) (A) (A) (A) (A) (A) (A) (A) (A) (A) (A) (A)
                 (A) (A) (A) (A) (A) (A) (A) (A) (A) (A) (A) (A)
                 (A) (A) (A) (A) (A) (A) (A) (A) (A) (A) (A) (A)
                 (A) (A) (A) (A) (A) (A) (A) (A) (A) (A) (A) (A)
                 (A) (A) (A) (A) (A) (A) (A) (A) (A) (A) (A) (A)
                 (A) (A) (A) (A) (A) (A) (A) (A) (A) (A) (A) (A)
                 (A) (A) (A) (A) (A) (A) (A) (A) (A) (A) (A) (A)
                 (A) (A) (A) (A) (A) (A) (A) (A) (A) (A) (A) (A)
                 (A) (A) (A) (A) (A) (A) (A) (A) (A) (A) (A) (A)
                 (A) (A) (A) (A) (A) (A) (A) (A) (A) (A) (A) (A)
                 (A) (A) (A) (A) (A) (A) (A) (A) (A) (A) (A) (A)
                 (A) (A) (A) (A) (A) (A) (A) (A) (A) (A) (A) (A)
                 (A) (A) (A) (A) (A) (A) (A) (A) (A) (A) (A) (A)
                 (A) (A) (A) (A) (A) (A) (A) (A) (A) (A) (A) (A)
                 (A) (A) (A) (A) (A) (A) (A) (A) (A) (A) (A) (A)
                 (A) (A) (A) (A) (A) (A) (A) (A) (A) (A) (A) (A)
                 (A) (A) (A) (A) (A) (A) (A) (A) (A) (A) (A) (A)
                 (A) (A) (A) (A) (A) (A) (A) (A) (A) (A) (A) (A)
                 (A) (A) (A) (A) (A) (A) (A) (A) (A) (A) (A) (A)
                 (A) (A) (A) (A) (A) (A) (A) (A) (A) (A) (A) (A)
                 (A) (A) (A) (A) (A) (A) (A) (A) (A) (A) (A) (A)
                 (A) (A) (A) (A) (A) (A) (A) (A) (A) (A) (A) (A)
                 (A) (A) (A) (A) (A) (A) (A) (A) (A) (A) (A) (A)
                 (A) (A) (A) (A) (A) (A) (A) (A) (A) (A) (A) (A)
                 (A) (A)
 The electronic state is 1-A.
 Alpha  occ. eigenvalues --  -14.34794 -14.34610 -14.31411 -10.21912 -10.21064
 Alpha  occ. eigenvalues --  -10.21012 -10.19155 -10.18347 -10.17092 -10.15803
 Alpha  occ. eigenvalues --  -10.13822  -0.98558  -0.92236  -0.83106  -0.76951
 Alpha  occ. eigenvalues --   -0.75267  -0.72540  -0.67202  -0.64032  -0.60145
 Alpha  occ. eigenvalues --   -0.56870  -0.56354  -0.52009  -0.50683  -0.48688
 Alpha  occ. eigenvalues --   -0.46764  -0.44078  -0.42672  -0.41333  -0.39901
 Alpha  occ. eigenvalues --   -0.39675  -0.39341  -0.38402  -0.36348  -0.35872
 Alpha  occ. eigenvalues --   -0.35548  -0.34297  -0.33331  -0.33246  -0.32466
 Alpha  occ. eigenvalues --   -0.24144  -0.22487  -0.14409
 Alpha virt. eigenvalues --    0.05123   0.06580   0.08507   0.09316   0.10717
 Alpha virt. eigenvalues --    0.11915   0.12666   0.13237   0.14204   0.15004
 Alpha virt. eigenvalues --    0.15472   0.16038   0.16711   0.17747   0.18289
 Alpha virt. eigenvalues --    0.19617   0.19933   0.20756   0.21889   0.22690
 Alpha virt. eigenvalues --    0.23809   0.25233   0.26503   0.27400   0.28527
 Alpha virt. eigenvalues --    0.29443   0.32347   0.34468   0.38603   0.43835
 Alpha virt. eigenvalues --    0.45136   0.47010   0.47898   0.48378   0.50422
 Alpha virt. eigenvalues --    0.50908   0.51556   0.51780   0.53136   0.54070
 Alpha virt. eigenvalues --    0.54822   0.55532   0.55937   0.56192   0.57903
 Alpha virt. eigenvalues --    0.59866   0.60842   0.61142   0.63632   0.64481
 Alpha virt. eigenvalues --    0.66399   0.67390   0.69694   0.70388   0.71051
 Alpha virt. eigenvalues --    0.71602   0.72101   0.72210   0.73636   0.74681
 Alpha virt. eigenvalues --    0.75290   0.75700   0.76255   0.76779   0.76990
 Alpha virt. eigenvalues --    0.77756   0.78138   0.79815   0.80275   0.81776
 Alpha virt. eigenvalues --    0.83067   0.83288   0.83641   0.85279   0.86603
 Alpha virt. eigenvalues --    0.87325   0.87859   0.89412   0.91128   0.92768
 Alpha virt. eigenvalues --    0.93923   0.94834   0.97991   1.01098   1.02349
 Alpha virt. eigenvalues --    1.05669   1.07131   1.10803   1.12434   1.14544
 Alpha virt. eigenvalues --    1.16779   1.17873   1.20505   1.22993   1.24715
 Alpha virt. eigenvalues --    1.25647   1.28364   1.29643   1.31012   1.33387
 Alpha virt. eigenvalues --    1.33913   1.37802   1.40538   1.41190   1.42178
 Alpha virt. eigenvalues --    1.42870   1.44183   1.45704   1.47743   1.49243
 Alpha virt. eigenvalues --    1.50500   1.51813   1.53664   1.54671   1.56465
 Alpha virt. eigenvalues --    1.58295   1.58598   1.60303   1.60733   1.62101
 Alpha virt. eigenvalues --    1.64789   1.66500   1.67748   1.70545   1.72516
 Alpha virt. eigenvalues --    1.73573   1.75659   1.76892   1.79660   1.80003
 Alpha virt. eigenvalues --    1.81962   1.83353   1.85202   1.87053   1.91137
 Alpha virt. eigenvalues --    1.93872   1.96221   1.97280   1.98690   1.99958
 Alpha virt. eigenvalues --    2.01173   2.03281   2.06287   2.08384   2.11146
 Alpha virt. eigenvalues --    2.15146   2.18460   2.18950   2.22495   2.26235
 Alpha virt. eigenvalues --    2.28309   2.29967   2.32774   2.34308   2.36714
 Alpha virt. eigenvalues --    2.38500   2.39251   2.40039   2.41198   2.44106
 Alpha virt. eigenvalues --    2.47124   2.48544   2.50182   2.51550   2.53076
 Alpha virt. eigenvalues --    2.56740   2.59071   2.61817   2.64914   2.65727
 Alpha virt. eigenvalues --    2.66500   2.69508   2.71767   2.73084   2.74028
 Alpha virt. eigenvalues --    2.75576   2.76206   2.82191   2.82777   2.83900
 Alpha virt. eigenvalues --    2.85068   2.85400   2.86720   2.88217   2.89136
 Alpha virt. eigenvalues --    2.89705   2.92444   2.93287   2.93888   2.94964
 Alpha virt. eigenvalues --    2.96504   2.99516   3.00856   3.03092   3.03783
 Alpha virt. eigenvalues --    3.04692   3.06377   3.08578   3.10051   3.11201
 Alpha virt. eigenvalues --    3.15120   3.17010   3.19134   3.19532   3.21021
 Alpha virt. eigenvalues --    3.21658   3.23116   3.23972   3.27946   3.29787
 Alpha virt. eigenvalues --    3.30262   3.33594   3.34177   3.36311   3.38003
 Alpha virt. eigenvalues --    3.41731   3.42910   3.44347   3.45244   3.45691
 Alpha virt. eigenvalues --    3.47990   3.49406   3.50962   3.52065   3.54015
 Alpha virt. eigenvalues --    3.54602   3.58421   3.58846   3.61814   3.64429
 Alpha virt. eigenvalues --    3.67564   3.68437   3.69090   3.70633   3.71719
 Alpha virt. eigenvalues --    3.74544   3.75535   3.78039   3.79978   3.82146
 Alpha virt. eigenvalues --    3.85996   3.87935   3.89798   3.91413   3.96722
 Alpha virt. eigenvalues --    3.98780   4.00796   4.02454   4.05122   4.07807
 Alpha virt. eigenvalues --    4.09199   4.14738   4.15422   4.18134   4.20690
 Alpha virt. eigenvalues --    4.21499   4.26451   4.28265   4.30438   4.33432
 Alpha virt. eigenvalues --    4.35106   4.35956   4.37593   4.39735   4.40111
 Alpha virt. eigenvalues --    4.42342   4.43548   4.45133   4.46564   4.47619
 Alpha virt. eigenvalues --    4.49760   4.50016   4.51447   4.53957   4.55212
 Alpha virt. eigenvalues --    4.55652   4.56940   4.58256   4.60126   4.60765
 Alpha virt. eigenvalues --    4.62546   4.63099   4.65218   4.65796   4.67684
 Alpha virt. eigenvalues --    4.68878   4.69489   4.70947   4.73127   4.73823
 Alpha virt. eigenvalues --    4.75837   4.77117   4.79035   4.80256   4.80414
 Alpha virt. eigenvalues --    4.81459   4.82172   4.83621   4.85665   4.86630
 Alpha virt. eigenvalues --    4.87974   4.89214   4.91169   4.91412   4.94270
 Alpha virt. eigenvalues --    4.95925   4.97007   4.99202   5.00406   5.03638
 Alpha virt. eigenvalues --    5.06495   5.08378   5.09498   5.13470   5.15594
 Alpha virt. eigenvalues --    5.17708   5.21893   5.24972   5.28689   5.29208
 Alpha virt. eigenvalues --    5.33749   5.39072   5.40709   5.46820   5.49983
 Alpha virt. eigenvalues --    5.51014   5.54301   5.56426   5.57917   5.60879
 Alpha virt. eigenvalues --    5.70813   5.78578   5.85625   5.96376   6.05340
 Alpha virt. eigenvalues --    6.51157   9.46758  10.33846  10.92638  11.22407
 Alpha virt. eigenvalues --   11.33758  11.42886  11.50579  11.69204  11.76103
 Alpha virt. eigenvalues --   12.04344  12.28161  13.03854  15.16044  18.27474
          Condensed to atoms (all electrons):
               1          2          3          4          5          6
     1  C    4.959857   0.393524  -0.001914   0.001935  -0.000080   0.000003
     2  C    0.393524   4.903644   0.666975  -0.024873   0.003251  -0.000192
     3  C   -0.001914   0.666975   4.579486   0.439282  -0.048950   0.005259
     4  N    0.001935  -0.024873   0.439282   6.390569   0.280472  -0.047480
     5  N   -0.000080   0.003251  -0.048950   0.280472   6.507102   0.369304
     6  C    0.000003  -0.000192   0.005259  -0.047480   0.369304   4.669271
     7  C   -0.000000   0.000005  -0.000131   0.002144  -0.020792   0.392875
     8  N   -0.000000  -0.000000  -0.000000  -0.000106   0.000916  -0.028469
     9  C    0.000000   0.000000  -0.000036   0.000203   0.003078  -0.046788
    10  C   -0.000000  -0.000000   0.000000  -0.000002  -0.000091   0.000918
    11  C    0.000000  -0.000017   0.001235  -0.014043  -0.041612   0.402468
    12  H    0.374826  -0.016209   0.001276  -0.000036   0.000001  -0.000000
    13  H    0.373470  -0.031008  -0.007832   0.000158  -0.000007  -0.000000
    14  H    0.376860  -0.035141  -0.010107   0.000110   0.000005   0.000000
    15  H   -0.059816   0.358583  -0.031064  -0.014982   0.000033  -0.000002
    16  H   -0.009166  -0.040514   0.352698  -0.044948  -0.000865   0.000297
    17  H   -0.000458  -0.001672  -0.037861   0.346843  -0.040850  -0.006394
    18  H   -0.000012   0.000135  -0.000464  -0.053861   0.344448  -0.075180
    19  H   -0.000000  -0.000001  -0.000182   0.000049  -0.031518   0.357987
    20  H   -0.000000   0.000001  -0.000033  -0.000070   0.000077  -0.037671
    21  H    0.000000  -0.000000   0.000005  -0.000033  -0.000032  -0.016837
    22  H   -0.000000   0.000000  -0.000000   0.000005  -0.000145   0.004223
    23  H    0.000000   0.000000   0.000002   0.000020   0.000029   0.003104
    24  H    0.000000   0.000000   0.000000   0.000001   0.000010   0.000462
    25  H    0.000000   0.000000   0.000000   0.000001   0.000000   0.000443
    26  H    0.000000   0.000000  -0.000000  -0.000000   0.000001  -0.000154
    27  H   -0.000000  -0.000119   0.000549   0.008898  -0.010398  -0.022581
    28  H   -0.000000  -0.000011  -0.000098  -0.000924   0.001948  -0.019369
               7          8          9         10         11         12
     1  C   -0.000000  -0.000000   0.000000  -0.000000   0.000000   0.374826
     2  C    0.000005  -0.000000   0.000000  -0.000000  -0.000017  -0.016209
     3  C   -0.000131  -0.000000  -0.000036   0.000000   0.001235   0.001276
     4  N    0.002144  -0.000106   0.000203  -0.000002  -0.014043  -0.000036
     5  N   -0.020792   0.000916   0.003078  -0.000091  -0.041612   0.000001
     6  C    0.392875  -0.028469  -0.046788   0.000918   0.402468  -0.000000
     7  C    4.954875   0.370498  -0.090734   0.003231  -0.060632   0.000000
     8  N    0.370498   6.420339   0.391486  -0.040913  -0.033408  -0.000000
     9  C   -0.090734   0.391486   4.675084   0.388920   0.389420   0.000000
    10  C    0.003231  -0.040913   0.388920   5.037790  -0.024561   0.000000
    11  C   -0.060632  -0.033408   0.389420  -0.024561   5.017389   0.000000
    12  H    0.000000  -0.000000   0.000000   0.000000   0.000000   0.604926
    13  H    0.000000   0.000000   0.000000  -0.000000  -0.000000  -0.032506
    14  H   -0.000000  -0.000000  -0.000000   0.000000  -0.000000  -0.032245
    15  H   -0.000000  -0.000000  -0.000001  -0.000000  -0.000105  -0.008191
    16  H   -0.000013  -0.000000   0.000000  -0.000000   0.000004  -0.000125
    17  H    0.000481   0.000022  -0.000384   0.000023   0.007499  -0.000002
    18  H   -0.005857  -0.000050   0.000307  -0.000002   0.000248  -0.000000
    19  H   -0.042077   0.002752   0.006087   0.000239  -0.056386   0.000000
    20  H    0.355057  -0.042464   0.006538  -0.000295  -0.011427   0.000000
    21  H    0.359188  -0.021801   0.004645  -0.000206   0.006651  -0.000000
    22  H   -0.041502   0.342123  -0.045937   0.004010   0.009255   0.000000
    23  H    0.009619  -0.053683   0.372135  -0.067444  -0.048941   0.000000
    24  H    0.000842   0.001645  -0.021585   0.364702  -0.007217   0.000000
    25  H   -0.000224   0.003246  -0.020233   0.357777  -0.004834   0.000000
    26  H   -0.000072  -0.000887  -0.020919   0.366325   0.004138   0.000000
    27  H   -0.001025   0.001997  -0.016792   0.005202   0.348961  -0.000000
    28  H    0.006606   0.000973  -0.032250  -0.013095   0.363084   0.000000
              13         14         15         16         17         18
     1  C    0.373470   0.376860  -0.059816  -0.009166  -0.000458  -0.000012
     2  C   -0.031008  -0.035141   0.358583  -0.040514  -0.001672   0.000135
     3  C   -0.007832  -0.010107  -0.031064   0.352698  -0.037861  -0.000464
     4  N    0.000158   0.000110  -0.014982  -0.044948   0.346843  -0.053861
     5  N   -0.000007   0.000005   0.000033  -0.000865  -0.040850   0.344448
     6  C   -0.000000   0.000000  -0.000002   0.000297  -0.006394  -0.075180
     7  C    0.000000  -0.000000  -0.000000  -0.000013   0.000481  -0.005857
     8  N    0.000000  -0.000000  -0.000000  -0.000000   0.000022  -0.000050
     9  C    0.000000  -0.000000  -0.000001   0.000000  -0.000384   0.000307
    10  C   -0.000000   0.000000  -0.000000  -0.000000   0.000023  -0.000002
    11  C   -0.000000  -0.000000  -0.000105   0.000004   0.007499   0.000248
    12  H   -0.032506  -0.032245  -0.008191  -0.000125  -0.000002  -0.000000
    13  H    0.615800  -0.037474   0.004404   0.001129   0.000030   0.000006
    14  H   -0.037474   0.619190   0.004952   0.002916   0.000018  -0.000014
    15  H    0.004404   0.004952   0.681530   0.007447   0.008599   0.000005
    16  H    0.001129   0.002916   0.007447   0.636006   0.006537   0.000845
    17  H    0.000030   0.000018   0.008599   0.006537   0.457560   0.003570
    18  H    0.000006  -0.000014   0.000005   0.000845   0.003570   0.539952
    19  H    0.000000  -0.000000  -0.000000  -0.000022  -0.000306   0.007594
    20  H    0.000000  -0.000000  -0.000000  -0.000005  -0.000065   0.010915
    21  H    0.000000  -0.000000  -0.000000   0.000000  -0.000007   0.000071
    22  H   -0.000000   0.000000   0.000000   0.000000   0.000000  -0.000041
    23  H   -0.000000   0.000000  -0.000000   0.000000   0.000027   0.000033
    24  H   -0.000000   0.000000   0.000000   0.000000  -0.000002   0.000001
    25  H   -0.000000   0.000000   0.000000  -0.000000  -0.000003   0.000000
    26  H   -0.000000   0.000000  -0.000000  -0.000000  -0.000001  -0.000000
    27  H   -0.000000   0.000001   0.000123   0.000017   0.001073  -0.000325
    28  H    0.000000  -0.000000  -0.000007  -0.000003   0.003121  -0.000150
              19         20         21         22         23         24
     1  C   -0.000000  -0.000000   0.000000  -0.000000   0.000000   0.000000
     2  C   -0.000001   0.000001  -0.000000   0.000000   0.000000   0.000000
     3  C   -0.000182  -0.000033   0.000005  -0.000000   0.000002   0.000000
     4  N    0.000049  -0.000070  -0.000033   0.000005   0.000020   0.000001
     5  N   -0.031518   0.000077  -0.000032  -0.000145   0.000029   0.000010
     6  C    0.357987  -0.037671  -0.016837   0.004223   0.003104   0.000462
     7  C   -0.042077   0.355057   0.359188  -0.041502   0.009619   0.000842
     8  N    0.002752  -0.042464  -0.021801   0.342123  -0.053683   0.001645
     9  C    0.006087   0.006538   0.004645  -0.045937   0.372135  -0.021585
    10  C    0.000239  -0.000295  -0.000206   0.004010  -0.067444   0.364702
    11  C   -0.056386  -0.011427   0.006651   0.009255  -0.048941  -0.007217
    12  H    0.000000   0.000000  -0.000000   0.000000   0.000000   0.000000
    13  H    0.000000   0.000000   0.000000  -0.000000  -0.000000  -0.000000
    14  H   -0.000000  -0.000000  -0.000000   0.000000   0.000000   0.000000
    15  H   -0.000000  -0.000000  -0.000000   0.000000  -0.000000   0.000000
    16  H   -0.000022  -0.000005   0.000000   0.000000   0.000000   0.000000
    17  H   -0.000306  -0.000065  -0.000007   0.000000   0.000027  -0.000002
    18  H    0.007594   0.010915   0.000071  -0.000041   0.000033   0.000001
    19  H    0.664597   0.006854  -0.007950  -0.000323  -0.000135   0.000306
    20  H    0.006854   0.691064  -0.052659  -0.010204   0.004136   0.000045
    21  H   -0.007950  -0.052659   0.617868   0.002398  -0.000368  -0.000041
    22  H   -0.000323  -0.010204   0.002398   0.531446  -0.012669  -0.000389
    23  H   -0.000135   0.004136  -0.000368  -0.012669   0.738995   0.006927
    24  H    0.000306   0.000045  -0.000041  -0.000389   0.006927   0.591200
    25  H    0.000028   0.000025   0.000002  -0.000301   0.001733  -0.030162
    26  H   -0.000003   0.000006  -0.000001   0.001182  -0.002618  -0.030180
    27  H    0.005262   0.001555  -0.000177  -0.000369  -0.014221  -0.000006
    28  H   -0.010134  -0.000107  -0.000185  -0.000147   0.006347   0.004285
              25         26         27         28
     1  C    0.000000   0.000000  -0.000000  -0.000000
     2  C    0.000000   0.000000  -0.000119  -0.000011
     3  C    0.000000  -0.000000   0.000549  -0.000098
     4  N    0.000001  -0.000000   0.008898  -0.000924
     5  N    0.000000   0.000001  -0.010398   0.001948
     6  C    0.000443  -0.000154  -0.022581  -0.019369
     7  C   -0.000224  -0.000072  -0.001025   0.006606
     8  N    0.003246  -0.000887   0.001997   0.000973
     9  C   -0.020233  -0.020919  -0.016792  -0.032250
    10  C    0.357777   0.366325   0.005202  -0.013095
    11  C   -0.004834   0.004138   0.348961   0.363084
    12  H    0.000000   0.000000  -0.000000   0.000000
    13  H   -0.000000  -0.000000  -0.000000   0.000000
    14  H    0.000000   0.000000   0.000001  -0.000000
    15  H    0.000000  -0.000000   0.000123  -0.000007
    16  H   -0.000000  -0.000000   0.000017  -0.000003
    17  H   -0.000003  -0.000001   0.001073   0.003121
    18  H    0.000000  -0.000000  -0.000325  -0.000150
    19  H    0.000028  -0.000003   0.005262  -0.010134
    20  H    0.000025   0.000006   0.001555  -0.000107
    21  H    0.000002  -0.000001  -0.000177  -0.000185
    22  H   -0.000301   0.001182  -0.000369  -0.000147
    23  H    0.001733  -0.002618  -0.014221   0.006347
    24  H   -0.030162  -0.030180  -0.000006   0.004285
    25  H    0.614264  -0.031262   0.000299   0.001651
    26  H   -0.031262   0.608637  -0.000265   0.000223
    27  H    0.000299  -0.000265   0.624334  -0.046797
    28  H    0.001651   0.000223  -0.046797   0.629792
 Mulliken charges:
               1
     1  C   -0.409028
     2  C   -0.176362
     3  C    0.091906
     4  N   -0.269332
     5  N   -0.315338
     6  C    0.094502
     7  C   -0.192363
     8  N   -0.314218
     9  C    0.057758
    10  C   -0.382528
    11  C   -0.247169
    12  H    0.108286
    13  H    0.113830
    14  H    0.110930
    15  H    0.048492
    16  H    0.087767
    17  H    0.252601
    18  H    0.227826
    19  H    0.097282
    20  H    0.078726
    21  H    0.109470
    22  H    0.217385
    23  H    0.056971
    24  H    0.119158
    25  H    0.107551
    26  H    0.105850
    27  H    0.114802
    28  H    0.105246
 Sum of Mulliken charges =  -0.00000
 Mulliken charges with hydrogens summed into heavy atoms:
               1
     1  C   -0.075982
     2  C   -0.127869
     3  C    0.179673
     4  N   -0.016732
     5  N   -0.087512
     6  C    0.191783
     7  C   -0.004167
     8  N   -0.096833
     9  C    0.114730
    10  C   -0.049969
    11  C   -0.027121
 Electronic spatial extent (au):  <R**2>=           3012.9385
 Charge=             -0.0000 electrons
 Dipole moment (field-independent basis, Debye):
    X=             -1.8001    Y=              0.0703    Z=              1.5025  Tot=              2.3458
 Quadrupole moment (field-independent basis, Debye-Ang):
   XX=            -76.7927   YY=            -65.8496   ZZ=            -69.3348
   XY=             -0.8252   XZ=             -3.1589   YZ=             -3.1884
 Traceless Quadrupole moment (field-independent basis, Debye-Ang):
   XX=             -6.1336   YY=              4.8094   ZZ=              1.3242
   XY=             -0.8252   XZ=             -3.1589   YZ=             -3.1884
 Octapole moment (field-independent basis, Debye-Ang**2):
  XXX=            -23.0872  YYY=             -7.8946  ZZZ=              1.7292  XYY=              0.8094
  XXY=             -6.4629  XXZ=             15.2662  XZZ=            -13.1453  YZZ=             -1.7000
  YYZ=              4.2639  XYZ=              1.3965
 Hexadecapole moment (field-independent basis, Debye-Ang**3):
 XXXX=          -3566.3912 YYYY=           -524.6354 ZZZZ=           -166.5819 XXXY=            -18.3406
 XXXZ=            -75.0998 YYYX=             16.5623 YYYZ=             -6.2750 ZZZX=             -8.9184
 ZZZY=             -5.2721 XXYY=           -642.2364 XXZZ=           -585.8419 YYZZ=           -120.6547
 XXYZ=             -9.6804 YYXZ=             -0.6807 ZZXY=              3.4964
 N-N= 6.299878218054D+02 E-N=-2.372304690310D+03  KE= 4.756389315879D+02
 PrsmSu:  requested number of processors reduced to:  13 ShMem   1 Linda.
 Calling FoFJK, ICntrl=      2127 FMM=F ISym2X=0 I1Cent= 0 IOpClX= 0 NMat=1 NMatS=1 NMatT=0.
 ***** Axes restored to original set *****
 -------------------------------------------------------------------
 Center     Atomic                   Forces (Hartrees/Bohr)
 Number     Number              X              Y              Z
 -------------------------------------------------------------------
      1        6          -0.003583134   -0.003907305   -0.000911824
      2        6           0.007010294    0.002467141    0.001257331
      3        6          -0.003876205   -0.005088342   -0.002574715
      4        7          -0.013781111   -0.028251750    0.003005102
      5        7           0.017870917    0.019263091   -0.006510506
      6        6          -0.000331942    0.005966396   -0.002988433
      7        6           0.005659753    0.006132093    0.001195834
      8        7          -0.001406408    0.006986343   -0.003429912
      9        6           0.012640261   -0.006861457    0.001290525
     10        6           0.006876877   -0.004695119    0.002031895
     11        6          -0.013206837   -0.007667457    0.001292671
     12        1          -0.002844127    0.002098577   -0.000145821
     13        1          -0.007157866    0.001033442    0.000602881
     14        1          -0.006315653    0.001214433   -0.000569775
     15        1           0.003065202    0.000110272   -0.000283987
     16        1          -0.000274027    0.002087522    0.000277539
     17        1           0.004177757    0.018151285    0.001916945
     18        1           0.000860071   -0.009973530    0.004782273
     19        1           0.000477904   -0.000741982    0.002264303
     20        1          -0.008900930    0.001619413    0.000969771
     21        1          -0.000205773    0.000917277    0.001288371
     22        1           0.000414244   -0.000086381   -0.006987998
     23        1           0.000373099   -0.003656601    0.001864484
     24        1          -0.000386128    0.002199581    0.001270981
     25        1           0.001068673    0.000185221    0.001342123
     26        1           0.002227685   -0.000178389   -0.000795031
     27        1          -0.003257451    0.001757713   -0.005435431
     28        1           0.002804855   -0.001081487    0.003980405
 -------------------------------------------------------------------
 Cartesian Forces:  Max     0.028251750 RMS     0.006355972

 GradGradGradGradGradGradGradGradGradGradGradGradGradGradGradGradGradGrad
 Berny optimization.
 FormGI is forming the generalized inverse of G from B-inverse, IUseBI=4.
 Internal  Forces:  Max     0.031173528 RMS     0.005629741
 Search for a local minimum.
 Step number   1 out of a maximum of  161
 All quantities printed in internal units (Hartrees-Bohrs-Radians)
 Mixed Optimization -- RFO/linear search
 Second derivative matrix not updated -- first step.
 ITU=  0
     Eigenvalues ---    0.00464   0.00516   0.00636   0.00799   0.00953
     Eigenvalues ---    0.01388   0.01729   0.01844   0.02203   0.02228
     Eigenvalues ---    0.02548   0.02577   0.02834   0.03245   0.03663
     Eigenvalues ---    0.04259   0.04524   0.04758   0.04876   0.05212
     Eigenvalues ---    0.05553   0.05723   0.05737   0.06155   0.06215
     Eigenvalues ---    0.06732   0.07357   0.07371   0.07580   0.08365
     Eigenvalues ---    0.09113   0.10188   0.11769   0.13573   0.14781
     Eigenvalues ---    0.15862   0.16000   0.16000   0.16000   0.16000
     Eigenvalues ---    0.16000   0.16000   0.16000   0.16000   0.18816
     Eigenvalues ---    0.20308   0.22000   0.22000   0.22039   0.23376
     Eigenvalues ---    0.27025   0.28028   0.29629   0.30475   0.33650
     Eigenvalues ---    0.33906   0.33907   0.34021   0.34032   0.34059
     Eigenvalues ---    0.34180   0.34200   0.34228   0.34228   0.34243
     Eigenvalues ---    0.34418   0.34427   0.34448   0.34592   0.34792
     Eigenvalues ---    0.35231   0.35356   0.43915   0.44317   0.44532
     Eigenvalues ---    0.46809   0.53057   0.56388
 RFO step:  Lambda=-2.18131370D-02 EMin= 4.64161437D-03
 Linear search not attempted -- first point.
 Iteration  1 RMS(Cart)=  0.24245758 RMS(Int)=  0.00760724
 Iteration  2 RMS(Cart)=  0.03184032 RMS(Int)=  0.00039201
 Iteration  3 RMS(Cart)=  0.00047188 RMS(Int)=  0.00035819
 Iteration  4 RMS(Cart)=  0.00000015 RMS(Int)=  0.00035819
 Variable       Old X    -DE/DX   Delta X   Delta X   Delta X     New X
                                 (Linear)    (Quad)   (Total)
    R1        2.80788   0.01988   0.00000   0.05509   0.05509   2.86297
    R2        2.06947  -0.00108   0.00000  -0.00297  -0.00297   2.06649
    R3        2.06616   0.00245   0.00000   0.00669   0.00669   2.07285
    R4        2.06630   0.00248   0.00000   0.00678   0.00678   2.07308
    R5        2.53919   0.00273   0.00000   0.00466   0.00466   2.54385
    R6        2.05302   0.00131   0.00000   0.00351   0.00351   2.05653
    R7        2.56901   0.01393   0.00000   0.02521   0.02521   2.59422
    R8        2.05101   0.00196   0.00000   0.00522   0.00522   2.05623
    R9        2.63229   0.02133   0.00000   0.04354   0.04354   2.67583
   R10        1.92523  -0.01480   0.00000  -0.03168  -0.03168   1.89356
   R11        2.79642   0.00456   0.00000   0.01239   0.01239   2.80882
   R12        1.93257  -0.00309   0.00000  -0.00671  -0.00671   1.92586
   R13        2.89813   0.00009   0.00000  -0.00124  -0.00150   2.89663
   R14        2.89779   0.01208   0.00000   0.03844   0.03825   2.93604
   R15        2.07925  -0.00199   0.00000  -0.00555  -0.00555   2.07369
   R16        2.77732   0.00262   0.00000   0.00234   0.00225   2.77957
   R17        2.07231   0.00551   0.00000   0.01521   0.01521   2.08753
   R18        2.06922   0.00029   0.00000   0.00080   0.00080   2.07002
   R19        2.76748   0.00886   0.00000   0.02524   0.02555   2.79303
   R20        1.92777  -0.00596   0.00000  -0.01282  -0.01282   1.91496
   R21        2.87027   0.00717   0.00000   0.02194   0.02194   2.89221
   R22        2.87135   0.01806   0.00000   0.05960   0.05984   2.93119
   R23        2.07487   0.00268   0.00000   0.00741   0.00741   2.08228
   R24        2.07028  -0.00075   0.00000  -0.00205  -0.00205   2.06822
   R25        2.07276  -0.00047   0.00000  -0.00128  -0.00128   2.07148
   R26        2.06581   0.00141   0.00000   0.00386   0.00386   2.06967
   R27        2.06995  -0.00201   0.00000  -0.00553  -0.00553   2.06442
   R28        2.07295  -0.00217   0.00000  -0.00598  -0.00598   2.06697
    A1        1.91450   0.00244   0.00000   0.01397   0.01366   1.92816
    A2        1.92857   0.00753   0.00000   0.04151   0.04103   1.96960
    A3        1.93461   0.00582   0.00000   0.03136   0.03095   1.96556
    A4        1.88339  -0.00465   0.00000  -0.02423  -0.02459   1.85880
    A5        1.88406  -0.00424   0.00000  -0.02354  -0.02375   1.86031
    A6        1.91746  -0.00745   0.00000  -0.04205  -0.04257   1.87488
    A7        2.15498   0.00271   0.00000   0.01121   0.01121   2.16619
    A8        2.04008   0.00150   0.00000   0.01009   0.01008   2.05016
    A9        2.08810  -0.00420   0.00000  -0.02126  -0.02127   2.06683
   A10        2.15075   0.01260   0.00000   0.05211   0.05211   2.20286
   A11        2.11942  -0.00563   0.00000  -0.02239  -0.02239   2.09702
   A12        2.01301  -0.00697   0.00000  -0.02971  -0.02971   1.98330
   A13        2.15266  -0.00660   0.00000  -0.02869  -0.02908   2.12358
   A14        1.99522   0.01384   0.00000   0.06976   0.06915   2.06436
   A15        2.12111  -0.00763   0.00000  -0.04896  -0.04913   2.07198
   A16        1.94798   0.03117   0.00000   0.12070   0.12122   2.06919
   A17        1.92371  -0.01197   0.00000  -0.05564  -0.05525   1.86847
   A18        1.91048  -0.00832   0.00000  -0.02991  -0.02870   1.88177
   A19        1.99160  -0.00709   0.00000  -0.03955  -0.04026   1.95133
   A20        2.04242   0.00654   0.00000   0.05691   0.05750   2.09993
   A21        1.86928   0.00037   0.00000  -0.00739  -0.00884   1.86044
   A22        1.78007   0.00354   0.00000   0.01005   0.01014   1.79020
   A23        1.88463  -0.00127   0.00000  -0.02177  -0.02210   1.86253
   A24        1.88902  -0.00247   0.00000  -0.00186  -0.00203   1.88699
   A25        1.82211  -0.00153   0.00000  -0.01806  -0.01832   1.80379
   A26        1.93877  -0.00313   0.00000  -0.02277  -0.02258   1.91619
   A27        1.95751   0.00066   0.00000  -0.00110  -0.00125   1.95626
   A28        1.92133   0.00666   0.00000   0.06230   0.06223   1.98356
   A29        1.93260  -0.00174   0.00000  -0.01060  -0.01057   1.92204
   A30        1.89134  -0.00076   0.00000  -0.00803  -0.00842   1.88292
   A31        1.85537   0.00696   0.00000   0.02743   0.02723   1.88260
   A32        1.91862  -0.00273   0.00000  -0.00119  -0.00151   1.91712
   A33        1.91999  -0.00159   0.00000   0.00525   0.00515   1.92514
   A34        1.96387  -0.00052   0.00000  -0.01391  -0.01372   1.95015
   A35        1.85774  -0.00634   0.00000  -0.02776  -0.02735   1.83039
   A36        1.91221   0.00217   0.00000   0.01401   0.01378   1.92600
   A37        1.93583   0.00872   0.00000   0.04896   0.04877   1.98460
   A38        1.90062  -0.00369   0.00000  -0.02194  -0.02213   1.87850
   A39        1.89208  -0.00029   0.00000   0.00148   0.00166   1.89374
   A40        1.94282  -0.00328   0.00000  -0.01951  -0.01948   1.92334
   A41        1.92095   0.00097   0.00000   0.00845   0.00844   1.92939
   A42        1.94156   0.00241   0.00000   0.01160   0.01156   1.95312
   A43        1.87618   0.00171   0.00000   0.01262   0.01267   1.88886
   A44        1.89588  -0.00053   0.00000  -0.00861  -0.00860   1.88729
   A45        1.88426  -0.00128   0.00000  -0.00428  -0.00437   1.87989
   A46        1.86074  -0.00276   0.00000  -0.01229  -0.01267   1.84807
   A47        1.95968  -0.00103   0.00000  -0.01641  -0.01637   1.94331
   A48        1.92057   0.00242   0.00000   0.01877   0.01848   1.93905
   A49        1.84893   0.00497   0.00000   0.05276   0.05321   1.90214
   A50        1.98844  -0.00238   0.00000  -0.03488  -0.03473   1.95370
   A51        1.88594  -0.00122   0.00000  -0.00809  -0.00771   1.87823
    D1       -3.13747   0.00010   0.00000   0.00046   0.00049  -3.13699
    D2       -0.00198   0.00039   0.00000   0.00789   0.00797   0.00599
    D3        1.07139  -0.00032   0.00000  -0.00393  -0.00390   1.06749
    D4       -2.07631  -0.00004   0.00000   0.00350   0.00359  -2.07272
    D5       -1.05858   0.00002   0.00000  -0.00030  -0.00044  -1.05902
    D6        2.07691   0.00031   0.00000   0.00713   0.00704   2.08395
    D7       -3.12900   0.00038   0.00000   0.00838   0.00834  -3.12065
    D8        0.00834   0.00042   0.00000   0.00920   0.00916   0.01750
    D9        0.01886   0.00007   0.00000   0.00065   0.00068   0.01954
   D10       -3.12699   0.00011   0.00000   0.00146   0.00150  -3.12548
   D11       -3.10254  -0.00167   0.00000  -0.03001  -0.03084  -3.13338
   D12        0.21720   0.00137   0.00000   0.02325   0.02408   0.24128
   D13        0.04307  -0.00171   0.00000  -0.03078  -0.03162   0.01146
   D14       -2.92038   0.00133   0.00000   0.02247   0.02331  -2.89707
   D15        3.07130   0.00409   0.00000   0.09187   0.09042  -3.12147
   D16        0.94446   0.00181   0.00000   0.08655   0.08627   1.03072
   D17       -0.26089   0.00294   0.00000   0.04668   0.04697  -0.21392
   D18       -2.38773   0.00066   0.00000   0.04136   0.04282  -2.34492
   D19       -2.31942  -0.00592   0.00000  -0.11818  -0.11770  -2.43711
   D20       -0.24369  -0.00176   0.00000  -0.09205  -0.09269  -0.33638
   D21        1.87910  -0.00030   0.00000  -0.06188  -0.06216   1.81694
   D22       -0.18495  -0.00601   0.00000  -0.12865  -0.12788  -0.31283
   D23        1.89077  -0.00185   0.00000  -0.10252  -0.10287   1.78790
   D24       -2.26962  -0.00038   0.00000  -0.07235  -0.07234  -2.34197
   D25        2.83690   0.00721   0.00000   0.08269   0.08209   2.91898
   D26        0.76664   0.00178   0.00000   0.03085   0.03054   0.79718
   D27       -1.35289   0.00453   0.00000   0.05819   0.05776  -1.29514
   D28        0.61770   0.00076   0.00000   0.02813   0.02784   0.64555
   D29       -1.45255  -0.00466   0.00000  -0.02371  -0.02370  -1.47626
   D30        2.71110  -0.00192   0.00000   0.00364   0.00351   2.71461
   D31       -1.37030   0.00242   0.00000   0.03389   0.03396  -1.33634
   D32        2.84263  -0.00301   0.00000  -0.01795  -0.01758   2.82504
   D33        0.72309  -0.00026   0.00000   0.00939   0.00963   0.73272
   D34       -2.54817   0.00028   0.00000  -0.02123  -0.02166  -2.56983
   D35       -0.53078   0.00407   0.00000   0.02622   0.02597  -0.50481
   D36        1.57058   0.00350   0.00000   0.01801   0.01788   1.58846
   D37       -0.36220  -0.00201   0.00000  -0.02886  -0.02883  -0.39103
   D38        1.65519   0.00177   0.00000   0.01859   0.01880   1.67399
   D39       -2.52664   0.00120   0.00000   0.01038   0.01070  -2.51593
   D40        1.62256  -0.00276   0.00000  -0.04935  -0.04974   1.57281
   D41       -2.64324   0.00102   0.00000  -0.00190  -0.00211  -2.64535
   D42       -0.54188   0.00045   0.00000  -0.01011  -0.01021  -0.55209
   D43       -0.65666  -0.00108   0.00000  -0.02683  -0.02657  -0.68323
   D44       -2.73410  -0.00174   0.00000  -0.04827  -0.04801  -2.78211
   D45        1.42543  -0.00230   0.00000  -0.03267  -0.03288   1.39255
   D46       -0.65201  -0.00296   0.00000  -0.05411  -0.05432  -0.70633
   D47       -2.76672  -0.00005   0.00000  -0.00921  -0.00919  -2.77591
   D48        1.43903  -0.00071   0.00000  -0.03065  -0.03063   1.40839
   D49        2.54274   0.00492   0.00000   0.03982   0.04002   2.58276
   D50        0.41889  -0.00132   0.00000   0.00613   0.00620   0.42509
   D51       -1.62346   0.00139   0.00000   0.01245   0.01239  -1.61107
   D52       -1.66391   0.00484   0.00000   0.05708   0.05730  -1.60661
   D53        2.49543  -0.00139   0.00000   0.02338   0.02348   2.51891
   D54        0.45308   0.00132   0.00000   0.02971   0.02968   0.48276
   D55       -1.00394   0.00118   0.00000   0.00165   0.00171  -1.00223
   D56       -3.08234   0.00050   0.00000  -0.00719  -0.00708  -3.08942
   D57        1.11315  -0.00009   0.00000  -0.01481  -0.01477   1.09838
   D58        1.07490  -0.00125   0.00000  -0.00931  -0.00922   1.06568
   D59       -1.00351  -0.00193   0.00000  -0.01815  -0.01801  -1.02151
   D60       -3.09120  -0.00252   0.00000  -0.02578  -0.02570  -3.11689
   D61       -3.12753   0.00136   0.00000   0.00837   0.00818  -3.11934
   D62        1.07726   0.00067   0.00000  -0.00046  -0.00060   1.07665
   D63       -1.01044   0.00008   0.00000  -0.00809  -0.00829  -1.01873
   D64       -0.01944   0.00228   0.00000   0.01649   0.01619  -0.00325
   D65       -2.11000   0.00233   0.00000   0.01486   0.01456  -2.09544
   D66        2.10246   0.00190   0.00000   0.00973   0.00975   2.11222
   D67       -2.16103   0.00181   0.00000   0.02222   0.02234  -2.13869
   D68        2.03159   0.00186   0.00000   0.02059   0.02071   2.05230
   D69       -0.03913   0.00143   0.00000   0.01546   0.01590  -0.02322
   D70        2.03627   0.00130   0.00000   0.01888   0.01868   2.05495
   D71       -0.05429   0.00135   0.00000   0.01725   0.01705  -0.03724
   D72       -2.12501   0.00092   0.00000   0.01212   0.01224  -2.11277
         Item               Value     Threshold  Converged?
 Maximum Force            0.031174     0.000450     NO 
 RMS     Force            0.005630     0.000300     NO 
 Maximum Displacement     0.960960     0.001800     NO 
 RMS     Displacement     0.266122     0.001200     NO 
 Predicted change in Energy=-1.296300D-02
 GradGradGradGradGradGradGradGradGradGradGradGradGradGradGradGradGradGrad

                          Input orientation:                          
 ---------------------------------------------------------------------
 Center     Atomic      Atomic             Coordinates (Angstroms)
 Number     Number       Type             X           Y           Z
 ---------------------------------------------------------------------
      1          6           0        0.620199    0.240828   -0.084423
      2          6           0        2.122604    0.063258   -0.003628
      3          6           0        3.006272    1.077724   -0.049451
      4          7           0        4.373656    0.964968   -0.003286
      5          7           0        5.215440    2.102658   -0.048931
      6          6           0        6.687497    1.898925   -0.020514
      7          6           0        7.389324    2.939136    0.859805
      8          7           0        8.746857    2.394025    1.012978
      9          6           0        8.632104    0.928840    1.169745
     10          6           0        9.837759    0.198847    0.573162
     11          6           0        7.284203    0.560701    0.496239
     12          1           0        0.116569   -0.727761   -0.020998
     13          1           0        0.295570    0.699698   -1.026368
     14          1           0        0.223267    0.854385    0.733781
     15          1           0        2.503460   -0.951272    0.096392
     16          1           0        2.655828    2.104388   -0.133947
     17          1           0        4.780222    0.059439   -0.140332
     18          1           0        4.966615    2.690652    0.745396
     19          1           0        7.045920    2.059212   -1.045218
     20          1           0        6.845450    3.048810    1.815040
     21          1           0        7.430268    3.923553    0.381090
     22          1           0        9.191077    2.801099    1.827743
     23          1           0        8.574394    0.660984    2.237031
     24          1           0        9.948156    0.453988   -0.485398
     25          1           0        9.708038   -0.886741    0.652406
     26          1           0       10.769189    0.461399    1.086009
     27          1           0        6.631757    0.094685    1.238244
     28          1           0        7.417634   -0.152880   -0.321918
 ---------------------------------------------------------------------
                    Distance matrix (angstroms):
                    1          2          3          4          5
     1  C    0.000000
     2  C    1.515017   0.000000
     3  C    2.528826   1.346147   0.000000
     4  N    3.823532   2.424936   1.372801   0.000000
     5  N    4.958216   3.704975   2.435346   1.415988   0.000000
     6  C    6.290109   4.920184   3.771820   2.495283   1.486361
     7  C    7.348026   6.062552   4.847963   3.706282   2.500254
     8  N    8.478391   7.095540   5.984623   4.711675   3.699115
     9  C    8.138606   6.670804   5.758349   4.417203   3.812691
    10  C    9.241081   7.737874   6.915872   5.547581   5.037592
    11  C    6.696897   5.209551   4.343476   2.980644   2.637162
    12  H    1.093540   2.156429   3.407487   4.581313   5.831855
    13  H    1.096907   2.188402   2.906059   4.212820   5.208531
    14  H    1.097026   2.185666   2.899733   4.216779   5.205056
    15  H    2.236173   1.088268   2.095451   2.679467   4.086862
    16  H    2.760270   2.113651   1.088112   2.065498   2.561023
    17  H    4.164351   2.661135   2.047453   1.002028   2.091056
    18  H    5.057822   3.943683   2.660124   1.972337   1.019119
    19  H    6.746816   5.413666   4.274766   3.069851   2.084499
    20  H    7.088475   5.875913   4.701148   3.709242   2.650759
    21  H    7.756043   6.574282   5.277864   4.271282   2.899318
    22  H    9.147202   7.798269   6.689222   5.470977   4.451451
    23  H    8.296679   6.855904   6.033709   4.770495   4.311220
    24  H    9.339003   7.850098   6.983469   5.618592   5.030628
    25  H    9.187118   7.672789   7.018931   5.684575   5.441675
    26  H   10.218638   8.724063   7.869689   6.507149   5.901352
    27  H    6.157080   4.677146   3.970978   2.719892   2.773938
    28  H    6.812967   5.308989   4.587890   3.258360   3.164116
                    6          7          8          9         10
     6  C    0.000000
     7  C    1.532828   0.000000
     8  N    2.356733   1.470885   0.000000
     9  C    2.477756   2.383664   1.478009   0.000000
    10  C    3.628617   3.685944   2.490444   1.530492   0.000000
    11  C    1.553684   2.408358   2.401552   1.551120   2.580214
    12  H    7.076480   8.192369   9.235611   8.756513   9.783310
    13  H    6.580777   7.674248   8.857422   8.623991   9.688277
    14  H    6.591381   7.464211   8.666027   8.420460   9.638153
    15  H    5.063937   6.292038   7.142208   6.499783   7.439222
    16  H    4.038494   4.908190   6.204833   6.228755   7.463995
    17  H    2.652502   4.012524   4.744956   4.160427   5.109519
    18  H    2.043253   2.438104   3.801291   4.088992   5.474194
    19  H    1.097351   2.126337   2.690996   2.949540   3.724846
    20  H    2.171737   1.104672   2.165039   2.846543   4.314912
    21  H    2.193653   1.095409   2.114745   3.321850   4.439182
    22  H    3.240043   2.049944   1.013352   2.061738   2.960386
    23  H    3.192081   2.913952   2.128727   1.101897   2.139655
    24  H    3.596644   3.812237   2.729833   2.167251   1.094456
    25  H    4.163703   4.478480   3.437631   2.172926   1.096179
    26  H    4.466663   4.196885   2.798250   2.189212   1.095221
    27  H    2.200650   2.967832   3.132308   2.168385   3.275917
    28  H    2.198601   3.310262   3.167886   2.206834   2.604206
                   11         12         13         14         15
    11  C    0.000000
    12  H    7.300866   0.000000
    13  H    7.153925   1.755121   0.000000
    14  H    7.071032   1.756207   1.768412   0.000000
    15  H    5.030053   2.400206   2.976756   2.977574   0.000000
    16  H    4.919548   3.805478   2.887973   2.869288   3.068115
    17  H    2.631806   4.731129   4.615961   4.707638   2.502243
    18  H    3.157528   5.982963   5.377891   5.086390   4.444317
    19  H    2.162962   7.538710   6.885917   7.152974   5.567785
    20  H    2.849987   7.931668   7.516173   7.059599   6.148763
    21  H    3.367992   8.676785   7.954753   7.841241   6.936744
    22  H    3.229312   9.910468   9.575588   9.241648   7.861430
    23  H    2.169103   8.863526   8.898887   8.487549   6.636109
    24  H    2.841064   9.913238   9.670855   9.809188   7.598468
    25  H    2.827447   9.616394   9.691730   9.643601   7.226289
    26  H    3.535933  10.775801  10.687171  10.559119   8.443770
    27  H    1.092441   6.686537   6.755870   6.473050   4.409159
    28  H    1.093792   7.329842   7.207422   7.340845   4.996150
                   16         17         18         19         20
    16  H    0.000000
    17  H    2.948712   0.000000
    18  H    2.541001   2.782542   0.000000
    19  H    4.483900   3.154568   2.815763   0.000000
    20  H    4.716293   4.126134   2.191446   3.033244   0.000000
    21  H    5.135163   4.714446   2.778912   2.378623   1.778595
    22  H    6.858798   5.553887   4.362310   3.661421   2.358705
    23  H    6.537153   4.517682   4.400067   3.881293   2.978092
    24  H    7.485010   5.194447   5.597612   3.363497   4.653160
    25  H    7.700576   5.080065   5.940327   4.318269   5.003468
    26  H    8.367457   6.126436   6.225388   4.577977   4.756250
    27  H    4.661526   2.308657   3.123242   3.040575   3.017484
    28  H    5.273081   2.652168   3.902861   2.356837   3.891632
                   21         22         23         24         25
    21  H    0.000000
    22  H    2.540306   0.000000
    23  H    3.924015   2.264488   0.000000
    24  H    4.373607   3.381230   3.056418   0.000000
    25  H    5.329238   3.904974   2.488300   1.774771   0.000000
    26  H    4.861256   2.918013   2.486325   1.772984   1.769614
    27  H    4.004068   3.771247   2.256570   3.754802   3.281754
    28  H    4.136627   4.061051   2.923814   2.607404   2.594960
                   26         27         28
    26  H    0.000000
    27  H    4.156441   0.000000
    28  H    3.686804   1.764369   0.000000
 Stoichiometry    C8H17N3
 Framework group  C1[X(C8H17N3)]
 Deg. of freedom    78
 Full point group                 C1      NOp   1
 Largest Abelian subgroup         C1      NOp   1
 Largest concise Abelian subgroup C1      NOp   1
                         Standard orientation:                         
 ---------------------------------------------------------------------
 Center     Atomic      Atomic             Coordinates (Angstroms)
 Number     Number       Type             X           Y           Z
 ---------------------------------------------------------------------
      1          6           0        5.297271    0.316469    0.219462
      2          6           0        3.828245    0.676786    0.133381
      3          6           0        2.843120   -0.215829   -0.078469
      4          7           0        1.503727    0.064962   -0.186940
      5          7           0        0.545226   -0.955025   -0.401244
      6          6           0       -0.884283   -0.570142   -0.534056
      7          6           0       -1.808617   -1.554113    0.191871
      8          7           0       -3.100348   -0.851050    0.217168
      9          6           0       -2.833041    0.579350    0.476036
     10          6           0       -3.859895    1.481494   -0.212522
     11          6           0       -1.377710    0.806764   -0.010039
     12          1           0        5.900385    1.210377    0.401154
     13          1           0        5.679899   -0.135123   -0.704045
     14          1           0        5.513668   -0.379342    1.039515
     15          1           0        3.560937    1.725257    0.249925
     16          1           0        3.077096   -1.273239   -0.183956
     17          1           0        1.227675    1.019653   -0.315083
[...]
 00048179,0.00050750,-0.00017020,0.00113778,-0.00673449,0.02147664,-0.0
 2126799,0.04459914,-0.13050152,0.16812166,0.00002240,-0.00002400,0.000
 00147,-0.00005314,-0.00000871,-0.00006923,0.00024964,-0.00011852,0.000
 23298,-0.00067434,-0.00011287,0.00049766,-0.00060687,-0.00105079,-0.00
 093795,-0.00438607,0.00284711,0.00193224,-0.02186753,-0.02223245,-0.01
 173899,-0.25038681,-0.15848159,-0.07292644,0.00335912,0.00341598,0.000
 07085,0.00136490,-0.00015627,0.00024847,-0.00047686,0.00122776,0.00041
 509,-0.00002601,0.00000127,-0.00000540,-0.00001671,0.00000468,-0.00002
 015,-0.00000330,0.00000666,-0.00000070,-0.00000492,0.00000056,0.000003
 74,0.00000227,0.00000811,-0.00000994,-0.00001823,0.00001783,-0.0000524
 8,-0.00004636,-0.00011249,0.00011230,-0.00019513,-0.00023902,-0.000110
 63,0.00245330,-0.00024513,0.00055647,-0.00062801,0.00041159,-0.0002139
 1,0.27176114,-0.00000518,0.00001180,0.00000063,0.00002230,-0.00000744,
 0.00002417,-0.00007779,0.00008842,-0.00003795,0.00024859,0.00009348,-0
 .00029516,0.00030824,0.00084511,0.00017980,0.00324781,-0.00256509,-0.0
 0035507,0.01473419,0.01129135,0.00239701,-0.16705268,-0.19583155,-0.05
 314255,-0.02553611,-0.01755139,-0.01479441,-0.00086393,0.00026980,-0.0
 0032936,0.00007764,-0.00533178,0.00447556,0.00000416,-0.00000085,0.000
 00202,0.00000516,-0.00000292,0.00000410,-0.00000101,-0.00000037,0.0000
 0048,0.00000304,0.00000474,0.00000125,-0.00002035,0.00000444,-0.000007
 42,0.00011779,0.00012682,0.00000533,0.00001851,-0.00009974,-0.00002580
 ,-0.00007080,0.00017624,0.00000872,0.00037379,0.00043097,-0.00023455,-
 0.00033586,-0.00038789,0.00057997,0.17439690,0.20710043,0.00001397,-0.
 00002697,0.00002426,-0.00004592,-0.00001961,-0.00003050,0.00016964,-0.
 00006865,0.00011976,0.00001913,0.00003438,-0.00017807,0.00038310,0.000
 00157,0.00016432,0.00157960,0.00076716,0.00071546,0.01333153,0.0035364
 6,-0.00385145,-0.11440704,-0.08501370,-0.05113947,0.01451517,0.0162048
 4,-0.00181244,-0.00005238,-0.00078836,0.00021572,0.00086814,0.00243369
 ,-0.00035271,-0.00003113,0.00000296,-0.00000881,-0.00001461,0.00000197
 ,-0.00002462,-0.00000329,0.00000807,0.00000139,0.00000233,0.00000136,-
 0.00000638,0.00001813,0.00001015,-0.00000320,-0.00005153,-0.00001335,-
 0.00001322,-0.00004571,0.00013033,-0.00005180,0.00036369,0.00024847,-0
 .00002345,-0.00029520,0.00123322,0.00184334,-0.00082494,0.00033571,-0.
 00000568,0.08285571,0.06130905,0.05205133,0.00000907,0.00000177,0.0000
 0830,-0.00000531,-0.00001633,0.00001629,0.00003469,0.00000800,0.000019
 99,-0.00005051,-0.00002056,0.00006469,-0.00032642,0.00010394,0.0002749
 6,0.00077108,-0.00080038,0.00003487,0.00080909,-0.00040768,-0.00145517
 ,0.00239256,0.00043929,-0.00002355,-0.05263165,0.00019815,-0.01137656,
 -0.00055484,0.00571123,0.02744270,-0.00369003,-0.00730372,-0.02836507,
 -0.00000894,-0.00000140,-0.00000111,0.00000136,-0.00000015,-0.00000214
 ,-0.00000299,0.00000486,-0.00000127,0.00000641,0.00001704,-0.00000729,
 -0.00000665,0.00000856,-0.00000776,0.00004973,0.00005938,-0.00010765,-
 0.00029341,0.00002628,0.00007989,0.00011729,0.00013267,0.00018385,0.00
 045327,-0.00015201,0.00022294,0.00009516,0.00004357,0.00025670,0.00031
 311,0.00038306,0.00081167,0.05791302,0.00000292,0.00000651,0.00000282,
 0.00000987,-0.00001291,0.00002227,-0.00001413,0.00003196,-0.00003332,0
 .00012609,0.00004256,0.00005820,-0.00016519,0.00041812,0.00004459,0.00
 019493,-0.00087692,-0.00030979,-0.00468025,0.00283786,0.00291798,0.005
 54919,-0.00926871,0.04029799,-0.00033828,-0.05318646,-0.03209430,-0.00
 004479,-0.00176901,-0.01847939,-0.00241196,-0.00306303,-0.01492619,0.0
 0000046,-0.00000065,0.00000004,0.00000458,-0.00000247,0.00000512,-0.00
 000361,0.00000434,0.00000033,0.00000417,0.00001479,-0.00000669,-0.0000
 0861,0.00000236,-0.00000129,0.00006973,0.00002942,-0.00006113,-0.00006
 171,-0.00009617,0.00006016,-0.00004475,0.00018824,0.00008240,0.0001139
 1,0.00008138,-0.00194425,0.00022381,-0.00023823,-0.00063959,0.00085512
 ,0.00198807,-0.00057812,0.00068975,0.06348488,0.00001135,0.00000355,-0
 .00000400,0.00000605,-0.00001160,0.00003999,0.00000720,0.00003857,0.00
 003976,-0.00006052,-0.00015853,0.00034053,-0.00039741,0.00003575,-0.00
 037404,0.00023110,0.00003936,-0.00044235,0.00245907,-0.00088666,0.0007
 9731,-0.00087679,0.01396219,-0.02129594,-0.01016522,-0.03522871,-0.257
 42738,-0.00046458,-0.00293721,-0.01193482,-0.00097178,-0.00222675,-0.0
 0798443,-0.00001050,-0.00000484,0.00000248,0.00000406,0.00000473,0.000
 00400,0.00000202,0.00000216,-0.00000291,0.00000670,0.00000962,-0.00001
 122,0.00000794,0.00000331,-0.00001633,0.00004887,0.00001573,-0.0001518
 1,-0.00028000,0.00007630,0.00030899,-0.00000861,0.00007057,0.00005985,
 -0.00188187,0.00084856,0.00065988,-0.00033375,0.00050859,0.00041828,-0
 .00040595,0.00047430,0.00165545,0.01224353,0.02722698,0.29177365,-0.00
 000323,-0.00000235,-0.00000169,-0.00000045,0.00000849,-0.00000698,0.00
 000029,-0.00000454,-0.00000082,-0.00001762,0.00000866,-0.00003397,0.00
 014513,-0.00012161,-0.00007421,0.00009101,-0.00001039,-0.00014837,0.00
 003980,-0.00013487,-0.00000584,0.00133145,-0.00149503,-0.00095190,-0.0
 0105837,0.00310580,0.02872119,-0.04742094,-0.00173967,-0.01095630,0.00
 194727,0.00047985,0.00179667,0.00000181,0.00000105,-0.00000101,-0.0000
 0225,0.00000025,-0.00000031,0.00000051,-0.00000157,-0.00000001,-0.0000
 0101,-0.00000723,0.00000326,0.00000083,-0.00000460,0.00000150,-0.00001
 241,0.00000396,0.00002420,0.00007601,-0.00000633,-0.00004538,-0.000035
 49,0.00001667,-0.00002596,0.00013539,-0.00015331,-0.00016510,-0.000012
 33,-0.00003424,-0.00007975,-0.00003234,0.00002045,-0.00013558,-0.00394
 561,0.00339209,0.00189413,0.05069399,-0.00000210,-0.00000050,-0.000000
 53,0.00000114,0.00000465,-0.00000096,-0.00000298,0.00000345,0.00000100
 ,-0.00000713,-0.00001069,0.00001760,-0.00002735,-0.00005239,-0.0000064
 2,-0.00012873,0.00010116,-0.00000044,0.00043377,-0.00007306,0.00004644
 ,-0.00158599,0.00153487,0.00009812,0.00018929,-0.00328633,-0.01942909,
 -0.00173496,-0.05007674,-0.02986916,-0.00095036,0.00010228,0.00069601,
 0.00000061,-0.00000006,0.00000053,0.00000014,0.00000141,0.00000001,0.0
 0000161,-0.00000226,-0.00000073,0.,-0.00000423,0.00000143,0.00000187,-
 0.00000267,-0.00000044,-0.00000373,-0.00000659,0.00000292,-0.00003771,
 0.00002300,0.00001565,0.00002962,-0.00001551,0.00000461,-0.00023555,0.
 00006896,0.00027474,-0.00000062,0.00002163,0.00007451,0.00006127,-0.00
 006015,-0.00026292,0.00314187,-0.00151161,-0.00097865,-0.00021740,0.05
 034856,-0.00000405,0.00000886,-0.00000740,0.00001195,0.00000196,0.0000
 1598,-0.00005444,0.00001864,-0.00003933,0.00006105,-0.00001113,0.00005
 563,-0.00014171,0.00011075,0.00000490,0.00002590,-0.00000211,0.0002865
 1,-0.00013480,0.00006722,0.00036601,-0.00083062,0.00014654,0.00186701,
 0.00022333,-0.00122599,-0.01335228,-0.00898678,-0.03141139,-0.30603596
 ,-0.00087237,0.00022727,0.00051525,0.00000606,-0.00000176,0.00000270,0
 .00000559,-0.00000144,0.00000746,-0.00000012,0.00000003,0.00000030,0.0
 0000179,0.00000094,-0.00000365,-0.00000099,-0.00000395,0.00000249,0.00
 000077,-0.00000708,-0.00001596,-0.00004529,-0.00000116,0.00002193,0.00
 006502,-0.00005001,0.00002299,-0.00021714,0.00016002,-0.00000472,0.000
 10551,-0.00003318,-0.00001512,0.00008545,0.00006452,-0.00022437,0.0023
 3116,-0.00142979,0.00067004,0.00827621,0.03560769,0.33363797,-0.000003
 40,-0.00000214,-0.00000350,0.00000153,0.00001297,0.00000161,-0.0000137
 4,-0.00001137,-0.00000724,-0.00004042,-0.00000264,0.00003889,0.0001124
 8,-0.00019710,-0.00007680,0.00025852,0.00033548,0.00009670,0.00049666,
 0.00166088,-0.00036990,-0.00523204,0.00260155,0.00181577,0.00154667,0.
 02282568,-0.01446546,-0.04633926,-0.00026980,0.00108950,0.00144552,-0.
 00035193,-0.00037608,0.00000126,0.00000041,0.00000005,-0.00000042,0.00
 000132,0.00000084,0.00000224,-0.00000307,-0.00000012,0.00000016,-0.000
 00886,0.,0.00000745,-0.00000729,0.00000263,-0.00002834,-0.00001228,-0.
 00001290,-0.00001916,0.00007510,-0.00000664,0.00004867,-0.00009551,0.0
 0002422,-0.00023080,0.00010825,0.00009803,-0.00047481,0.00018534,0.000
 12261,-0.00019494,0.00048687,0.00019904,0.00082389,-0.00078003,0.00025
 400,-0.00126810,0.00116920,-0.00069834,0.04891658,-0.00000758,0.000009
 12,-0.00000347,0.00002023,0.00000314,0.00000597,-0.00005514,0.00003390
 ,-0.00005407,0.00008916,0.00001520,-0.00003380,0.00001972,0.00013832,0
 .00005439,0.00003044,-0.00051607,-0.00017448,-0.00078901,-0.00069723,0
 .00042202,0.00448117,-0.00070745,-0.00176883,-0.00279008,-0.01459616,0
 .00931275,0.00130564,-0.25808891,0.10305247,-0.00074711,0.00079426,-0.
 00001375,0.00001184,0.00000069,0.00000148,0.00000439,-0.00000346,0.000
 00703,-0.00000194,0.00000023,0.00000100,-0.00000126,0.00000115,0.00000
 319,-0.00001115,-0.00000340,0.00000549,0.00001175,0.00001127,0.0000372
 6,0.00000232,-0.00006000,0.00002056,-0.00001338,0.00009122,-0.00000411
 ,0.00021638,-0.00009034,-0.00014726,0.00036982,-0.00008625,-0.00006141
 ,-0.00021812,0.00033255,0.00007181,-0.00020234,0.00034648,-0.00073753,
 -0.00022570,0.00493592,-0.00239364,-0.00258615,0.28124840,0.00000014,-
 0.00000549,0.00000073,-0.00000733,0.00000612,-0.00000233,0.00001725,-0
 .00001082,0.00001397,-0.00000688,0.00001914,-0.00001566,0.00001187,-0.
 00001370,0.00001016,-0.00019683,-0.00004913,-0.00012430,0.00039032,-0.
 00060141,0.00094549,0.00164507,-0.00039023,0.00004740,-0.00107572,-0.0
 1053801,0.00386834,0.00014934,0.10398770,-0.09844074,-0.00014121,0.000
 09927,0.00027078,-0.00000320,0.00000059,-0.00000033,-0.00000129,0.0000
 0221,-0.00000210,0.00000136,-0.00000158,-0.00000055,0.00000072,-0.0000
 0365,0.00000025,0.00000289,-0.00000193,-0.00000153,0.00000071,-0.00000
 071,0.00000040,0.00001211,0.00000154,-0.00000213,-0.00000141,0.0000272
 4,-0.00000406,-0.00020894,0.00004190,0.00003106,0.00027893,-0.00011014
 ,-0.00007876,0.00000796,0.00027867,-0.00017709,-0.00069707,0.00029606,
 0.00027606,0.00038392,0.02909171,-0.01199538,-0.00078816,-0.11421474,0
 .10248913,0.00002121,-0.00002294,0.00001700,-0.00005090,-0.00002958,-0
 .00002330,0.00018228,-0.00005147,0.00015685,0.00002261,0.00014728,-0.0
 0006833,-0.00061448,0.00066185,0.00030345,-0.00061076,-0.00157573,-0.0
 0045643,-0.00039778,0.00001650,0.00016316,0.00214514,-0.00098316,-0.00
 004389,-0.02310485,-0.01387920,-0.00721894,-0.23330118,-0.10325169,-0.
 05276151,-0.00210097,0.00466720,0.00201417,-0.00003345,-0.00000109,-0.
 00000660,-0.00001262,0.00000399,-0.00002130,-0.00000289,0.00001051,-0.
 00000105,0.00000377,0.00000866,-0.00000686,0.00001227,0.00001097,-0.00
 001712,0.00010900,-0.00001299,-0.00007412,0.00004725,-0.00015004,-0.00
 002250,-0.00023753,0.00037672,-0.00006631,0.00007427,0.00001054,-0.000
 00536,0.00010989,0.00005355,-0.00001450,-0.00035780,0.00118690,0.00004
 194,0.00112642,0.00000951,0.00037068,-0.00044148,-0.00007760,0.0000323
 0,0.00053172,0.00036025,0.00034178,0.25678623,0.00000166,0.00000225,-0
 .00000056,-0.00000020,-0.00000648,0.00000263,-0.00000429,0.00000255,-0
 .00000452,-0.00001045,-0.00007986,-0.00000850,0.00011204,-0.00013204,0
 .00005383,0.00098567,0.00033499,0.00013522,0.00010950,0.00032714,-0.00
 016060,-0.00069690,0.00185043,-0.00001141,0.01694022,0.00857844,0.0052
 9375,-0.10403133,-0.10406725,-0.02975729,0.00220107,-0.00182022,-0.001
 12703,-0.00000081,-0.00000111,0.00000058,0.00000092,-0.00000050,0.0000
 0041,-0.00000059,0.00000191,-0.00000009,0.00000037,0.00000293,-0.00000
 114,0.00000081,0.00000225,0.00000053,-0.00004337,0.00000171,0.00002543
 ,-0.00000956,0.00001749,-0.00000761,0.00013040,-0.00011290,0.00004256,
 -0.00006650,0.00000139,0.00004075,-0.00007514,0.00001829,0.00001038,-0
 .00017494,-0.00020187,-0.00015060,-0.00094844,0.00061224,0.00053274,-0
 .00233295,-0.00246742,-0.00026044,-0.02492298,-0.01340663,-0.00813932,
 0.11246032,0.11054521,-0.00000136,0.00000306,-0.00000285,0.00000557,0.
 00000016,0.00000503,-0.00002996,0.00000626,-0.00002255,0.00001558,-0.0
 0000742,-0.00000626,0.00001447,-0.00000484,-0.00001180,0.00050964,0.00
 034425,0.00060067,0.00001428,0.00026073,-0.00012451,-0.00048667,0.0003
 6306,-0.00008686,0.01015470,0.00596130,0.00156903,-0.05329229,-0.02996
 925,-0.06265134,0.00113535,-0.00214059,-0.00021472,0.00000352,-0.00000
 020,0.00000117,0.00000264,-0.00000095,0.00000350,-0.00000044,0.0000005
 0,0.00000051,0.00000034,0.00000175,-0.00000167,-0.00000217,-0.00000166
 ,0.00000275,-0.00000706,-0.00000318,0.00001818,-0.00000623,0.00001831,
 -0.00001522,0.00013976,-0.00019402,0.00003217,0.00000873,-0.00002511,-
 0.00003284,-0.00004891,-0.00000675,-0.00001034,-0.00028645,0.00006456,
 0.00034102,-0.00035440,0.00075964,0.00049891,-0.02751175,-0.01567263,-
 0.00645873,0.01305553,0.00658592,0.00297657,0.05709605,0.03337253,0.06
 309615,-0.00003008,0.00001680,-0.00000149,0.00004701,0.00006650,0.0001
 2439,-0.00032885,0.00007637,-0.00046214,-0.00045060,0.00045166,0.00046
 283,0.00198541,-0.00216043,-0.00035593,0.00625730,0.01357163,-0.015147
 45,-0.00283933,0.00183875,-0.00022545,-0.00561576,-0.00280254,-0.00156
 632,-0.00486519,-0.01741663,0.02211038,0.00019323,-0.00085710,-0.00003
 572,-0.06820747,-0.04933821,0.05165215,0.00002596,-0.00000659,0.000006
 18,0.00001944,0.00000181,0.00002201,0.00000994,-0.00000779,0.00000141,
 0.00000407,-0.00001190,-0.00003341,0.00001414,-0.00005277,-0.00000901,
 -0.00126495,-0.00013831,0.00002480,0.00015680,-0.00012636,0.00054173,-
 0.00141061,0.00157920,-0.00005224,0.00035136,0.00015253,-0.00005083,0.
 00055922,0.00032569,0.00010387,0.00039647,-0.00180142,0.00035444,0.001
 61594,0.00048973,-0.00037687,0.00005214,-0.00009476,-0.00016832,-0.000
 30033,0.00051280,-0.00009313,-0.00029731,0.00033835,-0.00035693,0.0745
 9389,0.00001316,-0.00002599,0.00003832,-0.00007449,-0.00011361,-0.0001
 3545,0.00044443,0.00030530,0.00029470,0.00038016,0.00136574,-0.0003509
 7,-0.00332352,0.00213841,0.00055683,-0.00722267,-0.01420021,0.01445605
 ,0.00079259,-0.00199523,0.00107525,-0.00174688,-0.00188023,-0.00058958
 ,-0.00073985,-0.00710107,0.00805511,-0.00016325,-0.00026835,-0.0003524
 1,-0.05153042,-0.16028059,0.11688770,-0.00003274,0.00000290,-0.0000129
 6,-0.00001729,-0.00000584,-0.00002474,-0.00000875,0.00001246,0.0000029
 7,-0.00000571,0.00001473,0.00000323,-0.00012473,0.00000177,-0.00009326
 ,0.00132210,0.00014916,0.00037847,0.00035633,-0.00072341,-0.00092314,0
 .00089164,-0.00171214,0.00003376,-0.00015320,-0.00033477,-0.00018439,-
 0.00056618,-0.00075462,-0.00020877,-0.00004098,-0.00079599,0.00026119,
 0.00030809,0.00036519,-0.00042064,-0.00000663,0.00006543,0.00004048,-0
 .00010022,0.00021756,0.00007477,-0.00015252,0.00007465,0.00004540,0.05
 688200,0.17504815,-0.00001497,-0.00001661,-0.00003597,0.00000020,0.000
 13414,0.00006920,-0.00025614,-0.00038747,-0.00026438,0.00059700,-0.000
 12355,0.00026313,0.00089276,-0.00019334,0.00153324,0.00039026,-0.00130
 992,-0.00201683,-0.00026213,-0.00083879,-0.00063420,-0.00104344,-0.000
 80087,0.00050558,-0.00410786,-0.00715009,0.00482209,0.00020349,0.00014
 488,-0.00029314,0.05371025,0.11995748,-0.16778310,0.00001557,0.0000013
 4,0.00000886,0.00001067,0.00001012,0.00001587,0.00001382,-0.00001630,0
 .00000145,-0.00000138,-0.00004222,-0.00001323,0.00012551,-0.00003361,0
 .00009572,-0.00084701,-0.00029480,0.00004884,-0.00042721,0.00009666,0.
 00028535,-0.00036890,0.00066507,0.00033884,-0.00009689,-0.00010614,0.0
 0005617,0.00007539,0.00006673,0.00004744,-0.00020857,-0.00049960,0.000
 64238,0.00041399,-0.00008049,0.00120132,-0.00015156,0.00004833,0.00015
 564,0.00020161,-0.00007298,0.00012080,0.00011205,-0.00006538,0.0000863
 1,-0.05781533,-0.12903420,0.17979577,0.00000671,-0.00005973,0.00000414
 ,-0.00007787,-0.00003858,-0.00019373,0.00032151,-0.00008840,0.00040632
 ,0.00052479,0.00035741,-0.00032760,-0.00394515,0.00458745,0.00047610,-
 0.00151551,0.00859745,0.01827089,-0.00159746,0.00066050,-0.00012196,0.
 00102225,0.00089315,0.00041548,-0.00156565,-0.01325940,-0.02967907,0.0
 0216701,-0.00020858,-0.00162455,-0.04526654,0.00603248,0.01680799,-0.0
 0002904,0.00000661,-0.00001190,-0.00003769,0.00000815,-0.00003782,0.00
 000564,-0.00000134,0.00000362,-0.00001949,-0.00005765,0.00001230,0.000
 05115,-0.00001034,0.00001400,-0.00000655,-0.00032489,0.00031753,0.0000
 0592,-0.00013536,-0.00042688,0.00059469,-0.00062036,0.00048692,0.00003
 754,0.00007374,0.00001809,0.00026130,0.00020090,0.00004138,0.00005300,
 0.00012976,0.00038011,-0.00501575,-0.00318253,-0.00131285,-0.00026400,
 0.00007657,0.00092290,-0.00004759,0.00021305,-0.00002319,0.00039194,0.
 00003712,0.00022847,-0.00067187,0.00461953,0.00883882,0.05461670,-0.00
 001968,0.00002906,-0.00000972,0.00006247,0.00003711,0.00008979,-0.0001
 1975,0.00020397,-0.00028691,-0.00027825,0.00001180,0.00011137,0.002306
 52,-0.00319836,-0.00051510,0.00105761,-0.00932204,-0.01985301,0.001607
 42,-0.00154605,0.00068061,-0.00009664,0.00081432,0.00012057,0.00069642
 ,-0.00532061,-0.01177732,0.00118167,0.00055839,0.00030616,0.00523801,-
 0.10069664,-0.10429297,0.00002666,-0.00000479,0.00001043,0.00002867,-0
 .00000254,0.00003039,0.00000401,-0.00000605,-0.00000141,0.00000547,0.0
 0000909,0.00000456,-0.00007654,-0.00001531,-0.00002686,0.00039410,0.00
 022659,0.00027741,0.00016788,-0.00027468,0.00017220,0.00013690,0.00141
 495,-0.00015406,-0.00009848,0.00006689,0.00002575,-0.00031799,-0.00047
 907,-0.00006587,-0.00003892,0.00007282,0.00032988,-0.00142451,-0.00042
 825,-0.00026190,-0.00053883,0.00035890,0.00037815,-0.00011169,0.000076
 50,0.00015395,0.00020326,-0.00007760,0.00023916,-0.00148903,0.01043062
 ,0.01994162,-0.00850672,0.10706098,-0.00000031,0.00004450,-0.00000819,
 0.00006264,-0.00002278,0.00004809,-0.00012031,0.00004037,-0.00011654,-
 0.00025179,-0.00076056,0.00012693,0.00086472,-0.00008244,0.00071463,-0
 .00178455,0.00350600,0.00250408,-0.00012116,0.00023772,-0.00019239,0.0
 0091747,0.00031217,0.00093922,-0.00111616,-0.00287940,-0.01005288,0.00
 122864,0.00024217,0.00107582,0.01629136,-0.10512603,-0.25321202,0.0000
 2082,-0.00000527,0.00000766,0.00001992,-0.00000836,0.00002282,-0.00000
 634,0.00000389,-0.00000187,0.00000860,0.00003428,-0.00000153,-0.000006
 78,0.00002580,0.00002406,-0.00040520,0.00026547,-0.00023746,-0.0002762
 7,0.00043229,0.00035368,0.00004823,0.00002512,0.00162873,0.00003829,0.
 00011857,0.00011179,0.00000914,-0.00008697,0.00001048,-0.00003362,-0.0
 0014823,0.00012882,-0.00200648,-0.00119021,0.00089873,-0.00080457,0.00
 024066,0.00052010,-0.00019589,0.00009873,-0.00020618,0.00015871,0.0001
 8314,0.00040769,0.00134639,-0.00987373,-0.01905317,-0.01388552,0.11437
 310,0.27355892\\0.00000151,-0.00000082,0.00000215,-0.00000195,0.000000
 21,-0.00000277,0.00000571,-0.00000156,0.00000615,-0.00000231,0.0000054
 0,-0.00000322,-0.00000030,-0.00000261,-0.00000774,-0.00000961,0.000006
 04,0.00000962,0.00001066,-0.00000371,-0.00000622,-0.00000717,-0.000003
 31,0.00000513,0.00000050,0.00000418,-0.00000328,-0.00000001,-0.0000010
 6,0.00000238,0.00000917,-0.00000694,-0.00000172,-0.00000071,0.00000108
 ,-0.00000031,-0.00000048,-0.00000168,-0.00000039,-0.00000083,-0.000000
 06,-0.00000183,0.00000010,0.00000020,0.00000149,-0.00000046,0.00000035
 ,-0.00000233,-0.00000362,0.00000372,0.00000194,0.00000087,0.00000229,0
 .00000163,0.00000058,-0.00000197,-0.00000186,-0.00000152,0.00000106,-0
 .00000104,-0.00000039,0.00000031,-0.00000243,0.00000045,-0.00000159,-0
 .00000365,-0.00000032,0.00000110,0.00000074,-0.00000028,-0.00000196,0.
 00000182,-0.00000029,-0.00000084,0.00000238,0.00000075,-0.00000157,0.0
 0000116,0.00000012,0.00000260,0.00000206,-0.00000016,0.00000116,0.0000
 0013\\\@


 THOSE WHO TRY TO PASS CHEMISTRY OFF AS A NEW SCIENCE
 SHOW HOW LITTLE KNOWLEDGE THEY HAVE OF THE CHARACTER
 AND LITERATURE OF THE ANCIENTS.
   -- NICOLAS LEFEVRE
 "COURS DE CHYMIE" J.-N.LELOUP, PARIS, 1751
 Job cpu time:       0 days  3 hours 48 minutes 59.6 seconds.
 Elapsed time:       0 days  0 hours 57 minutes 50.9 seconds.
 File lengths (MBytes):  RWF=    314 Int=      0 D2E=      0 Chk=     14 Scr=      1
 Normal termination of Gaussian 16 at Tue Jun  1 13:04:52 2021.
### All Done ###
