### Starting Gaussian ###
 Entering Gaussian System, Link 0=g16
 Initial command:
 /cluster/software/gaussian/gaussian-16-A.03/avx2/g16/l1.exe "/local/scratch/cz9n3/Gau-24367.inp" -scrdir="/local/scratch/cz9n3/"
 Entering Link 1 = /cluster/software/gaussian/gaussian-16-A.03/avx2/g16/l1.exe PID=     24368.
  
 Copyright (c) 1988,1990,1992,1993,1995,1998,2003,2009,2016,
            Gaussian, Inc.  All Rights Reserved.
  
 This is part of the Gaussian(R) 16 program.  It is based on
 the Gaussian(R) 09 system (copyright 2009, Gaussian, Inc.),
 the Gaussian(R) 03 system (copyright 2003, Gaussian, Inc.),
 the Gaussian(R) 98 system (copyright 1998, Gaussian, Inc.),
 the Gaussian(R) 94 system (copyright 1995, Gaussian, Inc.),
 the Gaussian 92(TM) system (copyright 1992, Gaussian, Inc.),
 the Gaussian 90(TM) system (copyright 1990, Gaussian, Inc.),
 the Gaussian 88(TM) system (copyright 1988, Gaussian, Inc.),
 the Gaussian 86(TM) system (copyright 1986, Carnegie Mellon
 University), and the Gaussian 82(TM) system (copyright 1983,
 Carnegie Mellon University). Gaussian is a federally registered
 trademark of Gaussian, Inc.
  
 This software contains proprietary and confidential information,
 including trade secrets, belonging to Gaussian, Inc.
  
 This software is provided under written license and may be
 used, copied, transmitted, or stored only in accord with that
 written license.
  
 The following legend is applicable only to US Government
 contracts under FAR:
  
                    RESTRICTED RIGHTS LEGEND
  
 Use, reproduction and disclosure by the US Government is
 subject to restrictions as set forth in subparagraphs (a)
 and (c) of the Commercial Computer Software - Restricted
 Rights clause in FAR 52.227-19.
  
 Gaussian, Inc.
 340 Quinnipiac St., Bldg. 40, Wallingford CT 06492
  
  
 ---------------------------------------------------------------
 Warning -- This program may not be used in any manner that
 competes with the business of Gaussian, Inc. or will provide
 assistance to any competitor of Gaussian, Inc.  The licensee
 of this program is prohibited from giving any competitor of
 Gaussian, Inc. access to this program.  By using this program,
 the user acknowledges that Gaussian, Inc. is engaged in the
 business of creating and licensing software in the field of
 computational chemistry and represents and warrants to the
 licensee that it is not a competitor of Gaussian, Inc. and that
 it will not use this program in any manner prohibited above.
 ---------------------------------------------------------------
  

 Cite this work as:
 Gaussian 16, Revision A.03,
 M. J. Frisch, G. W. Trucks, H. B. Schlegel, G. E. Scuseria, 
 M. A. Robb, J. R. Cheeseman, G. Scalmani, V. Barone, 
 G. A. Petersson, H. Nakatsuji, X. Li, M. Caricato, A. V. Marenich, 
 J. Bloino, B. G. Janesko, R. Gomperts, B. Mennucci, H. P. Hratchian, 
 J. V. Ortiz, A. F. Izmaylov, J. L. Sonnenberg, D. Williams-Young, 
 F. Ding, F. Lipparini, F. Egidi, J. Goings, B. Peng, A. Petrone, 
 T. Henderson, D. Ranasinghe, V. G. Zakrzewski, J. Gao, N. Rega, 
 G. Zheng, W. Liang, M. Hada, M. Ehara, K. Toyota, R. Fukuda, 
 J. Hasegawa, M. Ishida, T. Nakajima, Y. Honda, O. Kitao, H. Nakai, 
 T. Vreven, K. Throssell, J. A. Montgomery, Jr., J. E. Peralta, 
 F. Ogliaro, M. J. Bearpark, J. J. Heyd, E. N. Brothers, K. N. Kudin, 
 V. N. Staroverov, T. A. Keith, R. Kobayashi, J. Normand, 
 K. Raghavachari, A. P. Rendell, J. C. Burant, S. S. Iyengar, 
 J. Tomasi, M. Cossi, J. M. Millam, M. Klene, C. Adamo, R. Cammi, 
 J. W. Ochterski, R. L. Martin, K. Morokuma, O. Farkas, 
 J. B. Foresman, and D. J. Fox, Gaussian, Inc., Wallingford CT, 2016.
 
 ******************************************
 Gaussian 16:  ES64L-G16RevA.03 25-Dec-2016
                 1-Jun-2021 
 ******************************************
 %chk=CCdCCNpCpN.chk
 %NProcShared=20
 Will use up to   20 processors via shared memory.
 -----------------------------
 # opt freq b3lyp/6-31g(2df,p)
 -----------------------------
 1/18=20,19=15,26=3,38=1/1,3;
 2/9=110,12=2,17=6,18=5,40=1/2;
 3/5=1,6=6,7=104,11=2,25=1,30=1,71=1,74=-5/1,2,3;
 4//1;
 5/5=2,38=5/2;
 6/7=2,8=2,9=2,10=2,28=1/1;
 7//1,2,3,16;
 1/18=20,19=15,26=3/3(2);
 2/9=110/2;
 99//99;
 2/9=110/2;
 3/5=1,6=6,7=104,11=2,25=1,30=1,71=1,74=-5/1,2,3;
 4/5=5,16=3,69=1/1;
 5/5=2,38=5/2;
 7//1,2,3,16;
 1/18=20,19=15,26=3/3(-5);
 2/9=110/2;
 6/7=2,8=2,9=2,10=2,19=2,28=1/1;
 99/9=1/99;
 -------------------
 Title Card Required
 -------------------
 Symbolic Z-matrix:
 Charge =  0 Multiplicity = 1
 C                     0.96643  -0.05433   0.0754 
 C                     2.45742  -0.05703   0.07444 
 C                     3.16234   1.05962   0.31892 
 C                     4.66011   1.10998   0.39066 
 N                     5.16545   2.44755   0.76414 
 C                     4.73215   2.83843   2.1124 
 N                     6.62023   2.4525    0.74183 
 H                     0.59044  -1.04793  -0.18318 
 H                     0.5773    0.65993  -0.65662 
 H                     0.58495   0.20406   1.06883 
 H                     2.9681   -0.99424  -0.12565 
 H                     2.61794   1.98336   0.49625 
 H                     5.04931   0.851    -0.60325 
 H                     5.02561   0.35408   1.09863 
 H                     3.64179   2.911     2.18126 
 H                     5.11212   3.8347    2.36349 
 H                     5.07313   2.1279    2.87369 
 H                     6.97427   2.22767  -0.19076 
 H                     7.01616   1.75974   1.38065 
 

 GradGradGradGradGradGradGradGradGradGradGradGradGradGradGradGradGradGrad
 Berny optimization.
 Initialization pass.
                           ----------------------------
                           !    Initial Parameters    !
                           ! (Angstroms and Degrees)  !
 --------------------------                            --------------------------
 ! Name  Definition              Value          Derivative Info.                !
 --------------------------------------------------------------------------------
 ! R1    R(1,2)                  1.491          estimate D2E/DX2                !
 ! R2    R(1,8)                  1.0934         estimate D2E/DX2                !
 ! R3    R(1,9)                  1.0943         estimate D2E/DX2                !
 ! R4    R(1,10)                 1.0951         estimate D2E/DX2                !
 ! R5    R(2,3)                  1.343          estimate D2E/DX2                !
 ! R6    R(2,11)                 1.0859         estimate D2E/DX2                !
 ! R7    R(3,4)                  1.5003         estimate D2E/DX2                !
 ! R8    R(3,12)                 1.0868         estimate D2E/DX2                !
 ! R9    R(4,5)                  1.4778         estimate D2E/DX2                !
 ! R10   R(4,13)                 1.0984         estimate D2E/DX2                !
 ! R11   R(4,14)                 1.0983         estimate D2E/DX2                !
 ! R12   R(5,6)                  1.4691         estimate D2E/DX2                !
 ! R13   R(5,7)                  1.455          estimate D2E/DX2                !
 ! R14   R(6,15)                 1.0949         estimate D2E/DX2                !
 ! R15   R(6,16)                 1.0954         estimate D2E/DX2                !
 ! R16   R(6,17)                 1.0958         estimate D2E/DX2                !
 ! R17   R(7,18)                 1.0226         estimate D2E/DX2                !
 ! R18   R(7,19)                 1.0221         estimate D2E/DX2                !
 ! A1    A(2,1,8)              110.0037         estimate D2E/DX2                !
 ! A2    A(2,1,9)              110.8765         estimate D2E/DX2                !
 ! A3    A(2,1,10)             110.4488         estimate D2E/DX2                !
 ! A4    A(8,1,9)              108.2201         estimate D2E/DX2                !
 ! A5    A(8,1,10)             108.0095         estimate D2E/DX2                !
 ! A6    A(9,1,10)             109.2061         estimate D2E/DX2                !
 ! A7    A(1,2,3)              121.5518         estimate D2E/DX2                !
 ! A8    A(1,2,11)             118.1616         estimate D2E/DX2                !
 ! A9    A(3,2,11)             120.2858         estimate D2E/DX2                !
 ! A10   A(2,3,4)              124.098          estimate D2E/DX2                !
 ! A11   A(2,3,12)             118.2617         estimate D2E/DX2                !
 ! A12   A(4,3,12)             117.6285         estimate D2E/DX2                !
 ! A13   A(3,4,5)              112.5712         estimate D2E/DX2                !
 ! A14   A(3,4,13)             107.6112         estimate D2E/DX2                !
 ! A15   A(3,4,14)             109.8738         estimate D2E/DX2                !
 ! A16   A(5,4,13)             108.7193         estimate D2E/DX2                !
 ! A17   A(5,4,14)             110.2572         estimate D2E/DX2                !
 ! A18   A(13,4,14)            107.6446         estimate D2E/DX2                !
 ! A19   A(4,5,6)              111.8322         estimate D2E/DX2                !
 ! A20   A(4,5,7)              109.9446         estimate D2E/DX2                !
 ! A21   A(6,5,7)              107.9428         estimate D2E/DX2                !
 ! A22   A(5,6,15)             111.6572         estimate D2E/DX2                !
 ! A23   A(5,6,16)             110.4891         estimate D2E/DX2                !
 ! A24   A(5,6,17)             111.9192         estimate D2E/DX2                !
 ! A25   A(15,6,16)            105.7073         estimate D2E/DX2                !
 ! A26   A(15,6,17)            108.0089         estimate D2E/DX2                !
 ! A27   A(16,6,17)            108.8171         estimate D2E/DX2                !
 ! A28   A(5,7,18)             111.0649         estimate D2E/DX2                !
 ! A29   A(5,7,19)             112.0501         estimate D2E/DX2                !
 ! A30   A(18,7,19)            106.6703         estimate D2E/DX2                !
 ! D1    D(8,1,2,3)            177.7671         estimate D2E/DX2                !
 ! D2    D(8,1,2,11)            -2.5471         estimate D2E/DX2                !
 ! D3    D(9,1,2,3)             58.0997         estimate D2E/DX2                !
 ! D4    D(9,1,2,11)          -122.2146         estimate D2E/DX2                !
 ! D5    D(10,1,2,3)           -63.0964         estimate D2E/DX2                !
 ! D6    D(10,1,2,11)          116.5893         estimate D2E/DX2                !
 ! D7    D(1,2,3,4)            177.2475         estimate D2E/DX2                !
 ! D8    D(1,2,3,12)            -1.4731         estimate D2E/DX2                !
 ! D9    D(11,2,3,4)            -2.4316         estimate D2E/DX2                !
 ! D10   D(11,2,3,12)          178.8477         estimate D2E/DX2                !
 ! D11   D(2,3,4,5)           -176.0971         estimate D2E/DX2                !
 ! D12   D(2,3,4,13)            64.1282         estimate D2E/DX2                !
 ! D13   D(2,3,4,14)           -52.8017         estimate D2E/DX2                !
 ! D14   D(12,3,4,5)             2.6311         estimate D2E/DX2                !
 ! D15   D(12,3,4,13)         -117.1436         estimate D2E/DX2                !
 ! D16   D(12,3,4,14)          125.9264         estimate D2E/DX2                !
 ! D17   D(3,4,5,6)             63.3585         estimate D2E/DX2                !
 ! D18   D(3,4,5,7)           -176.7459         estimate D2E/DX2                !
 ! D19   D(13,4,5,6)          -177.5107         estimate D2E/DX2                !
 ! D20   D(13,4,5,7)           -57.615          estimate D2E/DX2                !
 ! D21   D(14,4,5,6)           -59.7228         estimate D2E/DX2                !
 ! D22   D(14,4,5,7)            60.1729         estimate D2E/DX2                !
 ! D23   D(4,5,6,15)           -62.2367         estimate D2E/DX2                !
 ! D24   D(4,5,6,16)          -179.5809         estimate D2E/DX2                !
 ! D25   D(4,5,6,17)            58.9847         estimate D2E/DX2                !
 ! D26   D(7,5,6,15)           176.7002         estimate D2E/DX2                !
 ! D27   D(7,5,6,16)            59.356          estimate D2E/DX2                !
 ! D28   D(7,5,6,17)           -62.0784         estimate D2E/DX2                !
 ! D29   D(4,5,7,18)            60.3687         estimate D2E/DX2                !
 ! D30   D(4,5,7,19)           -58.8192         estimate D2E/DX2                !
 ! D31   D(6,5,7,18)          -177.3993         estimate D2E/DX2                !
 ! D32   D(6,5,7,19)            63.4128         estimate D2E/DX2                !
 --------------------------------------------------------------------------------
 Trust Radius=3.00D-01 FncErr=1.00D-07 GrdErr=1.00D-06 EigMax=2.50D+02 EigMin=1.00D-04
 Number of steps in this run=     90 maximum allowed number of steps=    114.
 GradGradGradGradGradGradGradGradGradGradGradGradGradGradGradGradGradGrad

                          Input orientation:                          
 ---------------------------------------------------------------------
 Center     Atomic      Atomic             Coordinates (Angstroms)
 Number     Number       Type             X           Y           Z
 ---------------------------------------------------------------------
      1          6           0        0.966430   -0.054330    0.075400
      2          6           0        2.457420   -0.057030    0.074440
      3          6           0        3.162340    1.059620    0.318920
      4          6           0        4.660110    1.109980    0.390660
      5          7           0        5.165450    2.447550    0.764140
      6          6           0        4.732150    2.838430    2.112400
      7          7           0        6.620230    2.452500    0.741830
      8          1           0        0.590440   -1.047930   -0.183180
      9          1           0        0.577300    0.659930   -0.656620
     10          1           0        0.584950    0.204060    1.068830
     11          1           0        2.968100   -0.994240   -0.125650
     12          1           0        2.617940    1.983360    0.496250
     13          1           0        5.049310    0.851000   -0.603250
     14          1           0        5.025610    0.354080    1.098630
     15          1           0        3.641790    2.911000    2.181260
     16          1           0        5.112120    3.834700    2.363490
     17          1           0        5.073130    2.127900    2.873690
     18          1           0        6.974270    2.227670   -0.190760
     19          1           0        7.016160    1.759740    1.380650
 ---------------------------------------------------------------------
                    Distance matrix (angstroms):
                    1          2          3          4          5
     1  C    0.000000
     2  C    1.490993   0.000000
     3  C    2.474309   1.342978   0.000000
     4  C    3.885650   2.512718   1.500333   0.000000
     5  N    4.936146   3.752604   2.477301   1.477819   0.000000
     6  C    5.167018   4.208487   2.974061   2.440721   1.469129
     7  N    6.220432   4.906336   3.751796   2.401614   1.454959
     8  H    1.093377   2.129287   3.362817   4.641991   5.834939
     9  H    1.094277   2.140872   2.791749   4.238948   5.124965
    10  H    1.095078   2.136147   2.817319   4.229366   5.109507
    11  H    2.220481   1.085906   2.110382   2.749039   4.179233
    12  H    2.656460   2.089709   1.086790   2.223601   2.603276
    13  H    4.236756   2.828723   2.110587   1.098364   2.105283
    14  H    4.206036   2.795278   2.139512   1.098270   2.124631
    15  H    4.515017   3.827613   2.669418   2.736219   2.131796
    16  H    6.127533   5.237628   3.960174   3.394182   2.117770
    17  H    5.427480   4.410403   3.364400   2.715177   2.135626
    18  H    6.432146   5.068739   4.019319   2.634885   2.057185
    19  H    6.449322   5.078282   4.058247   2.636900   2.068404
                    6          7          8          9         10
     6  C    0.000000
     7  N    2.364794   0.000000
     8  H    6.125948   7.033280   0.000000
     9  H    5.447579   6.456468   1.772316   0.000000
    10  H    5.022769   6.448800   1.770604   1.784672   0.000000
    11  H    4.775992   5.096135   2.378962   2.955357   2.922689
    12  H    2.795169   4.037168   3.709596   2.691614   2.761667
    13  H    3.380122   2.615690   4.864557   4.476408   4.810914
    14  H    2.699230   2.659603   4.824873   4.791859   4.443293
    15  H    1.094940   3.339654   5.529416   4.744679   4.231938
    16  H    1.095435   2.610489   7.125391   6.305935   5.945835
    17  H    1.095757   2.653999   6.286880   5.901738   5.206000
    18  H    3.271800   1.022554   7.175158   6.602731   6.819456
    19  H    2.629778   1.022139   7.184598   6.842439   6.624035
                   11         12         13         14         15
    11  H    0.000000
    12  H    3.061939   0.000000
    13  H    2.822135   2.898741   0.000000
    14  H    2.747758   2.968887   1.773101   0.000000
    15  H    4.585476   2.179001   3.738744   3.102400   0.000000
    16  H    5.840488   3.624221   4.208082   3.704331   1.745938
    17  H    4.814037   3.420683   3.704072   2.509887   1.772411
    18  H    5.141434   4.416931   2.402257   2.995020   4.147149
    19  H    5.122513   4.491827   2.937715   2.453101   3.654141
                   16         17         18         19
    16  H    0.000000
    17  H    1.781850   0.000000
    18  H    3.546032   3.607650   0.000000
    19  H    2.982751   2.477918   1.640135   0.000000
 Stoichiometry    C5H12N2
 Framework group  C1[X(C5H12N2)]
 Deg. of freedom    51
 Full point group                 C1      NOp   1
 Largest Abelian subgroup         C1      NOp   1
 Largest concise Abelian subgroup C1      NOp   1
                         Standard orientation:                         
 ---------------------------------------------------------------------
 Center     Atomic      Atomic             Coordinates (Angstroms)
 Number     Number       Type             X           Y           Z
 ---------------------------------------------------------------------
      1          6           0       -3.401581    0.262675   -0.089964
      2          6           0       -2.141177   -0.469363    0.223978
      3          6           0       -0.946805   -0.026800   -0.201703
      4          6           0        0.360603   -0.683842    0.129924
      5          7           0        1.521295    0.066225   -0.393663
      6          6           0        1.629686    1.399290    0.214227
      7          7           0        2.750299   -0.658105   -0.107652
      8          1           0       -4.260329   -0.281587    0.312285
      9          1           0       -3.535652    0.362284   -1.171419
     10          1           0       -3.388862    1.258814    0.364726
     11          1           0       -2.209572   -1.377014    0.816164
     12          1           0       -0.918331    0.874595   -0.808159
     13          1           0        0.354028   -1.684411   -0.323092
     14          1           0        0.449239   -0.811251    1.217172
     15          1           0        0.756841    2.019703   -0.014074
     16          1           0        2.491532    1.938082   -0.194311
     17          1           0        1.730992    1.344930    1.303935
     18          1           0        2.743584   -1.581330   -0.547227
     19          1           0        2.881018   -0.811416    0.894434
 ---------------------------------------------------------------------
 Rotational constants (GHZ):           7.0956225           1.0931848           0.9902992
 Standard basis: 6-31G(2df,p) (6D, 7F)
 There are   277 symmetry adapted cartesian basis functions of A   symmetry.
 There are   256 symmetry adapted basis functions of A   symmetry.
   256 basis functions,   392 primitive gaussians,   277 cartesian basis functions
    28 alpha electrons       28 beta electrons
       nuclear repulsion energy       304.8354510865 Hartrees.
 NAtoms=   19 NActive=   19 NUniq=   19 SFac= 1.00D+00 NAtFMM=   60 NAOKFM=F Big=F
 Integral buffers will be    131072 words long.
 Raffenetti 2 integral format.
 Two-electron integral symmetry is turned on.
 One-electron integrals computed using PRISM.
 PrsmSu:  requested number of processors reduced to:  13 ShMem   1 Linda.
 NBasis=   256 RedAO= T EigKep=  3.35D-04  NBF=   256
 NBsUse=   256 1.00D-06 EigRej= -1.00D+00 NBFU=   256
 ExpMin= 1.61D-01 ExpMax= 4.17D+03 ExpMxC= 6.27D+02 IAcc=3 IRadAn=         5 AccDes= 0.00D+00
 Harris functional with IExCor=  402 and IRadAn=       5 diagonalized for initial guess.
 HarFok:  IExCor=  402 AccDes= 0.00D+00 IRadAn=         5 IDoV= 1 UseB2=F ITyADJ=14
 ICtDFT=  3500011 ScaDFX=  1.000000  1.000000  1.000000  1.000000
 FoFCou: FMM=F IPFlag=           0 FMFlag=      100000 FMFlg1=           0
         NFxFlg=           0 DoJE=T BraDBF=F KetDBF=T FulRan=T
         wScrn=  0.000000 ICntrl=       500 IOpCl=  0 I1Cent=   200000004 NGrid=           0
         NMat0=    1 NMatS0=      1 NMatT0=    0 NMatD0=    1 NMtDS0=    0 NMtDT0=    0
 Petite list used in FoFCou.
 Requested convergence on RMS density matrix=1.00D-08 within 128 cycles.
 Requested convergence on MAX density matrix=1.00D-06.
 Requested convergence on             energy=1.00D-06.
 No special actions if energy rises.
 Integral accuracy reduced to 1.0D-05 until final iterations.
 Initial convergence to 1.0D-05 achieved.  Increase integral accuracy.
 SCF Done:  E(RB3LYP) =  -307.208228230     A.U. after   13 cycles
            NFock= 13  Conv=0.44D-08     -V/T= 2.0084

 **********************************************************************

            Population analysis using the SCF density.

 **********************************************************************

 Orbital symmetries:
       Occupied  (A) (A) (A) (A) (A) (A) (A) (A) (A) (A) (A) (A)
                 (A) (A) (A) (A) (A) (A) (A) (A) (A) (A) (A) (A)
                 (A) (A) (A) (A)
       Virtual   (A) (A) (A) (A) (A) (A) (A) (A) (A) (A) (A) (A)
                 (A) (A) (A) (A) (A) (A) (A) (A) (A) (A) (A) (A)
                 (A) (A) (A) (A) (A) (A) (A) (A) (A) (A) (A) (A)
                 (A) (A) (A) (A) (A) (A) (A) (A) (A) (A) (A) (A)
                 (A) (A) (A) (A) (A) (A) (A) (A) (A) (A) (A) (A)
                 (A) (A) (A) (A) (A) (A) (A) (A) (A) (A) (A) (A)
                 (A) (A) (A) (A) (A) (A) (A) (A) (A) (A) (A) (A)
                 (A) (A) (A) (A) (A) (A) (A) (A) (A) (A) (A) (A)
                 (A) (A) (A) (A) (A) (A) (A) (A) (A) (A) (A) (A)
                 (A) (A) (A) (A) (A) (A) (A) (A) (A) (A) (A) (A)
                 (A) (A) (A) (A) (A) (A) (A) (A) (A) (A) (A) (A)
                 (A) (A) (A) (A) (A) (A) (A) (A) (A) (A) (A) (A)
                 (A) (A) (A) (A) (A) (A) (A) (A) (A) (A) (A) (A)
                 (A) (A) (A) (A) (A) (A) (A) (A) (A) (A) (A) (A)
                 (A) (A) (A) (A) (A) (A) (A) (A) (A) (A) (A) (A)
                 (A) (A) (A) (A) (A) (A) (A) (A) (A) (A) (A) (A)
                 (A) (A) (A) (A) (A) (A) (A) (A) (A) (A) (A) (A)
                 (A) (A) (A) (A) (A) (A) (A) (A) (A) (A) (A) (A)
                 (A) (A) (A) (A) (A) (A) (A) (A) (A) (A) (A) (A)
 The electronic state is 1-A.
 Alpha  occ. eigenvalues --  -14.34563 -14.32853 -10.20375 -10.19646 -10.17766
 Alpha  occ. eigenvalues --  -10.17569 -10.17515  -0.95409  -0.80515  -0.77434
 Alpha  occ. eigenvalues --   -0.71935  -0.65950  -0.59885  -0.54781  -0.49286
 Alpha  occ. eigenvalues --   -0.48119  -0.45562  -0.43002  -0.41858  -0.41039
 Alpha  occ. eigenvalues --   -0.39875  -0.38242  -0.36466  -0.36008  -0.33933
 Alpha  occ. eigenvalues --   -0.25639  -0.23456  -0.20915
 Alpha virt. eigenvalues --    0.01394   0.08038   0.11148   0.11668   0.12384
 Alpha virt. eigenvalues --    0.13234   0.14234   0.16620   0.16754   0.17729
 Alpha virt. eigenvalues --    0.18796   0.19994   0.20795   0.21914   0.22810
 Alpha virt. eigenvalues --    0.25895   0.27218   0.30859   0.34875   0.45296
 Alpha virt. eigenvalues --    0.46164   0.47637   0.48501   0.49127   0.50577
 Alpha virt. eigenvalues --    0.52644   0.53788   0.55713   0.58761   0.59523
 Alpha virt. eigenvalues --    0.61900   0.64781   0.65282   0.67802   0.68633
 Alpha virt. eigenvalues --    0.69568   0.71116   0.72496   0.73414   0.74373
 Alpha virt. eigenvalues --    0.74462   0.74835   0.75646   0.76344   0.78041
 Alpha virt. eigenvalues --    0.79891   0.82049   0.83518   0.85261   0.85435
 Alpha virt. eigenvalues --    0.86174   0.87140   0.87908   0.90566   0.91112
 Alpha virt. eigenvalues --    0.93975   0.98606   1.03307   1.05767   1.11109
 Alpha virt. eigenvalues --    1.14721   1.19911   1.21033   1.22081   1.22931
 Alpha virt. eigenvalues --    1.29483   1.29828   1.37554   1.39853   1.41739
 Alpha virt. eigenvalues --    1.44334   1.45551   1.46671   1.48534   1.51472
 Alpha virt. eigenvalues --    1.53644   1.58012   1.58929   1.61412   1.66777
 Alpha virt. eigenvalues --    1.69554   1.72077   1.74259   1.76691   1.78615
 Alpha virt. eigenvalues --    1.82793   1.85950   1.87312   1.91794   1.95163
 Alpha virt. eigenvalues --    1.95856   1.97673   2.02101   2.04308   2.08325
 Alpha virt. eigenvalues --    2.09711   2.14259   2.16401   2.20095   2.24391
 Alpha virt. eigenvalues --    2.32053   2.33904   2.37231   2.38029   2.40149
 Alpha virt. eigenvalues --    2.43764   2.46540   2.49056   2.52903   2.54617
 Alpha virt. eigenvalues --    2.58808   2.59883   2.69312   2.72923   2.76678
 Alpha virt. eigenvalues --    2.77856   2.78449   2.81820   2.83618   2.84205
 Alpha virt. eigenvalues --    2.87127   2.87716   2.90128   2.91062   2.91971
 Alpha virt. eigenvalues --    2.95112   2.96503   3.00182   3.02698   3.04678
 Alpha virt. eigenvalues --    3.05338   3.06784   3.08675   3.13862   3.17454
 Alpha virt. eigenvalues --    3.18260   3.22947   3.24535   3.27652   3.31360
 Alpha virt. eigenvalues --    3.33503   3.36002   3.38049   3.38852   3.43895
 Alpha virt. eigenvalues --    3.45135   3.46608   3.51704   3.52787   3.55518
 Alpha virt. eigenvalues --    3.57389   3.61612   3.64519   3.66228   3.68270
 Alpha virt. eigenvalues --    3.71171   3.73350   3.76175   3.78449   3.83866
 Alpha virt. eigenvalues --    3.88174   3.89323   3.94322   3.97995   4.04006
 Alpha virt. eigenvalues --    4.07735   4.09025   4.14626   4.21663   4.25395
 Alpha virt. eigenvalues --    4.27139   4.28767   4.30303   4.32597   4.35938
 Alpha virt. eigenvalues --    4.39384   4.40176   4.42401   4.46524   4.48839
 Alpha virt. eigenvalues --    4.51850   4.52577   4.54721   4.55395   4.56218
 Alpha virt. eigenvalues --    4.57558   4.60558   4.61185   4.61844   4.67190
 Alpha virt. eigenvalues --    4.68081   4.71905   4.73050   4.74606   4.76616
 Alpha virt. eigenvalues --    4.78318   4.79619   4.82227   4.85492   4.90172
 Alpha virt. eigenvalues --    4.92556   4.95780   4.98220   5.03057   5.05887
 Alpha virt. eigenvalues --    5.09937   5.13430   5.15407   5.22990   5.29142
 Alpha virt. eigenvalues --    5.31352   5.37620   5.39543   5.45703   5.48514
 Alpha virt. eigenvalues --    5.56323   5.62111   5.69333   6.14257   8.40986
 Alpha virt. eigenvalues --   10.31573  11.17333  11.26574  11.48662  11.59223
 Alpha virt. eigenvalues --   11.79011  12.10561  14.81442
          Condensed to atoms (all electrons):
               1          2          3          4          5          6
     1  C    4.991700   0.383541  -0.006615   0.003834  -0.000072   0.000009
     2  C    0.383541   4.776732   0.674831  -0.018085   0.001914   0.000018
     3  C   -0.006615   0.674831   4.741057   0.381071  -0.026014   0.000148
     4  C    0.003834  -0.018085   0.381071   4.963514   0.389959  -0.076251
     5  N   -0.000072   0.001914  -0.026014   0.389959   6.253448   0.393585
     6  C    0.000009   0.000018   0.000148  -0.076251   0.393585   4.926211
     7  N    0.000001  -0.000117   0.005421  -0.073754   0.320196  -0.052142
     8  H    0.371687  -0.018106   0.001699  -0.000146   0.000000  -0.000000
     9  H    0.375049  -0.024288  -0.008557  -0.000021   0.000001  -0.000001
    10  H    0.375805  -0.023677  -0.010547  -0.000013   0.000004   0.000001
    11  H   -0.062427   0.366687  -0.034501  -0.013019   0.000154   0.000017
    12  H   -0.012627  -0.042436   0.370882  -0.066496   0.000784  -0.000121
    13  H   -0.000138  -0.007893  -0.016871   0.346984  -0.020350   0.005891
    14  H   -0.000068  -0.002961  -0.030712   0.322311  -0.045661  -0.009055
    15  H   -0.000017   0.000201   0.001990   0.000281  -0.026183   0.378620
    16  H   -0.000000  -0.000015  -0.000060   0.005374  -0.021665   0.378766
    17  H   -0.000000   0.000200  -0.001495  -0.006290  -0.044109   0.353107
    18  H    0.000000  -0.000012   0.000189  -0.001851  -0.037403   0.005478
    19  H    0.000000   0.000036   0.000148  -0.006676  -0.055933  -0.008228
               7          8          9         10         11         12
     1  C    0.000001   0.371687   0.375049   0.375805  -0.062427  -0.012627
     2  C   -0.000117  -0.018106  -0.024288  -0.023677   0.366687  -0.042436
     3  C    0.005421   0.001699  -0.008557  -0.010547  -0.034501   0.370882
     4  C   -0.073754  -0.000146  -0.000021  -0.000013  -0.013019  -0.066496
     5  N    0.320196   0.000000   0.000001   0.000004   0.000154   0.000784
     6  C   -0.052142  -0.000000  -0.000001   0.000001   0.000017  -0.000121
     7  N    6.615621  -0.000000  -0.000000  -0.000000  -0.000005   0.000141
     8  H   -0.000000   0.597461  -0.030274  -0.031729  -0.005933   0.000019
     9  H   -0.000000  -0.030274   0.580312  -0.029790   0.004385   0.002543
    10  H   -0.000000  -0.031729  -0.029790   0.583638   0.004194   0.002349
    11  H   -0.000005  -0.005933   0.004385   0.004194   0.646887   0.007722
    12  H    0.000141   0.000019   0.002543   0.002349   0.007722   0.633465
    13  H   -0.001719   0.000008   0.000055  -0.000019   0.001709   0.003638
    14  H    0.001959   0.000003  -0.000018   0.000062   0.002918   0.005302
    15  H    0.003274  -0.000000   0.000003  -0.000006   0.000002   0.001763
    16  H    0.003826   0.000000   0.000000  -0.000000   0.000000  -0.000098
    17  H   -0.003687   0.000000  -0.000000   0.000001   0.000008   0.000454
    18  H    0.341183   0.000000   0.000000  -0.000000   0.000001   0.000017
    19  H    0.313904   0.000000  -0.000000   0.000000   0.000003   0.000050
              13         14         15         16         17         18
     1  C   -0.000138  -0.000068  -0.000017  -0.000000  -0.000000   0.000000
     2  C   -0.007893  -0.002961   0.000201  -0.000015   0.000200  -0.000012
     3  C   -0.016871  -0.030712   0.001990  -0.000060  -0.001495   0.000189
     4  C    0.346984   0.322311   0.000281   0.005374  -0.006290  -0.001851
     5  N   -0.020350  -0.045661  -0.026183  -0.021665  -0.044109  -0.037403
     6  C    0.005891  -0.009055   0.378620   0.378766   0.353107   0.005478
     7  N   -0.001719   0.001959   0.003274   0.003826  -0.003687   0.341183
     8  H    0.000008   0.000003  -0.000000   0.000000   0.000000   0.000000
     9  H    0.000055  -0.000018   0.000003   0.000000  -0.000000   0.000000
    10  H   -0.000019   0.000062  -0.000006  -0.000000   0.000001  -0.000000
    11  H    0.001709   0.002918   0.000002   0.000000   0.000008   0.000001
    12  H    0.003638   0.005302   0.001763  -0.000098   0.000454   0.000017
    13  H    0.624333  -0.047465   0.000148  -0.000197  -0.000267   0.005569
    14  H   -0.047465   0.695280  -0.001454  -0.000392   0.015095  -0.000617
    15  H    0.000148  -0.001454   0.588257  -0.028415  -0.041689  -0.000251
    16  H   -0.000197  -0.000392  -0.028415   0.572102  -0.040964  -0.000013
    17  H   -0.000267   0.015095  -0.041689  -0.040964   0.665794  -0.000159
    18  H    0.005569  -0.000617  -0.000251  -0.000013  -0.000159   0.489850
    19  H   -0.001081   0.015021  -0.000606  -0.001543   0.013659  -0.039888
              19
     1  C    0.000000
     2  C    0.000036
     3  C    0.000148
     4  C   -0.006676
     5  N   -0.055933
     6  C   -0.008228
     7  N    0.313904
     8  H    0.000000
     9  H   -0.000000
    10  H    0.000000
    11  H    0.000003
    12  H    0.000050
    13  H   -0.001081
    14  H    0.015021
    15  H   -0.000606
    16  H   -0.001543
    17  H    0.013659
    18  H   -0.039888
    19  H    0.562540
 Mulliken charges:
               1
     1  C   -0.419661
     2  C   -0.066569
     3  C   -0.042063
     4  C   -0.150725
     5  N   -0.082656
     6  C   -0.296054
     7  N   -0.474103
     8  H    0.115312
     9  H    0.130600
    10  H    0.129726
    11  H    0.081199
    12  H    0.092648
    13  H    0.107665
    14  H    0.080455
    15  H    0.124085
    16  H    0.133295
    17  H    0.090344
    18  H    0.237909
    19  H    0.208594
 Sum of Mulliken charges =  -0.00000
 Mulliken charges with hydrogens summed into heavy atoms:
               1
     1  C   -0.044024
     2  C    0.014629
     3  C    0.050585
     4  C    0.037395
     5  N   -0.082656
     6  C    0.051670
     7  N   -0.027600
 Electronic spatial extent (au):  <R**2>=           1211.8335
 Charge=              0.0000 electrons
 Dipole moment (field-independent basis, Debye):
    X=             -0.9612    Y=             -0.6852    Z=              1.1858  Tot=              1.6732
 Quadrupole moment (field-independent basis, Debye-Ang):
   XX=            -47.2187   YY=            -40.5079   ZZ=            -45.7369
   XY=             -2.2277   XZ=              2.7951   YZ=             -0.4850
 Traceless Quadrupole moment (field-independent basis, Debye-Ang):
   XX=             -2.7309   YY=              3.9799   ZZ=             -1.2490
   XY=             -2.2277   XZ=              2.7951   YZ=             -0.4850
 Octapole moment (field-independent basis, Debye-Ang**2):
  XXX=            -12.0634  YYY=             -3.9170  ZZZ=              0.5726  XYY=             10.7313
  XXY=             -8.0351  XXZ=              8.3466  XZZ=              3.1317  YZZ=             -1.7959
  YYZ=             -1.9142  XYZ=              1.8431
 Hexadecapole moment (field-independent basis, Debye-Ang**3):
 XXXX=          -1356.3377 YYYY=           -220.1408 ZZZZ=            -89.1021 XXXY=            -14.6450
 XXXZ=             16.6718 YYYX=            -14.1517 YYYZ=              1.4960 ZZZX=              5.8675
 ZZZY=             -0.7387 XXYY=           -228.4049 XXZZ=           -226.0729 YYZZ=            -52.3121
 XXYZ=             -4.0203 YYXZ=             -7.8740 ZZXY=             -5.6318
 N-N= 3.048354510865D+02 E-N=-1.322495181527D+03  KE= 3.046377365964D+02
 PrsmSu:  requested number of processors reduced to:  13 ShMem   1 Linda.
 Calling FoFJK, ICntrl=      2127 FMM=F ISym2X=0 I1Cent= 0 IOpClX= 0 NMat=1 NMatS=1 NMatT=0.
 ***** Axes restored to original set *****
 -------------------------------------------------------------------
 Center     Atomic                   Forces (Hartrees/Bohr)
 Number     Number              X              Y              Z
 -------------------------------------------------------------------
      1        6          -0.005515367   -0.007638667   -0.002749089
      2        6           0.013789715    0.020423264    0.004295354
      3        6          -0.009005831   -0.017265855   -0.000748545
      4        6          -0.002676013    0.009374055   -0.001391254
      5        7           0.012540712   -0.009739936   -0.003458417
      6        6           0.002066174    0.006744702   -0.006321162
      7        7          -0.005095798    0.012936897    0.002453851
      8        1          -0.003845714    0.001162124    0.000068120
      9        1          -0.003177371    0.000183265    0.001428902
     10        1          -0.003198128    0.000481770   -0.001384417
     11        1           0.001467857   -0.001388724    0.001227666
     12        1           0.001105605    0.001536639   -0.001183108
     13        1           0.005038038    0.002688793    0.002318909
     14        1           0.003148024   -0.004822084    0.002381800
     15        1           0.001421479   -0.004150246   -0.003770626
     16        1           0.004110705   -0.003002785   -0.003140370
     17        1           0.001896453   -0.003506131    0.005246475
     18        1          -0.010042919    0.001758527    0.003579009
     19        1          -0.004027623   -0.005775608    0.001146903
 -------------------------------------------------------------------
 Cartesian Forces:  Max     0.020423264 RMS     0.006156374

 GradGradGradGradGradGradGradGradGradGradGradGradGradGradGradGradGradGrad
 Berny optimization.
 FormGI is forming the generalized inverse of G from B-inverse, IUseBI=4.
 Internal  Forces:  Max     0.019244022 RMS     0.004997585
 Search for a local minimum.
 Step number   1 out of a maximum of   90
 All quantities printed in internal units (Hartrees-Bohrs-Radians)
 Mixed Optimization -- RFO/linear search
 Second derivative matrix not updated -- first step.
 ITU=  0
     Eigenvalues ---    0.00568   0.00662   0.00762   0.00777   0.00885
     Eigenvalues ---    0.01601   0.01688   0.02843   0.03224   0.04957
     Eigenvalues ---    0.04967   0.06532   0.07036   0.07303   0.07339
     Eigenvalues ---    0.07487   0.09980   0.13284   0.15998   0.16000
     Eigenvalues ---    0.16000   0.16000   0.16000   0.16000   0.16000
     Eigenvalues ---    0.16000   0.16000   0.16000   0.16760   0.17733
     Eigenvalues ---    0.22000   0.22001   0.22018   0.32342   0.33341
     Eigenvalues ---    0.33864   0.33874   0.34156   0.34192   0.34232
     Eigenvalues ---    0.34248   0.34323   0.34425   0.34820   0.35186
     Eigenvalues ---    0.35290   0.35845   0.37603   0.43933   0.43999
     Eigenvalues ---    0.56543
 RFO step:  Lambda=-1.03918253D-02 EMin= 5.67796413D-03
 Linear search not attempted -- first point.
 Iteration  1 RMS(Cart)=  0.10456517 RMS(Int)=  0.00445329
 Iteration  2 RMS(Cart)=  0.00508695 RMS(Int)=  0.00113045
 Iteration  3 RMS(Cart)=  0.00001715 RMS(Int)=  0.00113037
 Iteration  4 RMS(Cart)=  0.00000014 RMS(Int)=  0.00113037
 Variable       Old X    -DE/DX   Delta X   Delta X   Delta X     New X
                                 (Linear)    (Quad)   (Total)
    R1        2.81757   0.01572   0.00000   0.04574   0.04574   2.86330
    R2        2.06618   0.00025   0.00000   0.00071   0.00071   2.06689
    R3        2.06788   0.00029   0.00000   0.00083   0.00083   2.06871
    R4        2.06940  -0.00003   0.00000  -0.00008  -0.00008   2.06932
    R5        2.53786  -0.01127   0.00000  -0.01957  -0.01957   2.51829
    R6        2.05207   0.00166   0.00000   0.00458   0.00458   2.05664
    R7        2.83522   0.00840   0.00000   0.02517   0.02517   2.86039
    R8        2.05374   0.00056   0.00000   0.00154   0.00154   2.05528
    R9        2.79267  -0.00438   0.00000  -0.01222  -0.01222   2.78045
   R10        2.07561  -0.00095   0.00000  -0.00271  -0.00271   2.07289
   R11        2.07543   0.00590   0.00000   0.01690   0.01690   2.09233
   R12        2.77625  -0.01117   0.00000  -0.03028  -0.03028   2.74597
   R13        2.74947  -0.01924   0.00000  -0.04980  -0.04980   2.69967
   R14        2.06914  -0.00193   0.00000  -0.00546  -0.00546   2.06367
   R15        2.07007  -0.00203   0.00000  -0.00575  -0.00575   2.06432
   R16        2.07068   0.00651   0.00000   0.01849   0.01849   2.08917
   R17        1.93235  -0.00713   0.00000  -0.01585  -0.01585   1.91650
   R18        1.93156   0.00307   0.00000   0.00682   0.00682   1.93838
    A1        1.91993   0.00475   0.00000   0.03045   0.03011   1.95004
    A2        1.93516   0.00283   0.00000   0.01517   0.01499   1.95015
    A3        1.92769   0.00313   0.00000   0.01715   0.01695   1.94465
    A4        1.88880  -0.00344   0.00000  -0.01793  -0.01822   1.87058
    A5        1.88512  -0.00341   0.00000  -0.01726  -0.01760   1.86752
    A6        1.90601  -0.00419   0.00000  -0.02949  -0.02953   1.87648
    A7        2.12148   0.01052   0.00000   0.04568   0.04566   2.16714
    A8        2.06231  -0.00446   0.00000  -0.01809  -0.01811   2.04420
    A9        2.09938  -0.00607   0.00000  -0.02754  -0.02755   2.07183
   A10        2.16592   0.00276   0.00000   0.01215   0.01184   2.17776
   A11        2.06406   0.00019   0.00000   0.00354   0.00322   2.06728
   A12        2.05300  -0.00292   0.00000  -0.01481  -0.01512   2.03788
   A13        1.96474   0.00224   0.00000   0.01329   0.01324   1.97798
   A14        1.87817   0.00316   0.00000   0.02504   0.02517   1.90334
   A15        1.91766   0.00048   0.00000   0.01594   0.01576   1.93341
   A16        1.89751  -0.00486   0.00000  -0.04119  -0.04131   1.85620
   A17        1.92435  -0.00032   0.00000   0.00083   0.00046   1.92481
   A18        1.87875  -0.00081   0.00000  -0.01547  -0.01596   1.86279
   A19        1.95184   0.00115   0.00000   0.00406   0.00433   1.95617
   A20        1.91890   0.00539   0.00000   0.02868   0.02868   1.94757
   A21        1.88396  -0.00659   0.00000  -0.03842  -0.03840   1.84555
   A22        1.94879  -0.00552   0.00000  -0.03038  -0.03046   1.91833
   A23        1.92840  -0.00545   0.00000  -0.03121  -0.03131   1.89709
   A24        1.95336   0.00294   0.00000   0.01441   0.01446   1.96782
   A25        1.84494   0.00672   0.00000   0.04500   0.04475   1.88969
   A26        1.88511   0.00111   0.00000   0.00510   0.00516   1.89028
   A27        1.89922   0.00062   0.00000  -0.00016  -0.00012   1.89909
   A28        1.93845  -0.01252   0.00000  -0.09239  -0.09528   1.84316
   A29        1.95564  -0.00786   0.00000  -0.06469  -0.06739   1.88826
   A30        1.86175   0.00573   0.00000  -0.00166  -0.00859   1.85316
    D1        3.10262  -0.00035   0.00000  -0.01418  -0.01421   3.08842
    D2       -0.04446  -0.00009   0.00000  -0.00494  -0.00495  -0.04940
    D3        1.01403  -0.00093   0.00000  -0.02119  -0.02130   0.99273
    D4       -2.13305  -0.00068   0.00000  -0.01195  -0.01204  -2.14509
    D5       -1.10124   0.00037   0.00000  -0.00563  -0.00553  -1.10677
    D6        2.03487   0.00063   0.00000   0.00360   0.00373   2.03860
    D7        3.09355   0.00212   0.00000   0.06377   0.06388  -3.12575
    D8       -0.02571   0.00088   0.00000   0.01616   0.01600  -0.00971
    D9       -0.04244   0.00186   0.00000   0.05430   0.05445   0.01202
   D10        3.12148   0.00062   0.00000   0.00669   0.00658   3.12806
   D11       -3.07347  -0.00121   0.00000   0.00384   0.00387  -3.06960
   D12        1.11925   0.00138   0.00000   0.03035   0.03047   1.14971
   D13       -0.92156   0.00030   0.00000   0.02600   0.02613  -0.89544
   D14        0.04592   0.00006   0.00000   0.05139   0.05123   0.09715
   D15       -2.04454   0.00265   0.00000   0.07789   0.07782  -1.96672
   D16        2.19783   0.00157   0.00000   0.07355   0.07349   2.27132
   D17        1.10581   0.00315   0.00000   0.09171   0.09177   1.19758
   D18       -3.08480  -0.00078   0.00000   0.06527   0.06539  -3.01941
   D19       -3.09815   0.00525   0.00000   0.10381   0.10353  -2.99461
   D20       -1.00557   0.00132   0.00000   0.07737   0.07715  -0.92842
   D21       -1.04236   0.00118   0.00000   0.06100   0.06112  -0.98123
   D22        1.05021  -0.00275   0.00000   0.03455   0.03474   1.08496
   D23       -1.08624   0.00208   0.00000   0.01074   0.01090  -1.07533
   D24       -3.13428   0.00066   0.00000  -0.00628  -0.00636  -3.14064
   D25        1.02948   0.00167   0.00000   0.00592   0.00594   1.03542
   D26        3.08400  -0.00096   0.00000  -0.00195  -0.00185   3.08215
   D27        1.03596  -0.00238   0.00000  -0.01896  -0.01911   1.01684
   D28       -1.08347  -0.00137   0.00000  -0.00677  -0.00681  -1.09028
   D29        1.05363  -0.00168   0.00000   0.06010   0.06329   1.11692
   D30       -1.02659   0.00479   0.00000   0.16812   0.16525  -0.86134
   D31       -3.09620  -0.00115   0.00000   0.05829   0.06116  -3.03504
   D32        1.10676   0.00532   0.00000   0.16632   0.16313   1.26989
         Item               Value     Threshold  Converged?
 Maximum Force            0.019244     0.000450     NO 
 RMS     Force            0.004998     0.000300     NO 
 Maximum Displacement     0.282726     0.001800     NO 
 RMS     Displacement     0.105063     0.001200     NO 
 Predicted change in Energy=-5.921219D-03
 GradGradGradGradGradGradGradGradGradGradGradGradGradGradGradGradGradGrad

                          Input orientation:                          
 ---------------------------------------------------------------------
 Center     Atomic      Atomic             Coordinates (Angstroms)
 Number     Number       Type             X           Y           Z
 ---------------------------------------------------------------------
      1          6           0        0.929923   -0.085665    0.002671
      2          6           0        2.439659   -0.048403    0.125654
      3          6           0        3.145395    1.060089    0.347159
      4          6           0        4.654305    1.116200    0.452932
      5          7           0        5.165032    2.452550    0.796741
      6          6           0        4.820300    2.836205    2.155226
      7          7           0        6.591153    2.503491    0.729655
      8          1           0        0.567402   -1.090700   -0.231369
      9          1           0        0.571114    0.579921   -0.788944
     10          1           0        0.445022    0.220444    0.935554
     11          1           0        2.969484   -0.993291    0.021100
     12          1           0        2.612641    2.003897    0.438201
     13          1           0        5.091266    0.859454   -0.519898
     14          1           0        5.025446    0.365422    1.177163
     15          1           0        3.734669    2.878588    2.265595
     16          1           0        5.223578    3.832426    2.350756
     17          1           0        5.219110    2.135434    2.911597
     18          1           0        6.824658    2.336556   -0.243043
     19          1           0        6.965094    1.705375    1.254380
 ---------------------------------------------------------------------
                    Distance matrix (angstroms):
                    1          2          3          4          5
     1  C    0.000000
     2  C    1.515195   0.000000
     3  C    2.517884   1.332622   0.000000
     4  C    3.939319   2.523503   1.513653   0.000000
     5  N    5.000923   3.759360   2.493994   1.471353   0.000000
     6  C    5.320324   4.255300   3.037927   2.425649   1.453105
     7  N    6.267516   4.910385   3.755391   2.398444   1.428606
     8  H    1.093750   2.172370   3.406851   4.694832   5.894899
     9  H    1.094717   2.173187   2.854507   4.301430   5.208188
    10  H    1.095035   2.169515   2.888465   4.330516   5.223032
    11  H    2.232472   1.088328   2.086535   2.734055   4.158831
    12  H    2.717995   2.083158   1.087607   2.226346   2.616207
    13  H    4.299198   2.876101   2.139732   1.096928   2.068075
    14  H    4.284416   2.821917   2.169346   1.107215   2.126102
    15  H    4.666285   3.850153   2.708243   2.690258   2.094034
    16  H    6.269004   5.268977   4.002387   3.362096   2.079050
    17  H    5.638462   4.500664   3.468862   2.720823   2.139183
    18  H    6.377729   5.005216   3.938868   2.585359   1.961877
    19  H    6.418558   4.982903   3.978636   2.515788   2.001980
                    6          7          8          9         10
     6  C    0.000000
     7  N    2.297579   0.000000
     8  H    6.261274   7.080067   0.000000
     9  H    5.640437   6.499779   1.761215   0.000000
    10  H    5.241456   6.559697   1.759484   1.766074   0.000000
    11  H    4.758682   5.083899   2.417276   2.980494   2.946572
    12  H    2.917990   4.020335   3.769331   2.775144   2.850726
    13  H    3.337253   2.552235   4.934743   4.536771   4.910627
    14  H    2.665232   2.687572   4.896775   4.873670   4.589083
    15  H    1.092049   3.264859   5.658768   4.962072   4.433567
    16  H    1.092393   2.502858   7.251518   6.487058   6.154983
    17  H    1.105544   2.603620   6.474918   6.141457   5.510341
    18  H    3.165248   1.014167   7.134386   6.518480   6.823986
    19  H    2.586589   1.025747   7.138343   6.806232   6.694625
                   11         12         13         14         15
    11  H    0.000000
    12  H    3.047039   0.000000
    13  H    2.868327   2.893317   0.000000
    14  H    2.722052   3.008703   1.768734   0.000000
    15  H    4.540343   2.315901   3.698138   3.027671   0.000000
    16  H    5.813414   3.717308   4.134819   3.665610   1.770285
    17  H    4.817127   3.595646   3.663281   2.485701   1.781337
    18  H    5.100983   4.279701   2.294151   3.023164   4.016851
    19  H    4.976814   4.438368   2.715672   2.358743   3.582545
                   16         17         18         19
    16  H    0.000000
    17  H    1.787273   0.000000
    18  H    3.395420   3.545417   0.000000
    19  H    2.959605   2.445358   1.631069   0.000000
 Stoichiometry    C5H12N2
 Framework group  C1[X(C5H12N2)]
 Deg. of freedom    51
 Full point group                 C1      NOp   1
 Largest Abelian subgroup         C1      NOp   1
 Largest concise Abelian subgroup C1      NOp   1
                         Standard orientation:                         
 ---------------------------------------------------------------------
 Center     Atomic      Atomic             Coordinates (Angstroms)
 Number     Number       Type             X           Y           Z
 ---------------------------------------------------------------------
      1          6           0       -3.464103    0.235899   -0.128109
      2          6           0       -2.147678   -0.406058    0.260135
      3          6           0       -0.958465   -0.004836   -0.187833
      4          6           0        0.362776   -0.647921    0.175358
      5          7           0        1.526985    0.056076   -0.384896
      6          6           0        1.724157    1.358992    0.227514
      7          7           0        2.738022   -0.666639   -0.156891
      8          1           0       -4.316116   -0.287514    0.315063
      9          1           0       -3.611912    0.233651   -1.212799
     10          1           0       -3.516615    1.276274    0.209478
     11          1           0       -2.190343   -1.249622    0.946457
     12          1           0       -0.921766    0.830389   -0.883492
     13          1           0        0.390489   -1.665145   -0.234200
     14          1           0        0.464178   -0.743697    1.273752
     15          1           0        0.855286    1.993405    0.040020
     16          1           0        2.597684    1.831277   -0.227698
     17          1           0        1.880562    1.298460    1.320263
     18          1           0        2.638744   -1.534728   -0.671769
     19          1           0        2.774640   -0.925267    0.835041
 ---------------------------------------------------------------------
 Rotational constants (GHZ):           7.3697073           1.0656068           0.9768186
 Standard basis: 6-31G(2df,p) (6D, 7F)
 There are   277 symmetry adapted cartesian basis functions of A   symmetry.
 There are   256 symmetry adapted basis functions of A   symmetry.
   256 basis functions,   392 primitive gaussians,   277 cartesian basis functions
    28 alpha electrons       28 beta electrons
       nuclear repulsion energy       304.8597758936 Hartrees.
 NAtoms=   19 NActive=   19 NUniq=   19 SFac= 1.00D+00 NAtFMM=   60 NAOKFM=F Big=F
 Integral buffers will be    131072 words long.
 Raffenetti 2 integral format.
 Two-electron integral symmetry is turned on.
 One-electron integrals computed using PRISM.
 PrsmSu:  requested number of processors reduced to:  13 ShMem   1 Linda.
 NBasis=   256 RedAO= T EigKep=  3.25D-04  NBF=   256
 NBsUse=   256 1.00D-06 EigRej= -1.00D+00 NBFU=   256
 Initial guess from the checkpoint file:  "CCdCCNpCpN.chk"
 B after Tr=    -0.000000   -0.000000   -0.000000
         Rot=    0.999968    0.006534   -0.001383    0.004404 Ang=   0.92 deg.
 ExpMin= 1.61D-01 ExpMax= 4.17D+03 ExpMxC= 6.27D+02 IAcc=2 IRadAn=         4 AccDes= 0.00D+00
 Harris functional with IExCor=  402 and IRadAn=       4 diagonalized for initial guess.
 HarFok:  IExCor=  402 AccDes= 0.00D+00 IRadAn=         4 IDoV= 1 UseB2=F ITyADJ=14
 ICtDFT=  3500011 ScaDFX=  1.000000  1.000000  1.000000  1.000000
 FoFCou: FMM=F IPFlag=           0 FMFlag=      100000 FMFlg1=           0
         NFxFlg=           0 DoJE=T BraDBF=F KetDBF=T FulRan=T
         wScrn=  0.000000 ICntrl=       500 IOpCl=  0 I1Cent=   200000004 NGrid=           0
         NMat0=    1 NMatS0=      1 NMatT0=    0 NMatD0=    1 NMtDS0=    0 NMtDT0=    0
 Petite list used in FoFCou.
 Requested convergence on RMS density matrix=1.00D-08 within 128 cycles.
 Requested convergence on MAX density matrix=1.00D-06.
 Requested convergence on             energy=1.00D-06.
 No special actions if energy rises.
 Integral accuracy reduced to 1.0D-05 until final iterations.
 Initial convergence to 1.0D-05 achieved.  Increase integral accuracy.
 SCF Done:  E(RB3LYP) =  -307.213087112     A.U. after   11 cycles
            NFock= 11  Conv=0.99D-08     -V/T= 2.0082
 PrsmSu:  requested number of processors reduced to:  13 ShMem   1 Linda.
 Calling FoFJK, ICntrl=      2127 FMM=F ISym2X=0 I1Cent= 0 IOpClX= 0 NMat=1 NMatS=1 NMatT=0.
 ***** Axes restored to original set *****
 -------------------------------------------------------------------
 Center     Atomic                   Forces (Hartrees/Bohr)
 Number     Number              X              Y              Z
 -------------------------------------------------------------------
      1        6           0.002232950   -0.002084486   -0.000305772
      2        6          -0.000468472    0.003238123    0.000783529
      3        6          -0.001331051   -0.002707208    0.000511582
      4        6          -0.001151998    0.003800819   -0.001712454
      5        7          -0.003566244   -0.002188713    0.004563334
      6        6          -0.005240367    0.005055438   -0.000690646
      7        7          -0.000981798   -0.000156548   -0.003199745
      8        1           0.000910752    0.000083861   -0.000048977
      9        1          -0.000060653    0.000777872    0.000186103
     10        1          -0.000352511    0.000529556    0.000240743
     11        1          -0.000519095   -0.001307009    0.000518505
     12        1           0.001864262    0.002125443   -0.000795695
     13        1           0.000771126   -0.000488010   -0.000109762
     14        1           0.000005361   -0.001866172    0.000286310
     15        1          -0.000895101   -0.001355010    0.000949546
     16        1           0.000783828   -0.001041785    0.000370760
     17        1           0.000560891   -0.000783831    0.000565624
     18        1           0.003877794    0.000721229   -0.002522559
     19        1           0.003560324   -0.002353571    0.000409574
 -------------------------------------------------------------------
 Cartesian Forces:  Max     0.005240367 RMS     0.001946759

 GradGradGradGradGradGradGradGradGradGradGradGradGradGradGradGradGradGrad
 Berny optimization.
 Using GEDIIS/GDIIS optimizer.
 FormGI is forming the generalized inverse of G from B-inverse, IUseBI=4.
 Internal  Forces:  Max     0.006630917 RMS     0.001791546
 Search for a local minimum.
 Step number   2 out of a maximum of   90
 All quantities printed in internal units (Hartrees-Bohrs-Radians)
 Mixed Optimization -- RFO/linear search
 Update second derivatives using D2CorX and points    1    2
 DE= -4.86D-03 DEPred=-5.92D-03 R= 8.21D-01
 TightC=F SS=  1.41D+00  RLast= 3.97D-01 DXNew= 5.0454D-01 1.1919D+00
 Trust test= 8.21D-01 RLast= 3.97D-01 DXMaxT set to 5.05D-01
 ITU=  1  0
 Use linear search instead of GDIIS.
     Eigenvalues ---    0.00574   0.00678   0.00747   0.00778   0.00885
     Eigenvalues ---    0.01616   0.01684   0.02824   0.03271   0.04854
     Eigenvalues ---    0.06340   0.06494   0.07122   0.07153   0.07196
     Eigenvalues ---    0.07493   0.10134   0.13338   0.15364   0.15999
     Eigenvalues ---    0.16000   0.16000   0.16000   0.16000   0.16000
     Eigenvalues ---    0.16000   0.16000   0.16407   0.17172   0.19424
     Eigenvalues ---    0.21291   0.22001   0.22653   0.32487   0.33161
     Eigenvalues ---    0.33824   0.33894   0.34063   0.34190   0.34234
     Eigenvalues ---    0.34282   0.34326   0.34429   0.34733   0.35182
     Eigenvalues ---    0.35276   0.36080   0.40289   0.43813   0.45213
     Eigenvalues ---    0.55965
 RFO step:  Lambda=-2.12139884D-03 EMin= 5.74301262D-03
 Quartic linear search produced a step of -0.07922.
 Iteration  1 RMS(Cart)=  0.08243698 RMS(Int)=  0.00417555
 Iteration  2 RMS(Cart)=  0.00466640 RMS(Int)=  0.00008655
 Iteration  3 RMS(Cart)=  0.00000953 RMS(Int)=  0.00008634
 Iteration  4 RMS(Cart)=  0.00000000 RMS(Int)=  0.00008634
 Variable       Old X    -DE/DX   Delta X   Delta X   Delta X     New X
                                 (Linear)    (Quad)   (Total)
    R1        2.86330  -0.00271  -0.00362   0.00074  -0.00288   2.86042
    R2        2.06689  -0.00037  -0.00006  -0.00084  -0.00089   2.06600
    R3        2.06871   0.00036  -0.00007   0.00108   0.00101   2.06973
    R4        2.06932   0.00051   0.00001   0.00132   0.00133   2.07064
    R5        2.51829  -0.00218   0.00155  -0.00687  -0.00532   2.51297
    R6        2.05664   0.00083  -0.00036   0.00291   0.00255   2.05919
    R7        2.86039  -0.00237  -0.00199  -0.00214  -0.00414   2.85625
    R8        2.05528   0.00086  -0.00012   0.00247   0.00235   2.05763
    R9        2.78045  -0.00247   0.00097  -0.00848  -0.00751   2.77294
   R10        2.07289   0.00052   0.00021   0.00090   0.00111   2.07401
   R11        2.09233   0.00145  -0.00134   0.00681   0.00547   2.09780
   R12        2.74597   0.00275   0.00240   0.00157   0.00396   2.74993
   R13        2.69967   0.00663   0.00395   0.00709   0.01103   2.71071
   R14        2.06367   0.00093   0.00043   0.00148   0.00192   2.06559
   R15        2.06432  -0.00059   0.00046  -0.00256  -0.00211   2.06222
   R16        2.08917   0.00109  -0.00147   0.00609   0.00462   2.09380
   R17        1.91650   0.00319   0.00126   0.00375   0.00501   1.92151
   R18        1.93838   0.00334  -0.00054   0.00799   0.00745   1.94583
    A1        1.95004  -0.00106  -0.00239   0.00020  -0.00216   1.94788
    A2        1.95015  -0.00008  -0.00119   0.00167   0.00050   1.95065
    A3        1.94465   0.00037  -0.00134   0.00485   0.00352   1.94817
    A4        1.87058   0.00068   0.00144   0.00085   0.00231   1.87289
    A5        1.86752   0.00054   0.00139   0.00078   0.00220   1.86972
    A6        1.87648  -0.00040   0.00234  -0.00884  -0.00650   1.86998
    A7        2.16714   0.00143  -0.00362   0.01389   0.01027   2.17742
    A8        2.04420  -0.00174   0.00143  -0.01180  -0.01037   2.03384
    A9        2.07183   0.00031   0.00218  -0.00208   0.00010   2.07193
   A10        2.17776  -0.00031  -0.00094   0.00076  -0.00019   2.17757
   A11        2.06728   0.00277  -0.00026   0.01559   0.01532   2.08260
   A12        2.03788  -0.00247   0.00120  -0.01677  -0.01558   2.02230
   A13        1.97798  -0.00344  -0.00105  -0.01164  -0.01268   1.96530
   A14        1.90334   0.00110  -0.00199   0.01176   0.00979   1.91313
   A15        1.93341   0.00054  -0.00125   0.00026  -0.00099   1.93242
   A16        1.85620   0.00150   0.00327   0.00322   0.00653   1.86273
   A17        1.92481   0.00130  -0.00004   0.00340   0.00336   1.92817
   A18        1.86279  -0.00082   0.00126  -0.00647  -0.00517   1.85762
   A19        1.95617  -0.00204  -0.00034   0.00221   0.00140   1.95757
   A20        1.94757  -0.00106  -0.00227   0.01155   0.00892   1.95649
   A21        1.84555   0.00443   0.00304   0.02871   0.03157   1.87712
   A22        1.91833   0.00096   0.00241   0.00155   0.00394   1.92227
   A23        1.89709   0.00034   0.00248  -0.00218   0.00027   1.89737
   A24        1.96782  -0.00103  -0.00115  -0.00650  -0.00767   1.96015
   A25        1.88969   0.00077  -0.00354   0.01925   0.01568   1.90537
   A26        1.89028  -0.00061  -0.00041  -0.00550  -0.00592   1.88435
   A27        1.89909  -0.00037   0.00001  -0.00550  -0.00553   1.89357
   A28        1.84316   0.00539   0.00755   0.01792   0.02551   1.86867
   A29        1.88826   0.00408   0.00534   0.01542   0.02079   1.90905
   A30        1.85316  -0.00214   0.00068  -0.00242  -0.00166   1.85150
    D1        3.08842  -0.00013   0.00113  -0.01255  -0.01143   3.07699
    D2       -0.04940  -0.00023   0.00039  -0.01541  -0.01501  -0.06442
    D3        0.99273  -0.00021   0.00169  -0.01493  -0.01324   0.97949
    D4       -2.14509  -0.00031   0.00095  -0.01779  -0.01682  -2.16191
    D5       -1.10677   0.00010   0.00044  -0.00813  -0.00770  -1.11447
    D6        2.03860  -0.00001  -0.00030  -0.01098  -0.01129   2.02731
    D7       -3.12575   0.00041  -0.00506   0.02643   0.02143  -3.10432
    D8       -0.00971   0.00018  -0.00127   0.00595   0.00461  -0.00509
    D9        0.01202   0.00052  -0.00431   0.02931   0.02507   0.03708
   D10        3.12806   0.00029  -0.00052   0.00883   0.00825   3.13631
   D11       -3.06960   0.00107  -0.00031   0.08217   0.08189  -2.98770
   D12        1.14971   0.00058  -0.00241   0.07745   0.07509   1.22480
   D13       -0.89544   0.00060  -0.00207   0.07807   0.07606  -0.81938
   D14        0.09715   0.00122  -0.00406   0.10191   0.09778   0.19494
   D15       -1.96672   0.00074  -0.00616   0.09718   0.09098  -1.87574
   D16        2.27132   0.00076  -0.00582   0.09781   0.09195   2.36327
   D17        1.19758  -0.00181  -0.00727   0.03158   0.02436   1.22194
   D18       -3.01941   0.00174  -0.00518   0.07730   0.07207  -2.94734
   D19       -2.99461  -0.00146  -0.00820   0.04146   0.03332  -2.96130
   D20       -0.92842   0.00209  -0.00611   0.08718   0.08102  -0.84739
   D21       -0.98123  -0.00095  -0.00484   0.03731   0.03251  -0.94873
   D22        1.08496   0.00260  -0.00275   0.08303   0.08022   1.16518
   D23       -1.07533   0.00117  -0.00086   0.03982   0.03902  -1.03631
   D24       -3.14064  -0.00053   0.00050   0.01690   0.01747  -3.12317
   D25        1.03542   0.00037  -0.00047   0.02952   0.02910   1.06452
   D26        3.08215   0.00077   0.00015   0.00565   0.00573   3.08788
   D27        1.01684  -0.00092   0.00151  -0.01727  -0.01582   1.00102
   D28       -1.09028  -0.00003   0.00054  -0.00466  -0.00419  -1.09447
   D29        1.11692   0.00198  -0.00501   0.12860   0.12337   1.24029
   D30       -0.86134   0.00002  -0.01309   0.11591   0.10268  -0.75866
   D31       -3.03504   0.00172  -0.00484   0.15650   0.15180  -2.88324
   D32        1.26989  -0.00023  -0.01292   0.14382   0.13110   1.40099
         Item               Value     Threshold  Converged?
 Maximum Force            0.006631     0.000450     NO 
 RMS     Force            0.001792     0.000300     NO 
 Maximum Displacement     0.325370     0.001800     NO 
 RMS     Displacement     0.083225     0.001200     NO 
 Predicted change in Energy=-1.220847D-03
 GradGradGradGradGradGradGradGradGradGradGradGradGradGradGradGradGradGrad

                          Input orientation:                          
 ---------------------------------------------------------------------
 Center     Atomic      Atomic             Coordinates (Angstroms)
 Number     Number       Type             X           Y           Z
 ---------------------------------------------------------------------
      1          6           0        0.929020   -0.072611   -0.010792
      2          6           0        2.430898   -0.040685    0.175055
      3          6           0        3.152553    1.065793    0.327740
      4          6           0        4.657137    1.101043    0.467419
      5          7           0        5.159136    2.432187    0.826927
      6          6           0        4.808631    2.801266    2.190211
      7          7           0        6.585865    2.521154    0.707931
      8          1           0        0.565935   -1.089763   -0.180585
      9          1           0        0.612740    0.533390   -0.866543
     10          1           0        0.404852    0.314262    0.870239
     11          1           0        2.941122   -1.003508    0.181446
     12          1           0        2.653534    2.033512    0.317941
     13          1           0        5.122395    0.836135   -0.490653
     14          1           0        5.001084    0.344489    1.203399
     15          1           0        3.722470    2.800533    2.312844
     16          1           0        5.191235    3.803364    2.390965
     17          1           0        5.237441    2.105034    2.937890
     18          1           0        6.803846    2.508734   -0.285169
     19          1           0        7.015356    1.673661    1.104866
 ---------------------------------------------------------------------
                    Distance matrix (angstroms):
                    1          2          3          4          5
     1  C    0.000000
     2  C    1.513670   0.000000
     3  C    2.520846   1.329809   0.000000
     4  C    3.937640   2.518960   1.511465   0.000000
     5  N    4.986950   3.739427   2.478426   1.467377   0.000000
     6  C    5.306125   4.217956   3.036982   2.425226   1.455203
     7  N    6.264509   4.910267   3.748366   2.407188   1.434445
     8  H    1.093279   2.169131   3.405203   4.685880   5.875092
     9  H    1.095253   2.172600   2.856644   4.296375   5.209893
    10  H    1.095737   2.171205   2.899822   4.343180   5.204873
    11  H    2.225328   1.089678   2.085213   2.730498   4.140076
    12  H    2.741855   2.090999   1.088850   2.215010   2.587673
    13  H    4.317462   2.907943   2.145411   1.097517   2.069964
    14  H    4.269653   2.794943   2.168900   1.110108   2.127251
    15  H    4.632235   3.782964   2.697177   2.677212   2.099437
    16  H    6.241642   5.225555   3.988410   3.359736   2.080233
    17  H    5.656797   4.484869   3.498523   2.729098   2.137597
    18  H    6.422788   5.082718   3.973623   2.675135   1.986880
    19  H    6.429436   4.982046   3.986813   2.509069   2.024393
                    6          7          8          9         10
     6  C    0.000000
     7  N    2.331133   0.000000
     8  H    6.225853   7.075855   0.000000
     9  H    5.665025   6.489098   1.762769   0.000000
    10  H    5.226929   6.565184   1.761098   1.762852   0.000000
    11  H    4.690313   5.097507   2.404167   2.980219   2.940004
    12  H    2.956228   3.981597   3.789649   2.796106   2.883995
    13  H    3.338745   2.533305   4.956465   4.535409   4.937569
    14  H    2.654542   2.737679   4.862410   4.855709   4.608390
    15  H    1.093062   3.294364   5.596007   4.991879   4.389674
    16  H    1.091278   2.534100   7.207562   6.501285   6.115218
    17  H    1.107990   2.638962   6.461778   6.191255   5.553013
    18  H    3.192799   1.016817   7.202198   6.524552   6.862784
    19  H    2.705384   1.029691   7.133296   6.795599   6.752909
                   11         12         13         14         15
    11  H    0.000000
    12  H    3.053658   0.000000
    13  H    2.931544   2.860561   0.000000
    14  H    2.665507   3.024538   1.768118   0.000000
    15  H    4.429909   2.389683   3.698411   2.982931   0.000000
    16  H    5.748999   3.724209   4.136775   3.662006   1.780180
    17  H    4.747009   3.680465   3.657628   2.482709   1.780320
    18  H    5.241585   4.220743   2.380565   3.185866   4.041002
    19  H    4.961786   4.446823   2.613509   2.415305   3.684040
                   16         17         18         19
    16  H    0.000000
    17  H    1.784820   0.000000
    18  H    3.382052   3.606204   0.000000
    19  H    3.084980   2.589795   1.635323   0.000000
 Stoichiometry    C5H12N2
 Framework group  C1[X(C5H12N2)]
 Deg. of freedom    51
 Full point group                 C1      NOp   1
 Largest Abelian subgroup         C1      NOp   1
 Largest concise Abelian subgroup C1      NOp   1
                         Standard orientation:                         
 ---------------------------------------------------------------------
 Center     Atomic      Atomic             Coordinates (Angstroms)
 Number     Number       Type             X           Y           Z
 ---------------------------------------------------------------------
      1          6           0       -3.460766    0.213023   -0.155689
      2          6           0       -2.137274   -0.368030    0.293693
      3          6           0       -0.952422   -0.032203   -0.208041
      4          6           0        0.364934   -0.645197    0.208298
      5          7           0        1.519628    0.059600   -0.360154
      6          6           0        1.701609    1.378326    0.227603
      7          7           0        2.741320   -0.668925   -0.174816
      8          1           0       -4.302951   -0.261908    0.354629
      9          1           0       -3.616747    0.083256   -1.231984
     10          1           0       -3.521582    1.287125    0.052264
     11          1           0       -2.177510   -1.114368    1.086636
     12          1           0       -0.901071    0.708875   -1.004133
     13          1           0        0.419081   -1.680978   -0.150546
     14          1           0        0.444356   -0.691544    1.314591
     15          1           0        0.811373    1.990447    0.061556
     16          1           0        2.559622    1.857630   -0.246706
     17          1           0        1.884774    1.330588    1.319305
     18          1           0        2.703001   -1.477363   -0.790346
     19          1           0        2.774529   -1.042002    0.784337
 ---------------------------------------------------------------------
 Rotational constants (GHZ):           7.2676851           1.0675019           0.9808472
 Standard basis: 6-31G(2df,p) (6D, 7F)
 There are   277 symmetry adapted cartesian basis functions of A   symmetry.
 There are   256 symmetry adapted basis functions of A   symmetry.
   256 basis functions,   392 primitive gaussians,   277 cartesian basis functions
    28 alpha electrons       28 beta electrons
       nuclear repulsion energy       304.5873927732 Hartrees.
 NAtoms=   19 NActive=   19 NUniq=   19 SFac= 1.00D+00 NAtFMM=   60 NAOKFM=F Big=F
 Integral buffers will be    131072 words long.
 Raffenetti 2 integral format.
 Two-electron integral symmetry is turned on.
 One-electron integrals computed using PRISM.
 PrsmSu:  requested number of processors reduced to:  13 ShMem   1 Linda.
 NBasis=   256 RedAO= T EigKep=  3.33D-04  NBF=   256
 NBsUse=   256 1.00D-06 EigRej= -1.00D+00 NBFU=   256
 Initial guess from the checkpoint file:  "CCdCCNpCpN.chk"
 B after Tr=     0.000000   -0.000000    0.000000
         Rot=    0.999932    0.011500    0.000246   -0.001718 Ang=   1.33 deg.
 ExpMin= 1.61D-01 ExpMax= 4.17D+03 ExpMxC= 6.27D+02 IAcc=2 IRadAn=         4 AccDes= 0.00D+00
 Harris functional with IExCor=  402 and IRadAn=       4 diagonalized for initial guess.
 HarFok:  IExCor=  402 AccDes= 0.00D+00 IRadAn=         4 IDoV= 1 UseB2=F ITyADJ=14
 ICtDFT=  3500011 ScaDFX=  1.000000  1.000000  1.000000  1.000000
 FoFCou: FMM=F IPFlag=           0 FMFlag=      100000 FMFlg1=           0
         NFxFlg=           0 DoJE=T BraDBF=F KetDBF=T FulRan=T
         wScrn=  0.000000 ICntrl=       500 IOpCl=  0 I1Cent=   200000004 NGrid=           0
         NMat0=    1 NMatS0=      1 NMatT0=    0 NMatD0=    1 NMtDS0=    0 NMtDT0=    0
 Petite list used in FoFCou.
 Requested convergence on RMS density matrix=1.00D-08 within 128 cycles.
 Requested convergence on MAX density matrix=1.00D-06.
 Requested convergence on             energy=1.00D-06.
 No special actions if energy rises.
 Integral accuracy reduced to 1.0D-05 until final iterations.
 Initial convergence to 1.0D-05 achieved.  Increase integral accuracy.
 SCF Done:  E(RB3LYP) =  -307.214497106     A.U. after   11 cycles
            NFock= 11  Conv=0.53D-08     -V/T= 2.0084
 PrsmSu:  requested number of processors reduced to:  13 ShMem   1 Linda.
 Calling FoFJK, ICntrl=      2127 FMM=F ISym2X=0 I1Cent= 0 IOpClX= 0 NMat=1 NMatS=1 NMatT=0.
 ***** Axes restored to original set *****
 -------------------------------------------------------------------
 Center     Atomic                   Forces (Hartrees/Bohr)
 Number     Number              X              Y              Z
 -------------------------------------------------------------------
      1        6           0.001227873   -0.000434543   -0.000051515
      2        6          -0.001907873   -0.000648756    0.000944981
      3        6          -0.000174140   -0.000307370    0.000078930
      4        6           0.000458454    0.001864435    0.000399297
      5        7           0.001040307   -0.001308409   -0.000337912
      6        6           0.001132402    0.000544283    0.000125626
      7        7          -0.001919908   -0.002009081    0.001083462
      8        1           0.000590384   -0.000018445   -0.000037339
      9        1           0.000103160    0.000372611    0.000092555
     10        1           0.000004979    0.000090579    0.000232004
     11        1          -0.000274642   -0.000200582    0.000365959
     12        1           0.001313523    0.000847626   -0.001301162
     13        1          -0.000075416    0.000565218   -0.000167936
     14        1          -0.000475160   -0.001043034   -0.001027586
     15        1          -0.000172821   -0.000516393   -0.000424199
     16        1          -0.000062521   -0.000075309    0.000453601
     17        1          -0.000391973    0.000430200    0.000073721
     18        1          -0.000356722    0.000434317   -0.000142824
     19        1          -0.000059909    0.001412654   -0.000359663
 -------------------------------------------------------------------
 Cartesian Forces:  Max     0.002009081 RMS     0.000785945

 GradGradGradGradGradGradGradGradGradGradGradGradGradGradGradGradGradGrad
 Berny optimization.
 Using GEDIIS/GDIIS optimizer.
 FormGI is forming the generalized inverse of G from B-inverse, IUseBI=4.
 Internal  Forces:  Max     0.002382116 RMS     0.000663981
 Search for a local minimum.
 Step number   3 out of a maximum of   90
 All quantities printed in internal units (Hartrees-Bohrs-Radians)
 Mixed Optimization -- En-DIIS/RFO-DIIS
 Update second derivatives using D2CorX and points    2    3
 DE= -1.41D-03 DEPred=-1.22D-03 R= 1.15D+00
 TightC=F SS=  1.41D+00  RLast= 3.75D-01 DXNew= 8.4853D-01 1.1248D+00
 Trust test= 1.15D+00 RLast= 3.75D-01 DXMaxT set to 8.49D-01
 ITU=  1  1  0
 Use linear search instead of GDIIS.
     Eigenvalues ---    0.00397   0.00629   0.00778   0.00835   0.00883
     Eigenvalues ---    0.01644   0.01689   0.02820   0.03060   0.04912
     Eigenvalues ---    0.06007   0.06491   0.07138   0.07176   0.07199
     Eigenvalues ---    0.07506   0.10056   0.13217   0.14898   0.15983
     Eigenvalues ---    0.15999   0.16000   0.16000   0.16000   0.16000
     Eigenvalues ---    0.16000   0.16076   0.16624   0.17608   0.20356
     Eigenvalues ---    0.21154   0.21998   0.22377   0.32409   0.33257
     Eigenvalues ---    0.33601   0.33870   0.34049   0.34187   0.34231
     Eigenvalues ---    0.34258   0.34321   0.34423   0.34606   0.35178
     Eigenvalues ---    0.35277   0.35962   0.41508   0.43920   0.48780
     Eigenvalues ---    0.56475
 RFO step:  Lambda=-1.24940230D-03 EMin= 3.96868549D-03
 Quartic linear search produced a step of  0.47967.
 Iteration  1 RMS(Cart)=  0.11654832 RMS(Int)=  0.00684256
 Iteration  2 RMS(Cart)=  0.00917646 RMS(Int)=  0.00011375
 Iteration  3 RMS(Cart)=  0.00004661 RMS(Int)=  0.00011027
 Iteration  4 RMS(Cart)=  0.00000000 RMS(Int)=  0.00011027
 Variable       Old X    -DE/DX   Delta X   Delta X   Delta X     New X
                                 (Linear)    (Quad)   (Total)
    R1        2.86042  -0.00194  -0.00138  -0.00585  -0.00723   2.85319
    R2        2.06600  -0.00017  -0.00043  -0.00073  -0.00115   2.06484
    R3        2.06973   0.00010   0.00049   0.00054   0.00103   2.07075
    R4        2.07064   0.00022   0.00064   0.00097   0.00161   2.07225
    R5        2.51297   0.00066  -0.00255   0.00018  -0.00237   2.51061
    R6        2.05919   0.00005   0.00122   0.00063   0.00185   2.06105
    R7        2.85625  -0.00090  -0.00198  -0.00282  -0.00480   2.85145
    R8        2.05763   0.00016   0.00113   0.00090   0.00202   2.05965
    R9        2.77294  -0.00114  -0.00360  -0.00577  -0.00938   2.76356
   R10        2.07401  -0.00002   0.00053  -0.00016   0.00037   2.07438
   R11        2.09780  -0.00012   0.00262   0.00082   0.00344   2.10124
   R12        2.74993   0.00019   0.00190  -0.00062   0.00128   2.75121
   R13        2.71071  -0.00238   0.00529  -0.01076  -0.00547   2.70524
   R14        2.06559   0.00012   0.00092   0.00035   0.00126   2.06685
   R15        2.06222  -0.00001  -0.00101  -0.00049  -0.00150   2.06071
   R16        2.09380  -0.00037   0.00222  -0.00019   0.00203   2.09582
   R17        1.92151   0.00006   0.00240  -0.00032   0.00208   1.92359
   R18        1.94583  -0.00133   0.00358  -0.00331   0.00027   1.94610
    A1        1.94788  -0.00070  -0.00104  -0.00452  -0.00556   1.94232
    A2        1.95065  -0.00009   0.00024   0.00010   0.00034   1.95099
    A3        1.94817  -0.00003   0.00169   0.00076   0.00245   1.95061
    A4        1.87289   0.00046   0.00111   0.00336   0.00447   1.87737
    A5        1.86972   0.00038   0.00105   0.00242   0.00348   1.87320
    A6        1.86998   0.00004  -0.00312  -0.00184  -0.00495   1.86502
    A7        2.17742   0.00027   0.00493   0.00491   0.00983   2.18724
    A8        2.03384  -0.00043  -0.00497  -0.00510  -0.01008   2.02375
    A9        2.07193   0.00016   0.00005   0.00020   0.00024   2.07217
   A10        2.17757   0.00039  -0.00009   0.00310   0.00299   2.18056
   A11        2.08260   0.00127   0.00735   0.01275   0.02007   2.10267
   A12        2.02230  -0.00166  -0.00748  -0.01585  -0.02335   1.99895
   A13        1.96530  -0.00141  -0.00608  -0.00922  -0.01530   1.95000
   A14        1.91313   0.00036   0.00470   0.00445   0.00921   1.92234
   A15        1.93242  -0.00021  -0.00048  -0.00583  -0.00631   1.92612
   A16        1.86273   0.00064   0.00313   0.00577   0.00893   1.87167
   A17        1.92817   0.00098   0.00161   0.00812   0.00963   1.93780
   A18        1.85762  -0.00028  -0.00248  -0.00245  -0.00496   1.85265
   A19        1.95757  -0.00021   0.00067   0.00092   0.00110   1.95868
   A20        1.95649   0.00057   0.00428   0.00935   0.01329   1.96978
   A21        1.87712  -0.00013   0.01514   0.00175   0.01665   1.89377
   A22        1.92227  -0.00111   0.00189  -0.01233  -0.01047   1.91180
   A23        1.89737   0.00079   0.00013   0.00668   0.00680   1.90416
   A24        1.96015   0.00066  -0.00368   0.00566   0.00196   1.96211
   A25        1.90537   0.00022   0.00752   0.00591   0.01342   1.91879
   A26        1.88435  -0.00010  -0.00284  -0.00380  -0.00668   1.87767
   A27        1.89357  -0.00046  -0.00265  -0.00193  -0.00461   1.88896
   A28        1.86867  -0.00057   0.01223  -0.00647   0.00558   1.87425
   A29        1.90905   0.00112   0.00997   0.00927   0.01907   1.92812
   A30        1.85150   0.00022  -0.00080   0.00574   0.00456   1.85605
    D1        3.07699  -0.00010  -0.00548  -0.01809  -0.02358   3.05341
    D2       -0.06442  -0.00016  -0.00720  -0.02278  -0.02997  -0.09439
    D3        0.97949  -0.00014  -0.00635  -0.01933  -0.02569   0.95381
    D4       -2.16191  -0.00020  -0.00807  -0.02402  -0.03208  -2.19399
[...]
 30008,0.00764115,-0.08102998,-0.03217912,-0.03890482,0.55910127,-0.000
 83204,0.00052357,0.00235090,-0.00199915,0.00132818,-0.00196237,-0.0179
 9086,-0.03386166,-0.01239773,-0.08322394,-0.03679284,0.00198969,0.4663
 4303,0.00011577,0.00038687,-0.00060263,0.00260697,0.00032897,-0.001025
 73,-0.01326261,-0.00151433,-0.00159761,0.00572979,-0.15666851,-0.01870
 395,0.04073837,0.35593659,0.00027392,-0.00023704,-0.00017062,0.0019336
 1,0.00013652,-0.00019617,-0.00468652,-0.00215898,-0.00125931,0.0063298
 9,-0.06362332,-0.09132375,-0.07398739,0.10982090,0.43954453,-0.0001637
 3,0.00000258,0.00006195,-0.00062750,0.00005790,0.00077062,0.00141018,-
 0.00055553,-0.00106744,0.00923297,0.00443412,-0.00659125,-0.09449972,-
 0.00332608,0.01861906,0.59325515,0.00010170,-0.00019863,0.00000778,0.0
 0043192,0.00052810,-0.00093581,0.00026265,-0.00093615,-0.00090775,0.01
 107016,-0.01746983,-0.03635745,-0.01123430,-0.07725998,-0.00900384,0.0
 3023790,0.57889050,0.00011003,0.00013401,-0.00034098,0.00083309,-0.000
 22558,-0.00019343,-0.00123095,-0.00126716,-0.00095354,-0.00054748,-0.0
 0264359,-0.02508127,0.05889046,-0.04827508,-0.19571915,0.02684319,0.02
 033701,0.46983512,-0.00020801,-0.00000416,0.00095169,-0.00122593,0.000
 56766,-0.00102780,0.00066703,-0.00681742,-0.00099514,-0.03954271,-0.00
 140784,-0.00983269,-0.20136121,-0.05511662,0.00561405,-0.03619993,0.00
 469721,0.00268862,0.43396605,-0.00029823,-0.00026954,0.00075620,-0.001
 71235,0.00097486,-0.00089827,0.00011068,-0.00580149,-0.00027621,-0.041
 31349,-0.01012729,-0.00251044,0.02982879,-0.07023567,0.00013282,0.0013
 6563,0.00065889,0.00682964,-0.07460744,0.39930771,-0.00013803,-0.00031
 531,0.00034928,-0.00116688,0.00055245,-0.00032194,-0.00105836,-0.00452
 207,0.00085041,-0.01542848,0.00455655,-0.00242350,0.01106487,-0.000342
 13,-0.08669088,0.04575211,0.00483189,-0.00824352,-0.09421276,-0.164465
 34,0.55018855,-0.05499660,-0.04649127,-0.02881816,-0.01053428,-0.03169
 798,-0.01453703,-0.00262632,0.00171331,-0.00246431,-0.00075201,0.00091
 932,0.00318483,0.00030498,0.00012207,-0.00013804,0.00000487,-0.0001087
 9,0.00007665,0.00000173,-0.00014371,-0.00014408,0.06375562,-0.04407956
 ,-0.23211842,-0.10305744,-0.00351979,-0.00057281,0.00120535,-0.0000163
 7,0.00120331,-0.00107622,-0.00015064,0.00016286,0.00025745,0.00002186,
 0.00000616,0.00001972,0.00004551,0.00000057,0.00002851,-0.00002166,-0.
 00004385,-0.00003140,0.05270737,0.25151311,-0.02828356,-0.10392937,-0.
 10310716,-0.00088681,-0.00368337,-0.00168824,0.00017749,0.00068599,-0.
 00042805,0.00019987,-0.00015756,0.00040631,-0.00005587,0.00004656,-0.0
 0009344,0.00002527,-0.00003812,0.00004530,-0.00004837,-0.00007990,-0.0
 0004959,0.03011589,0.11565277,0.10976976,-0.07140285,0.05974695,-0.043
 68333,-0.01100368,0.02722510,-0.01981430,0.00238731,0.00175628,-0.0005
 3544,-0.00004872,-0.00004871,0.00015196,0.00004356,-0.00019545,0.00003
 213,-0.00004546,0.00001156,-0.00003156,0.00002490,0.00000916,-0.000000
 52,0.00136834,-0.00492988,0.00476680,0.07923821,0.06229717,-0.20400444
 ,0.11471826,-0.00030943,0.00151048,-0.00150614,-0.00107202,0.00080103,
 -0.00104149,-0.00013207,0.00023060,-0.00030987,0.00002888,-0.00000371,
 -0.00000449,-0.00000239,-0.00000304,-0.00000114,0.00003911,0.00003844,
 0.00003479,0.00791043,-0.01972867,0.01617131,-0.06738345,0.21913741,-0
 .04523992,0.11414243,-0.13074411,-0.00228167,0.00468494,-0.00434882,0.
 00138212,-0.00040228,0.00006011,0.00011709,-0.00025180,0.00004552,-0.0
 0006720,-0.00004739,-0.00001827,-0.00008183,0.00000236,0.00000350,-0.0
 0003063,-0.00003671,-0.00004567,0.00558082,-0.01236918,0.00937224,0.05
 092846,-0.12677447,0.13815731,-0.11280134,0.00243607,0.11438072,-0.020
 12654,-0.00324397,0.02855675,-0.00325573,0.00224691,-0.00162966,0.0010
 3376,-0.00234544,-0.00160439,-0.00065217,0.00026567,-0.00006799,-0.000
 16387,-0.00007137,0.00027723,-0.00034415,-0.00041033,-0.00028990,0.003
 51059,0.00050257,-0.00557964,0.00505421,-0.00092376,-0.00894054,0.1268
 8700,0.00320336,-0.04458717,0.00159032,-0.00371098,-0.00127383,0.00234
 155,-0.00069491,0.00053646,-0.00011079,-0.00019027,-0.00027555,-0.0007
 1593,-0.00008614,0.00002824,0.00005400,-0.00011774,0.00004443,0.000017
 89,-0.00002096,-0.00003940,-0.00003800,0.01469316,-0.00066105,-0.02494
 564,-0.01374648,0.00053191,0.02128602,0.00047817,0.04507492,0.11207273
 ,0.00171870,-0.23367284,-0.00302980,0.00096593,0.00881392,-0.00101106,
 -0.00088007,0.00022366,0.00023581,-0.00049738,-0.00033745,-0.00017640,
 -0.00002084,0.00002480,-0.00000343,0.00003093,0.00000594,-0.00004438,-
 0.00000675,-0.00000467,0.00778200,0.00002759,-0.01461714,0.00830304,-0
 .00141434,-0.01442992,-0.12502482,0.00020358,0.25366750,-0.00981732,0.
 02268805,-0.01739396,-0.09340602,0.07436730,-0.06101951,0.00834755,-0.
 01521515,0.01056995,0.00134104,-0.00104407,0.00257641,-0.00006535,0.00
 035168,-0.00026021,0.00005360,-0.00002052,-0.00007449,0.00004189,0.000
 08545,0.00005898,0.00089956,-0.00065187,-0.00013245,-0.00574390,-0.000
 90676,-0.00115465,0.00098582,0.00002144,0.00085696,0.09924590,-0.00223
 990,0.00309893,-0.00116963,0.07046881,-0.19145959,0.11492374,0.0101891
 6,-0.01589223,0.01691589,0.00320443,-0.00220913,-0.00323753,-0.0005578
 2,0.00077389,-0.00011542,0.00001669,-0.00007536,0.00032204,-0.00026647
 ,-0.00023903,-0.00006616,0.00097409,0.00033213,0.00020406,-0.00109770,
 0.00122761,0.00017754,0.00016151,0.00017630,0.00007083,-0.07620796,0.2
 0222465,-0.00133386,0.00468385,-0.00114134,-0.05850652,0.11571993,-0.1
 3076991,-0.00625109,0.01073099,-0.00186466,0.00026090,-0.00411866,-0.0
 0527519,-0.00045978,-0.00010484,0.00043015,-0.00011161,0.00012217,0.00
 011508,-0.00019618,-0.00024958,0.00006194,0.00045585,-0.00004366,0.000
 23239,-0.00105083,0.00015593,0.00155105,-0.00087421,-0.00012173,0.0003
 3899,0.06650503,-0.13306908,0.12871993,0.00172003,-0.00053777,0.002280
 52,0.00772124,-0.01577511,0.01086977,-0.09037972,0.07362091,-0.0579482
 4,-0.01015174,0.02342953,-0.01860911,0.00207182,0.00054509,0.00118401,
 -0.00020741,-0.00004030,-0.00015852,-0.00022154,-0.00070286,0.00017049
 ,0.00012710,0.00018969,-0.00008506,-0.00003899,0.00048365,-0.00037588,
 -0.00019616,-0.00008649,-0.00003200,-0.00148661,-0.00395849,-0.0001029
 9,0.09503651,0.00250851,-0.00133505,-0.00342610,0.01002776,-0.01428672
 ,0.01550123,0.07055484,-0.19644561,0.11816260,-0.00199791,0.00071814,-
 0.00030940,0.00035225,0.00126982,0.00006427,0.00016983,0.00010250,-0.0
 0015528,-0.00008143,0.00027429,0.00018345,-0.00058671,-0.00012746,0.00
 004384,-0.00111775,0.00038800,-0.00038094,0.00056276,0.00052323,-0.000
 20722,-0.00368247,0.00083147,0.00589025,-0.07645662,0.20770089,0.00032
 746,-0.00407261,-0.00473318,-0.00609049,0.01045683,-0.00243183,-0.0559
 6274,0.11873374,-0.12945110,-0.00103881,0.00415460,-0.00088284,0.00090
 544,0.00055121,0.00050811,-0.00023322,0.00006483,-0.00010411,-0.000073
 41,-0.00037088,-0.00000171,-0.00082775,-0.00058152,0.00026584,0.000725
 18,-0.00007985,0.00037532,0.00090315,0.00040812,0.00001473,-0.00023232
 ,0.00609903,0.00739623,0.06293706,-0.13554826,0.12761586,0.00016980,-0
 .00245638,-0.00186856,-0.00207176,0.00261058,-0.00120392,-0.02074468,-
 0.00113600,0.02766149,-0.10295921,0.01552629,0.10907186,0.00217817,-0.
 00298660,-0.00730341,-0.00052959,-0.00207734,-0.00146511,0.00166641,-0
 .00032505,-0.00278860,-0.00100019,-0.00004376,-0.00017402,-0.00007817,
 0.00010939,-0.00001233,0.00019821,0.00020312,0.00005317,-0.00032265,0.
 00054772,0.00091105,0.00098627,0.00012306,-0.00083058,0.11704966,0.000
 02419,-0.00030866,-0.00060310,-0.00048051,0.00035534,-0.00005372,-0.00
 176697,0.00045562,0.00137326,0.00980080,-0.04701148,-0.01040067,0.0141
 6689,-0.01257370,-0.03361498,-0.00331409,-0.00454496,-0.00140921,0.002
 85240,0.00193020,0.00012447,-0.00021064,-0.00000674,-0.00007000,-0.000
 05677,0.00000047,-0.00004713,0.00006825,-0.00000047,0.00002769,-0.0001
 3426,0.00051437,0.00043690,-0.00002116,0.00019779,-0.00017967,-0.00936
 474,0.05920259,0.00014487,-0.00048508,-0.00039134,-0.00047784,-0.00057
 948,0.00057634,-0.00134819,0.00193144,0.00728725,0.10094105,-0.0169463
 6,-0.23258557,0.00722596,-0.00757262,-0.01559182,-0.00214595,-0.003230
 74,0.00056079,0.00084712,0.00222516,0.00274998,-0.00020530,-0.00003090
 ,-0.00005774,0.00000842,0.00002182,0.00001972,0.00004917,0.00004948,-0
 .00000158,-0.00003157,-0.00022927,0.00002627,0.00075375,-0.00000976,0.
 00031694,-0.11394249,0.02569352,0.25546041,-0.00017103,-0.00019593,0.0
 0038471,0.00175528,0.00219551,-0.00073243,-0.01105460,0.02415409,-0.02
 099991,-0.06825551,0.04225722,-0.03652918,0.00135135,-0.00878380,0.003
 83057,-0.00021939,0.00034783,0.00070430,0.00506127,-0.00211231,0.00166
 183,-0.00001013,-0.00003657,-0.00001243,0.00024503,-0.00015288,0.00014
 479,-0.00013184,-0.00003734,0.00001317,0.00001695,-0.00120773,0.000670
 29,-0.00562611,-0.00035586,-0.00092159,0.00460444,-0.01065548,0.009240
 48,0.07255814,0.00006613,0.00028427,-0.00051168,-0.00137099,0.00005594
 ,-0.00068993,0.00067452,0.00038900,0.00107134,0.04682908,-0.16177357,0
 .09928406,0.00284499,-0.04424424,0.00911762,-0.00167487,0.00183481,0.0
 0546516,0.00466324,0.00208517,-0.00068508,0.00000177,-0.00000547,0.000
 01421,-0.00020198,-0.00009720,-0.00000769,0.00009261,-0.00002220,0.000
 03185,0.00037983,0.00074468,0.00001837,-0.00067379,0.00059758,0.000364
 90,-0.00007940,0.00225033,-0.00018426,-0.04866995,0.19490052,-0.000033
 56,-0.00039010,0.00032800,0.00107836,-0.00024433,0.00019994,-0.0002582
 1,0.00485462,-0.00381999,-0.03938756,0.09685720,-0.13550531,0.00188892
 ,-0.01145626,0.00900981,0.00068562,-0.00228404,0.00456536,0.00269223,-
 0.00134910,0.00094421,-0.00009251,-0.00001041,-0.00004732,0.00019655,0
 .00004046,0.00001969,-0.00010574,0.00000184,-0.00000285,-0.00029537,-0
 .00069927,0.00026770,-0.00109114,0.00009391,0.00138234,-0.00816626,0.0
 2019270,-0.01703210,0.04308104,-0.10972740,0.13973771,0.00010943,-0.00
 003207,-0.00001153,0.00025889,-0.00035312,-0.00089665,-0.00010314,-0.0
 0083615,-0.00062491,-0.00064692,-0.00056408,-0.00042285,-0.01179470,-0
 .00192340,0.00157710,-0.31104190,-0.01006572,-0.00466412,-0.00062562,-
 0.00001022,0.00337381,-0.00006621,-0.00000883,-0.00001729,-0.00001733,
 0.00001186,-0.00001397,-0.00002536,0.00002479,0.00002180,-0.00002686,0
 .00006472,0.00006643,0.00009724,0.00000073,0.00002760,0.00004820,0.000
 02029,-0.00000877,-0.00004582,0.00025946,-0.00001752,0.34126643,-0.000
 11656,0.00004089,-0.00003103,-0.00058060,-0.00059833,0.00020901,0.0002
 7911,0.00028409,-0.00090767,0.00045283,-0.00005734,0.00006557,0.005073
 27,-0.00057699,-0.00035583,-0.01264492,-0.04924338,-0.00080078,-0.0002
 2285,0.00097562,-0.00106270,0.00006318,0.00000574,0.00002496,0.0000232
 1,-0.00001453,0.00003360,0.00001787,-0.00002078,-0.00003792,0.00005281
 ,-0.00012156,-0.00004547,0.00001035,-0.00001671,0.00005159,-0.00004426
 ,0.00009027,0.00015939,0.00006432,-0.00008896,0.00003577,0.01275993,0.
 04704639,-0.00002182,0.00005014,0.00003602,-0.00072731,-0.00045986,-0.
 00017781,0.00004201,-0.00049593,-0.00061394,0.00052821,-0.00023366,0.0
 0104267,0.03363816,0.00440903,0.00021547,-0.01530049,-0.00182015,-0.05
 062208,0.00395870,-0.00121124,-0.00521406,0.00005091,0.00000760,0.0000
 0776,-0.00001358,-0.00000923,-0.00002012,0.00005766,-0.00001170,-0.000
 00527,0.00000633,0.00007025,-0.00002713,-0.00008111,0.00004060,-0.0003
 0901,-0.00000648,0.00037762,0.00021515,-0.00018223,-0.00030308,-0.0002
 1605,0.00359028,0.00063911,0.05696238,0.00004648,-0.00005007,0.0000037
 0,0.00028984,0.00014456,-0.00038063,-0.00009606,-0.00064626,-0.0002584
 4,-0.00152437,0.00061856,0.00231881,0.00247417,0.01145541,0.00618723,-
 0.07250727,-0.07793239,-0.02656330,0.00107352,0.00129191,0.00017491,-0
 .00004288,-0.00000483,-0.00001982,-0.00000523,0.00000762,-0.00000900,-
 0.00001227,0.00001770,0.00001147,-0.00003139,0.00003977,0.00003991,0.0
 0004876,0.00000644,0.00006091,0.00045185,0.00047323,0.00053314,-0.0000
 1819,-0.00022031,-0.00005398,-0.00653565,-0.02839181,-0.00882621,0.072
 96570,0.00001206,-0.00000630,0.00000596,-0.00001684,-0.00000374,0.0000
 3681,0.00034392,0.00004826,0.00009782,0.00104250,0.00118564,-0.0006869
 4,-0.00163662,-0.00379835,-0.00498919,-0.07350647,-0.27164608,-0.07175
 288,-0.00064369,0.00084833,0.00147569,-0.00002550,-0.00000797,-0.00001
 077,-0.00001389,0.00000993,-0.00001424,-0.00002264,-0.00000474,0.00000
 640,0.00000266,0.00004918,-0.00001247,-0.00007222,0.00001328,-0.000033
 31,-0.00018371,-0.00012823,-0.00034210,-0.00003906,0.00049483,0.000259
 61,0.00059709,0.00136095,0.00135533,0.08115762,0.29129874,-0.00002012,
 -0.00007629,0.00005793,-0.00016058,0.00014117,0.00007798,0.00083664,0.
 00021243,0.00037490,0.00412784,-0.00010133,-0.00456825,-0.01094880,-0.
 03282236,-0.01851203,-0.02099028,-0.06333217,-0.06704852,-0.00179220,0
 .00053172,0.00166224,-0.00003708,-0.00000382,-0.00001612,0.00000105,0.
 00000514,-0.00000571,-0.00006314,-0.00000226,-0.00000229,0.00001593,-0
 .00006550,-0.00003040,-0.00007181,0.00001676,-0.00003575,-0.00038138,-
 0.00179353,-0.00086039,0.00011730,-0.00051415,0.00000215,-0.00079817,0
 .00013359,-0.00038075,0.02415466,0.07944265,0.08254396,-0.00001066,-0.
 00004281,0.00002451,0.00013021,0.00008105,-0.00011547,-0.00016020,0.00
 003234,0.00017566,-0.00020540,-0.00101027,-0.00060525,0.00459740,-0.00
 827359,0.01170871,-0.08022367,0.05605476,-0.04929357,0.00403604,-0.002
 35670,0.00069538,-0.00001298,-0.00001143,-0.00000750,0.00002313,-0.000
 00239,0.00004104,-0.00002741,0.00003121,-0.00000723,0.00002752,-0.0001
 4106,-0.00002231,0.00005925,-0.00000009,0.00009616,0.00003094,-0.00008
 567,-0.00004350,-0.00024545,-0.00010774,-0.00068418,-0.01017455,0.0232
 7871,-0.01966890,0.00334460,-0.00710468,0.00598303,0.07806355,0.000009
 88,0.00005071,-0.00003449,-0.00000224,-0.00019531,0.00010552,-0.000119
 65,0.00004415,0.00019723,-0.00125290,0.00364827,-0.00224006,-0.0031315
 3,0.00662901,0.00011555,0.05676115,-0.16079572,0.09356546,-0.00122114,
 0.00119901,-0.00097623,0.00002839,0.00001068,0.00001377,-0.00001133,0.
 00000271,-0.00001218,0.00005227,-0.00000957,-0.00000052,-0.00003790,0.
 00007571,-0.00001535,-0.00001672,-0.00006693,-0.00003191,0.00004814,0.
 00000722,0.00022179,0.00052633,0.00109595,0.00191910,-0.00084733,0.000
 36709,-0.00136015,0.01203315,-0.01969575,0.01801307,-0.06156560,0.1679
 8253,-0.00002947,-0.00006485,0.00009000,-0.00016230,0.00013114,-0.0000
 6458,0.00000908,-0.00050978,0.00002241,0.00128463,0.00675897,0.0023392
 1,-0.00443172,0.01880843,-0.04260781,-0.04947357,0.09517885,-0.1323002
 4,-0.00401538,-0.00105296,0.00228789,-0.00003398,-0.00000333,-0.000016
 16,0.00001033,0.00000175,-0.00000018,-0.00009236,-0.00000072,-0.000002
 10,-0.00000523,-0.00011591,-0.00001357,0.00020743,0.00003279,0.0000612
 3,0.00018582,-0.00060247,0.00045430,0.00016315,-0.00246387,0.00096013,
 -0.00133452,0.00128062,0.00016554,0.00277225,-0.00519563,0.00656660,0.
 05302540,-0.11078211,0.16156530,-0.00000143,0.00009517,-0.00000186,0.0
 0018912,-0.00005177,0.00002104,0.00017394,0.00031328,-0.00041578,-0.00
 000466,-0.00005036,0.00250763,-0.02603582,-0.00173727,0.04174057,-0.00
 776712,-0.00250187,-0.00114014,-0.07365307,-0.00313008,0.08027209,0.00
 004954,0.00000620,0.00001567,-0.00000321,-0.00000510,0.00001001,0.0000
 4958,0.00000542,-0.00001055,-0.00001229,0.00000969,-0.00004187,-0.0000
 5563,-0.00000839,0.00003431,0.00033461,-0.00078440,-0.00094974,0.00004
 339,-0.00030796,-0.00024416,-0.00062087,0.00031379,0.00203868,0.000259
 97,0.00013040,-0.00034375,0.00004568,-0.00033867,0.00015093,0.10081741
 ,-0.00001845,0.00014689,-0.00002935,0.00018276,-0.00017516,0.00016057,
 0.00001619,0.00059075,-0.00066239,-0.00079496,-0.00072197,0.00261218,-
 0.00731087,-0.00288716,0.00071586,0.00133719,0.00034267,-0.00053088,0.
 00836001,-0.02854382,0.03152049,0.00008397,0.00001629,0.00003567,0.000
 01419,-0.00001896,0.00001486,0.00007358,-0.00001440,-0.00000990,-0.000
 00767,-0.00003732,-0.00003439,0.00004792,-0.00006516,0.00004068,-0.000
 24211,-0.00031880,-0.00102598,0.00032439,0.00008441,-0.00003603,0.0007
 7063,0.00031585,-0.00061150,0.00016606,0.00035280,0.00008492,0.0000728
 1,-0.00010395,-0.00022028,0.00664806,0.04165929,-0.00002469,-0.0000045
 6,0.00002993,-0.00012726,0.00007376,0.00000382,-0.00011068,-0.00015670
 ,0.00017758,-0.00194869,0.00015489,0.00152831,-0.00552934,-0.00752590,
 0.00214394,0.00189657,0.00020348,0.00136176,0.11058759,0.08037412,-0.3
 8486924,0.00000540,0.00000288,0.00000565,0.00000193,-0.00000031,0.0000
 0134,-0.00000793,-0.00000856,-0.00000429,0.00002010,-0.00003486,-0.000
 04030,-0.00005361,0.00000254,-0.00003263,0.00042007,0.00041921,-0.0001
 0386,0.00012582,-0.00000291,-0.00041587,0.00021096,-0.00007532,-0.0003
 2241,0.00000165,0.00032295,0.00009231,-0.00030785,-0.00015464,0.000564
 93,-0.10847341,-0.06786577,0.39435934,0.00002375,0.00004073,0.00000312
 ,0.00021266,-0.00011201,0.00007188,-0.00006175,-0.00039180,0.00018716,
 0.00285846,0.00613432,0.00114929,-0.04090948,0.03367458,-0.01258731,0.
 00023980,0.00083690,-0.00525435,-0.09315667,0.09443116,-0.02799685,0.0
 0001926,0.00000200,0.00000182,0.00000285,0.00000212,0.00000328,0.00001
 766,0.00001295,-0.00001048,-0.00004743,0.00000054,0.00004180,0.0004956
 9,-0.00001894,0.00019364,-0.00001230,-0.00053136,-0.00059061,0.0001422
 1,-0.00250464,0.00080746,-0.00005525,-0.00038838,0.00091718,-0.0001815
 6,-0.00002092,0.00037085,0.00070200,-0.00091430,0.00176951,0.00619087,
 -0.00972371,0.00331338,0.12351923,-0.00000006,0.00000846,-0.00002496,0
 .00002688,-0.00005408,0.00008038,-0.00054413,-0.00022715,-0.00022541,-
 0.00337970,0.00668860,-0.00447306,-0.00029528,0.00440308,-0.00607415,0
 .00071358,-0.00022934,0.00036185,0.11925205,-0.29299243,0.12922464,0.0
 0004754,0.00002159,0.00002159,0.00001695,-0.00000804,0.00000228,0.0000
 5926,-0.00000633,-0.00000854,-0.00004060,-0.00001469,0.00005685,0.0000
 1438,-0.00027335,-0.00002752,-0.00022896,-0.00011118,0.00033395,0.0023
 7723,0.00141414,0.00194172,0.00013142,0.00025168,-0.00043318,-0.000166
 36,-0.00037080,0.00012995,0.00115117,-0.00024582,-0.00118063,0.0013938
 6,-0.01062225,-0.00572428,-0.12052923,0.29236790,0.00001382,0.00008177
 ,-0.00001608,0.00016529,-0.00013656,0.00005566,-0.00001592,-0.00000348
 ,-0.00017020,0.00087888,0.00089872,0.00070473,-0.00793782,-0.00353878,
 0.00030646,0.00134467,-0.00286921,0.00411400,-0.01507107,0.08165771,-0
 .07122974,0.00004588,0.00000600,0.00001570,0.00000370,-0.00000815,0.00
 000701,0.00005565,0.00000255,-0.00000916,-0.00000994,0.00001925,0.0000
 2277,0.00020641,0.00000474,0.00004555,-0.00016033,0.00012911,-0.001042
 76,-0.00075969,-0.00027746,-0.00037756,-0.00005769,0.00068352,-0.00073
 636,-0.00014726,0.00003433,0.00008214,-0.00099414,0.00145617,-0.000072
 90,-0.01516967,0.03584123,-0.01448030,0.03760923,-0.11398147,0.0827810
 5\\-0.00000392,-0.00000611,0.00001190,0.00000002,0.00001063,-0.0000037
 5,-0.00000374,0.00000090,-0.00000838,0.00002399,-0.00002325,0.00000648
 ,-0.00004160,0.00000760,-0.00000974,0.00000367,0.00000011,0.00002562,0
 .00004331,0.00000135,0.00001132,0.00000258,-0.00000115,-0.00000435,0.0
 0000671,0.00000445,-0.00000329,0.00000469,0.00000059,-0.00000022,-0.00
 000240,-0.00000294,-0.00000384,-0.00000025,-0.00000144,0.00000198,-0.0
 0000664,-0.00000286,-0.00000453,-0.00000622,0.00000452,-0.00000430,0.0
 0000209,0.00000363,-0.00000230,-0.00000038,0.00000163,0.00000022,-0.00
 000104,-0.00000207,-0.00000714,-0.00000602,-0.00000185,-0.00000173,-0.
 00001486,0.00000627,-0.00000394\\\@


 When I told the people of Northern Ireland that I was
 an atheist, a woman in the audience stood up and said,
 "Yes, but is it the God of the Catholics or the God
 of the Protestants in whom you don't believe?"
                               -- Quentin Crisp
 Job cpu time:       0 days  1 hours 18 minutes 50.5 seconds.
 Elapsed time:       0 days  0 hours 19 minutes 43.1 seconds.
 File lengths (MBytes):  RWF=     98 Int=      0 D2E=      0 Chk=      7 Scr=      1
 Normal termination of Gaussian 16 at Tue Jun  1 11:16:44 2021.
### All Done ###
