### Starting Gaussian ###
 Entering Gaussian System, Link 0=g16
 Initial command:
 /cluster/software/gaussian/gaussian-16-A.03/avx2/g16/l1.exe "/local/scratch/cz9n3/Gau-11735.inp" -scrdir="/local/scratch/cz9n3/"
 Entering Link 1 = /cluster/software/gaussian/gaussian-16-A.03/avx2/g16/l1.exe PID=     11736.
  
 Copyright (c) 1988,1990,1992,1993,1995,1998,2003,2009,2016,
            Gaussian, Inc.  All Rights Reserved.
  
 This is part of the Gaussian(R) 16 program.  It is based on
 the Gaussian(R) 09 system (copyright 2009, Gaussian, Inc.),
 the Gaussian(R) 03 system (copyright 2003, Gaussian, Inc.),
 the Gaussian(R) 98 system (copyright 1998, Gaussian, Inc.),
 the Gaussian(R) 94 system (copyright 1995, Gaussian, Inc.),
 the Gaussian 92(TM) system (copyright 1992, Gaussian, Inc.),
 the Gaussian 90(TM) system (copyright 1990, Gaussian, Inc.),
 the Gaussian 88(TM) system (copyright 1988, Gaussian, Inc.),
 the Gaussian 86(TM) system (copyright 1986, Carnegie Mellon
 University), and the Gaussian 82(TM) system (copyright 1983,
 Carnegie Mellon University). Gaussian is a federally registered
 trademark of Gaussian, Inc.
  
 This software contains proprietary and confidential information,
 including trade secrets, belonging to Gaussian, Inc.
  
 This software is provided under written license and may be
 used, copied, transmitted, or stored only in accord with that
 written license.
  
 The following legend is applicable only to US Government
 contracts under FAR:
  
                    RESTRICTED RIGHTS LEGEND
  
 Use, reproduction and disclosure by the US Government is
 subject to restrictions as set forth in subparagraphs (a)
 and (c) of the Commercial Computer Software - Restricted
 Rights clause in FAR 52.227-19.
  
 Gaussian, Inc.
 340 Quinnipiac St., Bldg. 40, Wallingford CT 06492
  
  
 ---------------------------------------------------------------
 Warning -- This program may not be used in any manner that
 competes with the business of Gaussian, Inc. or will provide
 assistance to any competitor of Gaussian, Inc.  The licensee
 of this program is prohibited from giving any competitor of
 Gaussian, Inc. access to this program.  By using this program,
 the user acknowledges that Gaussian, Inc. is engaged in the
 business of creating and licensing software in the field of
 computational chemistry and represents and warrants to the
 licensee that it is not a competitor of Gaussian, Inc. and that
 it will not use this program in any manner prohibited above.
 ---------------------------------------------------------------
  

 Cite this work as:
 Gaussian 16, Revision A.03,
 M. J. Frisch, G. W. Trucks, H. B. Schlegel, G. E. Scuseria, 
 M. A. Robb, J. R. Cheeseman, G. Scalmani, V. Barone, 
 G. A. Petersson, H. Nakatsuji, X. Li, M. Caricato, A. V. Marenich, 
 J. Bloino, B. G. Janesko, R. Gomperts, B. Mennucci, H. P. Hratchian, 
 J. V. Ortiz, A. F. Izmaylov, J. L. Sonnenberg, D. Williams-Young, 
 F. Ding, F. Lipparini, F. Egidi, J. Goings, B. Peng, A. Petrone, 
 T. Henderson, D. Ranasinghe, V. G. Zakrzewski, J. Gao, N. Rega, 
 G. Zheng, W. Liang, M. Hada, M. Ehara, K. Toyota, R. Fukuda, 
 J. Hasegawa, M. Ishida, T. Nakajima, Y. Honda, O. Kitao, H. Nakai, 
 T. Vreven, K. Throssell, J. A. Montgomery, Jr., J. E. Peralta, 
 F. Ogliaro, M. J. Bearpark, J. J. Heyd, E. N. Brothers, K. N. Kudin, 
 V. N. Staroverov, T. A. Keith, R. Kobayashi, J. Normand, 
 K. Raghavachari, A. P. Rendell, J. C. Burant, S. S. Iyengar, 
 J. Tomasi, M. Cossi, J. M. Millam, M. Klene, C. Adamo, R. Cammi, 
 J. W. Ochterski, R. L. Martin, K. Morokuma, O. Farkas, 
 J. B. Foresman, and D. J. Fox, Gaussian, Inc., Wallingford CT, 2016.
 
 ******************************************
 Gaussian 16:  ES64L-G16RevA.03 25-Dec-2016
                 1-Jun-2021 
 ******************************************
 %chk=CCdCNpCpCNdNN.chk
 %NProcShared=20
 Will use up to   20 processors via shared memory.
 -----------------------------
 # opt freq b3lyp/6-31g(2df,p)
 -----------------------------
 1/18=20,19=15,26=3,38=1/1,3;
 2/9=110,12=2,17=6,18=5,40=1/2;
 3/5=1,6=6,7=104,11=2,25=1,30=1,71=1,74=-5/1,2,3;
 4//1;
 5/5=2,38=5/2;
 6/7=2,8=2,9=2,10=2,28=1/1;
 7//1,2,3,16;
 1/18=20,19=15,26=3/3(2);
 2/9=110/2;
 99//99;
 2/9=110/2;
 3/5=1,6=6,7=104,11=2,25=1,30=1,71=1,74=-5/1,2,3;
 4/5=5,16=3,69=1/1;
 5/5=2,38=5/2;
 7//1,2,3,16;
 1/18=20,19=15,26=3/3(-5);
 2/9=110/2;
 6/7=2,8=2,9=2,10=2,19=2,28=1/1;
 99/9=1/99;
 -------------------
 Title Card Required
 -------------------
 Symbolic Z-matrix:
 Charge =  0 Multiplicity = 1
 C                     0.93581   0.13265  -0.00559 
 C                     2.42464   0.1198   -0.01328 
 C                     3.23158   1.04458   0.5394 
 N                     4.62138   1.0508    0.54311 
 C                     5.42155   0.00099  -0.08427 
 C                     5.43345   2.1213    1.18287 
 N                     6.9082    1.95181   1.08158 
 N                     7.56382   2.85768   1.62295 
 N                     8.86532   2.5843    1.45957 
 H                     0.57003  -0.7556   -0.53643 
 H                     0.54467   1.00958  -0.52713 
 H                     0.54467   0.08871   1.01375 
 H                     2.84537  -0.73621  -0.52484 
 H                     2.79021   1.89954   1.05034 
 H                     4.82935  -0.78551  -0.55431 
 H                     6.04834  -0.49071   0.66586 
 H                     6.04834   0.42873  -0.87264 
 H                     5.16138   2.17476   2.24541 
 H                     5.16138   3.0824    0.72666 
 H                     9.55603   3.21977   1.83934 
 H                     9.12759   1.74413   0.95747 
 

 GradGradGradGradGradGradGradGradGradGradGradGradGradGradGradGradGradGrad
 Berny optimization.
 Initialization pass.
                           ----------------------------
                           !    Initial Parameters    !
                           ! (Angstroms and Degrees)  !
 --------------------------                            --------------------------
 ! Name  Definition              Value          Derivative Info.                !
 --------------------------------------------------------------------------------
 ! R1    R(1,2)                  1.4889         estimate D2E/DX2                !
 ! R2    R(1,10)                 1.0975         estimate D2E/DX2                !
 ! R3    R(1,11)                 1.0927         estimate D2E/DX2                !
 ! R4    R(1,12)                 1.0927         estimate D2E/DX2                !
 ! R5    R(2,3)                  1.346          estimate D2E/DX2                !
 ! R6    R(2,13)                 1.0823         estimate D2E/DX2                !
 ! R7    R(3,4)                  1.3898         estimate D2E/DX2                !
 ! R8    R(3,14)                 1.0894         estimate D2E/DX2                !
 ! R9    R(4,5)                  1.4615         estimate D2E/DX2                !
 ! R10   R(4,6)                  1.4882         estimate D2E/DX2                !
 ! R11   R(5,15)                 1.091          estimate D2E/DX2                !
 ! R12   R(5,16)                 1.0942         estimate D2E/DX2                !
 ! R13   R(5,17)                 1.0942         estimate D2E/DX2                !
 ! R14   R(6,7)                  1.4879         estimate D2E/DX2                !
 ! R15   R(6,18)                 1.0981         estimate D2E/DX2                !
 ! R16   R(6,19)                 1.0981         estimate D2E/DX2                !
 ! R17   R(7,8)                  1.2424         estimate D2E/DX2                !
 ! R18   R(8,9)                  1.3399         estimate D2E/DX2                !
 ! R19   R(9,20)                 1.0125         estimate D2E/DX2                !
 ! R20   R(9,21)                 1.0133         estimate D2E/DX2                !
 ! A1    A(2,1,10)             108.8914         estimate D2E/DX2                !
 ! A2    A(2,1,11)             111.2476         estimate D2E/DX2                !
 ! A3    A(2,1,12)             111.2485         estimate D2E/DX2                !
 ! A4    A(10,1,11)            107.4188         estimate D2E/DX2                !
 ! A5    A(10,1,12)            107.4189         estimate D2E/DX2                !
 ! A6    A(11,1,12)            110.4501         estimate D2E/DX2                !
 ! A7    A(1,2,3)              126.2572         estimate D2E/DX2                !
 ! A8    A(1,2,13)             113.4513         estimate D2E/DX2                !
 ! A9    A(3,2,13)             120.2915         estimate D2E/DX2                !
 ! A10   A(2,3,4)              127.1321         estimate D2E/DX2                !
 ! A11   A(2,3,14)             119.2663         estimate D2E/DX2                !
 ! A12   A(4,3,14)             113.6016         estimate D2E/DX2                !
 ! A13   A(3,4,5)              122.8971         estimate D2E/DX2                !
 ! A14   A(3,4,6)              123.3694         estimate D2E/DX2                !
 ! A15   A(5,4,6)              113.7336         estimate D2E/DX2                !
 ! A16   A(4,5,15)             113.9286         estimate D2E/DX2                !
 ! A17   A(4,5,16)             110.0058         estimate D2E/DX2                !
 ! A18   A(4,5,17)             110.0051         estimate D2E/DX2                !
 ! A19   A(15,5,16)            106.4002         estimate D2E/DX2                !
 ! A20   A(15,5,17)            106.3991         estimate D2E/DX2                !
 ! A21   A(16,5,17)            109.9653         estimate D2E/DX2                !
 ! A22   A(4,6,7)              115.445          estimate D2E/DX2                !
 ! A23   A(4,6,18)             108.4081         estimate D2E/DX2                !
 ! A24   A(4,6,19)             108.408          estimate D2E/DX2                !
 ! A25   A(7,6,18)             108.4806         estimate D2E/DX2                !
 ! A26   A(7,6,19)             108.4807         estimate D2E/DX2                !
 ! A27   A(18,6,19)            107.337          estimate D2E/DX2                !
 ! A28   A(6,7,8)              114.2251         estimate D2E/DX2                !
 ! A29   A(7,8,9)              108.1007         estimate D2E/DX2                !
 ! A30   A(8,9,20)             119.265          estimate D2E/DX2                !
 ! A31   A(8,9,21)             118.7507         estimate D2E/DX2                !
 ! A32   A(20,9,21)            121.9843         estimate D2E/DX2                !
 ! D1    D(10,1,2,3)          -179.9995         estimate D2E/DX2                !
 ! D2    D(10,1,2,13)           -0.0009         estimate D2E/DX2                !
 ! D3    D(11,1,2,3)            61.8016         estimate D2E/DX2                !
 ! D4    D(11,1,2,13)         -118.1998         estimate D2E/DX2                !
 ! D5    D(12,1,2,3)           -61.7999         estimate D2E/DX2                !
 ! D6    D(12,1,2,13)          118.1987         estimate D2E/DX2                !
 ! D7    D(1,2,3,4)            179.9999         estimate D2E/DX2                !
 ! D8    D(1,2,3,14)            -0.0011         estimate D2E/DX2                !
 ! D9    D(13,2,3,4)             0.0014         estimate D2E/DX2                !
 ! D10   D(13,2,3,14)         -179.9996         estimate D2E/DX2                !
 ! D11   D(2,3,4,5)             -0.0013         estimate D2E/DX2                !
 ! D12   D(2,3,4,6)            179.9997         estimate D2E/DX2                !
 ! D13   D(14,3,4,5)           179.9997         estimate D2E/DX2                !
 ! D14   D(14,3,4,6)             0.0006         estimate D2E/DX2                !
 ! D15   D(3,4,5,15)             0.0012         estimate D2E/DX2                !
 ! D16   D(3,4,5,16)          -119.3583         estimate D2E/DX2                !
 ! D17   D(3,4,5,17)           119.3588         estimate D2E/DX2                !
 ! D18   D(6,4,5,15)          -179.9997         estimate D2E/DX2                !
 ! D19   D(6,4,5,16)            60.6408         estimate D2E/DX2                !
 ! D20   D(6,4,5,17)           -60.6421         estimate D2E/DX2                !
 ! D21   D(3,4,6,7)            179.9996         estimate D2E/DX2                !
 ! D22   D(3,4,6,18)            58.1078         estimate D2E/DX2                !
 ! D23   D(3,4,6,19)           -58.1086         estimate D2E/DX2                !
 ! D24   D(5,4,6,7)              0.0005         estimate D2E/DX2                !
 ! D25   D(5,4,6,18)          -121.8913         estimate D2E/DX2                !
 ! D26   D(5,4,6,19)           121.8923         estimate D2E/DX2                !
 ! D27   D(4,6,7,8)            179.9999         estimate D2E/DX2                !
 ! D28   D(18,6,7,8)           -58.1472         estimate D2E/DX2                !
 ! D29   D(19,6,7,8)            58.1471         estimate D2E/DX2                !
 ! D30   D(6,7,8,9)           -179.9999         estimate D2E/DX2                !
 ! D31   D(7,8,9,20)           179.9999         estimate D2E/DX2                !
 ! D32   D(7,8,9,21)            -0.0004         estimate D2E/DX2                !
 ! D33   D(8,9,20,21)          179.9997         estimate D2E/DX2                !
 --------------------------------------------------------------------------------
 Trust Radius=3.00D-01 FncErr=1.00D-07 GrdErr=1.00D-06 EigMax=2.50D+02 EigMin=1.00D-04
 Number of steps in this run=     95 maximum allowed number of steps=    126.
 GradGradGradGradGradGradGradGradGradGradGradGradGradGradGradGradGradGrad

                          Input orientation:                          
 ---------------------------------------------------------------------
 Center     Atomic      Atomic             Coordinates (Angstroms)
 Number     Number       Type             X           Y           Z
 ---------------------------------------------------------------------
      1          6           0        0.935810    0.132650   -0.005590
      2          6           0        2.424640    0.119800   -0.013280
      3          6           0        3.231580    1.044580    0.539400
      4          7           0        4.621380    1.050800    0.543110
      5          6           0        5.421550    0.000990   -0.084270
      6          6           0        5.433450    2.121300    1.182870
      7          7           0        6.908200    1.951810    1.081580
      8          7           0        7.563820    2.857680    1.622950
      9          7           0        8.865320    2.584300    1.459570
     10          1           0        0.570030   -0.755600   -0.536430
     11          1           0        0.544670    1.009580   -0.527130
     12          1           0        0.544670    0.088710    1.013750
     13          1           0        2.845370   -0.736210   -0.524840
     14          1           0        2.790210    1.899540    1.050340
     15          1           0        4.829350   -0.785510   -0.554310
     16          1           0        6.048340   -0.490710    0.665860
     17          1           0        6.048340    0.428730   -0.872640
     18          1           0        5.161380    2.174760    2.245410
     19          1           0        5.161380    3.082400    0.726660
     20          1           0        9.556030    3.219770    1.839340
     21          1           0        9.127590    1.744130    0.957470
 ---------------------------------------------------------------------
                    Distance matrix (angstroms):
                    1          2          3          4          5
     1  C    0.000000
     2  C    1.488905   0.000000
     3  C    2.529662   1.346041   0.000000
     4  N    3.837642   2.449897   1.389819   0.000000
     5  C    4.488361   3.000104   2.504798   1.461499   0.000000
     6  C    5.059242   3.806536   2.534090   1.488194   2.470121
     7  N    6.337249   4.965611   3.825514   2.516210   2.715701
     8  N    7.349044   6.048504   4.819722   3.617848   3.957853
     9  N    8.428191   7.051624   5.912400   4.604622   4.573454
    10  H    1.097531   2.116504   3.388496   4.565296   4.930935
    11  H    1.092703   2.142437   2.891055   4.215054   4.999734
    12  H    1.092692   2.142439   2.891052   4.215054   4.999730
    13  H    2.161240   1.082340   2.110208   2.736445   2.715561
    14  H    2.770503   2.105327   1.089414   2.081064   3.437409
    15  H    4.037792   2.625820   2.664263   2.149329   1.090972
    16  H    5.193976   3.736998   3.210490   2.104171   1.094226
    17  H    5.193977   3.736996   3.210493   2.104171   1.094237
    18  H    5.205061   4.100523   2.812811   2.110145   3.196932
    19  H    5.205061   4.100519   2.812811   2.110140   3.196933
    20  H    9.340357   7.993669   6.813220   5.543953   5.581644
    21  H    8.404143   6.964937   5.952066   4.578027   4.225931
                    6          7          8          9         10
     6  C    0.000000
     7  N    1.487909   0.000000
     8  N    2.296607   1.242385   0.000000
     9  N    3.473998   2.091229   1.339900   0.000000
    10  H    5.906386   7.079578   8.162831   9.162466   0.000000
    11  H    5.297187   6.631007   7.570124   8.698272   1.765387
    12  H    5.297187   6.631007   7.570125   8.698272   1.765378
    13  H    4.216609   5.129583   6.308155   7.155660   2.275452
    14  H    2.655835   4.118440   4.902374   6.127261   3.807467
    15  H    3.439807   3.806662   5.048824   5.630310   4.259463
    16  H    2.732761   2.622611   3.797949   4.245119   5.614940
    17  H    2.732765   2.622615   3.797953   4.245122   5.614940
    18  H    1.098122   2.110826   2.574015   3.808469   6.116056
    19  H    1.098118   2.110825   2.574015   3.808468   6.116056
    20  H    4.316625   3.031984   2.036378   1.012486  10.109206
    21  H    3.720179   2.232538   2.031806   1.013299   9.039481
                   11         12         13         14         15
    11  H    0.000000
    12  H    1.795080   0.000000
    13  H    2.888080   2.888074   0.000000
    14  H    2.884942   2.884943   3.071061   0.000000
    15  H    4.645597   4.645595   1.984811   3.733964   0.000000
    16  H    5.827905   5.545010   3.425938   4.059129   1.749760
    17  H    5.545011   5.827904   3.425940   4.059131   1.749757
    18  H    5.509867   5.213694   4.638096   2.669529   4.088016
    19  H    5.213692   5.509865   4.638096   2.669527   4.088014
    20  H    9.575475   9.575476   8.140767   6.938433   6.641787
    21  H    8.741288   8.741287   6.914884   6.339965   5.211470
                   16         17         18         19         20
    16  H    0.000000
    17  H    1.792304   0.000000
    18  H    3.222795   3.682058   0.000000
    19  H    3.682052   3.222797   1.769297   0.000000
    20  H    5.239142   5.239144   4.535404   4.535403   0.000000
    21  H    3.815931   3.815935   4.192261   4.192262   1.771657
                   21
    21  H    0.000000
 Stoichiometry    C5H12N4
 Framework group  C1[X(C5H12N4)]
 Deg. of freedom    57
 Full point group                 C1      NOp   1
 Largest Abelian subgroup         C1      NOp   1
 Largest concise Abelian subgroup C1      NOp   1
                         Standard orientation:                         
 ---------------------------------------------------------------------
 Center     Atomic      Atomic             Coordinates (Angstroms)
 Number     Number       Type             X           Y           Z
 ---------------------------------------------------------------------
      1          6           0       -4.315020   -0.385374   -0.000004
      2          6           0       -2.953371    0.216913    0.000006
      3          6           0       -1.786281   -0.453705   -0.000003
      4          7           0       -0.506813    0.089028    0.000004
      5          6           0       -0.255260    1.528715   -0.000004
      6          6           0        0.732093   -0.735492    0.000000
      7          7           0        2.008677    0.028842   -0.000000
      8          7           0        3.028061   -0.681353   -0.000001
      9          7           0        4.097663    0.125668    0.000001
     10          1           0       -5.060057    0.420538   -0.000002
     11          1           0       -4.482504   -0.985675    0.897542
     12          1           0       -4.482505   -0.985671   -0.897538
     13          1           0       -2.961107    1.299225   -0.000003
     14          1           0       -1.797986   -1.543056    0.000000
     15          1           0       -1.161420    2.136247    0.000004
     16          1           0        0.305751    1.810708   -0.896149
     17          1           0        0.305750    1.810710    0.896155
     18          1           0        0.715790   -1.385875   -0.884651
     19          1           0        0.715790   -1.385876    0.884646
     20          1           0        5.024757   -0.281302    0.000002
     21          1           0        3.951667    1.128395   -0.000003
 ---------------------------------------------------------------------
 Rotational constants (GHZ):           6.8634825           0.5471723           0.5117179
 Standard basis: 6-31G(2df,p) (6D, 7F)
 There are   339 symmetry adapted cartesian basis functions of A   symmetry.
 There are   312 symmetry adapted basis functions of A   symmetry.
   312 basis functions,   480 primitive gaussians,   339 cartesian basis functions
    35 alpha electrons       35 beta electrons
       nuclear repulsion energy       436.3395460791 Hartrees.
 NAtoms=   21 NActive=   21 NUniq=   21 SFac= 1.00D+00 NAtFMM=   60 NAOKFM=F Big=F
 Integral buffers will be    131072 words long.
 Raffenetti 2 integral format.
 Two-electron integral symmetry is turned on.
 One-electron integrals computed using PRISM.
 PrsmSu:  requested number of processors reduced to:  13 ShMem   1 Linda.
 NBasis=   312 RedAO= T EigKep=  2.34D-04  NBF=   312
 NBsUse=   312 1.00D-06 EigRej= -1.00D+00 NBFU=   312
 ExpMin= 1.61D-01 ExpMax= 4.17D+03 ExpMxC= 6.27D+02 IAcc=3 IRadAn=         5 AccDes= 0.00D+00
 Harris functional with IExCor=  402 and IRadAn=       5 diagonalized for initial guess.
 HarFok:  IExCor=  402 AccDes= 0.00D+00 IRadAn=         5 IDoV= 1 UseB2=F ITyADJ=14
 ICtDFT=  3500011 ScaDFX=  1.000000  1.000000  1.000000  1.000000
 FoFCou: FMM=F IPFlag=           0 FMFlag=      100000 FMFlg1=           0
         NFxFlg=           0 DoJE=T BraDBF=F KetDBF=T FulRan=T
         wScrn=  0.000000 ICntrl=       500 IOpCl=  0 I1Cent=   200000004 NGrid=           0
         NMat0=    1 NMatS0=      1 NMatT0=    0 NMatD0=    1 NMtDS0=    0 NMtDT0=    0
 Petite list used in FoFCou.
 Requested convergence on RMS density matrix=1.00D-08 within 128 cycles.
 Requested convergence on MAX density matrix=1.00D-06.
 Requested convergence on             energy=1.00D-06.
 No special actions if energy rises.
 Integral accuracy reduced to 1.0D-05 until final iterations.
 Initial convergence to 1.0D-05 achieved.  Increase integral accuracy.
 SCF Done:  E(RB3LYP) =  -416.676647808     A.U. after   14 cycles
            NFock= 14  Conv=0.78D-08     -V/T= 2.0081

 **********************************************************************

            Population analysis using the SCF density.

 **********************************************************************

 Orbital symmetries:
       Occupied  (A) (A) (A) (A) (A) (A) (A) (A) (A) (A) (A) (A)
                 (A) (A) (A) (A) (A) (A) (A) (A) (A) (A) (A) (A)
                 (A) (A) (A) (A) (A) (A) (A) (A) (A) (A) (A)
       Virtual   (A) (A) (A) (A) (A) (A) (A) (A) (A) (A) (A) (A)
                 (A) (A) (A) (A) (A) (A) (A) (A) (A) (A) (A) (A)
                 (A) (A) (A) (A) (A) (A) (A) (A) (A) (A) (A) (A)
                 (A) (A) (A) (A) (A) (A) (A) (A) (A) (A) (A) (A)
                 (A) (A) (A) (A) (A) (A) (A) (A) (A) (A) (A) (A)
                 (A) (A) (A) (A) (A) (A) (A) (A) (A) (A) (A) (A)
                 (A) (A) (A) (A) (A) (A) (A) (A) (A) (A) (A) (A)
                 (A) (A) (A) (A) (A) (A) (A) (A) (A) (A) (A) (A)
                 (A) (A) (A) (A) (A) (A) (A) (A) (A) (A) (A) (A)
                 (A) (A) (A) (A) (A) (A) (A) (A) (A) (A) (A) (A)
                 (A) (A) (A) (A) (A) (A) (A) (A) (A) (A) (A) (A)
                 (A) (A) (A) (A) (A) (A) (A) (A) (A) (A) (A) (A)
                 (A) (A) (A) (A) (A) (A) (A) (A) (A) (A) (A) (A)
                 (A) (A) (A) (A) (A) (A) (A) (A) (A) (A) (A) (A)
                 (A) (A) (A) (A) (A) (A) (A) (A) (A) (A) (A) (A)
                 (A) (A) (A) (A) (A) (A) (A) (A) (A) (A) (A) (A)
                 (A) (A) (A) (A) (A) (A) (A) (A) (A) (A) (A) (A)
                 (A) (A) (A) (A) (A) (A) (A) (A) (A) (A) (A) (A)
                 (A) (A) (A) (A) (A) (A) (A) (A) (A) (A) (A) (A)
                 (A) (A) (A) (A) (A) (A) (A) (A) (A) (A) (A) (A)
                 (A) (A) (A) (A) (A) (A) (A) (A) (A) (A) (A) (A)
                 (A) (A) (A) (A) (A) (A) (A) (A) (A) (A) (A) (A)
                 (A) (A) (A) (A) (A) (A) (A) (A) (A) (A) (A) (A)
                 (A)
 The electronic state is 1-A.
 Alpha  occ. eigenvalues --  -14.41695 -14.37154 -14.35204 -14.33005 -10.24007
 Alpha  occ. eigenvalues --  -10.19569 -10.19427 -10.15921 -10.14085  -1.07448
 Alpha  occ. eigenvalues --   -0.92364  -0.88175  -0.76022  -0.71932  -0.69344
 Alpha  occ. eigenvalues --   -0.64056  -0.59564  -0.54679  -0.53193  -0.50448
 Alpha  occ. eigenvalues --   -0.47377  -0.46739  -0.44447  -0.42386  -0.39533
 Alpha  occ. eigenvalues --   -0.39428  -0.39113  -0.37320  -0.37124  -0.35858
 Alpha  occ. eigenvalues --   -0.32139  -0.29003  -0.24494  -0.24367  -0.16097
 Alpha virt. eigenvalues --   -0.02097   0.05637   0.07584   0.11221   0.11603
 Alpha virt. eigenvalues --    0.13164   0.13319   0.15203   0.16020   0.17056
 Alpha virt. eigenvalues --    0.17548   0.18123   0.18822   0.19332   0.21797
 Alpha virt. eigenvalues --    0.23090   0.25955   0.27445   0.29138   0.33698
 Alpha virt. eigenvalues --    0.34218   0.41079   0.42133   0.45860   0.46197
 Alpha virt. eigenvalues --    0.49907   0.50736   0.51778   0.53208   0.53985
 Alpha virt. eigenvalues --    0.54119   0.54864   0.55576   0.58542   0.58763
 Alpha virt. eigenvalues --    0.62319   0.63443   0.63686   0.64816   0.66120
 Alpha virt. eigenvalues --    0.66660   0.68280   0.69673   0.70309   0.72457
 Alpha virt. eigenvalues --    0.73368   0.74790   0.75414   0.76052   0.76824
 Alpha virt. eigenvalues --    0.77109   0.77879   0.78560   0.81121   0.81127
 Alpha virt. eigenvalues --    0.82219   0.82432   0.86670   0.87056   0.87084
 Alpha virt. eigenvalues --    0.89672   0.90679   0.91441   0.93971   0.95826
 Alpha virt. eigenvalues --    0.98756   0.99095   1.02614   1.04351   1.05099
 Alpha virt. eigenvalues --    1.06063   1.14409   1.16872   1.20494   1.22939
 Alpha virt. eigenvalues --    1.24207   1.28005   1.28716   1.28805   1.31019
 Alpha virt. eigenvalues --    1.34716   1.36458   1.38486   1.40091   1.41242
 Alpha virt. eigenvalues --    1.43023   1.44722   1.46830   1.49226   1.53236
 Alpha virt. eigenvalues --    1.55134   1.56289   1.58185   1.60985   1.61863
 Alpha virt. eigenvalues --    1.64671   1.66640   1.69930   1.73636   1.74737
 Alpha virt. eigenvalues --    1.77508   1.80008   1.82298   1.82525   1.83398
 Alpha virt. eigenvalues --    1.86027   1.91922   1.94099   1.95368   1.96934
 Alpha virt. eigenvalues --    1.97628   1.97671   2.01270   2.05391   2.08160
 Alpha virt. eigenvalues --    2.14516   2.17504   2.18802   2.21281   2.26864
 Alpha virt. eigenvalues --    2.27329   2.31421   2.37683   2.40534   2.40557
 Alpha virt. eigenvalues --    2.46835   2.48333   2.48861   2.50652   2.51670
 Alpha virt. eigenvalues --    2.61191   2.64280   2.67788   2.70470   2.71542
 Alpha virt. eigenvalues --    2.75463   2.76986   2.81466   2.81976   2.83088
 Alpha virt. eigenvalues --    2.84867   2.87607   2.89125   2.92098   2.93186
 Alpha virt. eigenvalues --    2.94681   2.95773   2.97201   3.00689   3.01480
 Alpha virt. eigenvalues --    3.03218   3.05604   3.07137   3.10936   3.13119
 Alpha virt. eigenvalues --    3.17333   3.21169   3.23366   3.25492   3.27019
 Alpha virt. eigenvalues --    3.27655   3.29181   3.29204   3.32552   3.33795
 Alpha virt. eigenvalues --    3.34956   3.36268   3.41468   3.41856   3.42954
 Alpha virt. eigenvalues --    3.45231   3.47910   3.48816   3.53533   3.53957
 Alpha virt. eigenvalues --    3.56780   3.57189   3.60382   3.64766   3.65046
 Alpha virt. eigenvalues --    3.66497   3.68158   3.70584   3.72240   3.72369
 Alpha virt. eigenvalues --    3.76608   3.82575   3.87985   3.89146   3.91775
 Alpha virt. eigenvalues --    3.92962   3.95461   3.97042   3.99747   4.03308
 Alpha virt. eigenvalues --    4.05310   4.07029   4.08008   4.10107   4.14803
 Alpha virt. eigenvalues --    4.18885   4.21380   4.24272   4.29232   4.30071
 Alpha virt. eigenvalues --    4.31499   4.32643   4.33579   4.35723   4.37282
 Alpha virt. eigenvalues --    4.38925   4.40102   4.41221   4.43421   4.45103
 Alpha virt. eigenvalues --    4.46974   4.48341   4.51336   4.52578   4.57190
 Alpha virt. eigenvalues --    4.57470   4.58866   4.61971   4.64128   4.66465
 Alpha virt. eigenvalues --    4.66821   4.68424   4.69364   4.72961   4.73196
 Alpha virt. eigenvalues --    4.74242   4.74894   4.78607   4.78634   4.81277
 Alpha virt. eigenvalues --    4.81537   4.84524   4.85305   4.87391   4.88179
 Alpha virt. eigenvalues --    4.91831   4.95135   4.96931   4.97460   5.01979
 Alpha virt. eigenvalues --    5.04795   5.11293   5.14555   5.22115   5.24169
 Alpha virt. eigenvalues --    5.27925   5.31017   5.32417   5.35603   5.43086
 Alpha virt. eigenvalues --    5.51735   5.54985   5.58919   5.68914   5.76370
 Alpha virt. eigenvalues --    5.86690   5.88823   5.92456   6.03242   6.21433
 Alpha virt. eigenvalues --    8.80698  10.20031  10.91211  11.23089  11.28158
 Alpha virt. eigenvalues --   11.35656  11.41399  11.50007  11.73024  11.87137
 Alpha virt. eigenvalues --   12.59637  20.07024
          Condensed to atoms (all electrons):
               1          2          3          4          5          6
     1  C    4.976833   0.391458  -0.002937   0.002429   0.000002  -0.000045
     2  C    0.391458   4.872789   0.676215  -0.017362  -0.008343   0.003961
     3  C   -0.002937   0.676215   4.640076   0.436532  -0.053378  -0.057283
     4  N    0.002429  -0.017362   0.436532   6.126436   0.388330   0.408045
     5  C    0.000002  -0.008343  -0.053378   0.388330   4.932302  -0.079856
     6  C   -0.000045   0.003961  -0.057283   0.408045  -0.079856   4.820049
     7  N    0.000000  -0.000069   0.001783  -0.025087  -0.004516   0.360676
     8  N   -0.000000  -0.000000  -0.000012   0.001518   0.000072  -0.072334
     9  N    0.000000  -0.000000   0.000001  -0.000057   0.000010   0.004800
    10  H    0.378371  -0.018929   0.001129  -0.000032   0.000014   0.000001
    11  H    0.372902  -0.030079  -0.007676   0.000038   0.000002  -0.000000
    12  H    0.372905  -0.030079  -0.007676   0.000038   0.000002  -0.000000
    13  H   -0.064751   0.358751  -0.021536  -0.016226  -0.000287  -0.000152
    14  H   -0.010311  -0.050178   0.354388  -0.044565   0.007095  -0.007974
    15  H   -0.000045   0.003542  -0.012965  -0.014103   0.369574   0.004475
    16  H   -0.000007   0.000784   0.003007  -0.031916   0.376108  -0.003451
    17  H   -0.000007   0.000784   0.003007  -0.031917   0.376106  -0.003450
    18  H    0.000001   0.000228  -0.000976  -0.040141   0.005002   0.341308
    19  H    0.000001   0.000228  -0.000976  -0.040141   0.005003   0.341309
    20  H   -0.000000   0.000000  -0.000000  -0.000001   0.000000  -0.000475
    21  H    0.000000   0.000000   0.000001  -0.000037   0.000066  -0.000721
               7          8          9         10         11         12
     1  C    0.000000  -0.000000   0.000000   0.378371   0.372902   0.372905
     2  C   -0.000069  -0.000000  -0.000000  -0.018929  -0.030079  -0.030079
     3  C    0.001783  -0.000012   0.000001   0.001129  -0.007676  -0.007676
     4  N   -0.025087   0.001518  -0.000057  -0.000032   0.000038   0.000038
     5  C   -0.004516   0.000072   0.000010   0.000014   0.000002   0.000002
     6  C    0.360676  -0.072334   0.004800   0.000001  -0.000000  -0.000000
     7  N    6.568462   0.433487  -0.136906  -0.000000  -0.000000  -0.000000
     8  N    0.433487   6.339565   0.404173   0.000000  -0.000000  -0.000000
     9  N   -0.136906   0.404173   6.437405  -0.000000  -0.000000  -0.000000
    10  H   -0.000000   0.000000  -0.000000   0.602946  -0.032809  -0.032810
    11  H   -0.000000  -0.000000  -0.000000  -0.032809   0.611477  -0.035074
    12  H   -0.000000  -0.000000  -0.000000  -0.032810  -0.035074   0.611474
    13  H    0.000003   0.000000   0.000000  -0.009096   0.004733   0.004733
    14  H    0.000154   0.000001   0.000000  -0.000162   0.002078   0.002078
    15  H    0.000569  -0.000029  -0.000000  -0.000009   0.000007   0.000007
    16  H    0.005339   0.000080  -0.000016  -0.000000   0.000001  -0.000001
    17  H    0.005338   0.000080  -0.000016  -0.000000  -0.000001   0.000001
    18  H   -0.024345   0.000382   0.000233  -0.000000   0.000004  -0.000009
    19  H   -0.024344   0.000382   0.000233  -0.000000  -0.000009   0.000004
    20  H    0.006759  -0.030228   0.347672   0.000000  -0.000000  -0.000000
    21  H    0.044537  -0.053148   0.318000  -0.000000  -0.000000  -0.000000
              13         14         15         16         17         18
     1  C   -0.064751  -0.010311  -0.000045  -0.000007  -0.000007   0.000001
     2  C    0.358751  -0.050178   0.003542   0.000784   0.000784   0.000228
     3  C   -0.021536   0.354388  -0.012965   0.003007   0.003007  -0.000976
     4  N   -0.016226  -0.044565  -0.014103  -0.031916  -0.031917  -0.040141
     5  C   -0.000287   0.007095   0.369574   0.376108   0.376106   0.005002
     6  C   -0.000152  -0.007974   0.004475  -0.003451  -0.003450   0.341308
     7  N    0.000003   0.000154   0.000569   0.005339   0.005338  -0.024345
     8  N    0.000000   0.000001  -0.000029   0.000080   0.000080   0.000382
     9  N    0.000000   0.000000  -0.000000  -0.000016  -0.000016   0.000233
    10  H   -0.009096  -0.000162  -0.000009  -0.000000  -0.000000  -0.000000
    11  H    0.004733   0.002078   0.000007   0.000001  -0.000001   0.000004
    12  H    0.004733   0.002078   0.000007  -0.000001   0.000001  -0.000009
    13  H    0.667027   0.007713   0.005700   0.000023   0.000023   0.000004
    14  H    0.007713   0.651895   0.000077  -0.000153  -0.000153   0.002778
    15  H    0.005700   0.000077   0.583558  -0.034531  -0.034531  -0.000081
    16  H    0.000023  -0.000153  -0.034531   0.605233  -0.042742   0.001766
    17  H    0.000023  -0.000153  -0.034531  -0.042742   0.605238  -0.000434
    18  H    0.000004   0.002778  -0.000081   0.001766  -0.000434   0.649331
    19  H    0.000004   0.002778  -0.000081  -0.000434   0.001766  -0.051333
    20  H   -0.000000   0.000000   0.000000   0.000001   0.000001   0.000041
    21  H   -0.000000   0.000000   0.000006   0.000124   0.000124   0.000171
              19         20         21
     1  C    0.000001  -0.000000   0.000000
     2  C    0.000228   0.000000   0.000000
     3  C   -0.000976  -0.000000   0.000001
     4  N   -0.040141  -0.000001  -0.000037
     5  C    0.005003   0.000000   0.000066
     6  C    0.341309  -0.000475  -0.000721
     7  N   -0.024344   0.006759   0.044537
     8  N    0.000382  -0.030228  -0.053148
     9  N    0.000233   0.347672   0.318000
    10  H   -0.000000   0.000000  -0.000000
    11  H   -0.000009  -0.000000  -0.000000
    12  H    0.000004  -0.000000  -0.000000
    13  H    0.000004  -0.000000  -0.000000
    14  H    0.002778   0.000000   0.000000
    15  H   -0.000081   0.000000   0.000006
    16  H   -0.000434   0.000001   0.000124
    17  H    0.001766   0.000001   0.000124
    18  H   -0.051333   0.000041   0.000171
    19  H    0.649329   0.000041   0.000171
    20  H    0.000041   0.428551  -0.022754
    21  H    0.000171  -0.022754   0.465878
 Mulliken charges:
               1
     1  C   -0.416801
     2  C   -0.153700
     3  C    0.049278
     4  N   -0.101781
     5  C   -0.313309
     6  C   -0.058880
     7  N   -0.211840
     8  N   -0.023987
     9  N   -0.375530
    10  H    0.111388
    11  H    0.114406
    12  H    0.114408
    13  H    0.063336
    14  H    0.082461
    15  H    0.128863
    16  H    0.120786
    17  H    0.120785
    18  H    0.116071
    19  H    0.116072
    20  H    0.270393
    21  H    0.247583
 Sum of Mulliken charges =  -0.00000
 Mulliken charges with hydrogens summed into heavy atoms:
               1
     1  C   -0.076600
     2  C   -0.090364
     3  C    0.131739
     4  N   -0.101781
     5  C    0.057125
     6  C    0.173263
     7  N   -0.211840
     8  N   -0.023987
     9  N    0.142445
 Electronic spatial extent (au):  <R**2>=           2149.9069
 Charge=             -0.0000 electrons
 Dipole moment (field-independent basis, Debye):
    X=              3.1348    Y=              0.5393    Z=             -0.0000  Tot=              3.1809
 Quadrupole moment (field-independent basis, Debye-Ang):
   XX=            -43.1868   YY=            -52.7533   ZZ=            -57.1508
   XY=              2.4668   XZ=              0.0001   YZ=             -0.0000
 Traceless Quadrupole moment (field-independent basis, Debye-Ang):
   XX=              7.8435   YY=             -1.7230   ZZ=             -6.1205
   XY=              2.4668   XZ=              0.0001   YZ=             -0.0000
 Octapole moment (field-independent basis, Debye-Ang**2):
  XXX=            129.0414  YYY=              4.8279  ZZZ=             -0.0001  XYY=              5.0521
  XXY=             13.4673  XXZ=             -0.0003  XZZ=              7.2372  YZZ=             -1.1182
  YYZ=             -0.0000  XYZ=             -0.0001
 Hexadecapole moment (field-independent basis, Debye-Ang**3):
 XXXX=          -1974.2529 YYYY=           -268.0281 ZZZZ=            -75.1929 XXXY=              7.0254
 XXXZ=              0.0015 YYYX=             10.2149 YYYZ=             -0.0001 ZZZX=              0.0001
 ZZZY=             -0.0000 XXYY=           -441.3653 XXZZ=           -448.0401 YYZZ=            -56.0530
 XXYZ=             -0.0001 YYXZ=              0.0000 ZZXY=              1.8840
 N-N= 4.363395460791D+02 E-N=-1.841649187775D+03  KE= 4.133321356717D+02
 PrsmSu:  requested number of processors reduced to:  13 ShMem   1 Linda.
 Calling FoFJK, ICntrl=      2127 FMM=F ISym2X=0 I1Cent= 0 IOpClX= 0 NMat=1 NMatS=1 NMatT=0.
 ***** Axes restored to original set *****
 -------------------------------------------------------------------
 Center     Atomic                   Forces (Hartrees/Bohr)
 Number     Number              X              Y              Z
 -------------------------------------------------------------------
      1        6          -0.003121917   -0.001520068   -0.000916378
      2        6           0.014164253   -0.001581505   -0.000942626
      3        6           0.008520828   -0.000820057   -0.000491707
      4        7           0.025908522   -0.006181300   -0.003692737
      5        6          -0.004613338   -0.000698706   -0.000426311
      6        6          -0.014553964    0.007728835    0.004621100
      7        7          -0.036870398   -0.016941981   -0.010124926
      8        7           0.009470749   -0.008598568   -0.005139099
      9        7           0.016267543    0.014904380    0.008907323
     10        1          -0.001923238    0.002980870    0.001781317
     11        1          -0.006154364    0.001924478    0.002037142
     12        1          -0.006155964    0.002705502    0.000736926
     13        1           0.004828715    0.000193344    0.000114964
     14        1           0.001509322    0.000682188    0.000407956
     15        1          -0.006017330    0.004715206    0.002818841
     16        1           0.004223819    0.000418659   -0.002165958
     17        1           0.004220832   -0.001712186    0.001399876
     18        1           0.000410160    0.001529723    0.001848672
     19        1           0.000409845    0.002354772    0.000470776
     20        1          -0.008779463   -0.003398474   -0.002030847
     21        1          -0.001744613    0.001314888    0.000785696
 -------------------------------------------------------------------
 Cartesian Forces:  Max     0.036870398 RMS     0.008154112

 GradGradGradGradGradGradGradGradGradGradGradGradGradGradGradGradGradGrad
 Berny optimization.
 FormGI is forming the generalized inverse of G from B-inverse, IUseBI=4.
 Internal  Forces:  Max     0.044837962 RMS     0.008880769
 Search for a local minimum.
 Step number   1 out of a maximum of   95
 All quantities printed in internal units (Hartrees-Bohrs-Radians)
 Mixed Optimization -- RFO/linear search
 Second derivative matrix not updated -- first step.
 ITU=  0
     Eigenvalues ---    0.00525   0.00529   0.00878   0.00913   0.01021
     Eigenvalues ---    0.01254   0.01724   0.01826   0.02090   0.02338
     Eigenvalues ---    0.02803   0.03380   0.05419   0.07089   0.07190
     Eigenvalues ---    0.07221   0.07380   0.07641   0.11879   0.14258
     Eigenvalues ---    0.16000   0.16000   0.16000   0.16000   0.16000
     Eigenvalues ---    0.16000   0.16000   0.16000   0.16000   0.16000
     Eigenvalues ---    0.22000   0.22000   0.22134   0.25000   0.25000
     Eigenvalues ---    0.25000   0.25000   0.33570   0.33648   0.33680
     Eigenvalues ---    0.33891   0.33891   0.33957   0.34328   0.34329
     Eigenvalues ---    0.34502   0.34503   0.34701   0.34880   0.35713
     Eigenvalues ---    0.36777   0.45425   0.45559   0.47350   0.55872
     Eigenvalues ---    0.57227   0.86115
 RFO step:  Lambda=-2.40987158D-02 EMin= 5.25145465D-03
 Linear search not attempted -- first point.
 Iteration  1 RMS(Cart)=  0.15508843 RMS(Int)=  0.00901037
 Iteration  2 RMS(Cart)=  0.02340277 RMS(Int)=  0.00022937
 Iteration  3 RMS(Cart)=  0.00027319 RMS(Int)=  0.00020647
 Iteration  4 RMS(Cart)=  0.00000005 RMS(Int)=  0.00020647
 Variable       Old X    -DE/DX   Delta X   Delta X   Delta X     New X
                                 (Linear)    (Quad)   (Total)
    R1        2.81362   0.01743   0.00000   0.04843   0.04843   2.86206
    R2        2.07403  -0.00263   0.00000  -0.00724  -0.00724   2.06679
    R3        2.06491   0.00278   0.00000   0.00752   0.00752   2.07243
    R4        2.06489   0.00278   0.00000   0.00754   0.00754   2.07243
    R5        2.54365  -0.00537   0.00000  -0.00921  -0.00921   2.53444
    R6        2.04533   0.00167   0.00000   0.00438   0.00438   2.04971
    R7        2.62638  -0.01170   0.00000  -0.02350  -0.02350   2.60287
    R8        2.05869   0.00012   0.00000   0.00031   0.00031   2.05900
    R9        2.76183  -0.00385   0.00000  -0.00983  -0.00983   2.75201
   R10        2.81228  -0.02039   0.00000  -0.05655  -0.05655   2.75573
   R11        2.06164  -0.00135   0.00000  -0.00363  -0.00363   2.05801
   R12        2.06779   0.00075   0.00000   0.00203   0.00203   2.06982
   R13        2.06781   0.00074   0.00000   0.00201   0.00201   2.06982
   R14        2.81174  -0.01950   0.00000  -0.05403  -0.05403   2.75771
   R15        2.07515   0.00176   0.00000   0.00485   0.00485   2.08000
   R16        2.07514   0.00176   0.00000   0.00486   0.00486   2.08000
   R17        2.34777   0.01221   0.00000   0.01379   0.01379   2.36156
   R18        2.53204   0.00203   0.00000   0.00340   0.00340   2.53545
   R19        1.91332  -0.00888   0.00000  -0.01852  -0.01852   1.89480
   R20        1.91486  -0.00193   0.00000  -0.00404  -0.00404   1.91082
    A1        1.90051   0.00278   0.00000   0.01825   0.01788   1.91839
    A2        1.94164   0.00554   0.00000   0.02848   0.02822   1.96986
    A3        1.94165   0.00554   0.00000   0.02847   0.02821   1.96986
    A4        1.87481  -0.00332   0.00000  -0.01495  -0.01530   1.85951
    A5        1.87481  -0.00332   0.00000  -0.01495  -0.01530   1.85951
    A6        1.92772  -0.00769   0.00000  -0.04739  -0.04753   1.88019
    A7        2.20360  -0.00913   0.00000  -0.03740  -0.03740   2.16620
    A8        1.98010   0.00920   0.00000   0.04390   0.04390   2.02400
    A9        2.09948  -0.00007   0.00000  -0.00650  -0.00650   2.09298
   A10        2.21887   0.01055   0.00000   0.04323   0.04323   2.26210
   A11        2.08159  -0.00352   0.00000  -0.01210  -0.01210   2.06949
   A12        1.98272  -0.00703   0.00000  -0.03113  -0.03113   1.95159
   A13        2.14496   0.00446   0.00000   0.01627   0.01627   2.16123
   A14        2.15320  -0.02693   0.00000  -0.09824  -0.09824   2.05496
   A15        1.98503   0.02247   0.00000   0.08197   0.08197   2.06700
   A16        1.98843  -0.01268   0.00000  -0.06887  -0.06846   1.91997
   A17        1.91996   0.00518   0.00000   0.02812   0.02813   1.94810
   A18        1.91995   0.00518   0.00000   0.02814   0.02814   1.94809
   A19        1.85703   0.00373   0.00000   0.02027   0.02066   1.87770
   A20        1.85702   0.00373   0.00000   0.02028   0.02067   1.87769
   A21        1.91926  -0.00540   0.00000  -0.02940  -0.02975   1.88950
   A22        2.01489  -0.02193   0.00000  -0.09261  -0.09250   1.92239
   A23        1.89208   0.00703   0.00000   0.03104   0.03059   1.92267
   A24        1.89208   0.00703   0.00000   0.03104   0.03059   1.92267
   A25        1.89334   0.00562   0.00000   0.01660   0.01675   1.91010
   A26        1.89335   0.00562   0.00000   0.01660   0.01675   1.91010
   A27        1.87338  -0.00238   0.00000   0.00280   0.00189   1.87527
   A28        1.99360  -0.02059   0.00000  -0.07512  -0.07512   1.91848
   A29        1.88671   0.04484   0.00000   0.16358   0.16358   2.05030
   A30        2.08157  -0.00392   0.00000  -0.02130  -0.02130   2.06027
   A31        2.07259   0.00073   0.00000   0.00395   0.00395   2.07654
   A32        2.12903   0.00319   0.00000   0.01735   0.01735   2.14638
    D1       -3.14158  -0.00000   0.00000  -0.00000  -0.00000  -3.14159
    D2       -0.00002   0.00000   0.00000   0.00000   0.00000  -0.00001
    D3        1.07864  -0.00096   0.00000  -0.01004  -0.01013   1.06851
    D4       -2.06298  -0.00096   0.00000  -0.01003  -0.01012  -2.07310
    D5       -1.07861   0.00096   0.00000   0.01003   0.01012  -1.06849
    D6        2.06296   0.00096   0.00000   0.01004   0.01012   2.07308
    D7        3.14159  -0.00000   0.00000  -0.00000  -0.00000   3.14159
    D8       -0.00002   0.00000   0.00000   0.00001   0.00001  -0.00001
    D9        0.00002  -0.00000   0.00000  -0.00001  -0.00001   0.00002
   D10       -3.14159  -0.00000   0.00000  -0.00000  -0.00000  -3.14159
   D11       -0.00002   0.00000   0.00000   0.00000   0.00000  -0.00002
   D12        3.14159   0.00000   0.00000   0.00000   0.00000   3.14159
   D13        3.14159  -0.00000   0.00000  -0.00000  -0.00000   3.14159
   D14        0.00001  -0.00000   0.00000  -0.00000  -0.00000   0.00001
   D15        0.00002  -0.00000   0.00000  -0.00001  -0.00001   0.00002
   D16       -2.08320  -0.00001   0.00000  -0.00010   0.00019  -2.08300
   D17        2.08320   0.00001   0.00000   0.00011  -0.00018   2.08302
   D18       -3.14159  -0.00000   0.00000  -0.00001  -0.00001   3.14159
   D19        1.05838  -0.00001   0.00000  -0.00010   0.00019   1.05857
   D20       -1.05840   0.00001   0.00000   0.00011  -0.00019  -1.05859
   D21        3.14159   0.00000   0.00000  -0.00000  -0.00000   3.14159
   D22        1.01417   0.00236   0.00000   0.01825   0.01871   1.03288
   D23       -1.01419  -0.00236   0.00000  -0.01825  -0.01871  -1.03289
   D24        0.00001  -0.00000   0.00000   0.00000   0.00000   0.00001
   D25       -2.12740   0.00236   0.00000   0.01826   0.01871  -2.10870
   D26        2.12742  -0.00236   0.00000  -0.01825  -0.01871   2.10872
   D27        3.14159   0.00000   0.00000  -0.00000   0.00000   3.14159
   D28       -1.01486  -0.00162   0.00000  -0.01058  -0.01050  -1.02536
   D29        1.01486   0.00162   0.00000   0.01058   0.01050   1.02536
   D30       -3.14159  -0.00000   0.00000  -0.00000  -0.00000   3.14159
   D31        3.14159   0.00000   0.00000   0.00000   0.00000  -3.14159
   D32       -0.00001   0.00000   0.00000   0.00000   0.00000  -0.00000
   D33        3.14159  -0.00000   0.00000  -0.00000  -0.00000   3.14159
         Item               Value     Threshold  Converged?
 Maximum Force            0.044838     0.000450     NO 
 RMS     Force            0.008881     0.000300     NO 
 Maximum Displacement     0.497014     0.001800     NO 
 RMS     Displacement     0.172146     0.001200     NO 
 Predicted change in Energy=-1.316198D-02
 GradGradGradGradGradGradGradGradGradGradGradGradGradGradGradGradGradGrad

                          Input orientation:                          
 ---------------------------------------------------------------------
 Center     Atomic      Atomic             Coordinates (Angstroms)
 Number     Number       Type             X           Y           Z
 ---------------------------------------------------------------------
      1          6           0        0.937736    0.262743    0.072158
      2          6           0        2.440795    0.103011   -0.023314
      3          6           0        3.323712    0.969597    0.494583
      4          7           0        4.700581    0.937355    0.475307
      5          6           0        5.478037   -0.119681   -0.156392
      6          6           0        5.414306    2.028942    1.127671
      7          7           0        6.855023    1.829565    1.008520
      8          7           0        7.462390    2.767063    1.568793
      9          7           0        8.803563    2.734785    1.549508
     10          1           0        0.441660   -0.573953   -0.427870
     11          1           0        0.574616    1.176481   -0.413577
     12          1           0        0.574625    0.267769    1.106968
     13          1           0        2.792296   -0.777808   -0.549705
     14          1           0        2.946500    1.847045    1.018965
     15          1           0        4.811642   -0.859067   -0.598272
     16          1           0        6.115448   -0.639192    0.567140
     17          1           0        6.115453    0.271449   -0.956646
     18          1           0        5.138338    2.080119    2.191974
     19          1           0        5.138340    2.990518    0.668617
     20          1           0        9.299603    3.482778    1.996531
     21          1           0        9.268445    1.963980    1.088862
 ---------------------------------------------------------------------
                    Distance matrix (angstroms):
                    1          2          3          4          5
     1  C    0.000000
     2  C    1.514535   0.000000
     3  C    2.524078   1.341168   0.000000
     4  N    3.844039   2.459957   1.377382   0.000000
     5  C    4.562107   3.048301   2.500282   1.456299   0.000000
     6  C    4.926789   3.725016   2.427673   1.458268   2.503889
     7  N    6.192414   4.850884   3.670671   2.392064   2.655686
     8  N    7.147213   5.903253   4.638261   3.488715   3.904768
     9  N    8.376443   7.062919   5.852993   4.606422   4.702893
    10  H    1.093699   2.149066   3.397012   4.608491   5.064105
    11  H    1.096682   2.187982   2.902600   4.227397   5.078358
    12  H    1.096680   2.187984   2.902595   4.227394   5.078351
    13  H    2.215593   1.084658   2.103893   2.762967   2.793033
    14  H    2.727928   2.093737   1.089578   2.049366   3.414404
    15  H    4.088408   2.622420   2.598515   2.095719   1.089051
    16  H    5.278939   3.795073   3.222927   2.120326   1.095301
    17  H    5.278946   3.795075   3.222933   2.120326   1.095303
    18  H    5.043960   4.011632   2.721629   2.108195   3.235635
    19  H    5.043966   4.011635   2.721633   2.108194   3.235641
    20  H    9.164751   7.908593   6.654562   5.472139   5.676016
    21  H    8.563213   7.163585   6.056552   4.721842   4.501055
                    6          7          8          9         10
     6  C    0.000000
     7  N    1.459319   0.000000
     8  N    2.221274   1.249681   0.000000
     9  N    3.487582   2.215605   1.341700   0.000000
    10  H    5.824258   6.997952   8.027434   9.207562   0.000000
    11  H    5.150217   6.472433   7.341742   8.602186   1.755534
    12  H    5.150211   6.472425   7.341734   8.602176   1.755535
    13  H    4.191226   5.072693   6.234094   7.271888   2.362602
    14  H    2.476887   3.908575   4.641337   5.947668   3.772106
    15  H    3.417994   3.739776   4.987129   5.784823   4.382587
    16  H    2.815091   2.614679   3.797385   4.424334   5.760744
    17  H    2.815097   2.614683   3.797390   4.424339   5.760750
    18  H    1.100690   2.100082   2.502292   3.778257   5.997205
    19  H    1.100689   2.100082   2.502291   3.778258   5.997211
    20  H    4.238406   3.112114   2.017562   1.002685  10.039817
    21  H    3.854882   2.418498   2.033989   1.011163   9.308798
                   11         12         13         14         15
    11  H    0.000000
    12  H    1.771388   0.000000
    13  H    2.959034   2.959030   0.000000
    14  H    2.850906   2.850903   3.061757   0.000000
    15  H    4.704249   4.704244   2.021564   3.662957   0.000000
    16  H    5.912639   5.640453   3.508547   4.053116   1.762509
    17  H    5.640469   5.912639   3.508549   4.053123   1.762505
    18  H    5.332262   5.028849   4.603093   2.496884   4.065835
    19  H    5.028862   5.332261   4.603099   2.496885   4.065839
    20  H    9.340933   9.340923   8.184190   6.632735   6.762131
    21  H    8.857773   8.857763   7.220999   6.323413   5.538873
                   16         17         18         19         20
    16  H    0.000000
    17  H    1.775159   0.000000
    18  H    3.315038   3.760299   0.000000
    19  H    3.760297   3.315052   1.774667   0.000000
    20  H    5.401170   5.401176   4.395654   4.395655   0.000000
    21  H    4.121904   4.121908   4.276462   4.276465   1.769628
                   21
    21  H    0.000000
 Stoichiometry    C5H12N4
 Framework group  C1[X(C5H12N4)]
 Deg. of freedom    57
 Full point group                 C1      NOp   1
 Largest Abelian subgroup         C1      NOp   1
 Largest concise Abelian subgroup C1      NOp   1
                         Standard orientation:                         
 ---------------------------------------------------------------------
 Center     Atomic      Atomic             Coordinates (Angstroms)
 Number     Number       Type             X           Y           Z
 ---------------------------------------------------------------------
      1          6           0       -4.238632   -0.559717   -0.000006
      2          6           0       -2.932799    0.207496    0.000004
      3          6           0       -1.721782   -0.368845    0.000001
      4          7           0       -0.472847    0.211966    0.000008
      5          6           0       -0.247825    1.650774   -0.000002
      6          6           0        0.686874   -0.672111    0.000003
      7          7           0        1.917159    0.112753    0.000002
      8          7           0        2.908026   -0.648751    0.000000
      9          7           0        4.124182   -0.082073   -0.000004
     10          1           0       -5.080747    0.138153   -0.000008
     11          1           0       -4.359595   -1.195032    0.885688
     12          1           0       -4.359585   -1.195031   -0.885700
     13          1           0       -3.017310    1.288856   -0.000003
     14          1           0       -1.662429   -1.456805    0.000003
     15          1           0       -1.201297    2.177010    0.000001
     16          1           0        0.307591    1.972330   -0.887583
     17          1           0        0.307591    1.972341    0.887576
     18          1           0        0.667633   -1.323098   -0.887332
     19          1           0        0.667636   -1.323101    0.887335
     20          1           0        4.925261   -0.685107   -0.000007
     21          1           0        4.194598    0.926636   -0.000008
 ---------------------------------------------------------------------
 Rotational constants (GHZ):           6.3388600           0.5632818           0.5223991
 Standard basis: 6-31G(2df,p) (6D, 7F)
 There are   339 symmetry adapted cartesian basis functions of A   symmetry.
 There are   312 symmetry adapted basis functions of A   symmetry.
   312 basis functions,   480 primitive gaussians,   339 cartesian basis functions
    35 alpha electrons       35 beta electrons
       nuclear repulsion energy       438.4703900010 Hartrees.
 NAtoms=   21 NActive=   21 NUniq=   21 SFac= 1.00D+00 NAtFMM=   60 NAOKFM=F Big=F
 Integral buffers will be    131072 words long.
 Raffenetti 2 integral format.
 Two-electron integral symmetry is turned on.
 One-electron integrals computed using PRISM.
 PrsmSu:  requested number of processors reduced to:  13 ShMem   1 Linda.
 NBasis=   312 RedAO= T EigKep=  2.16D-04  NBF=   312
 NBsUse=   312 1.00D-06 EigRej= -1.00D+00 NBFU=   312
 Initial guess from the checkpoint file:  "CCdCNpCpCNdNN.chk"
 B after Tr=     0.000000    0.000000   -0.000000
         Rot=    1.000000    0.000000    0.000000    0.000473 Ang=   0.05 deg.
 ExpMin= 1.61D-01 ExpMax= 4.17D+03 ExpMxC= 6.27D+02 IAcc=2 IRadAn=         4 AccDes= 0.00D+00
 Harris functional with IExCor=  402 and IRadAn=       4 diagonalized for initial guess.
 HarFok:  IExCor=  402 AccDes= 0.00D+00 IRadAn=         4 IDoV= 1 UseB2=F ITyADJ=14
 ICtDFT=  3500011 ScaDFX=  1.000000  1.000000  1.000000  1.000000
 FoFCou: FMM=F IPFlag=           0 FMFlag=      100000 FMFlg1=           0
         NFxFlg=           0 DoJE=T BraDBF=F KetDBF=T FulRan=T
         wScrn=  0.000000 ICntrl=       500 IOpCl=  0 I1Cent=   200000004 NGrid=           0
         NMat0=    1 NMatS0=      1 NMatT0=    0 NMatD0=    1 NMtDS0=    0 NMtDT0=    0
 Petite list used in FoFCou.
 Requested convergence on RMS density matrix=1.00D-08 within 128 cycles.
 Requested convergence on MAX density matrix=1.00D-06.
 Requested convergence on             energy=1.00D-06.
 No special actions if energy rises.
 Integral accuracy reduced to 1.0D-05 until final iterations.
 Initial convergence to 1.0D-05 achieved.  Increase integral accuracy.
 SCF Done:  E(RB3LYP) =  -416.686518591     A.U. after   13 cycles
            NFock= 13  Conv=0.38D-08     -V/T= 2.0080
 PrsmSu:  requested number of processors reduced to:  13 ShMem   1 Linda.
 Calling FoFJK, ICntrl=      2127 FMM=F ISym2X=0 I1Cent= 0 IOpClX= 0 NMat=1 NMatS=1 NMatT=0.
 ***** Axes restored to original set *****
 -------------------------------------------------------------------
 Center     Atomic                   Forces (Hartrees/Bohr)
 Number     Number              X              Y              Z
 -------------------------------------------------------------------
      1        6           0.002711634   -0.000847463   -0.000508054
      2        6          -0.001868573   -0.001616611   -0.000964689
      3        6           0.000756664   -0.000140179   -0.000084761
      4        7           0.008952604   -0.002744736   -0.001640031
      5        6          -0.004514008    0.000024744    0.000013023
      6        6          -0.007417408   -0.002247731   -0.001343065
      7        7           0.016444741    0.003586680    0.002143626
      8        7           0.003153458    0.013065699    0.007808450
      9        7          -0.015888921   -0.013683393   -0.008177723
     10        1          -0.000370504    0.000009214    0.000005697
     11        1          -0.000394006    0.000828500    0.000751125
     12        1          -0.000394152    0.001053763    0.000374714
     13        1           0.000028713   -0.000094276   -0.000056737
     14        1          -0.000544880    0.000310580    0.000185757
     15        1          -0.002237585    0.001080571    0.000646293
     16        1           0.000952149    0.000506790   -0.000594603
     17        1           0.000951860   -0.000283705    0.000729103
     18        1          -0.000062178    0.000657186    0.000585508
     19        1          -0.000062261    0.000827243    0.000301366
     20        1          -0.003481585    0.000117470    0.000070220
     21        1           0.003284237   -0.000410346   -0.000245218
 -------------------------------------------------------------------
 Cartesian Forces:  Max     0.016444741 RMS     0.004476399

 GradGradGradGradGradGradGradGradGradGradGradGradGradGradGradGradGradGrad
 Berny optimization.
 Using GEDIIS/GDIIS optimizer.
 FormGI is forming the generalized inverse of G from B-inverse, IUseBI=4.
 Internal  Forces:  Max     0.031396716 RMS     0.004377967
 Search for a local minimum.
 Step number   2 out of a maximum of   95
 All quantities printed in internal units (Hartrees-Bohrs-Radians)
 Mixed Optimization -- RFO/linear search
 Update second derivatives using D2CorX and points    1    2
 DE= -9.87D-03 DEPred=-1.32D-02 R= 7.50D-01
 TightC=F SS=  1.41D+00  RLast= 3.03D-01 DXNew= 5.0454D-01 9.0918D-01
 Trust test= 7.50D-01 RLast= 3.03D-01 DXMaxT set to 5.05D-01
 ITU=  1  0
 Use linear search instead of GDIIS.
     Eigenvalues ---    0.00525   0.00529   0.00878   0.00913   0.01002
     Eigenvalues ---    0.01250   0.01702   0.01826   0.02090   0.02342
     Eigenvalues ---    0.02803   0.03380   0.06039   0.06902   0.07166
     Eigenvalues ---    0.07239   0.07361   0.07401   0.11295   0.13901
     Eigenvalues ---    0.14412   0.16000   0.16000   0.16000   0.16000
     Eigenvalues ---    0.16000   0.16000   0.16000   0.16000   0.16145
     Eigenvalues ---    0.20199   0.22000   0.22105   0.23380   0.25000
     Eigenvalues ---    0.25000   0.32060   0.33595   0.33625   0.33883
     Eigenvalues ---    0.33891   0.33955   0.34327   0.34329   0.34491
     Eigenvalues ---    0.34503   0.34698   0.34877   0.35711   0.36564
     Eigenvalues ---    0.40677   0.45428   0.45554   0.47369   0.55849
     Eigenvalues ---    0.60030   0.87174
 RFO step:  Lambda=-3.84430301D-03 EMin= 5.25145465D-03
 Quartic linear search produced a step of -0.14449.
 Iteration  1 RMS(Cart)=  0.04645462 RMS(Int)=  0.00061331
 Iteration  2 RMS(Cart)=  0.00152233 RMS(Int)=  0.00002096
 Iteration  3 RMS(Cart)=  0.00000017 RMS(Int)=  0.00002096
 Variable       Old X    -DE/DX   Delta X   Delta X   Delta X     New X
                                 (Linear)    (Quad)   (Total)
    R1        2.86206  -0.00139  -0.00700   0.01122   0.00423   2.86628
    R2        2.06679   0.00016   0.00105  -0.00181  -0.00076   2.06603
    R3        2.07243   0.00049  -0.00109   0.00348   0.00239   2.07482
    R4        2.07243   0.00049  -0.00109   0.00349   0.00240   2.07482
    R5        2.53444   0.00077   0.00133  -0.00162  -0.00029   2.53415
    R6        2.04971   0.00011  -0.00063   0.00160   0.00097   2.05067
    R7        2.60287   0.00006   0.00340  -0.00703  -0.00363   2.59924
    R8        2.05900   0.00053  -0.00004   0.00137   0.00133   2.06033
    R9        2.75201  -0.00390   0.00142  -0.01193  -0.01051   2.74149
   R10        2.75573  -0.00003   0.00817  -0.01726  -0.00909   2.74663
   R11        2.05801   0.00037   0.00052  -0.00020   0.00033   2.05834
   R12        2.06982  -0.00008  -0.00029   0.00042   0.00013   2.06995
   R13        2.06982  -0.00008  -0.00029   0.00042   0.00012   2.06995
   R14        2.75771   0.00297   0.00781  -0.00898  -0.00117   2.75654
   R15        2.08000   0.00061  -0.00070   0.00300   0.00230   2.08230
   R16        2.08000   0.00061  -0.00070   0.00300   0.00230   2.08230
   R17        2.36156  -0.00721  -0.00199  -0.00293  -0.00493   2.35663
   R18        2.53545  -0.01562  -0.00049  -0.02211  -0.02260   2.51285
   R19        1.89480  -0.00160   0.00268  -0.00860  -0.00593   1.88887
   R20        1.91082   0.00193   0.00058   0.00238   0.00296   1.91378
    A1        1.91839   0.00070  -0.00258   0.01151   0.00893   1.92732
    A2        1.96986   0.00015  -0.00408   0.00805   0.00398   1.97384
    A3        1.96986   0.00015  -0.00408   0.00804   0.00398   1.97384
    A4        1.85951   0.00000   0.00221  -0.00243  -0.00021   1.85930
    A5        1.85951   0.00000   0.00221  -0.00243  -0.00021   1.85930
    A6        1.88019  -0.00105   0.00687  -0.02427  -0.01738   1.86281
    A7        2.16620  -0.00361   0.00540  -0.02514  -0.01974   2.14646
    A8        2.02400   0.00180  -0.00634   0.02021   0.01387   2.03787
    A9        2.09298   0.00181   0.00094   0.00493   0.00587   2.09885
   A10        2.26210   0.00285  -0.00625   0.02403   0.01779   2.27989
   A11        2.06949  -0.00182   0.00175  -0.01118  -0.00943   2.06006
   A12        1.95159  -0.00103   0.00450  -0.01285  -0.00835   1.94324
   A13        2.16123  -0.00376  -0.00235  -0.00769  -0.01004   2.15119
   A14        2.05496  -0.00613   0.01420  -0.05051  -0.03631   2.01865
   A15        2.06700   0.00989  -0.01184   0.05820   0.04635   2.11335
   A16        1.91997  -0.00370   0.00989  -0.03992  -0.03003   1.88994
   A17        1.94810   0.00103  -0.00406   0.01393   0.00987   1.95796
   A18        1.94809   0.00103  -0.00407   0.01393   0.00987   1.95796
   A19        1.87770   0.00145  -0.00299   0.01408   0.01109   1.88878
   A20        1.87769   0.00145  -0.00299   0.01408   0.01109   1.88878
   A21        1.88950  -0.00121   0.00430  -0.01562  -0.01131   1.87819
   A22        1.92239   0.00264   0.01337  -0.01683  -0.00348   1.91891
   A23        1.92267  -0.00024  -0.00442   0.01000   0.00564   1.92831
   A24        1.92267  -0.00024  -0.00442   0.01000   0.00564   1.92831
   A25        1.91010  -0.00096  -0.00242   0.00162  -0.00082   1.90928
   A26        1.91010  -0.00096  -0.00242   0.00162  -0.00082   1.90928
   A27        1.87527  -0.00035  -0.00027  -0.00611  -0.00627   1.86900
   A28        1.91848   0.00592   0.01085  -0.00295   0.00791   1.92639
   A29        2.05030  -0.03140  -0.02364  -0.05575  -0.07939   1.97091
   A30        2.06027  -0.00562   0.00308  -0.03579  -0.03271   2.02756
   A31        2.07654   0.00539  -0.00057   0.02927   0.02870   2.10523
   A32        2.14638   0.00024  -0.00251   0.00652   0.00401   2.15039
    D1       -3.14159   0.00000   0.00000  -0.00000  -0.00000  -3.14159
    D2       -0.00001   0.00000  -0.00000   0.00001   0.00001  -0.00000
    D3        1.06851  -0.00058   0.00146  -0.00996  -0.00850   1.06001
    D4       -2.07310  -0.00058   0.00146  -0.00995  -0.00849  -2.08159
    D5       -1.06849   0.00058  -0.00146   0.00995   0.00849  -1.06000
    D6        2.07308   0.00058  -0.00146   0.00996   0.00850   2.08158
    D7        3.14159  -0.00000   0.00000   0.00000   0.00000   3.14159
    D8       -0.00001   0.00000  -0.00000   0.00001   0.00001  -0.00000
    D9        0.00002  -0.00000   0.00000  -0.00001  -0.00001   0.00001
   D10       -3.14159  -0.00000   0.00000  -0.00000  -0.00000  -3.14159
   D11       -0.00002   0.00000  -0.00000   0.00001   0.00000  -0.00001
   D12        3.14159   0.00000  -0.00000   0.00001   0.00001  -3.14159
   D13        3.14159  -0.00000   0.00000  -0.00000  -0.00000   3.14158
   D14        0.00001  -0.00000   0.00000  -0.00000  -0.00000   0.00001
   D15        0.00002  -0.00000   0.00000  -0.00000  -0.00000   0.00001
   D16       -2.08300  -0.00005  -0.00003  -0.00022  -0.00026  -2.08326
   D17        2.08302   0.00005   0.00003   0.00023   0.00026   2.08328
   D18        3.14159  -0.00000   0.00000  -0.00000  -0.00000   3.14159
   D19        1.05857  -0.00005  -0.00003  -0.00022  -0.00026   1.05832
   D20       -1.05859   0.00005   0.00003   0.00023   0.00026  -1.05833
   D21        3.14159   0.00000   0.00000   0.00000   0.00000   3.14159
   D22        1.03288  -0.00036  -0.00270   0.00240  -0.00036   1.03251
   D23       -1.03289   0.00036   0.00270  -0.00239   0.00037  -1.03252
   D24        0.00001   0.00000  -0.00000   0.00000   0.00000   0.00001
   D25       -2.10870  -0.00036  -0.00270   0.00240  -0.00036  -2.10906
   D26        2.10872   0.00036   0.00270  -0.00239   0.00037   2.10909
   D27        3.14159  -0.00000  -0.00000  -0.00000  -0.00000   3.14159
   D28       -1.02536   0.00077   0.00152   0.00275   0.00426  -1.02111
   D29        1.02536  -0.00077  -0.00152  -0.00276  -0.00426   1.02110
   D30        3.14159   0.00000   0.00000   0.00000   0.00000  -3.14159
   D31       -3.14159   0.00000  -0.00000   0.00000   0.00000  -3.14159
   D32       -0.00000   0.00000  -0.00000   0.00000   0.00000  -0.00000
   D33        3.14159  -0.00000   0.00000  -0.00000  -0.00000   3.14159
         Item               Value     Threshold  Converged?
 Maximum Force            0.031397     0.000450     NO 
 RMS     Force            0.004378     0.000300     NO 
 Maximum Displacement     0.146144     0.001800     NO 
 RMS     Displacement     0.047251     0.001200     NO 
 Predicted change in Energy=-2.257410D-03
 GradGradGradGradGradGradGradGradGradGradGradGradGradGradGradGradGradGrad

                          Input orientation:                          
 ---------------------------------------------------------------------
 Center     Atomic      Atomic             Coordinates (Angstroms)
 Number     Number       Type             X           Y           Z
 ---------------------------------------------------------------------
      1          6           0        0.966197    0.291791    0.089514
      2          6           0        2.464173    0.087463   -0.032604
      3          6           0        3.361704    0.942740    0.478530
      4          7           0        4.736761    0.914218    0.461480
      5          6           0        5.502735   -0.143358   -0.170542
      6          6           0        5.397616    2.025427    1.125574
      7          7           0        6.845135    1.870693    1.033101
      8          7           0        7.420441    2.820455    1.600704
      9          7           0        8.745996    2.729949    1.546612
     10          1           0        0.428553   -0.525368   -0.398838
     11          1           0        0.618379    1.220351   -0.381960
     12          1           0        0.618386    0.316394    1.130626
     13          1           0        2.794680   -0.799783   -0.562841
     14          1           0        2.989612    1.822437    1.004259
     15          1           0        4.804859   -0.861220   -0.599557
     16          1           0        6.143462   -0.672925    0.542804
     17          1           0        6.143474    0.234035   -0.974818
     18          1           0        5.101625    2.072117    2.185954
     19          1           0        5.101626    2.981426    0.664433
     20          1           0        9.256586    3.467562    1.987434
     21          1           0        9.191109    1.949098    1.079956
 ---------------------------------------------------------------------
                    Distance matrix (angstroms):
                    1          2          3          4          5
     1  C    0.000000
     2  C    1.516771   0.000000
     3  C    2.512672   1.341013   0.000000
     4  N    3.839652   2.468258   1.375459   0.000000
     5  C    4.564774   3.050437   2.486950   1.450736   0.000000
     6  C    4.869947   3.701644   2.394957   1.453457   2.528753
     7  N    6.159967   4.848553   3.647320   2.384709   2.703183
     8  N    7.094723   5.890800   4.610687   3.483347   3.949568
     9  N    8.282091   6.995567   5.772826   4.533030   4.660821
    10  H    1.093297   2.157183   3.395362   4.623117   5.093660
    11  H    1.097948   2.193728   2.888485   4.214995   5.075563
    12  H    1.097949   2.193728   2.888482   4.214992   5.075556
    13  H    2.227207   1.085169   2.107689   2.785446   2.813957
    14  H    2.697006   2.088374   1.090280   2.042548   3.400044
    15  H    4.066888   2.588483   2.549361   2.069448   1.089225
    16  H    5.285851   3.800849   3.217559   2.122367   1.095369
    17  H    5.285862   3.800856   3.217566   2.122367   1.095368
    18  H    4.966527   3.977060   2.686656   2.108950   3.259186
    19  H    4.966532   3.977064   2.686658   2.108949   3.259194
    20  H    9.078446   7.851274   6.587956   5.410816   5.637996
    21  H    8.448480   7.067895   5.946128   4.614619   4.421111
                    6          7          8          9         10
     6  C    0.000000
     7  N    1.458700   0.000000
     8  N    2.224778   1.247075   0.000000
     9  N    3.447503   2.148322   1.329742   0.000000
    10  H    5.789816   6.997434   8.004948   9.141210   0.000000
    11  H    5.075620   6.418554   7.263562   8.488607   1.756090
    12  H    5.075614   6.418548   7.263555   8.488600   1.756093
    13  H    4.196169   5.107314   6.259769   7.233738   2.387626
    14  H    2.419588   3.855933   4.580833   5.852665   3.746984
    15  H    3.414699   3.780430   5.023659   5.747617   4.393761
    16  H    2.859547   2.683790   3.866979   4.400042   5.793845
    17  H    2.859551   2.683788   3.866979   4.400036   5.793856
    18  H    1.101906   2.099873   2.505879   3.758050   5.938492
    19  H    1.101906   2.099873   2.505876   3.758047   5.938498
    20  H    4.208825   3.045626   1.984878   0.999549   9.978575
    21  H    3.794535   2.347751   2.041006   1.012730   9.224543
                   11         12         13         14         15
    11  H    0.000000
    12  H    1.762116   0.000000
    13  H    2.974886   2.974884   0.000000
    14  H    2.811914   2.811911   3.061019   0.000000
    15  H    4.680481   4.680477   2.011452   3.615158   0.000000
    16  H    5.913225   5.643647   3.528864   4.048030   1.769831
    17  H    5.643667   5.913228   3.528870   4.048038   1.769829
    18  H    5.236334   4.929068   4.596268   2.432971   4.056059
    19  H    4.929080   5.236332   4.596275   2.432970   4.056066
    20  H    9.234859   9.234851   8.152936   6.553475   6.726720
    21  H    8.726968   8.726962   7.153281   6.203253   5.473376
                   16         17         18         19         20
    16  H    0.000000
    17  H    1.767980   0.000000
    18  H    3.364613   3.801904   0.000000
    19  H    3.801907   3.364632   1.772532   0.000000
    20  H    5.377930   5.377927   4.387525   4.387523   0.000000
    21  H    4.056068   4.056059   4.238188   4.238187   1.770180
                   21
    21  H    0.000000
 Stoichiometry    C5H12N4
 Framework group  C1[X(C5H12N4)]
 Deg. of freedom    57
 Full point group                 C1      NOp   1
 Largest Abelian subgroup         C1      NOp   1
 Largest concise Abelian subgroup C1      NOp   1
                         Standard orientation:                         
 ---------------------------------------------------------------------
 Center     Atomic      Atomic             Coordinates (Angstroms)
 Number     Number       Type             X           Y           Z
 ---------------------------------------------------------------------
      1          6           0       -4.197310   -0.603254   -0.000003
      2          6           0       -2.921910    0.217689    0.000003
      3          6           0       -1.699209   -0.333055    0.000003
      4          7           0       -0.453876    0.250924    0.000007
      5          6           0       -0.248698    1.687078   -0.000003
      6          6           0        0.672206   -0.668029   -0.000001
      7          7           0        1.924679    0.079711   -0.000000
      8          7           0        2.896732   -0.701512   -0.000002
      9          7           0        4.067683   -0.071362    0.000001
     10          1           0       -5.072699    0.051721   -0.000005
     11          1           0       -4.292189   -1.251504    0.881053
     12          1           0       -4.292181   -1.251502   -0.881063
     13          1           0       -3.035473    1.296899    0.000001
     14          1           0       -1.627251   -1.420959    0.000002
     15          1           0       -1.224193    2.171660    0.000001
     16          1           0        0.302134    2.026150   -0.883998
     17          1           0        0.302143    2.026161    0.883982
     18          1           0        0.636383   -1.321819   -0.886269
     19          1           0        0.636387   -1.321827    0.886263
     20          1           0        4.881002   -0.652405   -0.000004
     21          1           0        4.108925    0.940528    0.000002
 ---------------------------------------------------------------------
 Rotational constants (GHZ):           6.0793621           0.5733982           0.5291597
 Standard basis: 6-31G(2df,p) (6D, 7F)
 There are   339 symmetry adapted cartesian basis functions of A   symmetry.
 There are   312 symmetry adapted basis functions of A   symmetry.
   312 basis functions,   480 primitive gaussians,   339 cartesian basis functions
    35 alpha electrons       35 beta electrons
       nuclear repulsion energy       439.8838378749 Hartrees.
 NAtoms=   21 NActive=   21 NUniq=   21 SFac= 1.00D+00 NAtFMM=   60 NAOKFM=F Big=F
 Integral buffers will be    131072 words long.
 Raffenetti 2 integral format.
 Two-electron integral symmetry is turned on.
 One-electron integrals computed using PRISM.
 PrsmSu:  requested number of processors reduced to:  13 ShMem   1 Linda.
 NBasis=   312 RedAO= T EigKep=  2.15D-04  NBF=   312
 NBsUse=   312 1.00D-06 EigRej= -1.00D+00 NBFU=   312
 Initial guess from the checkpoint file:  "CCdCNpCpCNdNN.chk"
 B after Tr=     0.000000    0.000000    0.000000
         Rot=    1.000000   -0.000000   -0.000000   -0.000518 Ang=  -0.06 deg.
 ExpMin= 1.61D-01 ExpMax= 4.17D+03 ExpMxC= 6.27D+02 IAcc=2 IRadAn=         4 AccDes= 0.00D+00
 Harris functional with IExCor=  402 and IRadAn=       4 diagonalized for initial guess.
 HarFok:  IExCor=  402 AccDes= 0.00D+00 IRadAn=         4 IDoV= 1 UseB2=F ITyADJ=14
 ICtDFT=  3500011 ScaDFX=  1.000000  1.000000  1.000000  1.000000
 FoFCou: FMM=F IPFlag=           0 FMFlag=      100000 FMFlg1=           0
         NFxFlg=           0 DoJE=T BraDBF=F KetDBF=T FulRan=T
         wScrn=  0.000000 ICntrl=       500 IOpCl=  0 I1Cent=   200000004 NGrid=           0
         NMat0=    1 NMatS0=      1 NMatT0=    0 NMatD0=    1 NMtDS0=    0 NMtDT0=    0
 Petite list used in FoFCou.
 Requested convergence on RMS density matrix=1.00D-08 within 128 cycles.
 Requested convergence on MAX density matrix=1.00D-06.
 Requested convergence on             energy=1.00D-06.
 No special actions if energy rises.
 Integral accuracy reduced to 1.0D-05 until final iterations.
 Initial convergence to 1.0D-05 achieved.  Increase integral accuracy.
 SCF Done:  E(RB3LYP) =  -416.688254188     A.U. after   11 cycles
            NFock= 11  Conv=0.91D-08     -V/T= 2.0078
 PrsmSu:  requested number of processors reduced to:  13 ShMem   1 Linda.
 Calling FoFJK, ICntrl=      2127 FMM=F ISym2X=0 I1Cent= 0 IOpClX= 0 NMat=1 NMatS=1 NMatT=0.
 ***** Axes restored to original set *****
 -------------------------------------------------------------------
 Center     Atomic                   Forces (Hartrees/Bohr)
 Number     Number              X              Y              Z
 -------------------------------------------------------------------
      1        6           0.001653167   -0.000238168   -0.000141948
      2        6          -0.002591395   -0.000478960   -0.000285757
      3        6          -0.002115255    0.000014523    0.000008402
      4        7           0.002236706    0.000342918    0.000204763
      5        6          -0.002328808    0.000953510    0.000570288
      6        6          -0.000651636   -0.002145417   -0.001282245
      7        7          -0.004141031    0.000576736    0.000344529
      8        7           0.005694086   -0.002253451   -0.001346768
      9        7           0.001310816    0.002399189    0.001433765
[...]
 14393,-0.00024007,-0.00051744,-0.00004545,0.00008451,0.00014900,0.0000
 7300,-0.00017347,-0.00002219,-0.00001767,0.00017916,0.00000260,-0.0000
 0554,0.00667620,-0.02120013,0.01190151,-0.06975200,0.24910123,-0.03191
 817,0.09413802,-0.09366785,0.00072373,-0.00514843,0.00273638,0.0000949
 7,0.00004744,0.00145791,-0.00081177,-0.00017338,-0.00027761,0.00010758
 ,-0.00011169,-0.00012740,0.00008505,0.00027355,0.00009271,-0.00000753,
 -0.00004319,-0.00001575,0.00004121,0.00000627,0.00000295,-0.00003955,-
 0.00000250,0.00000139,0.00505771,-0.01352348,0.00693584,0.03373705,-0.
 10423541,0.09831269,-0.06356231,0.00033204,0.07145024,-0.01639734,0.00
 104331,0.02649302,0.00475739,0.00330888,0.00191675,-0.00369747,0.00009
 389,-0.00130425,0.00031143,-0.00054950,-0.00018433,0.00052454,0.001252
 59,0.00031907,-0.00013616,-0.00024744,-0.00013456,0.00032162,0.0000469
 5,0.00002283,-0.00031681,0.00000322,-0.00000615,0.00432786,0.00083450,
 -0.01518982,0.00231375,-0.00090071,-0.00763240,0.07488270,0.00059073,-
 0.04570227,-0.00462041,0.00248836,-0.00066020,-0.00463381,-0.00113166,
 0.00082556,-0.00017921,-0.00016931,-0.00023651,0.00007688,0.00003624,-
 0.00013428,0.00013115,-0.00003865,0.00005099,-0.00003228,0.00003324,0.
 00003350,0.00001931,-0.00004575,-0.00000723,-0.00000199,0.00005005,-0.
 00000176,0.,0.00761712,-0.00005390,-0.02489670,-0.00714914,0.00072069,
 0.02890355,-0.00332882,0.04517819,0.06848508,-0.00495873,-0.27727968,0
 .00309762,-0.00116665,0.00369414,-0.00230416,-0.00122339,0.00103617,0.
 00139868,0.00025060,0.00018757,-0.00015942,0.00009899,0.00032396,-0.00
 025210,-0.00035118,-0.00047554,0.00007859,0.00013559,0.00009988,-0.000
 17167,-0.00002625,-0.00001207,0.00017573,-0.00000306,0.00000581,0.0034
 8416,0.00052769,-0.01421084,0.00282245,-0.00029977,-0.01466394,-0.0774
 1549,0.00544589,0.30223264,-0.00897771,0.02179098,0.01302276,-0.076290
 69,0.06828097,0.04080493,0.01006135,-0.01709207,-0.01021439,0.00019045
 ,0.00120494,0.00072049,-0.00171121,-0.00092446,-0.00055287,0.00013505,
 0.00001459,0.00000849,-0.00015820,0.00003484,0.00002166,0.00012373,0.0
 0001981,0.00001124,-0.00005653,-0.00000660,-0.00000372,0.00151593,-0.0
 0013162,-0.00007874,-0.00317464,0.00085478,0.00087103,-0.00317461,0.00
 117208,0.00034006,0.08667191,-0.00149687,-0.00082553,-0.00162863,0.065
 23531,-0.23318527,-0.12294368,0.00963684,-0.01506324,-0.01160536,0.001
 26892,-0.00055758,0.00217508,0.00061361,-0.00127964,0.00028679,-0.0001
 6386,-0.00031035,0.00029439,0.00000688,0.00010075,0.00002590,-0.000034
 08,0.00008771,0.00007893,-0.00006131,-0.00001884,-0.00001023,-0.000003
 97,0.00131305,0.00033587,0.00098287,-0.00001572,0.00007693,-0.00036431
 ,-0.00021053,0.00101756,-0.07304567,0.24661161,-0.00089480,-0.00162783
 ,0.00092594,0.03898482,-0.12294373,-0.10093175,0.00575936,-0.01160550,
 -0.00257914,0.00075821,0.00217550,-0.00289794,0.00036672,0.00028610,-0
 .00158721,-0.00009792,0.00029389,-0.00062619,0.00000417,0.00002733,0.0
 0007073,-0.00002043,0.00007813,0.00000415,-0.00003667,-0.00001002,-0.0
 0000840,-0.00000242,0.00033561,0.00095189,-0.00094214,0.00091267,-0.00
 079910,0.00131174,0.00018166,-0.00060408,-0.04365225,0.13726210,0.0989
 5560,0.00108442,-0.00074356,-0.00044432,0.00904217,-0.01569199,-0.0093
 7780,-0.08623294,0.06797982,0.04062543,-0.01950319,0.03012834,0.018004
 95,-0.00390147,-0.00243415,-0.00145474,-0.00084318,0.00271774,0.001623
 93,0.00035166,-0.00017424,-0.00010406,-0.00034283,-0.00027615,-0.00016
 501,0.00034514,0.00003398,0.00002029,-0.00005416,0.00013379,0.00007996
 ,0.00010608,0.00018990,-0.00027389,0.00010606,-0.00015126,0.00029703,-
 0.00219099,-0.00297237,-0.00177650,0.10366401,0.00118763,-0.00047819,0
 .00282482,0.00866278,-0.01511187,-0.01308489,0.07413085,-0.22173451,-0
 .10755700,0.00236378,-0.00130470,-0.00195013,-0.00056286,0.00231821,-0
 .00093199,-0.00274836,-0.00054248,-0.00083680,-0.00014831,0.00026486,0
 .00035067,0.00006993,0.00004736,0.00005592,0.00000649,-0.00002486,-0.0
 0001926,0.00006626,0.00022098,0.00033755,-0.00021123,-0.00022462,-0.00
 018253,-0.00119029,0.00013484,0.00055624,-0.00265580,0.00097899,-0.005
 68812,-0.07909460,0.23496317,0.00070974,0.00282496,-0.00351704,0.00517
 719,-0.01308518,-0.00103620,0.04430110,-0.10755726,-0.10603463,0.00141
 250,-0.00194961,0.00079295,-0.00033649,-0.00093249,0.00332159,-0.00164
 242,-0.00083694,0.00035768,-0.00008879,0.00035101,-0.00011388,0.000041
 44,0.00005575,-0.00001186,0.00000424,-0.00001919,-0.00000457,0.0000397
 1,0.00033751,-0.00014192,-0.00123779,0.00074952,-0.00006617,0.00040033
 ,-0.00037594,-0.00042553,-0.00158736,-0.00568790,0.00709734,-0.0472674
 1,0.12507387,0.10042008,-0.00021775,-0.00001255,-0.00000734,-0.0025116
 3,0.00117574,0.00070258,0.00089122,-0.00016384,-0.00009790,0.01303884,
 0.01625742,0.00971670,-0.16418318,-0.12064113,-0.07210474,-0.00286292,
 0.00240250,0.00143564,-0.00107652,-0.00125999,-0.00075277,0.00086993,-
 0.00050771,-0.00030352,-0.00023583,0.00008347,0.00004991,0.00001196,0.
 00002022,0.00001203,0.00004775,-0.00002297,-0.00003518,0.00004779,-0.0
 0004186,-0.00000369,-0.00343589,0.00025391,0.00015189,0.00018713,-0.00
 025007,-0.00014944,0.18018010,-0.00001280,0.00022864,0.00038311,-0.000
 17874,0.00061809,0.00065028,-0.00390668,-0.00004410,-0.00079555,-0.013
 57342,-0.02319254,-0.01336157,-0.10968902,-0.16332727,-0.06915464,0.00
 349855,-0.00106495,-0.00039193,0.00058162,0.00041854,-0.00046348,0.000
 06241,-0.00000864,0.00027863,-0.00034793,0.00008193,-0.00007739,0.0000
 3477,-0.00000980,-0.00001996,-0.00003044,0.00000966,0.00001891,-0.0001
 2078,0.00005431,-0.00000728,0.00015536,0.00143960,0.00000504,-0.000105
 32,0.00010371,0.00001457,0.12318949,0.18157836,-0.00000771,0.00038280,
 -0.00018311,-0.00010684,0.00065034,-0.00008153,-0.00233470,-0.00079527
 ,0.00081144,-0.00811109,-0.01336044,-0.00882115,-0.06555931,-0.0691549
 3,-0.08895419,0.00209105,-0.00039219,-0.00064263,0.00034745,-0.0004633
 2,0.00091672,0.00003706,0.00027870,-0.00030783,-0.00020770,-0.00007736
 ,0.00016507,0.00002079,-0.00001985,0.00001163,-0.00012078,0.00001688,0
 .00004798,0.00003032,-0.00000508,0.00000327,0.00009294,0.00000496,0.00
 143424,-0.00006294,0.00001446,0.00008807,0.07362805,0.08228104,0.09308
 670,0.00014557,0.00023441,-0.00029032,-0.00052453,-0.00072783,0.000174
 08,0.00275721,0.00288183,-0.00083313,-0.01647816,0.01434878,-0.0045903
 8,-0.12958454,0.06475387,-0.09895252,-0.00114741,-0.00108312,-0.000306
 15,-0.00002056,-0.00125937,0.00018833,-0.00002282,-0.00000914,-0.00022
 555,0.00008895,-0.00001445,0.00009402,-0.00006707,-0.00003711,-0.00001
 293,-0.00022895,0.00002662,0.00001017,-0.00005153,0.00002783,0.0000709
 0,0.00019418,-0.00000118,0.00013023,-0.00060822,-0.00002998,0.00038299
 ,-0.01069170,0.00950438,-0.01453733,0.14575872,-0.00029069,0.00027563,
 -0.00018397,0.00075615,0.00076883,0.00087449,-0.00516164,-0.00377941,0
 .00084136,0.02593242,-0.01716988,0.00445829,0.06293501,-0.09672802,0.0
 7847450,0.00179986,0.00158757,0.00165561,-0.00014329,0.00013738,-0.001
 07755,-0.00109100,0.00004975,0.00043721,0.00040748,-0.00004689,-0.0002
 3644,0.00008335,0.00002944,0.00001002,0.00010227,-0.00000397,0.0000474
 9,0.00021270,-0.00003412,-0.00013772,0.00011088,0.00010268,0.00055230,
 0.00064471,0.00007634,-0.00043279,-0.01163034,0.01166609,-0.01483942,-
 0.08051100,0.10937457,-0.00002567,0.00020223,-0.00014506,0.00012012,0.
 00021638,0.00005687,-0.00036724,-0.00221044,-0.00026703,0.01434287,-0.
 01000406,0.01623459,-0.10047539,0.08013291,-0.16914335,-0.00084160,0.0
 0036228,0.00097845,-0.00084932,-0.00182060,0.00005181,0.00031234,-0.00
 039694,-0.00064832,-0.00007005,-0.00000663,0.00017622,0.00001778,0.000
 00555,0.00000133,-0.00003166,0.00002422,0.00001477,0.00002779,-0.00002
 086,-0.00001928,0.00002925,0.00005018,0.00039429,0.00047007,0.00014611
 ,-0.00051983,-0.00483031,0.00571680,-0.00813034,0.10577151,-0.08266725
 ,0.17821405,0.00014579,-0.00014498,0.00034389,-0.00052438,-0.00019122,
 -0.00072328,0.00275667,0.00063142,0.00293293,-0.01647910,0.00275470,0.
 01480949,-0.12960428,-0.05648045,0.10390723,-0.00114703,-0.00078261,-0
 .00080885,-0.00002127,-0.00043115,-0.00119867,-0.00002276,-0.00020313,
 0.00009871,0.00008927,0.00007624,-0.00005718,-0.00006718,-0.00002884,-
 0.00002653,-0.00005167,0.00007564,-0.00000900,-0.00022910,0.00002169,0
 .00001860,0.00019430,0.00011413,-0.00006276,-0.00060829,0.00032299,-0.
 00020792,-0.01069281,-0.00830076,0.01525534,0.01017657,0.00652375,-0.0
 1395431,0.14578121,-0.00015990,-0.00004295,0.00037360,0.00046395,0.000
 67145,0.00026851,-0.00276842,-0.00162691,-0.00336892,0.02491741,0.0064
 2534,-0.02269348,-0.05868381,-0.08672800,0.07475076,0.00011169,0.00195
 690,0.00016385,-0.00081622,-0.00113846,-0.00113479,-0.00024169,-0.0004
 7516,-0.00011481,0.00013159,0.00002489,-0.00004518,0.00005518,0.000014
 15,0.00001379,0.00012526,-0.00008884,0.00000857,0.00002057,0.00004050,
 0.00000028,0.00007811,0.00058054,-0.00020642,0.00071940,-0.00050541,0.
 00045922,-0.00976388,-0.00749379,0.01602020,-0.00920088,-0.00536005,0.
 00980923,0.05502273,0.09379603,-0.00024427,-0.00001236,0.00017372,0.00
 060874,0.00092670,0.00015395,-0.00437118,-0.00031659,-0.00242015,0.016
 04391,-0.00823222,-0.00735968,0.10302611,0.07309137,-0.17912646,0.0019
 8336,0.00145674,0.00060913,0.00027667,-0.00039149,0.00132668,-0.001109
 08,0.00071958,-0.00012311,0.00039196,-0.00027524,0.00010426,0.00006506
 ,0.00001818,0.00001663,0.00017421,-0.00010830,0.00003527,0.00010511,0.
 00002346,-0.00002962,0.00008384,0.00029526,-0.00008337,0.00034520,-0.0
 0011984,0.00006220,-0.00795656,-0.00453472,0.01103092,0.01235733,0.012
 19308,-0.01719351,-0.12101361,-0.07428327,0.19377411,0.00009068,-0.000
 25538,0.00025684,-0.00076426,-0.00023626,-0.00013390,0.00357124,-0.000
 54333,-0.00044900,0.00269518,-0.00800403,-0.01507251,-0.00176767,0.001
 13311,-0.00117141,-0.06212099,0.00241481,0.05743103,-0.02588087,-0.001
 79182,0.02869301,0.00634078,0.00298614,0.00730627,-0.00403314,0.000410
 58,-0.00243780,-0.00001121,-0.00000714,0.00000897,0.00003568,0.0000059
 7,-0.00001602,-0.00007998,0.00003369,0.00003301,0.00004105,0.00029783,
 -0.00044262,-0.00030879,0.00000427,0.00008627,0.00027329,-0.00036215,-
 0.00022891,0.00006124,-0.00006786,0.00027059,0.00025098,-0.00018135,-0
 .00044463,0.07537159,0.00021203,-0.00012625,0.00023628,-0.00108864,-0.
 00076436,0.00000027,0.00424735,0.00040877,-0.00039186,-0.00008985,-0.0
 1003464,-0.03334871,-0.00314313,0.00108579,-0.00222838,0.00112216,-0.0
 4861447,0.00538393,0.00325963,0.00066047,-0.00390184,-0.00063196,0.002
 35401,-0.00178971,-0.00060611,-0.00057713,0.00067332,-0.00004326,-0.00
 001972,0.00000235,-0.00010536,0.00007447,-0.00002851,-0.00020943,0.000
 01117,0.00004541,0.00004447,0.00013490,-0.00014525,-0.00014460,0.00036
 543,0.00027580,0.00043201,-0.00056207,-0.00035856,0.00053881,-0.000216
 08,0.00051985,0.00042043,-0.00032228,-0.00013889,0.00232122,0.05628041
 ,0.00028920,0.00011958,-0.00005671,-0.00150297,-0.00038515,-0.00014689
 ,0.00431310,-0.00147047,0.00034681,-0.00572492,-0.01512289,-0.01099418
 ,-0.00221549,0.00242083,-0.00186891,0.06090950,0.00401949,-0.26704551,
 0.00500658,-0.00036966,0.00192985,-0.00219569,0.00003911,0.00098332,0.
 00100195,0.00006860,0.00085217,-0.00006382,-0.00000397,0.00000804,-0.0
 0024487,0.00006717,-0.00005075,-0.00026163,-0.00002653,0.00012703,0.00
 007766,0.00013227,0.00012936,-0.00079381,0.00080655,-0.00010134,0.0002
 3455,-0.00016345,-0.00022018,0.00040477,0.00000643,0.00009398,0.000436
 82,-0.00027214,-0.00048485,-0.06484981,0.00796093,0.29223772,0.0000908
 3,0.00010565,-0.00034668,-0.00076400,-0.00023009,-0.00014470,0.0035701
 5,-0.00065363,-0.00026606,0.00269675,-0.01706409,0.00008948,-0.0017676
 8,-0.00049556,0.00155236,-0.06212861,0.05173770,-0.02507849,-0.0258825
 4,0.02442126,-0.01516459,0.00634024,0.00784916,-0.00083060,-0.00403256
 ,-0.00195288,0.00151641,-0.00001106,0.00000448,-0.00001056,-0.00007986
 ,0.00004489,0.00001402,0.00003582,-0.00001136,0.00001291,0.00004081,-0
 .00024851,0.00047223,-0.00030884,0.00007811,-0.00003716,0.00027325,-0.
 00037320,-0.00021064,0.00025088,-0.00047732,0.00005095,0.00006108,0.00
 020617,-0.00018782,0.00579344,-0.00653872,0.00533338,0.07538001,0.0003
 5532,0.00007566,0.00001141,-0.00183926,-0.00044602,-0.00055631,0.00580
 991,-0.00041540,-0.00102718,-0.00508093,-0.03099724,-0.00385047,-0.003
 44057,-0.00112615,0.00360932,0.05418873,-0.21413153,0.09301699,0.00595
 186,-0.00013474,0.00005773,-0.00223277,0.00056065,0.00100358,0.0005951
 8,0.00084117,-0.00069398,-0.00007674,0.00000121,-0.00001522,-0.0003296
 4,0.00010909,-0.00007920,-0.00026563,-0.00000650,0.00011038,0.00008952
 ,0.00012526,0.00013745,-0.00076781,0.00045492,0.00075868,0.00041132,-0
 .00051478,-0.00018883,0.00058391,-0.00061991,-0.00011179,0.00061159,0.
 00024406,-0.00024071,0.00160101,0.00007291,0.00234231,-0.05602996,0.24
 595484,0.00004996,0.00012783,-0.00025930,-0.00024703,-0.00017128,-0.00
 046548,0.00169764,0.00005148,0.00117166,0.00263367,-0.02207591,0.00996
 719,-0.00171890,-0.00103978,0.00034250,-0.02786441,0.09438309,-0.10152
 458,0.00050191,-0.00347501,0.00272790,0.00048324,-0.00082571,0.0027766
 6,-0.00100816,-0.00008935,-0.00056605,-0.00000774,-0.00000888,-0.00001
 279,-0.00006046,-0.00000736,0.00002933,0.00002329,0.00001498,0.0000303
 2,0.00000221,-0.00013979,0.00013926,0.00024866,0.00022796,-0.00019060,
 0.00026940,-0.00038424,-0.00026769,0.00016342,0.00002099,-0.00018731,0
 .00028276,0.00027230,-0.00036595,-0.00828713,0.02701274,-0.01571139,0.
 03276204,-0.09402676,0.10255809,-0.00001490,-0.00001445,-0.00000846,-0
 .00001567,0.00004673,0.00002789,-0.00011185,-0.00019052,-0.00011406,-0
 .00051544,0.00020570,0.00012277,-0.00010848,0.00012635,0.00007516,-0.0
 0019483,-0.00154833,-0.00092478,-0.00793067,0.00292127,0.00174611,-0.0
 1775335,-0.03139125,-0.01876179,-0.17199304,-0.14633578,-0.08745447,-0
 .00000225,0.00000357,0.00000215,0.00000529,-0.00000283,-0.00000027,0.0
 0000533,-0.00000164,-0.00000256,-0.00000104,-0.00001032,-0.00000613,0.
 00000983,-0.00000603,-0.00000344,0.00003375,-0.00000600,-0.00000353,0.
 00000809,-0.00005849,0.00002077,0.00000798,-0.00000952,-0.00006119,-0.
 00002098,-0.00002178,0.00002302,-0.00002084,0.00000973,-0.00003015,0.1
 8626803,-0.00005279,0.00001094,-0.00000088,0.00011627,0.00006329,0.000
 06236,-0.00035471,0.00007769,0.00005599,0.00049174,-0.00001500,-0.0000
 3524,0.00004791,-0.00003204,-0.00004276,-0.00040854,0.00157296,-0.0018
 0721,0.00169941,0.00338689,-0.00067346,0.00367328,0.00181751,0.0116705
 3,-0.15508512,-0.27728697,-0.17519030,0.00001884,0.00000653,0.00000352
 ,0.00003223,-0.00001899,0.00000527,0.00002904,-0.00000354,-0.00001476,
 0.00000163,0.00000043,-0.00000493,-0.00001882,-0.00000317,-0.00001461,
 0.00002370,0.00002392,0.00002582,0.00001468,-0.00006148,0.00000314,-0.
 00000569,-0.00001418,-0.00001730,0.00060269,0.00006429,0.00006326,-0.0
 0023037,-0.00017672,0.00018179,0.16387528,0.27824554,-0.00003133,-0.00
 000122,0.00001257,0.00006947,0.00006230,-0.00000406,-0.00021215,0.0000
 5617,0.00001695,0.00029390,-0.00003528,0.00002268,0.00002870,-0.000042
 30,0.00001298,-0.00024366,-0.00180723,0.00351720,0.00101598,-0.0006735
 3,0.00411066,0.00219595,0.01167223,-0.01073318,-0.09268456,-0.17519166
 ,-0.08886214,0.00001130,0.00000361,0.00000266,0.00001564,-0.00000623,0
 .00000147,0.00002099,-0.00000309,-0.00001420,0.00000089,-0.00000482,0.
 00000596,-0.00001128,-0.00001465,0.00001288,0.00001412,0.00002572,-0.0
 0000372,-0.00001422,0.00000801,-0.00000618,0.00001959,-0.00002254,-0.0
 0005357,-0.00058568,0.00005241,-0.00030824,0.00080808,0.00019263,-0.00
 006766,0.09793758,0.16509518,0.10067702,-0.00002110,-0.00000508,-0.000
 00295,0.00002855,0.00004278,0.00002563,-0.00011757,-0.00004368,-0.0000
 2617,-0.00000809,-0.00016815,-0.00010051,-0.00018991,0.00003760,0.0000
 2225,-0.00016089,-0.00089667,-0.00053585,0.01023092,0.00071928,0.00042
 919,-0.02572033,0.03528506,0.02108974,-0.13219656,0.11030163,0.0659282
 1,0.00000529,0.00000364,0.00000220,0.00001089,-0.00000567,0.00000128,0
 .00001100,-0.00000159,-0.00000573,0.00000275,-0.00000788,-0.00000476,0
 .00000640,0.00000445,0.00000271,0.00005322,-0.00001935,-0.00001153,-0.
 00001593,-0.00007695,0.00001149,-0.00001597,-0.00002640,-0.00007315,0.
 00046274,0.00002473,-0.00017754,0.00046273,-0.00014478,0.00010578,0.01
 234503,-0.01447065,-0.00864932,0.13482680,-0.00000706,-0.00000742,-0.0
 0000732,0.00001636,0.00002290,0.00003386,-0.00003228,-0.00004964,-0.00
 003846,0.00005290,-0.00008167,0.00001845,-0.00014069,0.00009565,0.0000
 3778,-0.00027099,-0.00026427,-0.00057367,-0.00215932,-0.00094191,0.006
 66778,0.01360977,0.00403534,-0.00525326,0.10754905,-0.27658801,-0.1665
 7068,-0.00000258,0.00000155,0.00000076,0.00000594,-0.00000483,0.000002
 32,-0.00000079,0.00000110,0.00000018,0.00000327,-0.00000884,-0.0000159
 7,0.00002717,0.00000101,-0.00000900,0.00004455,-0.00000492,-0.00001995
 ,-0.00004107,-0.00004847,0.00004969,-0.00000649,0.00004217,-0.00005343
 ,-0.00036199,-0.00027563,-0.00023229,-0.00014174,0.00012924,-0.0000491
 0,0.01240830,-0.00765790,0.00063428,-0.13055231,0.28160455,-0.00000410
 ,-0.00000679,-0.00000022,0.00000972,0.00003362,-0.00001347,-0.00001937
 ,-0.00003869,-0.00000824,0.00003157,0.00001884,-0.00010204,-0.00008402
 ,0.00003723,0.00005593,-0.00016200,-0.00057381,0.00035313,-0.00129158,
 0.00666830,-0.00811448,0.00813665,-0.00525488,0.00968430,0.06428197,-0
 .16656964,-0.09744597,-0.00000149,0.00000063,0.00000094,-0.00000399,0.
 00000317,-0.00000011,0.00000715,-0.00000096,-0.00000601,0.00000187,-0.
 00001579,0.00000841,0.00001624,-0.00000892,0.00001076,0.00002658,-0.00
 001988,0.00001633,0.00001480,-0.00000466,0.00004385,-0.00004324,0.0000
 0123,-0.00004659,0.00003344,0.00016843,0.00028068,-0.00033456,-0.00045
 005,-0.00012410,0.00741537,0.00063458,-0.00834006,-0.07803100,0.165378
 04,0.10374694\\0.00002039,-0.00001791,-0.00001059,-0.00002444,0.000009
 38,0.00000544,-0.00001072,0.00000015,-0.00000011,0.00001713,0.00002650
 ,0.00001785,-0.00000414,-0.00001099,-0.00000692,-0.00002651,-0.0000069
 9,-0.00000482,0.00002728,0.00000838,0.00000530,-0.00001841,-0.00000926
 ,-0.00000537,0.00002284,0.00001117,0.00000687,0.00000021,0.00000687,0.
 00000410,-0.00000583,0.00000294,0.00000177,-0.00000585,0.00000294,0.00
 000174,0.00000414,0.00000104,0.00000051,0.00000622,-0.00000070,-0.0000
 0029,0.00001022,0.00000711,0.00000425,0.00000260,-0.00000269,-0.000002
 55,0.00000278,-0.00000354,-0.00000167,-0.00000278,-0.00000580,-0.00000
 615,-0.00000221,-0.00000757,-0.00000251,-0.00000696,-0.00000758,-0.000
 00469,-0.00000595,-0.00000345,-0.00000217\\\@


 A ROPE OVER THE TOP OF A FENCE HAS THE SAME LENGTH ON EACH SIDE.
 WEIGHS 1/3 POUND PER FOOT.  ON ONE END HANGS A MONKEY HOLDING A
 BANANA, AND ON THE OTHER END A WEIGHT EQUAL TO THE WEIGHT
 OF THE MONKEY.  THE BANANA WEIGHS TWO OUNCES PER INCH.
 THE ROPE IS AS LONG AS THE AGE OF THE MONKEY, 
 AND THE WEIGHT OF THE MONKEY (IN OUNCES) IS AS MUCH
 AS THE AGE OF THE MONKEY'S MOTHER.  THE COMBINED AGES OF MONKEY
 AND MOTHER ARE THIRTY YEARS.  HALF THE WEIGHT OF THE MONKEY,
  PLUS THE WEIGHT OF THE BANANA, IS ONE FOURTH AS MUCH AS THE WEIGHT
 OF THE WEIGHT AND THE ROPE.
 THE MONKEY'S MOTHER IS HALF AS OLD AS THE MONKEY WILL BE
 WHEN IT IS 3 TIMES AS OLD AS ITS MOTHER WAS WHEN
 SHE WAS HALF AS OLD AS THE MONKEY WILL BE WHEN IT IS
 AS OLD AS ITS MOTHER WILL BE WHEN SHE IS 4 TIMES AS
 OLD AS THE MONKEY WAS WHEN IT WAS TWICE AS OLD AS 
 ITS MOTHER WAS WHEN SHE WAS ONE THIRD AS OLD AS THE
 MONKEY WAS WHEN IT WAS AS OLD AS ITS MOTHER WAS WHEN 
 SHE WAS 3 TIMES AS OLD AS THE MONKEY WAS WHEN IT WAS AS OLD AS ITS
 MOTHER WAS WHEN SHE WAS 3 TIMES AS OLD AS THE MONKEY 
 WAS WHEN IT WAS ONE FOURTH WAS OLD AS IT IS NOW.

 HOW LONG IS THE BANANA?
 Job cpu time:       0 days  1 hours 47 minutes 12.6 seconds.
 Elapsed time:       0 days  0 hours 26 minutes 48.5 seconds.
 File lengths (MBytes):  RWF=    158 Int=      0 D2E=      0 Chk=      9 Scr=      1
 Normal termination of Gaussian 16 at Tue Jun  1 21:17:43 2021.
### All Done ###
