### Starting Gaussian ###
 Entering Gaussian System, Link 0=g16
 Initial command:
 /cluster/software/gaussian/gaussian-16-A.03/avx2/g16/l1.exe "/local/scratch/cz9n3/Gau-14427.inp" -scrdir="/local/scratch/cz9n3/"
 Entering Link 1 = /cluster/software/gaussian/gaussian-16-A.03/avx2/g16/l1.exe PID=     14428.
  
 Copyright (c) 1988,1990,1992,1993,1995,1998,2003,2009,2016,
            Gaussian, Inc.  All Rights Reserved.
  
 This is part of the Gaussian(R) 16 program.  It is based on
 the Gaussian(R) 09 system (copyright 2009, Gaussian, Inc.),
 the Gaussian(R) 03 system (copyright 2003, Gaussian, Inc.),
 the Gaussian(R) 98 system (copyright 1998, Gaussian, Inc.),
 the Gaussian(R) 94 system (copyright 1995, Gaussian, Inc.),
 the Gaussian 92(TM) system (copyright 1992, Gaussian, Inc.),
 the Gaussian 90(TM) system (copyright 1990, Gaussian, Inc.),
 the Gaussian 88(TM) system (copyright 1988, Gaussian, Inc.),
 the Gaussian 86(TM) system (copyright 1986, Carnegie Mellon
 University), and the Gaussian 82(TM) system (copyright 1983,
 Carnegie Mellon University). Gaussian is a federally registered
 trademark of Gaussian, Inc.
  
 This software contains proprietary and confidential information,
 including trade secrets, belonging to Gaussian, Inc.
  
 This software is provided under written license and may be
 used, copied, transmitted, or stored only in accord with that
 written license.
  
 The following legend is applicable only to US Government
 contracts under FAR:
  
                    RESTRICTED RIGHTS LEGEND
  
 Use, reproduction and disclosure by the US Government is
 subject to restrictions as set forth in subparagraphs (a)
 and (c) of the Commercial Computer Software - Restricted
 Rights clause in FAR 52.227-19.
  
 Gaussian, Inc.
 340 Quinnipiac St., Bldg. 40, Wallingford CT 06492
  
  
 ---------------------------------------------------------------
 Warning -- This program may not be used in any manner that
 competes with the business of Gaussian, Inc. or will provide
 assistance to any competitor of Gaussian, Inc.  The licensee
 of this program is prohibited from giving any competitor of
 Gaussian, Inc. access to this program.  By using this program,
 the user acknowledges that Gaussian, Inc. is engaged in the
 business of creating and licensing software in the field of
 computational chemistry and represents and warrants to the
 licensee that it is not a competitor of Gaussian, Inc. and that
 it will not use this program in any manner prohibited above.
 ---------------------------------------------------------------
  

 Cite this work as:
 Gaussian 16, Revision A.03,
 M. J. Frisch, G. W. Trucks, H. B. Schlegel, G. E. Scuseria, 
 M. A. Robb, J. R. Cheeseman, G. Scalmani, V. Barone, 
 G. A. Petersson, H. Nakatsuji, X. Li, M. Caricato, A. V. Marenich, 
 J. Bloino, B. G. Janesko, R. Gomperts, B. Mennucci, H. P. Hratchian, 
 J. V. Ortiz, A. F. Izmaylov, J. L. Sonnenberg, D. Williams-Young, 
 F. Ding, F. Lipparini, F. Egidi, J. Goings, B. Peng, A. Petrone, 
 T. Henderson, D. Ranasinghe, V. G. Zakrzewski, J. Gao, N. Rega, 
 G. Zheng, W. Liang, M. Hada, M. Ehara, K. Toyota, R. Fukuda, 
 J. Hasegawa, M. Ishida, T. Nakajima, Y. Honda, O. Kitao, H. Nakai, 
 T. Vreven, K. Throssell, J. A. Montgomery, Jr., J. E. Peralta, 
 F. Ogliaro, M. J. Bearpark, J. J. Heyd, E. N. Brothers, K. N. Kudin, 
 V. N. Staroverov, T. A. Keith, R. Kobayashi, J. Normand, 
 K. Raghavachari, A. P. Rendell, J. C. Burant, S. S. Iyengar, 
 J. Tomasi, M. Cossi, J. M. Millam, M. Klene, C. Adamo, R. Cammi, 
 J. W. Ochterski, R. L. Martin, K. Morokuma, O. Farkas, 
 J. B. Foresman, and D. J. Fox, Gaussian, Inc., Wallingford CT, 2016.
 
 ******************************************
 Gaussian 16:  ES64L-G16RevA.03 25-Dec-2016
                31-May-2021 
 ******************************************
 %chk=CCdNNCpCNpCCtN.chk
 %NProcShared=20
 Will use up to   20 processors via shared memory.
 -----------------------------
 # opt freq b3lyp/6-31g(2df,p)
 -----------------------------
 1/18=20,19=15,26=3,38=1/1,3;
 2/9=110,12=2,17=6,18=5,40=1/2;
 3/5=1,6=6,7=104,11=2,25=1,30=1,71=1,74=-5/1,2,3;
 4//1;
 5/5=2,38=5/2;
 6/7=2,8=2,9=2,10=2,28=1/1;
 7//1,2,3,16;
 1/18=20,19=15,26=3/3(2);
 2/9=110/2;
 99//99;
 2/9=110/2;
 3/5=1,6=6,7=104,11=2,25=1,30=1,71=1,74=-5/1,2,3;
 4/5=5,16=3,69=1/1;
 5/5=2,38=5/2;
 7//1,2,3,16;
 1/18=20,19=15,26=3/3(-5);
 2/9=110/2;
 6/7=2,8=2,9=2,10=2,19=2,28=1/1;
 99/9=1/99;
 -------------------
 Title Card Required
 -------------------
 Symbolic Z-matrix:
 Charge =  0 Multiplicity = 1
 C                     1.10372   0.07701   0.03484 
 C                     2.60672   0.06336   0.00413 
 N                     3.23607   0.82455  -0.83622 
 N                     4.58152   0.81947  -0.79428 
 C                     5.32891   1.86627  -1.52458 
 C                     4.93409   3.32782  -1.12575 
 N                     3.52123   3.64933  -1.30119 
 C                     6.85841   1.67963  -1.36456 
 C                     7.61841   2.66553  -2.2368 
 N                     8.2489    3.48341  -2.9604 
 H                     0.74088  -0.69196   0.72236 
 H                     0.70875  -0.11922  -0.96548 
 H                     0.74477   1.05317   0.375 
 H                     3.117    -0.59587   0.72406 
 H                     5.06359   0.32803  -0.04606 
 H                     5.0882    1.7295   -2.58756 
 H                     5.49826   4.03981  -1.7392 
 H                     5.21209   3.51201  -0.0823 
 H                     3.22612   3.4025   -2.24442 
 H                     3.33323   4.6321   -1.14116 
 H                     7.14805   0.66256  -1.65414 
 H                     7.15743   1.82571  -0.3198 
 

 GradGradGradGradGradGradGradGradGradGradGradGradGradGradGradGradGradGrad
 Berny optimization.
 Initialization pass.
                           ----------------------------
                           !    Initial Parameters    !
                           ! (Angstroms and Degrees)  !
 --------------------------                            --------------------------
 ! Name  Definition              Value          Derivative Info.                !
 --------------------------------------------------------------------------------
 ! R1    R(1,2)                  1.5034         estimate D2E/DX2                !
 ! R2    R(1,11)                 1.0935         estimate D2E/DX2                !
 ! R3    R(1,12)                 1.0932         estimate D2E/DX2                !
 ! R4    R(1,13)                 1.0943         estimate D2E/DX2                !
 ! R5    R(2,3)                  1.2968         estimate D2E/DX2                !
 ! R6    R(2,14)                 1.1015         estimate D2E/DX2                !
 ! R7    R(3,4)                  1.3461         estimate D2E/DX2                !
 ! R8    R(4,5)                  1.4791         estimate D2E/DX2                !
 ! R9    R(4,15)                 1.0167         estimate D2E/DX2                !
 ! R10   R(5,6)                  1.5656         estimate D2E/DX2                !
 ! R11   R(5,8)                  1.5491         estimate D2E/DX2                !
 ! R12   R(5,16)                 1.0984         estimate D2E/DX2                !
 ! R13   R(6,7)                  1.4596         estimate D2E/DX2                !
 ! R14   R(6,17)                 1.0961         estimate D2E/DX2                !
 ! R15   R(6,18)                 1.0954         estimate D2E/DX2                !
 ! R16   R(7,19)                 1.0187         estimate D2E/DX2                !
 ! R17   R(7,20)                 1.0133         estimate D2E/DX2                !
 ! R18   R(8,9)                  1.52           estimate D2E/DX2                !
 ! R19   R(8,21)                 1.0964         estimate D2E/DX2                !
 ! R20   R(8,22)                 1.0965         estimate D2E/DX2                !
 ! R21   R(9,10)                 1.261          estimate D2E/DX2                !
 ! A1    A(2,1,11)             109.7675         estimate D2E/DX2                !
 ! A2    A(2,1,12)             109.9303         estimate D2E/DX2                !
 ! A3    A(2,1,13)             110.0227         estimate D2E/DX2                !
 ! A4    A(11,1,12)            109.2207         estimate D2E/DX2                !
 ! A5    A(11,1,13)            108.8467         estimate D2E/DX2                !
 ! A6    A(12,1,13)            109.0289         estimate D2E/DX2                !
 ! A7    A(1,2,3)              119.5444         estimate D2E/DX2                !
 ! A8    A(1,2,14)             117.0799         estimate D2E/DX2                !
 ! A9    A(3,2,14)             123.3683         estimate D2E/DX2                !
 ! A10   A(2,3,4)              117.5594         estimate D2E/DX2                !
 ! A11   A(3,4,5)              119.1435         estimate D2E/DX2                !
 ! A12   A(3,4,15)             119.9112         estimate D2E/DX2                !
 ! A13   A(5,4,15)             117.7656         estimate D2E/DX2                !
 ! A14   A(4,5,6)              114.0471         estimate D2E/DX2                !
 ! A15   A(4,5,8)              111.2617         estimate D2E/DX2                !
 ! A16   A(4,5,16)             106.1979         estimate D2E/DX2                !
 ! A17   A(6,5,8)              109.5816         estimate D2E/DX2                !
 ! A18   A(6,5,16)             107.9085         estimate D2E/DX2                !
 ! A19   A(8,5,16)             107.537          estimate D2E/DX2                !
 ! A20   A(5,6,7)              114.78           estimate D2E/DX2                !
 ! A21   A(5,6,17)             109.5124         estimate D2E/DX2                !
 ! A22   A(5,6,18)             109.6105         estimate D2E/DX2                !
 ! A23   A(7,6,17)             106.7303         estimate D2E/DX2                !
 ! A24   A(7,6,18)             108.8514         estimate D2E/DX2                !
 ! A25   A(17,6,18)            107.0526         estimate D2E/DX2                !
 ! A26   A(6,7,19)             109.7766         estimate D2E/DX2                !
 ! A27   A(6,7,20)             111.9781         estimate D2E/DX2                !
 ! A28   A(19,7,20)            109.1163         estimate D2E/DX2                !
 ! A29   A(5,8,9)              110.8696         estimate D2E/DX2                !
 ! A30   A(5,8,21)             110.1997         estimate D2E/DX2                !
 ! A31   A(5,8,22)             110.5867         estimate D2E/DX2                !
 ! A32   A(9,8,21)             108.5436         estimate D2E/DX2                !
 ! A33   A(9,8,22)             108.9054         estimate D2E/DX2                !
 ! A34   A(21,8,22)            107.6495         estimate D2E/DX2                !
 ! A35   L(8,9,10,17,-1)       180.0004         estimate D2E/DX2                !
 ! A36   L(8,9,10,17,-2)       180.0001         estimate D2E/DX2                !
 ! D1    D(11,1,2,3)           174.1942         estimate D2E/DX2                !
 ! D2    D(11,1,2,14)           -6.7606         estimate D2E/DX2                !
 ! D3    D(12,1,2,3)            54.0342         estimate D2E/DX2                !
 ! D4    D(12,1,2,14)         -126.9206         estimate D2E/DX2                !
 ! D5    D(13,1,2,3)           -66.0494         estimate D2E/DX2                !
 ! D6    D(13,1,2,14)          112.9957         estimate D2E/DX2                !
 ! D7    D(1,2,3,4)            177.4824         estimate D2E/DX2                !
 ! D8    D(14,2,3,4)            -1.4996         estimate D2E/DX2                !
 ! D9    D(2,3,4,5)           -167.2783         estimate D2E/DX2                !
 ! D10   D(2,3,4,15)            -7.8691         estimate D2E/DX2                !
 ! D11   D(3,4,5,6)             55.993          estimate D2E/DX2                !
 ! D12   D(3,4,5,8)           -179.4356         estimate D2E/DX2                !
 ! D13   D(3,4,5,16)           -62.7094         estimate D2E/DX2                !
 ! D14   D(15,4,5,6)          -103.855          estimate D2E/DX2                !
 ! D15   D(15,4,5,8)            20.7165         estimate D2E/DX2                !
 ! D16   D(15,4,5,16)          137.4427         estimate D2E/DX2                !
 ! D17   D(4,5,6,7)            -57.5663         estimate D2E/DX2                !
 ! D18   D(4,5,6,17)          -177.5641         estimate D2E/DX2                !
 ! D19   D(4,5,6,18)            65.2725         estimate D2E/DX2                !
 ! D20   D(8,5,6,7)            176.9695         estimate D2E/DX2                !
 ! D21   D(8,5,6,17)            56.9716         estimate D2E/DX2                !
 ! D22   D(8,5,6,18)           -60.1918         estimate D2E/DX2                !
 ! D23   D(16,5,6,7)            60.158          estimate D2E/DX2                !
 ! D24   D(16,5,6,17)          -59.8399         estimate D2E/DX2                !
 ! D25   D(16,5,6,18)         -177.0032         estimate D2E/DX2                !
 ! D26   D(4,5,8,9)            173.8908         estimate D2E/DX2                !
 ! D27   D(4,5,8,21)            53.6965         estimate D2E/DX2                !
 ! D28   D(4,5,8,22)           -65.2044         estimate D2E/DX2                !
 ! D29   D(6,5,8,9)            -59.0596         estimate D2E/DX2                !
 ! D30   D(6,5,8,21)          -179.2539         estimate D2E/DX2                !
 ! D31   D(6,5,8,22)            61.8452         estimate D2E/DX2                !
 ! D32   D(16,5,8,9)            57.9856         estimate D2E/DX2                !
 ! D33   D(16,5,8,21)          -62.2087         estimate D2E/DX2                !
 ! D34   D(16,5,8,22)          178.8904         estimate D2E/DX2                !
 ! D35   D(5,6,7,19)           -51.5873         estimate D2E/DX2                !
 ! D36   D(5,6,7,20)          -172.9462         estimate D2E/DX2                !
 ! D37   D(17,6,7,19)           69.9404         estimate D2E/DX2                !
 ! D38   D(17,6,7,20)          -51.4186         estimate D2E/DX2                !
 ! D39   D(18,6,7,19)         -174.8331         estimate D2E/DX2                !
 ! D40   D(18,6,7,20)           63.8079         estimate D2E/DX2                !
 --------------------------------------------------------------------------------
 Trust Radius=3.00D-01 FncErr=1.00D-07 GrdErr=1.00D-06 EigMax=2.50D+02 EigMin=1.00D-04
 Number of steps in this run=    107 maximum allowed number of steps=    132.
 GradGradGradGradGradGradGradGradGradGradGradGradGradGradGradGradGradGrad

                          Input orientation:                          
 ---------------------------------------------------------------------
 Center     Atomic      Atomic             Coordinates (Angstroms)
 Number     Number       Type             X           Y           Z
 ---------------------------------------------------------------------
      1          6           0        1.103720    0.077010    0.034840
      2          6           0        2.606720    0.063360    0.004130
      3          7           0        3.236070    0.824550   -0.836220
      4          7           0        4.581520    0.819470   -0.794280
      5          6           0        5.328910    1.866270   -1.524580
      6          6           0        4.934090    3.327820   -1.125750
      7          7           0        3.521230    3.649330   -1.301190
      8          6           0        6.858410    1.679630   -1.364560
      9          6           0        7.618410    2.665530   -2.236800
     10          7           0        8.248900    3.483410   -2.960400
     11          1           0        0.740880   -0.691960    0.722360
     12          1           0        0.708750   -0.119220   -0.965480
     13          1           0        0.744770    1.053170    0.375000
     14          1           0        3.117000   -0.595870    0.724060
     15          1           0        5.063590    0.328030   -0.046060
     16          1           0        5.088200    1.729500   -2.587560
     17          1           0        5.498260    4.039810   -1.739200
     18          1           0        5.212090    3.512010   -0.082300
     19          1           0        3.226120    3.402500   -2.244420
     20          1           0        3.333230    4.632100   -1.141160
     21          1           0        7.148050    0.662560   -1.654140
     22          1           0        7.157430    1.825710   -0.319800
 ---------------------------------------------------------------------
                    Distance matrix (angstroms):
                    1          2          3          4          5
     1  C    0.000000
     2  C    1.503376   0.000000
     3  N    2.421668   1.296796   0.000000
     4  N    3.651545   2.260309   1.346113   0.000000
     5  C    4.846181   3.605240   2.437006   1.479094   0.000000
     6  C    5.156207   4.165331   3.038661   2.554603   1.565591
     7  N    4.515617   3.924203   2.876959   3.064193   2.548904
     8  C    6.135403   4.750001   3.759209   2.499865   1.549132
     9  C    7.368987   6.075368   4.955374   3.835558   2.527426
    10  N    8.463369   7.233213   6.058889   5.023776   3.633602
    11  H    1.093458   2.137223   3.309826   4.397173   5.713431
    12  H    1.093228   2.139105   2.700881   3.988583   5.059708
    13  H    1.094277   2.141057   2.779550   4.017771   5.028307
    14  H    2.231835   1.101485   2.113349   2.540347   4.001382
    15  H    3.968643   2.471595   2.052003   1.016729   2.150023
    16  H    5.048147   3.956087   2.704905   2.073821   1.098442
    17  H    6.177620   5.216547   4.033705   3.479062   2.190666
    18  H    5.356459   4.323032   3.419867   2.855574   2.191410
    19  H    4.556149   4.073020   2.937508   3.257616   2.701832
    20  H    5.206010   4.765804   3.820977   4.026748   3.432137
    21  H    6.303130   4.871609   3.999853   2.711283   2.185171
    22  H    6.311191   4.890784   4.079960   2.805880   2.190120
                    6          7          8          9         10
     6  C    0.000000
     7  N    1.459562   0.000000
     8  C    2.544910   3.875630   0.000000
     9  C    2.979704   4.316261   1.520000   0.000000
    10  N    3.791848   5.013120   2.780969   1.260969   0.000000
    11  H    6.095667   5.538222   6.885045   8.205473   9.347021
    12  H    5.455389   4.714309   6.419770   7.557413   8.591421
    13  H    4.997668   4.154322   6.387105   7.527824   8.564048
    14  H    4.703079   4.720886   4.851637   6.298104   7.520118
    15  H    3.190806   3.871080   2.605119   4.097603   5.347523
    16  H    2.171466   2.792112   2.152176   2.720505   3.633901
    17  H    1.096147   2.062274   2.749693   2.575129   3.060544
    18  H    1.095444   2.088913   2.777081   3.338978   4.184076
    19  H    2.043076   1.018675   4.115333   4.453694   5.074199
    20  H    2.064979   1.013307   4.603681   4.840516   5.365905
    21  H    3.504915   4.711602   1.096439   2.138369   3.297784
    22  H    2.801630   4.184575   1.096483   2.143056   3.303338
                   11         12         13         14         15
    11  H    0.000000
    12  H    1.782657   0.000000
    13  H    1.779369   1.781203   0.000000
    14  H    2.378063   2.980169   2.910095   0.000000
    15  H    4.507402   4.473254   4.399469   2.288206   0.000000
    16  H    5.976473   5.022797   5.300903   4.501089   2.902403
    17  H    7.147139   6.390272   5.998794   5.764337   4.102800
    18  H    6.189714   5.852000   5.119762   4.681271   3.187647
    19  H    5.634075   4.513906   4.305556   4.981038   4.202553
    20  H    6.207947   5.430820   4.669861   5.554950   4.766383
    21  H    6.966657   6.523037   6.728446   4.846529   2.653828
    22  H    6.971146   6.766471   6.496289   4.824808   2.588850
                   16         17         18         19         20
    16  H    0.000000
    17  H    2.495074   0.000000
    18  H    3.077177   1.762323   0.000000
    19  H    2.526661   2.413303   2.937828   0.000000
    20  H    3.687422   2.322889   2.430206   1.655467   0.000000
    21  H    2.500523   3.759636   3.786554   4.820502   5.529308
    22  H    3.071434   3.109627   2.585413   4.652486   4.814038
                   21         22
    21  H    0.000000
    22  H    1.770161   0.000000
 Stoichiometry    C6H12N4
 Framework group  C1[X(C6H12N4)]
 Deg. of freedom    60
 Full point group                 C1      NOp   1
 Largest Abelian subgroup         C1      NOp   1
 Largest concise Abelian subgroup C1      NOp   1
                         Standard orientation:                         
 ---------------------------------------------------------------------
 Center     Atomic      Atomic             Coordinates (Angstroms)
 Number     Number       Type             X           Y           Z
 ---------------------------------------------------------------------
      1          6           0       -4.142928   -0.012736   -0.193125
      2          6           0       -2.859488   -0.724132    0.133732
      3          7           0       -1.735639   -0.250389   -0.306963
      4          7           0       -0.606692   -0.889372    0.052479
      5          6           0        0.698183   -0.234137   -0.183503
      6          6           0        0.828764    1.181824    0.471537
      7          7           0       -0.184093    2.145540    0.052377
      8          6           0        1.870549   -1.132479    0.283779
      9          6           0        3.208011   -0.519269   -0.097760
     10          7           0        4.317551   -0.010569   -0.414282
     11          1           0       -4.992825   -0.599465    0.166146
     12          1           0       -4.229666    0.121402   -1.274620
     13          1           0       -4.161078    0.968603    0.290701
     14          1           0       -2.932228   -1.627192    0.760198
     15          1           0       -0.644111   -1.635765    0.741852
     16          1           0        0.787680   -0.112524   -1.271517
     17          1           0        1.802253    1.615507    0.215071
     18          1           0        0.796833    1.086646    1.562372
     19          1           0       -0.225373    2.181745   -0.964817
     20          1           0        0.005280    3.074503    0.410085
     21          1           0        1.796318   -2.123333   -0.179769
     22          1           0        1.840481   -1.271014    1.371060
 ---------------------------------------------------------------------
 Rotational constants (GHZ):           3.0013269           0.5669918           0.4942409
 Standard basis: 6-31G(2df,p) (6D, 7F)
 There are   370 symmetry adapted cartesian basis functions of A   symmetry.
 There are   340 symmetry adapted basis functions of A   symmetry.
   340 basis functions,   524 primitive gaussians,   370 cartesian basis functions
    38 alpha electrons       38 beta electrons
       nuclear repulsion energy       501.1463044102 Hartrees.
 NAtoms=   22 NActive=   22 NUniq=   22 SFac= 1.00D+00 NAtFMM=   60 NAOKFM=F Big=F
 Integral buffers will be    131072 words long.
 Raffenetti 2 integral format.
 Two-electron integral symmetry is turned on.
 One-electron integrals computed using PRISM.
 PrsmSu:  requested number of processors reduced to:  13 ShMem   1 Linda.
 NBasis=   340 RedAO= T EigKep=  2.22D-04  NBF=   340
 NBsUse=   340 1.00D-06 EigRej= -1.00D+00 NBFU=   340
 ExpMin= 1.61D-01 ExpMax= 4.17D+03 ExpMxC= 6.27D+02 IAcc=3 IRadAn=         5 AccDes= 0.00D+00
 Harris functional with IExCor=  402 and IRadAn=       5 diagonalized for initial guess.
 HarFok:  IExCor=  402 AccDes= 0.00D+00 IRadAn=         5 IDoV= 1 UseB2=F ITyADJ=14
 ICtDFT=  3500011 ScaDFX=  1.000000  1.000000  1.000000  1.000000
 FoFCou: FMM=F IPFlag=           0 FMFlag=      100000 FMFlg1=           0
         NFxFlg=           0 DoJE=T BraDBF=F KetDBF=T FulRan=T
         wScrn=  0.000000 ICntrl=       500 IOpCl=  0 I1Cent=   200000004 NGrid=           0
         NMat0=    1 NMatS0=      1 NMatT0=    0 NMatD0=    1 NMtDS0=    0 NMtDT0=    0
 Petite list used in FoFCou.
 Requested convergence on RMS density matrix=1.00D-08 within 128 cycles.
 Requested convergence on MAX density matrix=1.00D-06.
 Requested convergence on             energy=1.00D-06.
 No special actions if energy rises.
 Integral accuracy reduced to 1.0D-05 until final iterations.
 Initial convergence to 1.0D-05 achieved.  Increase integral accuracy.
 SCF Done:  E(RB3LYP) =  -454.796422691     A.U. after   15 cycles
            NFock= 15  Conv=0.56D-08     -V/T= 2.0093

 **********************************************************************

            Population analysis using the SCF density.

 **********************************************************************

 Orbital symmetries:
       Occupied  (A) (A) (A) (A) (A) (A) (A) (A) (A) (A) (A) (A)
                 (A) (A) (A) (A) (A) (A) (A) (A) (A) (A) (A) (A)
                 (A) (A) (A) (A) (A) (A) (A) (A) (A) (A) (A) (A)
                 (A) (A)
       Virtual   (A) (A) (A) (A) (A) (A) (A) (A) (A) (A) (A) (A)
                 (A) (A) (A) (A) (A) (A) (A) (A) (A) (A) (A) (A)
                 (A) (A) (A) (A) (A) (A) (A) (A) (A) (A) (A) (A)
                 (A) (A) (A) (A) (A) (A) (A) (A) (A) (A) (A) (A)
                 (A) (A) (A) (A) (A) (A) (A) (A) (A) (A) (A) (A)
                 (A) (A) (A) (A) (A) (A) (A) (A) (A) (A) (A) (A)
                 (A) (A) (A) (A) (A) (A) (A) (A) (A) (A) (A) (A)
                 (A) (A) (A) (A) (A) (A) (A) (A) (A) (A) (A) (A)
                 (A) (A) (A) (A) (A) (A) (A) (A) (A) (A) (A) (A)
                 (A) (A) (A) (A) (A) (A) (A) (A) (A) (A) (A) (A)
                 (A) (A) (A) (A) (A) (A) (A) (A) (A) (A) (A) (A)
                 (A) (A) (A) (A) (A) (A) (A) (A) (A) (A) (A) (A)
                 (A) (A) (A) (A) (A) (A) (A) (A) (A) (A) (A) (A)
                 (A) (A) (A) (A) (A) (A) (A) (A) (A) (A) (A) (A)
                 (A) (A) (A) (A) (A) (A) (A) (A) (A) (A) (A) (A)
                 (A) (A) (A) (A) (A) (A) (A) (A) (A) (A) (A) (A)
                 (A) (A) (A) (A) (A) (A) (A) (A) (A) (A) (A) (A)
                 (A) (A) (A) (A) (A) (A) (A) (A) (A) (A) (A) (A)
                 (A) (A) (A) (A) (A) (A) (A) (A) (A) (A) (A) (A)
                 (A) (A) (A) (A) (A) (A) (A) (A) (A) (A) (A) (A)
                 (A) (A) (A) (A) (A) (A) (A) (A) (A) (A) (A) (A)
                 (A) (A) (A) (A) (A) (A) (A) (A) (A) (A) (A) (A)
                 (A) (A) (A) (A) (A) (A) (A) (A) (A) (A) (A) (A)
                 (A) (A) (A) (A) (A) (A) (A) (A) (A) (A) (A) (A)
                 (A) (A) (A) (A) (A) (A) (A) (A) (A) (A) (A) (A)
                 (A) (A)
 The electronic state is 1-A.
 Alpha  occ. eigenvalues --  -14.36366 -14.35705 -14.35409 -14.30213 -10.25556
 Alpha  occ. eigenvalues --  -10.25533 -10.24925 -10.21136 -10.20285 -10.17575
 Alpha  occ. eigenvalues --   -0.99645  -0.88263  -0.86830  -0.83770  -0.78108
 Alpha  occ. eigenvalues --   -0.71262  -0.68263  -0.60924  -0.59443  -0.53026
 Alpha  occ. eigenvalues --   -0.50661  -0.49013  -0.48337  -0.48070  -0.43369
 Alpha  occ. eigenvalues --   -0.41807  -0.41403  -0.39150  -0.38557  -0.37924
 Alpha  occ. eigenvalues --   -0.37434  -0.36498  -0.33964  -0.31260  -0.31130
 Alpha  occ. eigenvalues --   -0.27494  -0.22324  -0.19845
 Alpha virt. eigenvalues --   -0.00165   0.00180   0.01457   0.06774   0.08306
 Alpha virt. eigenvalues --    0.09189   0.11269   0.11708   0.13173   0.14075
 Alpha virt. eigenvalues --    0.15896   0.16228   0.16903   0.17689   0.19177
 Alpha virt. eigenvalues --    0.19440   0.21050   0.22544   0.22876   0.24932
 Alpha virt. eigenvalues --    0.25780   0.27656   0.33803   0.35893   0.43053
 Alpha virt. eigenvalues --    0.45589   0.46336   0.47551   0.49231   0.49482
 Alpha virt. eigenvalues --    0.51617   0.52648   0.53474   0.54245   0.55560
 Alpha virt. eigenvalues --    0.56965   0.57377   0.57661   0.58575   0.61130
 Alpha virt. eigenvalues --    0.62433   0.64699   0.65773   0.66848   0.67795
 Alpha virt. eigenvalues --    0.68556   0.69878   0.71071   0.71368   0.72798
 Alpha virt. eigenvalues --    0.73771   0.74432   0.75027   0.75385   0.75934
 Alpha virt. eigenvalues --    0.76113   0.77991   0.78443   0.78927   0.80103
 Alpha virt. eigenvalues --    0.80435   0.81103   0.81172   0.82515   0.83598
 Alpha virt. eigenvalues --    0.84571   0.84906   0.86793   0.88402   0.91255
 Alpha virt. eigenvalues --    0.92868   0.95539   0.96688   0.99353   1.01469
 Alpha virt. eigenvalues --    1.06946   1.07310   1.09483   1.13201   1.14063
 Alpha virt. eigenvalues --    1.16290   1.17428   1.20420   1.21135   1.23982
 Alpha virt. eigenvalues --    1.26802   1.28224   1.28988   1.30666   1.31312
 Alpha virt. eigenvalues --    1.35353   1.37650   1.38849   1.41220   1.42751
 Alpha virt. eigenvalues --    1.44365   1.46993   1.51426   1.52843   1.53620
 Alpha virt. eigenvalues --    1.55690   1.55979   1.57176   1.59046   1.62399
 Alpha virt. eigenvalues --    1.63675   1.65181   1.67449   1.71616   1.72904
 Alpha virt. eigenvalues --    1.76214   1.78876   1.79412   1.80789   1.82023
 Alpha virt. eigenvalues --    1.83333   1.85552   1.88149   1.90090   1.92688
 Alpha virt. eigenvalues --    1.95271   1.97517   1.99653   2.06978   2.11948
 Alpha virt. eigenvalues --    2.14067   2.18197   2.21578   2.23554   2.23865
 Alpha virt. eigenvalues --    2.25220   2.32669   2.35424   2.37660   2.38388
 Alpha virt. eigenvalues --    2.40347   2.44083   2.44444   2.46863   2.47063
 Alpha virt. eigenvalues --    2.50483   2.53682   2.59554   2.64559   2.65200
 Alpha virt. eigenvalues --    2.65647   2.68712   2.72658   2.73946   2.76652
 Alpha virt. eigenvalues --    2.77631   2.78922   2.79855   2.81349   2.84123
 Alpha virt. eigenvalues --    2.85045   2.86187   2.87089   2.89324   2.90453
 Alpha virt. eigenvalues --    2.91697   2.92411   2.98109   2.99269   3.01252
 Alpha virt. eigenvalues --    3.01963   3.03723   3.05079   3.07744   3.11080
 Alpha virt. eigenvalues --    3.13979   3.14760   3.15782   3.21309   3.23088
 Alpha virt. eigenvalues --    3.26615   3.27927   3.28497   3.32242   3.32929
 Alpha virt. eigenvalues --    3.34804   3.36726   3.38357   3.42214   3.43197
 Alpha virt. eigenvalues --    3.47397   3.49016   3.51563   3.53168   3.57775
 Alpha virt. eigenvalues --    3.58909   3.61449   3.62806   3.63679   3.64141
 Alpha virt. eigenvalues --    3.65090   3.68948   3.69836   3.71772   3.75581
 Alpha virt. eigenvalues --    3.76987   3.80954   3.82694   3.83152   3.85446
 Alpha virt. eigenvalues --    3.87283   3.89329   3.90287   3.93441   3.94763
 Alpha virt. eigenvalues --    3.97666   4.03636   4.06436   4.07981   4.10453
 Alpha virt. eigenvalues --    4.13271   4.14164   4.15274   4.16023   4.19486
 Alpha virt. eigenvalues --    4.19930   4.23349   4.25389   4.26321   4.28217
 Alpha virt. eigenvalues --    4.29740   4.31402   4.31621   4.33817   4.34408
 Alpha virt. eigenvalues --    4.36297   4.37470   4.38771   4.39984   4.42028
 Alpha virt. eigenvalues --    4.44636   4.46024   4.50658   4.52091   4.53391
 Alpha virt. eigenvalues --    4.54217   4.55670   4.58487   4.59798   4.61672
 Alpha virt. eigenvalues --    4.63107   4.65195   4.65550   4.67257   4.67428
 Alpha virt. eigenvalues --    4.69428   4.70204   4.71841   4.72583   4.73177
 Alpha virt. eigenvalues --    4.76327   4.76722   4.77293   4.78728   4.81351
 Alpha virt. eigenvalues --    4.82618   4.84384   4.86921   4.89223   4.91869
 Alpha virt. eigenvalues --    4.93884   5.00426   5.02734   5.06417   5.08780
 Alpha virt. eigenvalues --    5.10369   5.11641   5.13857   5.19062   5.20445
 Alpha virt. eigenvalues --    5.22557   5.31435   5.35805   5.37036   5.43882
 Alpha virt. eigenvalues --    5.49209   5.56272   5.63607   5.64848   5.70630
 Alpha virt. eigenvalues --    5.83030   6.01988   6.10990   8.33286  10.24057
 Alpha virt. eigenvalues --   10.49178  10.74703  11.25975  11.30298  11.40991
 Alpha virt. eigenvalues --   11.48192  11.58171  11.91147  12.10157  12.89170
 Alpha virt. eigenvalues --   13.59646  17.68183
          Condensed to atoms (all electrons):
               1          2          3          4          5          6
     1  C    5.008561   0.394075  -0.025503   0.003844  -0.000255   0.000002
     2  C    0.394075   4.780493   0.633629  -0.097594   0.003161   0.001299
     3  N   -0.025503   0.633629   6.221752   0.390206  -0.044511  -0.001241
     4  N    0.003844  -0.097594   0.390206   6.370226   0.391313  -0.056927
     5  C   -0.000255   0.003161  -0.044511   0.391313   4.718193   0.362637
     6  C    0.000002   0.001299  -0.001241  -0.056927   0.362637   4.947386
     7  N   -0.000106   0.001139  -0.001662   0.000126  -0.023712   0.387536
     8  C    0.000002  -0.000254   0.001789  -0.030850   0.369655  -0.035779
     9  C   -0.000000   0.000001  -0.000010   0.001290  -0.038948  -0.003088
    10  N    0.000000  -0.000000  -0.000000  -0.000006  -0.001579  -0.001701
    11  H    0.366697  -0.017506   0.002052  -0.000142   0.000002   0.000000
    12  H    0.370001  -0.022135  -0.003880   0.000063   0.000010   0.000006
    13  H    0.373334  -0.024275  -0.005638   0.000281   0.000006  -0.000019
    14  H   -0.070454   0.363662  -0.051710  -0.007129   0.000351  -0.000016
    15  H   -0.000711  -0.004862  -0.045996   0.335873  -0.058651   0.000168
    16  H   -0.000000   0.000159  -0.000091  -0.032102   0.352266  -0.067280
    17  H   -0.000000   0.000003   0.000015   0.003819  -0.029222   0.371250
    18  H   -0.000000  -0.000155  -0.000328  -0.000510  -0.018723   0.334763
    19  H   -0.000000  -0.000232   0.003252  -0.000154  -0.002891  -0.058259
    20  H   -0.000001   0.000006   0.000361  -0.000015   0.004275  -0.044008
    21  H   -0.000000  -0.000008   0.000050   0.002681  -0.022498   0.005084
    22  H    0.000000  -0.000011  -0.000095  -0.000939  -0.023230  -0.010000
               7          8          9         10         11         12
     1  C   -0.000106   0.000002  -0.000000   0.000000   0.366697   0.370001
     2  C    0.001139  -0.000254   0.000001  -0.000000  -0.017506  -0.022135
     3  N   -0.001662   0.001789  -0.000010  -0.000000   0.002052  -0.003880
     4  N    0.000126  -0.030850   0.001290  -0.000006  -0.000142   0.000063
     5  C   -0.023712   0.369655  -0.038948  -0.001579   0.000002   0.000010
     6  C    0.387536  -0.035779  -0.003088  -0.001701   0.000000   0.000006
     7  N    6.524725   0.001618   0.000015   0.000039  -0.000000  -0.000026
     8  C    0.001618   5.048286   0.374136  -0.044011  -0.000000   0.000000
     9  C    0.000015   0.374136   4.461206   0.931256   0.000000   0.000000
    10  N    0.000039  -0.044011   0.931256   6.488799  -0.000000   0.000000
    11  H   -0.000000  -0.000000   0.000000  -0.000000   0.597834  -0.028433
    12  H   -0.000026   0.000000   0.000000   0.000000  -0.028433   0.573606
    13  H    0.000344  -0.000000  -0.000000  -0.000000  -0.031886  -0.028786
    14  H   -0.000023   0.000039   0.000001   0.000000  -0.002161   0.005116
    15  H   -0.000255   0.001048   0.000357   0.000002   0.000023   0.000034
    16  H   -0.001602  -0.029251  -0.003832   0.000362  -0.000000  -0.000009
    17  H   -0.046750  -0.005409   0.014213   0.000599   0.000000  -0.000000
    18  H   -0.022838  -0.004055  -0.000967   0.000098  -0.000000  -0.000000
    19  H    0.343564   0.000098  -0.000050   0.000004   0.000000   0.000005
    20  H    0.340146  -0.000162  -0.000012   0.000003   0.000000   0.000001
    21  H   -0.000047   0.353528  -0.016661   0.000045   0.000000   0.000000
    22  H    0.000028   0.354434  -0.022032  -0.000310  -0.000000  -0.000000
              13         14         15         16         17         18
     1  C    0.373334  -0.070454  -0.000711  -0.000000  -0.000000  -0.000000
     2  C   -0.024275   0.363662  -0.004862   0.000159   0.000003  -0.000155
     3  N   -0.005638  -0.051710  -0.045996  -0.000091   0.000015  -0.000328
     4  N    0.000281  -0.007129   0.335873  -0.032102   0.003819  -0.000510
     5  C    0.000006   0.000351  -0.058651   0.352266  -0.029222  -0.018723
     6  C   -0.000019  -0.000016   0.000168  -0.067280   0.371250   0.334763
     7  N    0.000344  -0.000023  -0.000255  -0.001602  -0.046750  -0.022838
     8  C   -0.000000   0.000039   0.001048  -0.029251  -0.005409  -0.004055
     9  C   -0.000000   0.000001   0.000357  -0.003832   0.014213  -0.000967
    10  N   -0.000000   0.000000   0.000002   0.000362   0.000599   0.000098
    11  H   -0.031886  -0.002161   0.000023  -0.000000   0.000000  -0.000000
    12  H   -0.028786   0.005116   0.000034  -0.000009  -0.000000  -0.000000
    13  H    0.572418   0.004012   0.000051   0.000005   0.000001   0.000001
    14  H    0.004012   0.670156   0.017817   0.000025  -0.000000   0.000004
    15  H    0.000051   0.017817   0.526484   0.006372  -0.000155   0.001008
    16  H    0.000005   0.000025   0.006372   0.654872  -0.001879   0.006339
    17  H    0.000001  -0.000000  -0.000155  -0.001879   0.634218  -0.044185
    18  H    0.000001   0.000004   0.001008   0.006339  -0.044185   0.641194
    19  H    0.000006   0.000009   0.000084   0.006149  -0.002680   0.006799
    20  H   -0.000011   0.000002   0.000022  -0.000034  -0.005712  -0.000794
    21  H   -0.000000   0.000004   0.000942  -0.006149   0.000004  -0.000176
    22  H    0.000000  -0.000002   0.003747   0.006165   0.000094   0.005668
              19         20         21         22
     1  C   -0.000000  -0.000001  -0.000000   0.000000
     2  C   -0.000232   0.000006  -0.000008  -0.000011
     3  N    0.003252   0.000361   0.000050  -0.000095
     4  N   -0.000154  -0.000015   0.002681  -0.000939
     5  C   -0.002891   0.004275  -0.022498  -0.023230
     6  C   -0.058259  -0.044008   0.005084  -0.010000
     7  N    0.343564   0.340146  -0.000047   0.000028
     8  C    0.000098  -0.000162   0.353528   0.354434
     9  C   -0.000050  -0.000012  -0.016661  -0.022032
    10  N    0.000004   0.000003   0.000045  -0.000310
    11  H    0.000000   0.000000   0.000000  -0.000000
    12  H    0.000005   0.000001   0.000000  -0.000000
    13  H    0.000006  -0.000011  -0.000000   0.000000
    14  H    0.000009   0.000002   0.000004  -0.000002
    15  H    0.000084   0.000022   0.000942   0.003747
    16  H    0.006149  -0.000034  -0.006149   0.006165
    17  H   -0.002680  -0.005712   0.000004   0.000094
    18  H    0.006799  -0.000794  -0.000176   0.005668
    19  H    0.506322  -0.028539  -0.000000   0.000023
    20  H   -0.028539   0.506050   0.000003  -0.000002
    21  H   -0.000000   0.000003   0.554675  -0.036817
    22  H    0.000023  -0.000002  -0.036817   0.563753
 Mulliken charges:
               1
     1  C   -0.419486
     2  C   -0.010596
     3  N   -0.072440
     4  N   -0.273354
     5  C    0.062350
     6  C   -0.131814
     7  N   -0.502261
     8  C   -0.354861
     9  C    0.303126
    10  N   -0.373599
    11  H    0.113520
    12  H    0.134428
    13  H    0.140156
    14  H    0.070301
    15  H    0.216599
    16  H    0.109516
    17  H    0.111778
    18  H    0.096858
    19  H    0.226489
    20  H    0.228420
    21  H    0.165343
    22  H    0.159525
 Sum of Mulliken charges =  -0.00000
 Mulliken charges with hydrogens summed into heavy atoms:
               1
     1  C   -0.031381
     2  C    0.059705
     3  N   -0.072440
     4  N   -0.056755
     5  C    0.171867
     6  C    0.076823
     7  N   -0.047352
     8  C   -0.029993
     9  C    0.303126
    10  N   -0.373599
 Electronic spatial extent (au):  <R**2>=           2217.5388
 Charge=              0.0000 electrons
 Dipole moment (field-independent basis, Debye):
    X=             -2.4107    Y=             -1.5130    Z=              1.5583  Tot=              3.2448
 Quadrupole moment (field-independent basis, Debye-Ang):
   XX=            -80.2161   YY=            -53.0271   ZZ=            -58.9202
   XY=             -0.3780   XZ=              2.3641   YZ=             -2.7193
 Traceless Quadrupole moment (field-independent basis, Debye-Ang):
   XX=            -16.1616   YY=             11.0274   ZZ=              5.1342
   XY=             -0.3780   XZ=              2.3641   YZ=             -2.7193
 Octapole moment (field-independent basis, Debye-Ang**2):
  XXX=           -132.3136  YYY=             13.3834  ZZZ=              0.3827  XYY=              3.5024
  XXY=            -12.5399  XXZ=             16.4914  XZZ=             -1.6608  YZZ=              2.0793
  YYZ=              3.4067  XYZ=              2.9279
 Hexadecapole moment (field-independent basis, Debye-Ang**3):
 XXXX=          -2892.1509 YYYY=           -387.7860 ZZZZ=           -116.6366 XXXY=             -6.2704
 XXXZ=             54.8109 YYYX=              1.3976 YYYZ=             -2.1331 ZZZX=              7.8154
 ZZZY=             -5.2294 XXYY=           -470.8232 XXZZ=           -427.4277 YYZZ=            -89.5776
 XXYZ=             -5.3601 YYXZ=             -2.1250 ZZXY=             -1.9327
 N-N= 5.011463044102D+02 E-N=-2.058952703718D+03  KE= 4.506066102026D+02
 PrsmSu:  requested number of processors reduced to:  13 ShMem   1 Linda.
 Calling FoFJK, ICntrl=      2127 FMM=F ISym2X=0 I1Cent= 0 IOpClX= 0 NMat=1 NMatS=1 NMatT=0.
 ***** Axes restored to original set *****
 -------------------------------------------------------------------
 Center     Atomic                   Forces (Hartrees/Bohr)
 Number     Number              X              Y              Z
 -------------------------------------------------------------------
      1        6           0.004955834   -0.002963948   -0.001162298
      2        6           0.005136301    0.012601390   -0.014391115
      3        7          -0.006209054   -0.018561572    0.020494639
      4        7           0.025319665    0.006725702   -0.010663486
      5        6          -0.020684733    0.007100419    0.004145118
      6        6          -0.001738114    0.007499874   -0.006534109
      7        7          -0.008696402   -0.014629444    0.002314199
      8        6           0.005130614    0.013155655   -0.014782787
      9        6           0.075882085    0.095486682   -0.084226901
     10        7          -0.089754597   -0.117264356    0.103122804
     11        1          -0.002100262    0.000684103   -0.001064685
     12        1          -0.003832188    0.000990155    0.000648015
     13        1          -0.002848012   -0.000327128   -0.000469225
     14        1           0.003465789    0.005277770   -0.001928106
     15        1          -0.003170927    0.002891642    0.002405628
     16        1           0.000221246    0.002050903   -0.000538711
     17        1           0.014194977   -0.005131343   -0.000293878
     18        1           0.000071095   -0.002127224    0.002380405
     19        1          -0.000737467    0.003580912    0.004374146
     20        1           0.003767323    0.000075979   -0.002445660
     21        1           0.000406722    0.001320251   -0.000652202
     22        1           0.001220107    0.001563577   -0.000731791
 -------------------------------------------------------------------
 Cartesian Forces:  Max     0.117264356 RMS     0.029683184

 GradGradGradGradGradGradGradGradGradGradGradGradGradGradGradGradGradGrad
 Berny optimization.
 FormGI is forming the generalized inverse of G from B-inverse, IUseBI=4.
 Internal  Forces:  Max     0.180113250 RMS     0.019235949
 Search for a local minimum.
 Step number   1 out of a maximum of  107
 All quantities printed in internal units (Hartrees-Bohrs-Radians)
 Mixed Optimization -- RFO/linear search
 Second derivative matrix not updated -- first step.
 ITU=  0
     Eigenvalues ---    0.00230   0.00230   0.00646   0.00721   0.00904
     Eigenvalues ---    0.01280   0.01364   0.02008   0.03057   0.03531
     Eigenvalues ---    0.03531   0.03634   0.03907   0.04051   0.04856
     Eigenvalues ---    0.05317   0.05459   0.05674   0.05834   0.07414
     Eigenvalues ---    0.07439   0.09816   0.13084   0.15560   0.15999
     Eigenvalues ---    0.16000   0.16000   0.16000   0.16000   0.16000
     Eigenvalues ---    0.16000   0.16000   0.16765   0.18655   0.22000
     Eigenvalues ---    0.22002   0.22147   0.22315   0.25000   0.26367
     Eigenvalues ---    0.27725   0.30367   0.32026   0.33518   0.33855
     Eigenvalues ---    0.34074   0.34079   0.34112   0.34191   0.34323
     Eigenvalues ---    0.34416   0.34442   0.34673   0.37019   0.44550
     Eigenvalues ---    0.44864   0.45423   0.55857   0.68091   0.79312
 RFO step:  Lambda=-5.15522979D-02 EMin= 2.30000000D-03
 Linear search not attempted -- first point.
 Iteration  1 RMS(Cart)=  0.08944079 RMS(Int)=  0.00311643
 Iteration  2 RMS(Cart)=  0.00443086 RMS(Int)=  0.00022582
 Iteration  3 RMS(Cart)=  0.00001063 RMS(Int)=  0.00022573
 Iteration  4 RMS(Cart)=  0.00000000 RMS(Int)=  0.00022573
 Variable       Old X    -DE/DX   Delta X   Delta X   Delta X     New X
                                 (Linear)    (Quad)   (Total)
    R1        2.84097   0.00377   0.00000   0.01013   0.01013   2.85110
    R2        2.06634  -0.00045   0.00000  -0.00115  -0.00115   2.06519
    R3        2.06590   0.00061   0.00000   0.00155   0.00155   2.06745
    R4        2.06788   0.00050   0.00000   0.00126   0.00126   2.06914
    R5        2.45059  -0.02377   0.00000  -0.03245  -0.03245   2.41814
    R6        2.08150  -0.00281   0.00000  -0.00727  -0.00727   2.07423
    R7        2.54379   0.00136   0.00000   0.00222   0.00222   2.54601
    R8        2.79508  -0.01867   0.00000  -0.04689  -0.04689   2.74820
    R9        1.92134  -0.00113   0.00000  -0.00226  -0.00226   1.91908
   R10        2.95854  -0.01180   0.00000  -0.03744  -0.03744   2.92110
   R11        2.92744  -0.00605   0.00000  -0.01841  -0.01841   2.90903
   R12        2.07575   0.00022   0.00000   0.00056   0.00056   2.07631
   R13        2.75817   0.00256   0.00000   0.00607   0.00607   2.76424
   R14        2.07142   0.00414   0.00000   0.01054   0.01054   2.08195
   R15        2.07009   0.00193   0.00000   0.00490   0.00490   2.07499
   R16        1.92502  -0.00470   0.00000  -0.00946  -0.00946   1.91555
   R17        1.91487  -0.00101   0.00000  -0.00200  -0.00200   1.91287
   R18        2.87238  -0.03190   0.00000  -0.08982  -0.08982   2.78257
   R19        2.07197  -0.00095   0.00000  -0.00241  -0.00241   2.06956
   R20        2.07205  -0.00016   0.00000  -0.00040  -0.00040   2.07166
   R21        2.38289  -0.18011   0.00000  -0.21323  -0.21323   2.16965
    A1        1.91580   0.00211   0.00000   0.01026   0.01016   1.92597
    A2        1.91865   0.00448   0.00000   0.02123   0.02110   1.93975
    A3        1.92026   0.00265   0.00000   0.01218   0.01209   1.93235
    A4        1.90626  -0.00307   0.00000  -0.01377  -0.01391   1.89236
    A5        1.89973  -0.00246   0.00000  -0.01173  -0.01180   1.88794
    A6        1.90291  -0.00387   0.00000  -0.01888  -0.01899   1.88392
    A7        2.08644   0.00387   0.00000   0.01425   0.01424   2.10069
    A8        2.04343   0.00365   0.00000   0.01930   0.01930   2.06273
    A9        2.15318  -0.00751   0.00000  -0.03347  -0.03347   2.11971
   A10        2.05180   0.00768   0.00000   0.02547   0.02547   2.07727
   A11        2.07945   0.00076   0.00000   0.00278   0.00278   2.08223
   A12        2.09284  -0.00149   0.00000  -0.00676  -0.00677   2.08608
   A13        2.05540   0.00080   0.00000   0.00428   0.00428   2.05968
   A14        1.99050   0.00780   0.00000   0.03301   0.03241   2.02291
   A15        1.94188  -0.01295   0.00000  -0.06726  -0.06702   1.87486
   A16        1.85350   0.00241   0.00000   0.01814   0.01747   1.87097
   A17        1.91256   0.00285   0.00000   0.00514   0.00549   1.91805
   A18        1.88336  -0.00215   0.00000   0.00694   0.00639   1.88975
   A19        1.87687   0.00207   0.00000   0.00555   0.00559   1.88246
   A20        2.00329  -0.00591   0.00000  -0.02072  -0.02064   1.98265
   A21        1.91135  -0.00825   0.00000  -0.04694  -0.04679   1.86456
   A22        1.91306   0.00125   0.00000  -0.01055  -0.01102   1.90205
   A23        1.86280   0.01387   0.00000   0.08926   0.08925   1.95205
   A24        1.89982  -0.00002   0.00000  -0.00599  -0.00659   1.89322
   A25        1.86842  -0.00037   0.00000  -0.00181  -0.00305   1.86537
   A26        1.91596   0.00474   0.00000   0.01854   0.01855   1.93451
   A27        1.95439  -0.00660   0.00000  -0.03494  -0.03493   1.91945
   A28        1.90444  -0.00094   0.00000  -0.01154  -0.01153   1.89291
   A29        1.93504   0.00482   0.00000   0.01673   0.01671   1.95175
   A30        1.92335  -0.00031   0.00000  -0.00066  -0.00066   1.92268
   A31        1.93010   0.00075   0.00000   0.00544   0.00540   1.93550
   A32        1.89444  -0.00276   0.00000  -0.01313  -0.01312   1.88133
   A33        1.90076  -0.00281   0.00000  -0.01121  -0.01126   1.88949
   A34        1.87884   0.00007   0.00000   0.00191   0.00191   1.88075
   A35        3.14160   0.00128   0.00000   0.01477   0.01477   3.15637
   A36        3.14159   0.00053   0.00000   0.00611   0.00611   3.14770
    D1        3.04026  -0.00028   0.00000  -0.00587  -0.00587   3.03440
    D2       -0.11800   0.00001   0.00000  -0.00117  -0.00112  -0.11911
    D3        0.94307  -0.00063   0.00000  -0.00861  -0.00864   0.93443
    D4       -2.21518  -0.00033   0.00000  -0.00391  -0.00389  -2.21908
    D5       -1.15278  -0.00034   0.00000  -0.00634  -0.00638  -1.15916
    D6        1.97215  -0.00005   0.00000  -0.00163  -0.00163   1.97051
    D7        3.09765   0.00469   0.00000   0.05728   0.05722  -3.12831
    D8       -0.02617   0.00426   0.00000   0.05170   0.05176   0.02559
    D9       -2.91956   0.00102   0.00000   0.01600   0.01600  -2.90356
   D10       -0.13734   0.00140   0.00000   0.01781   0.01781  -0.11954
   D11        0.97726   0.00412   0.00000   0.06914   0.06952   1.04678
   D12       -3.13174   0.00356   0.00000   0.04732   0.04720  -3.08454
   D13       -1.09449   0.00068   0.00000   0.02945   0.02919  -1.06530
   D14       -1.81261   0.00422   0.00000   0.06962   0.07000  -1.74261
   D15        0.36157   0.00365   0.00000   0.04780   0.04768   0.40926
   D16        2.39883   0.00078   0.00000   0.02993   0.02967   2.42849
   D17       -1.00472  -0.00137   0.00000  -0.00317  -0.00340  -1.00812
   D18       -3.09908  -0.00922   0.00000  -0.06989  -0.06984   3.11427
   D19        1.13922  -0.00469   0.00000  -0.03423  -0.03449   1.10473
   D20        3.08870   0.00768   0.00000   0.05725   0.05727  -3.13722
   D21        0.99434  -0.00017   0.00000  -0.00947  -0.00917   0.98518
   D22       -1.05055   0.00436   0.00000   0.02618   0.02618  -1.02437
   D23        1.04996   0.00487   0.00000   0.04395   0.04390   1.09385
   D24       -1.04440  -0.00298   0.00000  -0.02277  -0.02254  -1.06694
   D25       -3.08929   0.00155   0.00000   0.01288   0.01281  -3.07648
   D26        3.03497  -0.00247   0.00000  -0.01167  -0.01180   3.02317
   D27        0.93718  -0.00194   0.00000  -0.00565  -0.00576   0.93142
   D28       -1.13803  -0.00230   0.00000  -0.01101  -0.01111  -1.14915
   D29       -1.03078   0.00028   0.00000  -0.01450  -0.01430  -1.04509
   D30       -3.12857   0.00081   0.00000  -0.00848  -0.00826  -3.13683
   D31        1.07940   0.00045   0.00000  -0.01384  -0.01362   1.06578
   D32        1.01204   0.00041   0.00000  -0.00038  -0.00049   1.01155
   D33       -1.08575   0.00095   0.00000   0.00564   0.00555  -1.08020
   D34        3.12223   0.00059   0.00000   0.00028   0.00019   3.12242
   D35       -0.90037  -0.00025   0.00000  -0.01481  -0.01464  -0.91501
   D36       -3.01848   0.00206   0.00000   0.01031   0.01049  -3.00800
   D37        1.22069  -0.00443   0.00000  -0.02287  -0.02327   1.19742
   D38       -0.89742  -0.00212   0.00000   0.00225   0.00185  -0.89557
   D39       -3.05141   0.00233   0.00000   0.01839   0.01861  -3.03280
   D40        1.11366   0.00464   0.00000   0.04351   0.04374   1.15740
         Item               Value     Threshold  Converged?
 Maximum Force            0.180113     0.000450     NO 
 RMS     Force            0.019236     0.000300     NO 
 Maximum Displacement     0.397551     0.001800     NO 
 RMS     Displacement     0.090410     0.001200     NO 
 Predicted change in Energy=-2.891318D-02
 GradGradGradGradGradGradGradGradGradGradGradGradGradGradGradGradGradGrad

                          Input orientation:                          
 ---------------------------------------------------------------------
 Center     Atomic      Atomic             Coordinates (Angstroms)
 Number     Number       Type             X           Y           Z
 ---------------------------------------------------------------------
      1          6           0        1.129036    0.006692   -0.001805
      2          6           0        2.634916    0.097318    0.018157
      3          7           0        3.249880    0.832931   -0.829271
      4          7           0        4.595891    0.881857   -0.796913
      5          6           0        5.288320    1.923274   -1.539162
      6          6           0        4.949371    3.377236   -1.138482
      7          7           0        3.527264    3.699908   -1.253359
      8          6           0        6.799302    1.674967   -1.381019
      9          6           0        7.594459    2.581013   -2.226581
     10          7           0        8.223385    3.273035   -2.892735
     11          1           0        0.783957   -0.743810    0.713731
     12          1           0        0.763501   -0.269068   -0.995426
     13          1           0        0.679564    0.967945    0.268136
     14          1           0        3.178543   -0.473105    0.782285
     15          1           0        5.095359    0.422053   -0.041652
     16          1           0        5.034168    1.790017   -2.599761
     17          1           0        5.570964    4.034568   -1.767236
     18          1           0        5.260861    3.542964   -0.098678
     19          1           0        3.176948    3.462760   -2.174532
     20          1           0        3.383994    4.690351   -1.101234
     21          1           0        7.045055    0.647174   -1.668477
     22          1           0        7.111613    1.814639   -0.339497
 ---------------------------------------------------------------------
                    Distance matrix (angstroms):
                    1          2          3          4          5
     1  C    0.000000
     2  C    1.508737   0.000000
     3  N    2.421849   1.279626   0.000000
     4  N    3.662949   2.263905   1.347289   0.000000
     5  C    4.830776   3.577696   2.418270   1.454283   0.000000
     6  C    5.219919   4.177604   3.075283   2.543331   1.545780
     7  N    4.577960   3.923224   2.911417   3.048232   2.517823
     8  C    6.069372   4.667845   3.689423   2.413549   1.539393
     9  C    7.306056   5.983699   4.887088   3.731285   2.494683
    10  N    8.328040   7.056164   5.911661   4.823786   3.502659
    11  H    1.092852   2.148806   3.308738   4.410859   5.698960
    12  H    1.094048   2.159580   2.724719   4.006402   5.057272
    13  H    1.094943   2.154967   2.798045   4.059478   5.041786
    14  H    2.246215   1.097636   2.075556   2.517671   3.947519
    15  H    3.988211   2.482500   2.048159   1.015533   2.129186
    16  H    5.017935   3.933845   2.689671   2.065697   1.098737
    17  H    6.250699   5.225891   4.064195   3.439749   2.142304
    18  H    5.439354   4.333787   3.452838   2.830407   2.167751
    19  H    4.567175   4.053132   2.954834   3.251506   2.689165
    20  H    5.313214   4.786450   3.869321   4.008233   3.387470
    21  H    6.179587   4.753568   3.891289   2.610192   2.175148
    22  H    6.258909   4.808110   4.014550   2.721795   2.185268
                    6          7          8          9         10
     6  C    0.000000
     7  N    1.462772   0.000000
     8  C    2.525626   3.850053   0.000000
     9  C    2.968909   4.329107   1.472471   0.000000
    10  N    3.715835   4.992327   2.620519   1.148130   0.000000
    11  H    6.145273   5.580484   6.813430   8.129134   9.191666
    12  H    5.553153   4.843313   6.352861   7.503379   8.473261
    13  H    5.100442   4.229416   6.377364   7.526046   8.497869
    14  H    4.652989   4.656124   4.733286   6.154773   7.279407
    15  H    3.155544   3.830338   2.503422   3.959865   5.103070
    16  H    2.159118   2.780511   2.148085   2.705555   3.529346
    17  H    1.101723   2.133724   2.688064   2.533447   2.980271
    18  H    1.098037   2.088846   2.738724   3.301364   4.081197
    19  H    2.054799   1.013667   4.116711   4.504952   5.100817
    20  H    2.043542   1.012248   4.564553   4.841872   5.351445
    21  H    3.482244   4.676148   1.095165   2.086398   3.127685
    22  H    2.784848   4.151740   1.096273   2.093217   3.143562
                   11         12         13         14         15
    11  H    0.000000
    12  H    1.773983   0.000000
    13  H    1.771880   1.770264   0.000000
    14  H    2.410813   3.005714   2.930165   0.000000
    15  H    4.529682   4.489134   4.460180   2.270322   0.000000
    16  H    5.955149   5.005229   5.278561   4.472505   2.901550
    17  H    7.204410   6.498359   6.121495   5.704634   4.031638
    18  H    6.251328   5.963388   5.268164   4.608791   3.125817
    19  H    5.635929   4.597995   4.292744   4.922784   4.180356
    20  H    6.291613   5.610171   4.800565   5.500103   4.719095
    21  H    6.841864   6.383606   6.661294   4.712874   2.549227
    22  H    6.906097   6.713465   6.515932   4.686279   2.468459
                   16         17         18         19         20
    16  H    0.000000
    17  H    2.453417   0.000000
    18  H    3.062618   1.766896   0.000000
    19  H    2.535381   2.494828   2.942498   0.000000
    20  H    3.657950   2.378328   2.417487   1.643721   0.000000
    21  H    2.493401   3.695556   3.746094   4.811016   5.483832
    22  H    3.070046   3.056161   2.543696   4.643840   4.769183
                   21         22
    21  H    0.000000
    22  H    1.770195   0.000000
 Stoichiometry    C6H12N4
 Framework group  C1[X(C6H12N4)]
 Deg. of freedom    60
 Full point group                 C1      NOp   1
 Largest Abelian subgroup         C1      NOp   1
 Largest concise Abelian subgroup C1      NOp   1
                         Standard orientation:                         
 ---------------------------------------------------------------------
 Center     Atomic      Atomic             Coordinates (Angstroms)
 Number     Number       Type             X           Y           Z
 ---------------------------------------------------------------------
      1          6           0       -4.130070   -0.113010   -0.231066
      2          6           0       -2.812652   -0.719689    0.184431
      3          7           0       -1.713628   -0.264653   -0.287300
      4          7           0       -0.553738   -0.836750    0.090255
      5          6           0        0.700351   -0.156667   -0.192035
      6          6           0        0.865435    1.244830    0.438829
      7          7           0       -0.182836    2.188581    0.051318
      8          6           0        1.840427   -1.079293    0.275640
      9          6           0        3.161561   -0.555550   -0.109678
     10          7           0        4.195727   -0.163342   -0.417697
     11          1           0       -4.961263   -0.690956    0.180544
     12          1           0       -4.229011   -0.092738   -1.320443
     13          1           0       -4.215264    0.915570    0.134534
     14          1           0       -2.827386   -1.547256    0.905347
     15          1           0       -0.558761   -1.545449    0.817597
     16          1           0        0.775933   -0.054315   -1.283380
     17          1           0        1.867135    1.605978    0.156052
     18          1           0        0.858749    1.147192    1.532495
     19          1           0       -0.276881    2.228955   -0.957169
     20          1           0        0.044011    3.115359    0.389358
     21          1           0        1.730371   -2.072381   -0.172745
     22          1           0        1.823385   -1.200536    1.365054
 ---------------------------------------------------------------------
 Rotational constants (GHZ):           2.9605942           0.5835158           0.5058463
 Standard basis: 6-31G(2df,p) (6D, 7F)
 There are   370 symmetry adapted cartesian basis functions of A   symmetry.
 There are   340 symmetry adapted basis functions of A   symmetry.
   340 basis functions,   524 primitive gaussians,   370 cartesian basis functions
    38 alpha electrons       38 beta electrons
       nuclear repulsion energy       506.9699412077 Hartrees.
 NAtoms=   22 NActive=   22 NUniq=   22 SFac= 1.00D+00 NAtFMM=   60 NAOKFM=F Big=F
 Integral buffers will be    131072 words long.
 Raffenetti 2 integral format.
 Two-electron integral symmetry is turned on.
 One-electron integrals computed using PRISM.
 PrsmSu:  requested number of processors reduced to:  13 ShMem   1 Linda.
 NBasis=   340 RedAO= T EigKep=  1.50D-04  NBF=   340
 NBsUse=   340 1.00D-06 EigRej= -1.00D+00 NBFU=   340
 Initial guess from the checkpoint file:  "CCdNNCpCNpCCtN.chk"
 B after Tr=    -0.000000    0.000000   -0.000000
         Rot=    0.999921    0.012493   -0.001578    0.000190 Ang=   1.44 deg.
 ExpMin= 1.61D-01 ExpMax= 4.17D+03 ExpMxC= 6.27D+02 IAcc=2 IRadAn=         4 AccDes= 0.00D+00
 Harris functional with IExCor=  402 and IRadAn=       4 diagonalized for initial guess.
 HarFok:  IExCor=  402 AccDes= 0.00D+00 IRadAn=         4 IDoV= 1 UseB2=F ITyADJ=14
 ICtDFT=  3500011 ScaDFX=  1.000000  1.000000  1.000000  1.000000
 FoFCou: FMM=F IPFlag=           0 FMFlag=      100000 FMFlg1=           0
         NFxFlg=           0 DoJE=T BraDBF=F KetDBF=T FulRan=T
         wScrn=  0.000000 ICntrl=       500 IOpCl=  0 I1Cent=   200000004 NGrid=           0
         NMat0=    1 NMatS0=      1 NMatT0=    0 NMatD0=    1 NMtDS0=    0 NMtDT0=    0
 Petite list used in FoFCou.
 Requested convergence on RMS density matrix=1.00D-08 within 128 cycles.
 Requested convergence on MAX density matrix=1.00D-06.
 Requested convergence on             energy=1.00D-06.
 No special actions if energy rises.
 Integral accuracy reduced to 1.0D-05 until final iterations.
 Initial convergence to 1.0D-05 achieved.  Increase integral accuracy.
 SCF Done:  E(RB3LYP) =  -454.824809841     A.U. after   12 cycles
            NFock= 12  Conv=0.86D-08     -V/T= 2.0079
 PrsmSu:  requested number of processors reduced to:  13 ShMem   1 Linda.
 Calling FoFJK, ICntrl=      2127 FMM=F ISym2X=0 I1Cent= 0 IOpClX= 0 NMat=1 NMatS=1 NMatT=0.
 ***** Axes restored to original set *****
 -------------------------------------------------------------------
 Center     Atomic                   Forces (Hartrees/Bohr)
 Number     Number              X              Y              Z
 -------------------------------------------------------------------
      1        6           0.003982897   -0.000967748    0.000113998
      2        6          -0.001565083    0.003222574   -0.004360658
      3        7          -0.000770033   -0.005077849    0.003027736
      4        7           0.007545314    0.000295701   -0.004656807
      5        6          -0.009065811   -0.000025334    0.003273660
      6        6          -0.002089801    0.003602214   -0.002985140
      7        7           0.001562200   -0.006095388    0.004931505
      8        6           0.005326111    0.004494067   -0.007788036
      9        6          -0.011138536   -0.015912636    0.014373649
     10        7           0.009719738    0.010890353   -0.010400281
     11        1          -0.000642419   -0.000064578   -0.000219112
     12        1          -0.000860874    0.000430598    0.000054016
     13        1          -0.001035661   -0.000029345    0.000010110
     14        1           0.000924570    0.000893348    0.000732197
     15        1          -0.002390201    0.002534007    0.003649459
     16        1          -0.000469484    0.001496900   -0.000569630
     17        1           0.003203310   -0.000878871    0.000499036
     18        1          -0.000511922   -0.000666599    0.000822111
     19        1          -0.000123034    0.001106835   -0.000282153
     20        1           0.000210554    0.001505700   -0.001797730
     21        1          -0.001015351   -0.000514297    0.000963595
     22        1          -0.000796484   -0.000239652    0.000608474
 -------------------------------------------------------------------
 Cartesian Forces:  Max     0.015912636 RMS     0.004631961

 GradGradGradGradGradGradGradGradGradGradGradGradGradGradGradGradGradGrad
 Berny optimization.
 Using GEDIIS/GDIIS optimizer.
 FormGI is forming the generalized inverse of G from B-inverse, IUseBI=4.
 Internal  Forces:  Max     0.017922874 RMS     0.002434437
 Search for a local minimum.
 Step number   2 out of a maximum of  107
 All quantities printed in internal units (Hartrees-Bohrs-Radians)
 Mixed Optimization -- RFO/linear search
 Update second derivatives using D2CorX and points    1    2
 DE= -2.84D-02 DEPred=-2.89D-02 R= 9.82D-01
 TightC=F SS=  1.41D+00  RLast= 3.48D-01 DXNew= 5.0454D-01 1.0450D+00
 Trust test= 9.82D-01 RLast= 3.48D-01 DXMaxT set to 5.05D-01
 ITU=  1  0
 Use linear search instead of GDIIS.
     Eigenvalues ---    0.00230   0.00230   0.00646   0.00721   0.00904
     Eigenvalues ---    0.01273   0.01335   0.02008   0.03072   0.03531
     Eigenvalues ---    0.03533   0.03794   0.04041   0.04205   0.04649
     Eigenvalues ---    0.05352   0.05480   0.05792   0.05864   0.07225
     Eigenvalues ---    0.07301   0.09544   0.12941   0.15558   0.15957
     Eigenvalues ---    0.16000   0.16000   0.16000   0.16000   0.16000
     Eigenvalues ---    0.16000   0.16053   0.16376   0.18454   0.21912
     Eigenvalues ---    0.21990   0.22144   0.22213   0.24997   0.26353
     Eigenvalues ---    0.27769   0.30001   0.32047   0.33525   0.33854
     Eigenvalues ---    0.34074   0.34079   0.34099   0.34188   0.34322
     Eigenvalues ---    0.34416   0.34442   0.34512   0.37041   0.44553
     Eigenvalues ---    0.44865   0.45426   0.55857   0.67672   0.91884
 RFO step:  Lambda=-5.16622057D-03 EMin= 2.29976532D-03
 Quartic linear search produced a step of -0.00559.
 Iteration  1 RMS(Cart)=  0.15279266 RMS(Int)=  0.01131874
 Iteration  2 RMS(Cart)=  0.01839739 RMS(Int)=  0.00015439
 Iteration  3 RMS(Cart)=  0.00025130 RMS(Int)=  0.00007594
 Iteration  4 RMS(Cart)=  0.00000005 RMS(Int)=  0.00007594
 Variable       Old X    -DE/DX   Delta X   Delta X   Delta X     New X
                                 (Linear)    (Quad)   (Total)
    R1        2.85110  -0.00140  -0.00006  -0.00405  -0.00410   2.84700
    R2        2.06519   0.00010   0.00001   0.00027   0.00028   2.06547
    R3        2.06745   0.00013  -0.00001   0.00040   0.00039   2.06784
    R4        2.06914   0.00040  -0.00001   0.00116   0.00115   2.07030
    R5        2.41814  -0.00482   0.00018  -0.00750  -0.00732   2.41082
    R6        2.07423   0.00050   0.00004   0.00131   0.00135   2.07558
    R7        2.54601   0.00004  -0.00001   0.00011   0.00010   2.54610
    R8        2.74820  -0.00420   0.00026  -0.01268  -0.01242   2.73577
    R9        1.91908   0.00039   0.00001   0.00081   0.00082   1.91990
   R10        2.92110  -0.00153   0.00021  -0.00639  -0.00618   2.91492
   R11        2.90903   0.00203   0.00010   0.00671   0.00681   2.91584
   R12        2.07631   0.00048  -0.00000   0.00138   0.00138   2.07769
   R13        2.76424  -0.00260  -0.00003  -0.00670  -0.00673   2.75751
   R14        2.08195   0.00100  -0.00006   0.00305   0.00299   2.08495
   R15        2.07499   0.00053  -0.00003   0.00161   0.00158   2.07657
   R16        1.91555   0.00004   0.00005  -0.00009  -0.00004   1.91551
   R17        1.91287   0.00117   0.00001   0.00248   0.00249   1.91536
   R18        2.78257  -0.00614   0.00050  -0.02142  -0.02092   2.76165
   R19        2.06956   0.00000   0.00001  -0.00004  -0.00003   2.06953
   R20        2.07166   0.00032   0.00000   0.00090   0.00091   2.07256
   R21        2.16965   0.01792   0.00119   0.01840   0.01960   2.18925
    A1        1.92597   0.00059  -0.00006   0.00408   0.00401   1.92997
    A2        1.93975   0.00082  -0.00012   0.00528   0.00515   1.94490
    A3        1.93235   0.00101  -0.00007   0.00614   0.00606   1.93841
    A4        1.89236  -0.00068   0.00008  -0.00406  -0.00400   1.88836
    A5        1.88794  -0.00077   0.00007  -0.00461  -0.00456   1.88338
    A6        1.88392  -0.00108   0.00011  -0.00751  -0.00742   1.87650
    A7        2.10069   0.00151  -0.00008   0.00695   0.00687   2.10755
    A8        2.06273   0.00013  -0.00011   0.00251   0.00240   2.06512
    A9        2.11971  -0.00165   0.00019  -0.00942  -0.00923   2.11048
   A10        2.07727   0.00097  -0.00014   0.00431   0.00417   2.08144
   A11        2.08223   0.00054  -0.00002   0.00004  -0.00015   2.08208
   A12        2.08608  -0.00137   0.00004  -0.01216  -0.01228   2.07380
   A13        2.05968   0.00068  -0.00002   0.00120   0.00098   2.06066
   A14        2.02291   0.00108  -0.00018   0.00601   0.00574   2.02865
   A15        1.87486  -0.00318   0.00037  -0.02564  -0.02526   1.84960
   A16        1.87097   0.00086  -0.00010   0.00987   0.00958   1.88055
   A17        1.91805   0.00173  -0.00003   0.00442   0.00439   1.92244
   A18        1.88975  -0.00036  -0.00004   0.01048   0.01038   1.90013
   A19        1.88246  -0.00023  -0.00003  -0.00595  -0.00598   1.87648
   A20        1.98265  -0.00203   0.00012  -0.00957  -0.00962   1.97303
   A21        1.86456  -0.00121   0.00026  -0.00562  -0.00542   1.85913
   A22        1.90205   0.00050   0.00006  -0.00996  -0.01014   1.89190
   A23        1.95205   0.00357  -0.00050   0.03988   0.03943   1.99148
   A24        1.89322  -0.00048   0.00004  -0.01357  -0.01373   1.87949
   A25        1.86537  -0.00030   0.00002  -0.00145  -0.00141   1.86396
   A26        1.93451   0.00031  -0.00010  -0.00340  -0.00359   1.93092
   A27        1.91945  -0.00073   0.00020  -0.01100  -0.01090   1.90856
   A28        1.89291  -0.00089   0.00006  -0.01670  -0.01681   1.87610
   A29        1.95175   0.00511  -0.00009   0.02587   0.02580   1.97755
   A30        1.92268  -0.00200   0.00000  -0.01312  -0.01322   1.90946
   A31        1.93550  -0.00196  -0.00003  -0.01187  -0.01202   1.92349
   A32        1.88133  -0.00091   0.00007   0.00202   0.00214   1.88346
   A33        1.88949  -0.00088   0.00006   0.00357   0.00364   1.89314
   A34        1.88075   0.00054  -0.00001  -0.00697  -0.00724   1.87350
   A35        3.15637  -0.00028  -0.00008  -0.00617  -0.00625   3.15012
   A36        3.14770   0.00003  -0.00003   0.00100   0.00096   3.14867
    D1        3.03440  -0.00023   0.00003  -0.01860  -0.01857   3.01583
    D2       -0.11911  -0.00017   0.00001  -0.01490  -0.01489  -0.13401
    D3        0.93443  -0.00031   0.00005  -0.01966  -0.01962   0.91481
    D4       -2.21908  -0.00025   0.00002  -0.01597  -0.01594  -2.23502
    D5       -1.15916  -0.00016   0.00004  -0.01776  -0.01773  -1.17689
    D6        1.97051  -0.00010   0.00001  -0.01407  -0.01405   1.95646
    D7       -3.12831   0.00150  -0.00032   0.04545   0.04512  -3.08319
    D8        0.02559   0.00143  -0.00029   0.04155   0.04127   0.06686
    D9       -2.90356   0.00087  -0.00009   0.04587   0.04567  -2.85789
   D10       -0.11954   0.00055  -0.00010   0.01203   0.01204  -0.10749
   D11        1.04678   0.00220  -0.00039   0.20737   0.20699   1.25377
   D12       -3.08454   0.00272  -0.00026   0.19717   0.19693  -2.88761
   D13       -1.06530   0.00130  -0.00016   0.18250   0.18226  -0.88304
   D14       -1.74261   0.00293  -0.00039   0.24342   0.24307  -1.49954
   D15        0.40926   0.00345  -0.00027   0.23321   0.23300   0.64226
   D16        2.42849   0.00203  -0.00017   0.21855   0.21833   2.64683
   D17       -1.00812   0.00025   0.00002   0.02551   0.02545  -0.98268
   D18        3.11427  -0.00209   0.00039  -0.01489  -0.01450   3.09977
   D19        1.10473  -0.00136   0.00019  -0.00533  -0.00514   1.09959
   D20       -3.13722   0.00230  -0.00032   0.05169   0.05135  -3.08587
   D21        0.98518  -0.00003   0.00005   0.01129   0.01140   0.99658
   D22       -1.02437   0.00070  -0.00015   0.02085   0.02076  -1.00361
   D23        1.09385   0.00182  -0.00025   0.05028   0.04997   1.14382
   D24       -1.06694  -0.00052   0.00013   0.00987   0.01003  -1.05691
   D25       -3.07648   0.00021  -0.00007   0.01943   0.01938  -3.05710
   D26        3.02317  -0.00067   0.00007  -0.03736  -0.03727   2.98589
   D27        0.93142  -0.00152   0.00003  -0.04797  -0.04783   0.88359
   D28       -1.14915   0.00034   0.00006  -0.02333  -0.02332  -1.17247
   D29       -1.04509  -0.00035   0.00008  -0.04453  -0.04442  -1.08951
   D30       -3.13683  -0.00120   0.00005  -0.05514  -0.05498   3.09137
   D31        1.06578   0.00066   0.00008  -0.03050  -0.03047   1.03531
   D32        1.01155   0.00004   0.00000  -0.03294  -0.03300   0.97855
   D33       -1.08020  -0.00080  -0.00003  -0.04355  -0.04356  -1.12375
   D34        3.12242   0.00106  -0.00000  -0.01892  -0.01905   3.10337
   D35       -0.91501  -0.00062   0.00008  -0.00904  -0.00889  -0.92390
   D36       -3.00800   0.00076  -0.00006   0.02107   0.02099  -2.98701
   D37        1.19742  -0.00101   0.00013   0.00652   0.00676   1.20417
   D38       -0.89557   0.00038  -0.00001   0.03664   0.03663  -0.85894
   D39       -3.03280   0.00042  -0.00010   0.01964   0.01950  -3.01330
   D40        1.15740   0.00180  -0.00024   0.04975   0.04937   1.20677
         Item               Value     Threshold  Converged?
 Maximum Force            0.017923     0.000450     NO 
 RMS     Force            0.002434     0.000300     NO 
 Maximum Displacement     0.583526     0.001800     NO 
 RMS     Displacement     0.163827     0.001200     NO 
 Predicted change in Energy=-3.325455D-03
 GradGradGradGradGradGradGradGradGradGradGradGradGradGradGradGradGradGrad

                          Input orientation:                          
 ---------------------------------------------------------------------
 Center     Atomic      Atomic             Coordinates (Angstroms)
 Number     Number       Type             X           Y           Z
 ---------------------------------------------------------------------
      1          6           0        1.143964   -0.121102   -0.106516
      2          6           0        2.619648    0.145297    0.038838
      3          7           0        3.256143    0.796375   -0.854760
      4          7           0        4.587625    0.958922   -0.728041
      5          6           0        5.256108    1.970919   -1.518519
      6          6           0        4.995510    3.435921   -1.112072
      7          7           0        3.578250    3.783218   -1.104614
      8          6           0        6.763459    1.654094   -1.427113
      9          6           0        7.579021    2.456012   -2.336774
     10          7           0        8.227848    3.081344   -3.064857
     11          1           0        0.795806   -0.794754    0.680646
     12          1           0        0.913450   -0.577857   -1.073796
     13          1           0        0.567260    0.807596   -0.034611
     14          1           0        3.130663   -0.228189    0.936474
     15          1           0        5.040948    0.641032    0.123800
     16          1           0        4.951944    1.833046   -2.566039
     17          1           0        5.609164    4.061415   -1.782497
     18          1           0        5.381742    3.587496   -0.094539
     19          1           0        3.147642    3.545818   -1.991009
     20          1           0        3.478246    4.783547   -0.975550
     21          1           0        6.928690    0.598668   -1.668206
     22          1           0        7.123218    1.815902   -0.403757
 ---------------------------------------------------------------------
                    Distance matrix (angstroms):
                    1          2          3          4          5
     1  C    0.000000
     2  C    1.506566   0.000000
     3  N    2.421350   1.275753   0.000000
     4  N    3.662178   2.263410   1.347340   0.000000
     5  C    4.824939   3.564993   2.412465   1.447710   0.000000
     6  C    5.338348   4.218711   3.171563   2.539562   1.542512
     7  N    4.708042   3.932031   3.014533   3.022795   2.504186
     8  C    6.039373   4.647220   3.655754   2.388769   1.542997
     9  C    7.281862   5.964756   4.861896   3.711839   2.510135
    10  N    8.317984   7.050192   5.901140   4.818361   3.529227
    11  H    1.092999   2.149886   3.307933   4.408817   5.690304
    12  H    1.094253   2.161485   2.724831   3.997599   5.054969
    13  H    1.095554   2.157853   2.811203   4.082534   5.053770
    14  H    2.246390   1.098352   2.067364   2.510494   3.921809
    15  H    3.977484   2.472987   2.041381   1.015966   2.124172
    16  H    4.936462   3.882459   2.622766   2.067622   1.099465
    17  H    6.343530   5.252661   4.130120   3.432329   2.136471
    18  H    5.631395   4.415392   3.589772   2.818040   2.157968
    19  H    4.583922   3.995322   2.976957   3.218800   2.673795
    20  H    5.500879   4.824887   3.995180   3.989955   3.371422
    21  H    6.034899   4.656972   3.766747   2.548387   2.168643
    22  H    6.292203   4.823790   4.024563   2.696072   2.180098
                    6          7          8          9         10
     6  C    0.000000
     7  N    1.459210   0.000000
     8  C    2.529783   3.844831   0.000000
     9  C    3.022358   4.391567   1.461402   0.000000
    10  N    3.793033   5.094500   2.619863   1.158500   0.000000
    11  H    6.224947   5.646855   6.786191   8.104585   9.180859
    12  H    5.724953   5.110879   6.271288   7.431642   8.417511
    13  H    5.261027   4.366382   6.406910   7.561879   8.546164
    14  H    4.593463   4.523025   4.725118   6.140600   7.276328
    15  H    3.056281   3.677202   2.529560   3.973712   5.126304
    16  H    2.164515   2.797493   2.147269   2.709646   3.540990
    17  H    1.103306   2.159058   2.693304   2.600938   3.076116
    18  H    1.098874   2.076329   2.724507   3.337051   4.144791
    19  H    2.049200   1.013646   4.119555   4.576500   5.213193
    20  H    2.033918   1.013566   4.559606   4.907821   5.460899
    21  H    3.477999   4.656655   1.095149   2.078374   3.130834
    22  H    2.766463   4.114405   1.096753   2.086636   3.146904
                   11         12         13         14         15
    11  H    0.000000
    12  H    1.771709   0.000000
    13  H    1.769563   1.766134   0.000000
    14  H    2.416195   3.013218   2.930340   0.000000
    15  H    4.515837   4.467232   4.479589   2.250594   0.000000
    16  H    5.892349   4.934438   5.165765   4.453465   2.943477
    17  H    7.267590   6.638888   6.250059   5.651237   3.956749
    18  H    6.390292   6.186659   5.559737   4.548604   2.974133
    19  H    5.613327   4.778869   4.240722   4.776356   4.061380
    20  H    6.407488   5.944113   5.016711   5.375327   4.561912
    21  H    6.713493   6.157975   6.571155   4.679002   2.603200
    22  H    6.930194   6.688816   6.643307   4.681349   2.448364
                   16         17         18         19         20
    16  H    0.000000
    17  H    2.451837   0.000000
    18  H    3.061231   1.767915   0.000000
    19  H    2.553381   2.523570   2.930792   0.000000
    20  H    3.661543   2.390282   2.414543   1.634756   0.000000
    21  H    2.497462   3.707402   3.715181   4.804812   5.467957
    22  H    3.064342   3.039015   2.503378   4.617054   4.734943
                   21         22
    21  H    0.000000
    22  H    1.765880   0.000000
 Stoichiometry    C6H12N4
 Framework group  C1[X(C6H12N4)]
[...]
 0,0.00002156,0.00001362,0.00000917,0.00000067,0.00000813,-0.00991615,0
 .01032763,0.01278389,-0.07236756,0.12491940,0.09422317,-0.09725776,-0.
 18317133,0.00309525,-0.00408379,-0.00579572,0.00048383,0.00218098,0.00
 036669,-0.00063736,0.00019661,0.00004552,0.00012535,0.00000801,-0.0000
 5446,-0.00000061,0.00000497,0.00000687,-0.00002193,-0.00001329,0.00000
 846,-0.00001512,-0.00003188,0.00000374,-0.00000550,0.00001294,-0.00000
 003,-0.00000898,0.00000268,0.00000350,0.01249371,-0.01383718,-0.016942
 64,-0.10435682,0.10733606,0.19585872,-0.26847859,0.04584009,-0.0745252
 7,-0.01516478,-0.00034429,-0.00136232,-0.00029817,0.00001037,-0.003217
 14,-0.00044102,-0.00189958,0.00060939,0.00042853,-0.00017717,-0.000370
 37,-0.00004369,0.00006226,0.00012891,0.00001086,-0.00011207,-0.0000090
 6,-0.00000545,0.00001532,0.00003789,0.00001196,0.00001966,-0.00005478,
 -0.00003295,-0.00001843,0.00006222,0.00133402,0.00036637,0.00054533,-0
 .01277752,0.00211977,-0.00548481,0.29515153,0.04411438,-0.05328438,0.0
 1128872,-0.03064961,0.00541516,-0.00690341,-0.00099449,0.00013404,-0.0
 0302713,-0.00102411,-0.00277753,0.00143752,0.00069080,-0.00057489,-0.0
 0027770,-0.00011112,0.00006334,0.00019407,0.00001676,-0.00008709,-0.00
 001938,0.00001564,0.00000771,0.00000480,0.00001033,0.00002071,-0.00004
 842,-0.00003235,-0.00000801,0.00004913,0.01767288,-0.00376089,0.005500
 67,0.01388863,-0.00335153,0.00668415,-0.04483142,0.05837707,-0.0754137
 5,0.01163878,-0.07016203,-0.00463542,0.00145669,-0.00100658,0.00127433
 ,0.00087370,0.00004518,-0.00116665,-0.00058122,-0.00036892,0.00043713,
 -0.00006846,-0.00012795,-0.00003390,0.00006131,0.00003496,0.00001607,-
 0.00004407,-0.00002060,0.00000042,-0.00002090,-0.00000471,0.00000854,0
 .00001753,-0.00001446,-0.00002195,-0.00000679,0.00002028,-0.02596804,0
 .00557412,-0.00943335,0.02170210,-0.00327562,0.00847502,0.08338769,-0.
 01544707,0.07226633,0.00805755,-0.00911217,-0.00920242,-0.08750539,0.0
 4860875,0.06297353,-0.01500199,0.00939829,0.03790358,0.00174691,0.0071
 3044,-0.00391493,0.00028801,0.00021931,-0.00045599,-0.00016999,0.00012
 145,0.00000360,0.00012665,0.00000198,-0.00004626,-0.00005674,-0.000051
 01,0.00006260,-0.00002221,-0.00008061,-0.00007931,-0.00004097,-0.00000
 274,0.00006128,0.00018826,0.00021288,0.00042715,-0.00082869,-0.0034957
 6,-0.00018531,0.00044427,0.00140316,0.00037280,0.09292968,0.01125369,-
 0.01098821,-0.01831194,0.05150553,-0.14756093,-0.10415698,-0.00860525,
 0.01200925,-0.00430702,-0.00026216,0.00302908,0.00670301,0.00003100,-0
 .00011018,0.00045995,0.00013373,-0.00007746,-0.00004293,-0.00017226,-0
 .00011015,0.00006239,-0.00015542,0.00005030,0.00012493,-0.00005988,-0.
 00007467,-0.00006438,0.00000778,0.00002043,0.00003469,0.00039067,0.000
 67678,0.00086689,-0.00306078,-0.00370737,-0.00132101,-0.00067080,0.000
 33742,-0.00018148,-0.05326596,0.14723877,0.00394209,-0.00239777,-0.000
 91375,0.06540328,-0.10293710,-0.16232838,0.02617250,-0.01899062,-0.002
 51262,-0.00794307,0.00110776,-0.00320614,0.00009797,0.00056727,-0.0003
 0130,0.00002926,-0.00003098,-0.00018788,-0.00008043,0.00024775,0.00004
 915,-0.00000374,-0.00037484,-0.00006554,-0.00013624,0.00013447,0.00022
 185,0.00005224,0.00000304,-0.00007942,-0.00042472,-0.00112316,0.000014
 80,0.00010426,-0.00098703,0.00118403,-0.00002977,0.00031699,0.00007347
 ,-0.08743754,0.12105343,0.16776984,-0.00057356,-0.00033848,0.00070461,
 0.00685320,-0.00340023,-0.00742618,0.00902060,-0.02344851,-0.00883572,
 -0.19215297,0.15148441,0.11305505,-0.01435914,0.01527398,0.00138674,-0
 .00218158,0.00055671,0.00239907,-0.00015785,0.00108148,-0.00160848,-0.
 00239783,-0.00228224,0.00415348,-0.00131485,0.00154746,0.00024942,-0.0
 0005792,-0.00054053,0.00037068,-0.00008929,-0.00005377,0.00002961,-0.0
 0005983,0.00023727,0.00031149,-0.00009998,-0.00007151,0.00004249,-0.00
 064460,0.00315014,0.00022859,0.19669829,-0.00190002,0.00084348,-0.0007
 2770,0.00477423,0.00208359,-0.00175831,0.01142597,-0.03132033,-0.01205
 937,0.14070264,-0.21886420,-0.09884999,-0.00641566,0.01220278,0.006431
 48,-0.00337124,0.00141967,0.00101414,-0.00041107,-0.00117788,0.0003164
 4,-0.00200639,-0.00125690,0.00203422,-0.00091638,0.00084254,-0.0000329
 2,-0.00006826,-0.00047434,0.00035183,0.00021600,0.00026391,0.00001117,
 0.00021585,0.00044057,0.00015718,-0.00022505,-0.00030005,0.00005026,-0
 .00101057,-0.00055553,0.00300501,-0.14330269,0.23631148,-0.00002163,-0
 .00001445,-0.00129531,0.00230340,0.00571856,0.00027126,-0.00197116,-0.
 02432039,-0.00765835,0.08308106,-0.06504490,-0.06281179,0.02115998,-0.
 01571038,-0.01364519,0.00122244,-0.00108934,0.00101888,-0.00141449,-0.
 00135950,-0.00208366,-0.00007895,0.00228046,-0.00201563,0.00046655,-0.
 00047239,0.00030737,-0.00003021,0.00000933,-0.00005106,0.00009982,0.00
 071284,0.00026663,0.00009687,0.00012752,-0.00004190,0.00015889,0.00010
 428,0.00011989,-0.00026504,-0.00082758,0.00001283,-0.10325629,0.100401
 66,0.08806951,-0.00010728,0.00019841,-0.00021276,-0.00102632,0.0001673
 5,0.00003258,0.00366142,0.00375243,0.00046445,0.00801683,-0.00793335,0
 .02462110,-0.11483198,0.00885026,-0.10480126,-0.00602637,0.00086597,-0
 .00984759,0.00089258,0.00021827,0.00105815,-0.01753250,0.00362574,-0.0
 2058770,0.00077523,0.00053675,-0.00229198,-0.00003571,-0.00048514,0.00
 100536,0.00001178,-0.00000186,0.00003379,-0.00001116,-0.00000504,-0.00
 001672,-0.00005664,-0.00008360,-0.00001008,0.00016462,-0.00018749,0.00
 018123,0.00087124,-0.00033855,-0.00030957,0.12712190,-0.00010071,0.000
 22868,-0.00019214,-0.00087639,-0.00049093,0.00018838,0.00227877,0.0032
 9905,0.00008976,-0.00017522,-0.00281882,0.01732114,0.00848291,-0.05139
 954,0.00969585,-0.01680063,0.00010830,-0.02728153,-0.00027540,0.002562
 99,0.00091520,0.01583396,-0.00280647,0.01595861,-0.00085530,0.00002211
 ,0.00132974,0.00016044,0.00023312,-0.00060617,0.00002090,-0.00000097,0
 .00000724,-0.00000338,-0.00003212,-0.00000260,-0.00007446,-0.00007682,
 -0.00000369,0.00026239,-0.00022148,0.00017228,0.00002176,-0.00032584,-
 0.00045336,-0.00985270,0.05745852,-0.00000151,-0.00010656,-0.00044229,
 0.00163631,0.00108406,0.00007993,-0.00197631,-0.00622297,0.00169519,0.
 00027997,0.01136041,-0.03121715,-0.10607355,0.01232677,-0.21205926,-0.
 00645122,-0.00020065,-0.00826067,0.00051437,0.00060213,0.00112758,0.00
 192861,-0.00093060,0.00408960,-0.00024939,0.00045661,0.00052480,-0.000
 02185,-0.00026915,0.00029743,0.00011932,0.00031203,0.00004468,0.000011
 82,0.00009167,0.00004032,0.00015387,0.00018598,0.00010581,-0.00013625,
 0.00002993,0.00004547,-0.00061251,0.00111253,-0.00065907,0.10946085,-0
 .01610356,0.24265567,-0.00005078,0.00005343,-0.00002878,-0.00004280,-0
 .00005411,0.00002828,-0.00006775,-0.00015924,0.00057063,0.00104230,-0.
 00103395,-0.00176571,-0.00667973,-0.00656842,0.00869928,-0.13854747,-0
 .06045905,0.09843258,-0.02635049,0.00048623,0.01973637,0.00035146,0.00
 028517,0.00007911,0.00011374,0.00010008,0.00032341,-0.00028262,0.00064
 867,0.00007656,-0.00000393,-0.00000959,0.00000456,0.00000633,-0.000009
 33,-0.00000783,-0.00001645,-0.00002522,-0.00000301,0.00001658,-0.00002
 142,-0.00001188,-0.00011782,0.00090746,-0.00028021,0.00003447,0.000511
 23,-0.00009109,0.15844470,-0.00019354,0.00006602,0.00015760,-0.0001387
 6,-0.00070011,-0.00037131,-0.00177128,-0.00011607,0.00186685,-0.000741
 36,-0.00627196,-0.00459609,-0.01692239,-0.01099394,0.02389762,-0.05906
 550,-0.08927686,0.06501998,0.02090270,0.00641014,-0.01677163,-0.000306
 14,0.00060892,0.00081677,-0.00000190,-0.00124610,0.00031870,0.00034901
 ,0.00066831,-0.00058114,-0.00004514,-0.00009434,-0.00000176,0.00001840
 ,0.00000423,-0.00001013,-0.00006708,-0.00009411,-0.00003057,-0.0000486
 4,0.00004776,0.00004169,0.00021858,-0.00045990,-0.00001861,0.00011804,
 0.00115178,-0.00061038,0.06033033,0.09793503,-0.00010539,0.00005085,-0
 .00009131,0.00003223,-0.00008560,-0.00010469,-0.00040089,-0.00103255,0
 .00093946,0.00020533,-0.00129337,-0.00026610,-0.00674516,-0.00474334,0
 .00646498,0.09988694,0.06786884,-0.16758113,0.00625677,-0.00249483,0.0
 0103990,0.00007193,0.00043915,0.00019050,0.00013992,-0.00010933,0.0000
 0150,0.00010103,-0.00052205,-0.00037033,0.00001797,0.00003257,0.000006
 43,0.00000516,0.00000797,0.00000638,-0.00001122,-0.00002813,-0.0000011
 9,-0.00001135,0.00000127,0.00004238,-0.00036964,-0.00032790,-0.0002271
 7,0.00009343,0.00069455,0.00049614,-0.11523010,-0.06907136,0.17647965,
 -0.00000637,0.00001170,-0.00007526,0.00008830,0.00009431,0.00001557,0.
 00001057,-0.00044853,0.00028722,0.00082367,0.00114488,0.00021868,-0.00
 584603,-0.00036706,-0.01043476,-0.10512113,0.00953104,-0.09939692,-0.0
 1924284,0.00546067,-0.02531746,0.00051065,0.00030069,0.00091144,0.0000
 1136,-0.00010240,0.00012812,-0.00011905,0.00012050,0.00001239,0.000018
 02,0.00003973,0.00000556,-0.00000020,0.00000754,0.00000465,0.00002030,
 0.00001887,0.00001143,-0.00000368,-0.00000943,-0.00000006,-0.00052928,
 0.00025160,-0.00050782,0.00008948,-0.00157323,-0.00031031,0.01049037,-
 0.00133148,0.01662536,0.12120160,0.00001831,-0.00000712,-0.00004689,0.
 00013339,0.00020529,0.00003366,0.00030544,-0.00041744,0.00029890,0.001
 30185,0.00206716,0.00042617,-0.01556309,0.00052401,-0.02978291,0.00789
 737,-0.04984585,0.01669956,0.01545408,-0.00438785,0.01854709,-0.001138
 58,0.00174146,-0.00038448,-0.00006519,-0.00001706,0.00007218,-0.000022
 50,0.00009335,0.00004075,0.00001026,0.00002740,0.00000582,-0.00000135,
 0.00000778,0.00000141,0.00001418,0.00001132,0.00000236,-0.00004577,0.0
 0001597,-0.00002248,-0.00030132,-0.00010621,-0.00005398,-0.00188285,-0
 .00544908,-0.00122398,0.00577505,-0.00022280,0.01188176,-0.01631590,0.
 05741730,-0.00004371,0.00004027,-0.00006061,0.00001058,0.00003740,-0.0
 0001649,0.00023692,-0.00018683,0.00032791,0.00084211,0.00097840,0.0014
 4283,-0.00555871,-0.00024223,-0.01151713,-0.10724034,0.01912348,-0.246
 02667,0.00356727,-0.00050125,0.00701839,-0.00025435,0.00074843,0.00005
 350,0.00011074,0.00008083,-0.00024206,0.00007888,-0.00021245,0.0001148
 6,0.00000395,0.00000249,0.00001204,0.00000056,0.00000429,-0.00000382,-
 0.00000836,-0.00001912,-0.00000751,0.00000496,-0.00001446,0.00001985,-
 0.00022370,-0.00012580,-0.00011288,-0.00025067,-0.00234404,0.00061952,
 -0.01017333,0.00090609,-0.01827992,0.11680385,-0.01712730,0.26362631,-
 0.00001853,0.00000595,0.00003190,-0.00005169,-0.00005721,-0.00003657,0
 .00016770,0.00006326,-0.00004986,-0.00066477,-0.00085685,-0.00018466,0
 .00105300,-0.00034943,0.00018729,-0.01922153,0.01136560,-0.02978611,-0
 .07846805,0.04223445,-0.10895022,-0.00006124,-0.00008116,0.00001670,0.
 00002557,0.00014882,-0.00006339,0.00000525,-0.00018933,0.00003850,-0.0
 0000867,-0.00001502,-0.00000780,0.00000174,0.00000352,0.00000261,-0.00
 003122,-0.00003089,-0.00000541,0.00000160,0.00001206,0.00006927,0.0006
 1815,0.00069729,0.00064272,0.00047554,0.00037369,0.00018395,0.00163216
 ,-0.00156460,-0.00092570,-0.00412867,0.00419375,0.00188071,0.10416303,
 -0.00001010,-0.00000279,-0.00000738,-0.00004775,-0.00005179,0.00001237
 ,0.00005369,-0.00016915,-0.00016838,-0.00055881,-0.00037983,-0.0006732
 5,0.00132383,0.00059763,0.00286725,0.00568844,-0.00595615,0.02215124,0
 .06442144,-0.08068690,0.09134153,-0.00017950,-0.00017831,-0.00060486,0
 .00008673,0.00005724,-0.00005152,-0.00005301,-0.00009494,-0.00000974,0
 .00000527,0.00001971,-0.00001020,0.00000024,-0.00000010,0.00000696,-0.
 00000767,-0.00000612,0.00001141,0.00002054,0.00000122,0.00005496,0.000
 67405,0.00044894,0.00067385,-0.00048679,-0.00053973,-0.00128210,-0.000
 19412,0.00121021,-0.00122045,0.00352583,-0.00219475,-0.00107085,-0.057
 87709,0.07971884,0.00000774,0.00000388,-0.00001715,-0.00000640,0.00002
 263,0.00004910,-0.00010847,-0.00004886,0.00008315,0.00023531,0.0003280
 7,-0.00020059,0.00008064,0.00072907,0.00101293,0.00838724,-0.00248646,
 0.00535758,-0.15311265,0.07168950,-0.33959986,0.00016292,-0.00000623,0
 .00007042,-0.00003919,-0.00004205,0.00007177,-0.00001665,0.00006258,-0
 .00004418,0.00000224,0.00000328,0.00000115,0.00000103,-0.00000636,-0.0
 0000210,0.00000862,0.00001036,0.00000414,0.00000277,-0.00001435,-0.000
 03645,-0.00036238,-0.00000873,-0.00048588,-0.00023463,0.00036963,-0.00
 019282,0.00051998,-0.00062953,0.00164668,0.00129687,-0.00097728,0.0017
 1586,0.14730930,-0.07959497,0.34960486,-0.00002705,0.00002237,0.000030
 52,0.00002858,-0.00000772,-0.00001123,0.00020913,0.00017236,0.00003311
 ,0.00033677,-0.00120797,0.00000635,-0.00541075,0.00145824,0.00071193,0
 .00437123,0.03109117,0.01883181,-0.07079969,-0.09288808,-0.08347797,0.
 00062033,0.00143873,0.00053457,0.00018958,0.00013511,-0.00019872,-0.00
 003683,-0.00011752,0.00004130,-0.00000682,-0.00003349,-0.00000032,0.00
 000136,0.00000346,-0.00000158,-0.00001620,-0.00001851,-0.00001459,-0.0
 0000199,-0.00000395,0.00002692,0.00008990,0.00067790,-0.00093762,-0.00
 001470,-0.00004825,0.00027306,0.00004453,0.00027332,0.00041333,0.00127
 841,-0.00038395,-0.00051961,-0.00563350,-0.01611372,-0.00412378,0.0751
 3153,-0.00003546,0.00001651,0.00002748,0.00002548,-0.00004051,-0.00004
 882,-0.00000986,0.00016845,0.00015884,0.00069556,-0.00021785,-0.000449
 24,0.00554552,-0.00189202,0.00035545,-0.01148075,-0.01843840,-0.006720
 69,-0.07077456,-0.31500969,-0.17139772,-0.00106692,-0.00119251,-0.0003
 0089,-0.00015101,-0.00007182,0.00018428,0.00008422,0.00008561,-0.00011
 576,-0.00000831,-0.00002922,-0.00000121,0.00000599,0.00000754,0.000001
 50,-0.00001814,-0.00002045,-0.00000999,-0.00002493,0.00000790,0.000044
 61,0.00005409,0.00028547,-0.00056840,-0.00002534,0.00043487,0.00005554
 ,-0.00040067,0.00129711,-0.00022950,-0.00025089,0.00067000,0.00072734,
 0.00206569,0.00805397,0.01065438,0.07530099,0.32623008,0.00004729,-0.0
 0002784,-0.00004359,-0.00000161,0.00007084,0.00001959,-0.00010832,-0.0
 0024723,-0.00015035,-0.00058182,0.00137798,0.00033996,0.00080885,0.000
 94362,0.00007898,0.00099126,-0.00503898,-0.00373209,-0.05820243,-0.132
 49993,-0.11448034,0.00003650,-0.00003959,0.00026962,-0.00002840,-0.000
 05887,-0.00000872,-0.00004029,0.00009347,0.00005873,0.00001348,0.00004
 668,0.00000106,-0.00000622,-0.00000730,0.00000056,0.00002669,0.0000299
 5,0.00001537,0.00002128,-0.00000727,-0.00005277,-0.00011836,-0.0009568
 2,0.00083555,0.00022097,0.00023734,0.00025173,-0.00062390,-0.00025845,
 -0.00036170,-0.00032612,0.00087511,0.00077718,-0.01046803,-0.03225741,
 -0.01892822,0.06835453,0.16771333,0.13508829,0.00000042,0.00002194,-0.
 00003379,-0.00062538,-0.00123425,-0.00028280,-0.00068018,0.00169069,0.
 00086020,0.00122541,-0.00100380,-0.00082726,0.00886571,0.02577018,0.00
 499233,-0.00473224,0.00084305,0.00039176,0.00013406,0.00154633,0.00112
 102,-0.07645884,-0.09096864,-0.01963820,-0.01200259,-0.01891633,0.0003
 4399,0.00158561,0.00198178,0.00078968,0.00004047,0.00006297,-0.0000207
 5,-0.00003528,-0.00005708,0.00000665,0.00004486,0.00003364,0.00001474,
 0.00038113,-0.00003612,-0.00025097,0.00038204,0.00000063,-0.00020733,0
 .00101461,-0.00069355,-0.00019304,-0.00007370,-0.00013504,-0.00014675,
 0.00001834,-0.00003660,0.00014541,0.00007099,0.00002798,-0.00000818,-0
 .00040990,0.00044053,-0.00003668,0.08761691,-0.00001795,0.00002083,0.0
 0006447,0.00016291,0.00046360,0.00016482,-0.00106487,0.00045169,0.0008
 9839,-0.00141223,-0.00011891,0.00094174,-0.00430344,-0.02147951,-0.006
 02002,0.00394457,0.00020539,0.00025319,-0.00042811,-0.00103266,-0.0006
 9424,-0.08860364,-0.26608013,-0.04566396,-0.00622419,-0.00862142,0.004
 99618,0.00135347,0.00143519,-0.00210351,-0.00001739,-0.00003134,0.0000
 0389,-0.00001763,-0.00000578,-0.00002380,-0.00000399,-0.00002397,-0.00
 001888,-0.00020061,-0.00006299,0.00010685,-0.00030846,-0.00032789,-0.0
 0014255,-0.00037332,0.00087986,0.00031452,-0.00006575,0.00016864,0.000
 15915,-0.00000185,0.00011808,-0.00006706,-0.00002978,-0.00005978,0.000
 00525,0.00030992,-0.00030528,0.00005147,0.09611685,0.29216034,-0.00009
 010,0.00006370,-0.00002499,0.00035715,0.00055114,0.00006354,-0.0003648
 1,-0.00016369,-0.00085501,-0.00009762,-0.00059205,-0.00016511,-0.00202
 645,-0.00418444,-0.00112103,0.00133910,-0.00012585,0.00005499,0.000086
 66,-0.00046015,0.00013623,-0.01858106,-0.04396511,-0.05437032,0.012238
 20,0.02957783,0.00254692,0.00052312,-0.00303179,-0.00285310,0.00001757
 ,-0.00001891,-0.00001758,0.00002012,0.00000009,0.00001849,-0.00004706,
 -0.00003051,-0.00000708,-0.00007711,-0.00010116,0.00026900,-0.00011816
 ,0.00004356,0.00001779,0.00033136,0.00054134,0.00015619,-0.00017997,-0
 .00009359,0.00002256,0.00011219,0.00033883,0.00033666,0.00007189,-0.00
 010604,-0.00000880,0.00007071,-0.00010611,0.00003573,0.01622405,0.0466
 1459,0.06029691,-0.00000989,-0.00001258,-0.00003403,0.00014603,0.00021
 062,-0.00006613,-0.00046390,-0.00075277,0.00025220,0.00270776,-0.00085
 644,0.00005965,-0.01624987,0.00314847,-0.02228073,0.00069573,-0.001504
 62,-0.00054190,0.00010843,-0.00013963,0.00035839,-0.12553156,0.0045165
 9,-0.11960055,0.01350581,-0.00048312,0.01984219,-0.00387289,-0.0012344
 4,0.00000021,-0.00000288,0.00001998,0.00001472,0.00000098,0.00001939,-
 0.00000410,0.00001631,0.00000773,0.00000506,-0.00006900,0.00002632,0.0
 0001080,0.00020307,0.00009629,0.00004858,-0.00348703,0.00338320,0.0015
 5489,0.00005691,0.00012246,0.00009677,0.00043616,0.00065341,0.00058684
 ,0.00007314,-0.00029948,-0.00000232,0.00005609,0.00002878,0.00002133,-
 0.00636248,0.00118551,-0.00980979,0.13804308,0.00002239,-0.00002630,0.
 00002777,0.00000027,0.00002342,0.00007001,-0.00028509,-0.00018117,0.00
 015466,-0.00181993,0.00082925,-0.00015897,0.01400201,-0.00319269,0.018
 17256,0.00046955,0.00101900,0.00184094,-0.00030711,0.00005141,-0.00026
 137,0.00490547,-0.04407708,0.00780458,0.00516178,-0.00298610,0.0106566
 3,-0.00119245,0.00075449,-0.00048790,-0.00002208,-0.00001575,0.0000072
 7,0.00000019,0.00000979,-0.00001200,0.00000212,-0.00000094,0.00000258,
 -0.00004040,0.00003408,0.00000787,-0.00025219,0.00002664,0.00004735,0.
 00332280,-0.00221747,-0.00098225,-0.00009677,-0.00009198,0.00002229,-0
 .00010659,-0.00025098,-0.00073763,-0.00011271,0.00021261,-0.00006382,-
 0.00006041,-0.00003976,-0.00004011,-0.01545518,0.00224603,-0.02475168,
 -0.00813568,0.04787350,0.00000856,-0.00001114,0.00002522,-0.00004413,0
 .00004465,-0.00002754,-0.00002308,0.00011447,0.00002368,-0.00015064,-0
 .00045584,0.00108090,0.00168641,0.00035156,0.00354921,0.00048004,-0.00
 002260,0.00057715,0.00012768,-0.00002057,0.00022526,-0.12137014,0.0086
 4490,-0.22354920,-0.00916896,0.00273474,-0.02796431,0.00132317,0.00002
 193,0.00299432,-0.00000936,-0.00001339,0.00000325,-0.00000255,0.000000
 03,-0.00000628,0.00000068,-0.00000574,-0.00000605,-0.00002204,0.000014
 07,-0.00001841,0.00000018,-0.00008195,0.00016818,0.00105970,-0.0005339
 6,0.00060121,-0.00007496,0.00001925,-0.00005301,-0.00006462,0.00039569
 ,0.00020217,0.00004291,-0.00006242,-0.00010159,-0.00004273,0.00002558,
 -0.00001458,-0.00324407,0.00015952,-0.00453198,0.12948793,-0.01131876,
 0.24682241\\-0.00000338,0.00000558,-0.00002081,-0.00001710,0.00000555,
 0.00004845,0.00001355,-0.00000782,-0.00002254,-0.00002688,0.00005434,0
 .00000542,0.00000263,-0.00001108,-0.00000468,0.00001759,-0.00000435,-0
 .00000573,-0.00001068,0.00001161,0.00001522,0.00001372,0.00000276,-0.0
 0001629,-0.00002295,0.00000645,0.00002748,0.00001962,0.00000193,-0.000
 02449,0.00000527,0.00000196,0.00000479,-0.00000968,-0.00000464,0.00000
 385,0.00000470,-0.00000608,-0.00000450,0.00000299,-0.00000903,-0.00001
 131,0.00002413,-0.00003364,-0.00000319,-0.00000318,0.00000266,0.000007
 21,0.00000543,0.00000232,0.00000599,-0.00000612,-0.00000456,-0.0000009
 3,-0.00000084,-0.00001194,-0.00000433,0.00000503,-0.00000584,-0.000013
 34,-0.00000389,0.00000260,0.00000894,-0.00000997,0.00000120,0.00000480
 \\\@


 MICRO CREDO - NEVER TRUST A COMPUTER BIGGER
               BIGGER THAN YOU CAN LIFT.
 Job cpu time:       0 days  3 hours  8 minutes 23.1 seconds.
 Elapsed time:       0 days  0 hours 47 minutes  8.1 seconds.
 File lengths (MBytes):  RWF=    193 Int=      0 D2E=      0 Chk=     10 Scr=      1
 Normal termination of Gaussian 16 at Mon May 31 22:52:18 2021.
### All Done ###
