### Starting Gaussian ###
 Entering Gaussian System, Link 0=g16
 Initial command:
 /cluster/software/gaussian/gaussian-16-A.03/avx2/g16/l1.exe "/local/scratch/cz9n3/Gau-5915.inp" -scrdir="/local/scratch/cz9n3/"
 Entering Link 1 = /cluster/software/gaussian/gaussian-16-A.03/avx2/g16/l1.exe PID=      5916.
  
 Copyright (c) 1988,1990,1992,1993,1995,1998,2003,2009,2016,
            Gaussian, Inc.  All Rights Reserved.
  
 This is part of the Gaussian(R) 16 program.  It is based on
 the Gaussian(R) 09 system (copyright 2009, Gaussian, Inc.),
 the Gaussian(R) 03 system (copyright 2003, Gaussian, Inc.),
 the Gaussian(R) 98 system (copyright 1998, Gaussian, Inc.),
 the Gaussian(R) 94 system (copyright 1995, Gaussian, Inc.),
 the Gaussian 92(TM) system (copyright 1992, Gaussian, Inc.),
 the Gaussian 90(TM) system (copyright 1990, Gaussian, Inc.),
 the Gaussian 88(TM) system (copyright 1988, Gaussian, Inc.),
 the Gaussian 86(TM) system (copyright 1986, Carnegie Mellon
 University), and the Gaussian 82(TM) system (copyright 1983,
 Carnegie Mellon University). Gaussian is a federally registered
 trademark of Gaussian, Inc.
  
 This software contains proprietary and confidential information,
 including trade secrets, belonging to Gaussian, Inc.
  
 This software is provided under written license and may be
 used, copied, transmitted, or stored only in accord with that
 written license.
  
 The following legend is applicable only to US Government
 contracts under FAR:
  
                    RESTRICTED RIGHTS LEGEND
  
 Use, reproduction and disclosure by the US Government is
 subject to restrictions as set forth in subparagraphs (a)
 and (c) of the Commercial Computer Software - Restricted
 Rights clause in FAR 52.227-19.
  
 Gaussian, Inc.
 340 Quinnipiac St., Bldg. 40, Wallingford CT 06492
  
  
 ---------------------------------------------------------------
 Warning -- This program may not be used in any manner that
 competes with the business of Gaussian, Inc. or will provide
 assistance to any competitor of Gaussian, Inc.  The licensee
 of this program is prohibited from giving any competitor of
 Gaussian, Inc. access to this program.  By using this program,
 the user acknowledges that Gaussian, Inc. is engaged in the
 business of creating and licensing software in the field of
 computational chemistry and represents and warrants to the
 licensee that it is not a competitor of Gaussian, Inc. and that
 it will not use this program in any manner prohibited above.
 ---------------------------------------------------------------
  

 Cite this work as:
 Gaussian 16, Revision A.03,
 M. J. Frisch, G. W. Trucks, H. B. Schlegel, G. E. Scuseria, 
 M. A. Robb, J. R. Cheeseman, G. Scalmani, V. Barone, 
 G. A. Petersson, H. Nakatsuji, X. Li, M. Caricato, A. V. Marenich, 
 J. Bloino, B. G. Janesko, R. Gomperts, B. Mennucci, H. P. Hratchian, 
 J. V. Ortiz, A. F. Izmaylov, J. L. Sonnenberg, D. Williams-Young, 
 F. Ding, F. Lipparini, F. Egidi, J. Goings, B. Peng, A. Petrone, 
 T. Henderson, D. Ranasinghe, V. G. Zakrzewski, J. Gao, N. Rega, 
 G. Zheng, W. Liang, M. Hada, M. Ehara, K. Toyota, R. Fukuda, 
 J. Hasegawa, M. Ishida, T. Nakajima, Y. Honda, O. Kitao, H. Nakai, 
 T. Vreven, K. Throssell, J. A. Montgomery, Jr., J. E. Peralta, 
 F. Ogliaro, M. J. Bearpark, J. J. Heyd, E. N. Brothers, K. N. Kudin, 
 V. N. Staroverov, T. A. Keith, R. Kobayashi, J. Normand, 
 K. Raghavachari, A. P. Rendell, J. C. Burant, S. S. Iyengar, 
 J. Tomasi, M. Cossi, J. M. Millam, M. Klene, C. Adamo, R. Cammi, 
 J. W. Ochterski, R. L. Martin, K. Morokuma, O. Farkas, 
 J. B. Foresman, and D. J. Fox, Gaussian, Inc., Wallingford CT, 2016.
 
 ******************************************
 Gaussian 16:  ES64L-G16RevA.03 25-Dec-2016
                31-May-2021 
 ******************************************
 %chk=CCdNCNCNpNpCCtN.chk
 %NProcShared=20
 Will use up to   20 processors via shared memory.
 -----------------------------
 # opt freq b3lyp/6-31g(2df,p)
 -----------------------------
 1/18=20,19=15,26=3,38=1/1,3;
 2/9=110,12=2,17=6,18=5,40=1/2;
 3/5=1,6=6,7=104,11=2,25=1,30=1,71=1,74=-5/1,2,3;
 4//1;
 5/5=2,38=5/2;
 6/7=2,8=2,9=2,10=2,28=1/1;
 7//1,2,3,16;
 1/18=20,19=15,26=3/3(2);
 2/9=110/2;
 99//99;
 2/9=110/2;
 3/5=1,6=6,7=104,11=2,25=1,30=1,71=1,74=-5/1,2,3;
 4/5=5,16=3,69=1/1;
 5/5=2,38=5/2;
 7//1,2,3,16;
 1/18=20,19=15,26=3/3(-5);
 2/9=110/2;
 6/7=2,8=2,9=2,10=2,19=2,28=1/1;
 99/9=1/99;
 -------------------
 Title Card Required
 -------------------
 Symbolic Z-matrix:
 Charge =  0 Multiplicity = 1
 C                     0.98067   0.05744  -0.06332 
 C                     2.48275   0.10656  -0.07403 
 N                     3.09044   1.21132  -0.33043 
 C                     4.5473    1.13796  -0.34513 
 N                     5.07282   2.44552  -0.69793 
 C                     6.52947   2.4753   -0.66836 
 N                     7.00097   3.83506  -1.00515 
 N                     6.51246   4.79638   0.00509 
 C                     8.48975   3.86222  -1.03092 
 C                     9.0334    5.18886  -1.40257 
 N                     9.44035   6.24996  -1.65764 
 H                     0.63931  -0.95009   0.19016 
 H                     0.59604   0.3246   -1.05154 
 H                     0.5928    0.76266   0.67647 
 H                     3.01205  -0.83877   0.14425 
 H                     4.8863    0.39669  -1.07821 
 H                     4.91021   0.84515   0.64813 
 H                     4.72229   3.09322  -0.00195 
 H                     6.91185   1.77021  -1.41633 
 H                     6.90589   2.17296   0.3172 
 H                     5.49322   4.85753  -0.07942 
 H                     6.80638   5.74761  -0.25197 
 H                     8.85677   3.13352  -1.76507 
 H                     8.89543   3.57007  -0.05339 
 

 GradGradGradGradGradGradGradGradGradGradGradGradGradGradGradGradGradGrad
 Berny optimization.
 Initialization pass.
                           ----------------------------
                           !    Initial Parameters    !
                           ! (Angstroms and Degrees)  !
 --------------------------                            --------------------------
 ! Name  Definition              Value          Derivative Info.                !
 --------------------------------------------------------------------------------
 ! R1    R(1,2)                  1.5029         estimate D2E/DX2                !
 ! R2    R(1,12)                 1.0936         estimate D2E/DX2                !
 ! R3    R(1,13)                 1.0936         estimate D2E/DX2                !
 ! R4    R(1,14)                 1.0932         estimate D2E/DX2                !
 ! R5    R(2,3)                  1.2867         estimate D2E/DX2                !
 ! R6    R(2,15)                 1.1052         estimate D2E/DX2                !
 ! R7    R(3,4)                  1.4588         estimate D2E/DX2                !
 ! R8    R(4,5)                  1.4527         estimate D2E/DX2                !
 ! R9    R(4,16)                 1.0963         estimate D2E/DX2                !
 ! R10   R(4,17)                 1.0973         estimate D2E/DX2                !
 ! R11   R(5,6)                  1.4573         estimate D2E/DX2                !
 ! R12   R(5,18)                 1.0133         estimate D2E/DX2                !
 ! R13   R(6,7)                  1.4781         estimate D2E/DX2                !
 ! R14   R(6,19)                 1.0967         estimate D2E/DX2                !
 ! R15   R(6,20)                 1.0975         estimate D2E/DX2                !
 ! R16   R(7,8)                  1.4776         estimate D2E/DX2                !
 ! R17   R(7,9)                  1.4893         estimate D2E/DX2                !
 ! R18   R(8,21)                 1.0246         estimate D2E/DX2                !
 ! R19   R(8,22)                 1.0283         estimate D2E/DX2                !
 ! R20   R(9,10)                 1.4811         estimate D2E/DX2                !
 ! R21   R(9,23)                 1.0976         estimate D2E/DX2                !
 ! R22   R(9,24)                 1.0979         estimate D2E/DX2                !
 ! R23   R(10,11)                1.1647         estimate D2E/DX2                !
 ! A1    A(2,1,12)             110.1049         estimate D2E/DX2                !
 ! A2    A(2,1,13)             109.7002         estimate D2E/DX2                !
 ! A3    A(2,1,14)             109.7761         estimate D2E/DX2                !
 ! A4    A(12,1,13)            108.9505         estimate D2E/DX2                !
 ! A5    A(12,1,14)            109.0707         estimate D2E/DX2                !
 ! A6    A(13,1,14)            109.2167         estimate D2E/DX2                !
 ! A7    A(1,2,3)              120.1002         estimate D2E/DX2                !
 ! A8    A(1,2,15)             116.6981         estimate D2E/DX2                !
 ! A9    A(3,2,15)             123.2016         estimate D2E/DX2                !
 ! A10   A(2,3,4)              115.4995         estimate D2E/DX2                !
 ! A11   A(3,4,5)              108.5698         estimate D2E/DX2                !
 ! A12   A(3,4,16)             110.4608         estimate D2E/DX2                !
 ! A13   A(3,4,17)             109.5483         estimate D2E/DX2                !
 ! A14   A(5,4,16)             109.5331         estimate D2E/DX2                !
 ! A15   A(5,4,17)             109.9001         estimate D2E/DX2                !
 ! A16   A(16,4,17)            108.8204         estimate D2E/DX2                !
 ! A17   A(4,5,6)              112.0286         estimate D2E/DX2                !
 ! A18   A(4,5,18)             106.4625         estimate D2E/DX2                !
 ! A19   A(6,5,18)             108.5895         estimate D2E/DX2                !
 ! A20   A(5,6,7)              109.4535         estimate D2E/DX2                !
 ! A21   A(5,6,19)             108.7556         estimate D2E/DX2                !
 ! A22   A(5,6,20)             110.8205         estimate D2E/DX2                !
 ! A23   A(7,6,19)             108.9548         estimate D2E/DX2                !
 ! A24   A(7,6,20)             110.4047         estimate D2E/DX2                !
 ! A25   A(19,6,20)            108.4067         estimate D2E/DX2                !
 ! A26   A(6,7,8)              109.7103         estimate D2E/DX2                !
 ! A27   A(6,7,9)              109.8535         estimate D2E/DX2                !
 ! A28   A(8,7,9)              109.2971         estimate D2E/DX2                !
 ! A29   A(7,8,21)             108.139          estimate D2E/DX2                !
 ! A30   A(7,8,22)             109.6595         estimate D2E/DX2                !
 ! A31   A(21,8,22)            102.0359         estimate D2E/DX2                !
 ! A32   A(7,9,10)             112.8065         estimate D2E/DX2                !
 ! A33   A(7,9,23)             109.4966         estimate D2E/DX2                !
 ! A34   A(7,9,24)             110.4331         estimate D2E/DX2                !
 ! A35   A(10,9,23)            107.7038         estimate D2E/DX2                !
 ! A36   A(10,9,24)            109.0335         estimate D2E/DX2                !
 ! A37   A(23,9,24)            107.176          estimate D2E/DX2                !
 ! A38   L(9,10,11,22,-1)      178.0645         estimate D2E/DX2                !
 ! A39   L(9,10,11,22,-2)      178.7888         estimate D2E/DX2                !
 ! D1    D(12,1,2,3)          -178.9377         estimate D2E/DX2                !
 ! D2    D(12,1,2,15)            1.1533         estimate D2E/DX2                !
 ! D3    D(13,1,2,3)            61.1688         estimate D2E/DX2                !
 ! D4    D(13,1,2,15)         -118.7402         estimate D2E/DX2                !
 ! D5    D(14,1,2,3)           -58.848          estimate D2E/DX2                !
 ! D6    D(14,1,2,15)          121.2429         estimate D2E/DX2                !
 ! D7    D(1,2,3,4)           -178.6254         estimate D2E/DX2                !
 ! D8    D(15,2,3,4)             1.2774         estimate D2E/DX2                !
 ! D9    D(2,3,4,5)            177.8287         estimate D2E/DX2                !
 ! D10   D(2,3,4,16)            57.7089         estimate D2E/DX2                !
 ! D11   D(2,3,4,17)           -62.1499         estimate D2E/DX2                !
 ! D12   D(3,4,5,6)            177.0799         estimate D2E/DX2                !
 ! D13   D(3,4,5,18)            58.515          estimate D2E/DX2                !
 ! D14   D(16,4,5,6)           -62.225          estimate D2E/DX2                !
 ! D15   D(16,4,5,18)          179.2101         estimate D2E/DX2                !
 ! D16   D(17,4,5,6)            57.2777         estimate D2E/DX2                !
 ! D17   D(17,4,5,18)          -61.2872         estimate D2E/DX2                !
 ! D18   D(4,5,6,7)           -178.7317         estimate D2E/DX2                !
 ! D19   D(4,5,6,19)            62.3382         estimate D2E/DX2                !
 ! D20   D(4,5,6,20)           -56.7327         estimate D2E/DX2                !
 ! D21   D(18,5,6,7)           -61.4339         estimate D2E/DX2                !
 ! D22   D(18,5,6,19)          179.636          estimate D2E/DX2                !
 ! D23   D(18,5,6,20)           60.5652         estimate D2E/DX2                !
 ! D24   D(5,6,7,8)             62.0812         estimate D2E/DX2                !
 ! D25   D(5,6,7,9)           -177.7483         estimate D2E/DX2                !
 ! D26   D(19,6,7,8)          -179.1121         estimate D2E/DX2                !
 ! D27   D(19,6,7,9)           -58.9416         estimate D2E/DX2                !
 ! D28   D(20,6,7,8)           -60.1669         estimate D2E/DX2                !
 ! D29   D(20,6,7,9)            60.0036         estimate D2E/DX2                !
 ! D30   D(6,7,8,21)           -67.0641         estimate D2E/DX2                !
 ! D31   D(6,7,8,22)          -177.5545         estimate D2E/DX2                !
 ! D32   D(9,7,8,21)           172.4274         estimate D2E/DX2                !
 ! D33   D(9,7,8,22)            61.937          estimate D2E/DX2                !
 ! D34   D(6,7,9,10)           178.2878         estimate D2E/DX2                !
 ! D35   D(6,7,9,23)            58.3653         estimate D2E/DX2                !
 ! D36   D(6,7,9,24)           -59.4231         estimate D2E/DX2                !
 ! D37   D(8,7,9,10)           -61.2913         estimate D2E/DX2                !
 ! D38   D(8,7,9,23)           178.7862         estimate D2E/DX2                !
 ! D39   D(8,7,9,24)            60.9978         estimate D2E/DX2                !
 --------------------------------------------------------------------------------
 Trust Radius=3.00D-01 FncErr=1.00D-07 GrdErr=1.00D-06 EigMax=2.50D+02 EigMin=1.00D-04
 Number of steps in this run=    111 maximum allowed number of steps=    144.
 GradGradGradGradGradGradGradGradGradGradGradGradGradGradGradGradGradGrad

                          Input orientation:                          
 ---------------------------------------------------------------------
 Center     Atomic      Atomic             Coordinates (Angstroms)
 Number     Number       Type             X           Y           Z
 ---------------------------------------------------------------------
      1          6           0        0.980670    0.057440   -0.063320
      2          6           0        2.482750    0.106560   -0.074030
      3          7           0        3.090440    1.211320   -0.330430
      4          6           0        4.547300    1.137960   -0.345130
      5          7           0        5.072820    2.445520   -0.697930
      6          6           0        6.529470    2.475300   -0.668360
      7          7           0        7.000970    3.835060   -1.005150
      8          7           0        6.512460    4.796380    0.005090
      9          6           0        8.489750    3.862220   -1.030920
     10          6           0        9.033400    5.188860   -1.402570
     11          7           0        9.440350    6.249960   -1.657640
     12          1           0        0.639310   -0.950090    0.190160
     13          1           0        0.596040    0.324600   -1.051540
     14          1           0        0.592800    0.762660    0.676470
     15          1           0        3.012050   -0.838770    0.144250
     16          1           0        4.886300    0.396690   -1.078210
     17          1           0        4.910210    0.845150    0.648130
     18          1           0        4.722290    3.093220   -0.001950
     19          1           0        6.911850    1.770210   -1.416330
     20          1           0        6.905890    2.172960    0.317200
     21          1           0        5.493220    4.857530   -0.079420
     22          1           0        6.806380    5.747610   -0.251970
     23          1           0        8.856770    3.133520   -1.765070
     24          1           0        8.895430    3.570070   -0.053390
 ---------------------------------------------------------------------
                    Distance matrix (angstroms):
                    1          2          3          4          5
     1  C    0.000000
     2  C    1.502921   0.000000
     3  N    2.419487   1.286671   0.000000
     4  C    3.737351   2.323714   1.458780   0.000000
     5  N    4.780308   3.545201   2.363924   1.452705   0.000000
     6  C    6.082870   4.726532   3.679507   2.412873   1.457254
     7  N    7.169482   5.931527   4.757258   3.705465   2.396449
     8  N    7.284431   6.183788   4.967439   4.167559   2.844880
     9  C    8.473422   7.148753   6.055618   4.840952   3.713938
    10  C    9.642174   8.396774   7.231119   6.136209   4.869150
    11  N   10.604496   9.415805   8.214057   7.197025   5.871126
    12  H    1.093570   2.141162   3.309191   4.463057   5.654634
    13  H    1.093569   2.136058   2.743775   4.095488   4.966377
    14  H    1.093191   2.136733   2.730082   4.101535   4.979114
    15  H    2.229974   1.105194   2.105786   2.550284   3.967695
    16  H    4.049573   2.620993   2.109007   1.096270   2.092154
    17  H    4.070373   2.638104   2.098386   1.097272   2.097499
    18  H    4.818656   3.733748   2.512445   1.992846   1.013299
    19  H    6.320056   4.917970   4.011821   2.671761   2.086666
    20  H    6.303051   4.897677   3.987710   2.659484   2.113037
    21  H    6.588189   5.624471   4.373923   3.847151   2.525289
    22  H    8.145706   7.109633   5.864494   5.134296   3.756050
    23  H    8.625032   7.256048   6.245287   4.956816   3.991292
    24  H    8.659220   7.288264   6.272030   4.990642   4.036383
                    6          7          8          9         10
     6  C    0.000000
     7  N    1.478069   0.000000
     8  N    2.416865   1.477621   0.000000
     9  C    2.428517   1.489251   2.419844   0.000000
    10  C    3.764590   2.474164   2.913878   1.481098   0.000000
    11  N    4.868260   3.494003   3.667439   2.645321   1.164733
    12  H    6.867630   8.049667   8.218884   9.288637  10.520658
    13  H    6.322810   7.304013   7.491149   8.650193   9.745424
    14  H    6.323429   7.302885   7.194722   8.653570   9.754865
    15  H    4.900575   6.251183   6.635296   7.313380   8.659193
    16  H    2.681157   4.037271   4.814063   4.999699   6.345750
    17  H    2.648120   4.005518   4.311951   4.973432   6.330394
    18  H    2.022826   2.597907   2.470933   3.980439   4.993908
    19  H    1.096734   2.107277   3.367143   2.648550   4.023473
    20  H    1.097465   2.126082   2.671055   2.679485   4.071801
    21  H    2.663773   2.043461   1.024564   3.297755   3.793861
    22  H    3.310298   2.064702   1.028255   2.644843   2.568209
    23  H    2.655626   2.124531   3.375553   1.097581   2.094523
    24  H    2.678521   2.136597   2.680635   1.097949   2.111825
                   11         12         13         14         15
    11  N    0.000000
    12  H   11.520130   0.000000
    13  H   10.662976   1.780035   0.000000
    14  H   10.669474   1.781060   1.782674   0.000000
    15  H    9.737553   2.375794   2.936060   2.949679   0.000000
    16  H    7.438809   4.632440   4.290949   4.652631   2.556087
    17  H    7.419617   4.655449   4.666038   4.318291   2.586985
    18  H    5.913240   5.749434   5.078665   4.790037   4.290319
    19  H    5.149728   7.023219   6.489400   6.732411   4.944757
    20  H    5.190897   7.002828   6.715958   6.478667   4.925690
    21  H    4.473195   7.573742   6.743504   6.430665   6.217239
    22  H    3.027550   9.115230   8.283518   8.019994   7.611461
    23  H    3.172429   9.382188   8.754360   8.937298   7.320201
    24  H    3.170547   9.415661   8.967121   8.794766   7.354665
                   16         17         18         19         20
    16  H    0.000000
    17  H    1.783799   0.000000
    18  H    2.908008   2.347709   0.000000
    19  H    2.470574   3.020645   2.923183   0.000000
    20  H    3.030024   2.419779   2.390992   1.779710   0.000000
    21  H    4.611402   4.119275   1.926947   3.651217   3.059389
    22  H    5.744713   5.332894   3.384040   4.145669   3.621047
    23  H    4.871001   5.160960   4.494902   2.400614   3.010724
    24  H    5.214760   4.878452   4.200611   3.005277   2.459171
                   21         22         23         24
    21  H    0.000000
    22  H    1.595746   0.000000
    23  H    4.138489   3.650621   0.000000
    24  H    3.637755   3.024111   1.766895   0.000000
 Stoichiometry    C6H13N5
 Framework group  C1[X(C6H13N5)]
 Deg. of freedom    66
 Full point group                 C1      NOp   1
 Largest Abelian subgroup         C1      NOp   1
 Largest concise Abelian subgroup C1      NOp   1
                         Standard orientation:                         
 ---------------------------------------------------------------------
 Center     Atomic      Atomic             Coordinates (Angstroms)
 Number     Number       Type             X           Y           Z
 ---------------------------------------------------------------------
      1          6           0       -5.375292    0.545488   -0.259253
      2          6           0       -4.145398   -0.260829    0.050561
      3          7           0       -2.977610    0.238242   -0.156131
      4          6           0       -1.855315   -0.642031    0.149832
      5          7           0       -0.621520    0.048073   -0.184617
      6          6           0        0.555534   -0.740610    0.156137
      7          7           0        1.774810    0.024915   -0.178563
      8          7           0        1.819627    1.265883    0.622283
      9          6           0        2.983113   -0.794480    0.115480
     10          6           0        4.245033   -0.102796   -0.234926
     11          7           0        5.226663    0.474150   -0.480154
     12          1           0       -6.272843   -0.025483   -0.005700
     13          1           0       -5.398127    0.788165   -1.325311
     14          1           0       -5.365807    1.472178    0.320596
     15          1           0       -4.306496   -1.277548    0.452782
     16          1           0       -1.925888   -1.569008   -0.431151
     17          1           0       -1.865555   -0.892194    1.218158
     18          1           0       -0.610381    0.899127    0.365254
     19          1           0        0.542794   -1.665671   -0.432867
     20          1           0        0.551475   -1.007503    1.220647
     21          1           0        1.052441    1.871567    0.315192
     22          1           0        2.646655    1.817499    0.359509
     23          1           0        2.942446   -1.727283   -0.461502
     24          1           0        3.009447   -1.071139    1.177675
 ---------------------------------------------------------------------
 Rotational constants (GHZ):           5.4409184           0.2985775           0.2893597
 Standard basis: 6-31G(2df,p) (6D, 7F)
 There are   406 symmetry adapted cartesian basis functions of A   symmetry.
 There are   373 symmetry adapted basis functions of A   symmetry.
   373 basis functions,   575 primitive gaussians,   406 cartesian basis functions
    42 alpha electrons       42 beta electrons
       nuclear repulsion energy       571.0745592164 Hartrees.
 NAtoms=   24 NActive=   24 NUniq=   24 SFac= 1.00D+00 NAtFMM=   60 NAOKFM=F Big=F
 Integral buffers will be    131072 words long.
 Raffenetti 2 integral format.
 Two-electron integral symmetry is turned on.
 One-electron integrals computed using PRISM.
 PrsmSu:  requested number of processors reduced to:  13 ShMem   1 Linda.
 NBasis=   373 RedAO= T EigKep=  1.56D-04  NBF=   373
 NBsUse=   373 1.00D-06 EigRej= -1.00D+00 NBFU=   373
 ExpMin= 1.61D-01 ExpMax= 4.17D+03 ExpMxC= 6.27D+02 IAcc=3 IRadAn=         5 AccDes= 0.00D+00
 Harris functional with IExCor=  402 and IRadAn=       5 diagonalized for initial guess.
 HarFok:  IExCor=  402 AccDes= 0.00D+00 IRadAn=         5 IDoV= 1 UseB2=F ITyADJ=14
 ICtDFT=  3500011 ScaDFX=  1.000000  1.000000  1.000000  1.000000
 FoFCou: FMM=F IPFlag=           0 FMFlag=      100000 FMFlg1=           0
         NFxFlg=           0 DoJE=T BraDBF=F KetDBF=T FulRan=T
         wScrn=  0.000000 ICntrl=       500 IOpCl=  0 I1Cent=   200000004 NGrid=           0
         NMat0=    1 NMatS0=      1 NMatT0=    0 NMatD0=    1 NMtDS0=    0 NMtDT0=    0
 Petite list used in FoFCou.
 Requested convergence on RMS density matrix=1.00D-08 within 128 cycles.
 Requested convergence on MAX density matrix=1.00D-06.
 Requested convergence on             energy=1.00D-06.
 No special actions if energy rises.
 Integral accuracy reduced to 1.0D-05 until final iterations.
 Initial convergence to 1.0D-05 achieved.  Increase integral accuracy.
 SCF Done:  E(RB3LYP) =  -510.142959432     A.U. after   14 cycles
            NFock= 14  Conv=0.63D-08     -V/T= 2.0081

 **********************************************************************

            Population analysis using the SCF density.

 **********************************************************************

 Orbital symmetries:
       Occupied  (A) (A) (A) (A) (A) (A) (A) (A) (A) (A) (A) (A)
                 (A) (A) (A) (A) (A) (A) (A) (A) (A) (A) (A) (A)
                 (A) (A) (A) (A) (A) (A) (A) (A) (A) (A) (A) (A)
                 (A) (A) (A) (A) (A) (A)
       Virtual   (A) (A) (A) (A) (A) (A) (A) (A) (A) (A) (A) (A)
                 (A) (A) (A) (A) (A) (A) (A) (A) (A) (A) (A) (A)
                 (A) (A) (A) (A) (A) (A) (A) (A) (A) (A) (A) (A)
                 (A) (A) (A) (A) (A) (A) (A) (A) (A) (A) (A) (A)
                 (A) (A) (A) (A) (A) (A) (A) (A) (A) (A) (A) (A)
                 (A) (A) (A) (A) (A) (A) (A) (A) (A) (A) (A) (A)
                 (A) (A) (A) (A) (A) (A) (A) (A) (A) (A) (A) (A)
                 (A) (A) (A) (A) (A) (A) (A) (A) (A) (A) (A) (A)
                 (A) (A) (A) (A) (A) (A) (A) (A) (A) (A) (A) (A)
                 (A) (A) (A) (A) (A) (A) (A) (A) (A) (A) (A) (A)
                 (A) (A) (A) (A) (A) (A) (A) (A) (A) (A) (A) (A)
                 (A) (A) (A) (A) (A) (A) (A) (A) (A) (A) (A) (A)
                 (A) (A) (A) (A) (A) (A) (A) (A) (A) (A) (A) (A)
                 (A) (A) (A) (A) (A) (A) (A) (A) (A) (A) (A) (A)
                 (A) (A) (A) (A) (A) (A) (A) (A) (A) (A) (A) (A)
                 (A) (A) (A) (A) (A) (A) (A) (A) (A) (A) (A) (A)
                 (A) (A) (A) (A) (A) (A) (A) (A) (A) (A) (A) (A)
                 (A) (A) (A) (A) (A) (A) (A) (A) (A) (A) (A) (A)
                 (A) (A) (A) (A) (A) (A) (A) (A) (A) (A) (A) (A)
                 (A) (A) (A) (A) (A) (A) (A) (A) (A) (A) (A) (A)
                 (A) (A) (A) (A) (A) (A) (A) (A) (A) (A) (A) (A)
                 (A) (A) (A) (A) (A) (A) (A) (A) (A) (A) (A) (A)
                 (A) (A) (A) (A) (A) (A) (A) (A) (A) (A) (A) (A)
                 (A) (A) (A) (A) (A) (A) (A) (A) (A) (A) (A) (A)
                 (A) (A) (A) (A) (A) (A) (A) (A) (A) (A) (A) (A)
                 (A) (A) (A) (A) (A) (A) (A) (A) (A) (A) (A) (A)
                 (A) (A) (A) (A) (A) (A) (A) (A) (A) (A) (A) (A)
                 (A) (A) (A) (A) (A) (A) (A)
 The electronic state is 1-A.
 Alpha  occ. eigenvalues --  -14.36799 -14.35008 -14.33720 -14.32771 -14.31961
 Alpha  occ. eigenvalues --  -10.26433 -10.24446 -10.23692 -10.23540 -10.22955
 Alpha  occ. eigenvalues --  -10.18963  -0.98063  -0.93680  -0.90245  -0.88678
 Alpha  occ. eigenvalues --   -0.81753  -0.75597  -0.72919  -0.65723  -0.62291
 Alpha  occ. eigenvalues --   -0.56635  -0.53238  -0.52403  -0.50824  -0.49134
 Alpha  occ. eigenvalues --   -0.47900  -0.45383  -0.43737  -0.43653  -0.42243
 Alpha  occ. eigenvalues --   -0.41514  -0.39596  -0.38599  -0.38189  -0.36157
 Alpha  occ. eigenvalues --   -0.33754  -0.33501  -0.32405  -0.29099  -0.26356
 Alpha  occ. eigenvalues --   -0.23492  -0.20408
 Alpha virt. eigenvalues --   -0.01967   0.01544   0.03372   0.06347   0.08859
 Alpha virt. eigenvalues --    0.09771   0.10208   0.11007   0.11944   0.13075
 Alpha virt. eigenvalues --    0.14994   0.16093   0.16692   0.17080   0.17892
 Alpha virt. eigenvalues --    0.18642   0.19241   0.20089   0.21303   0.22221
 Alpha virt. eigenvalues --    0.22720   0.24391   0.25800   0.29253   0.32371
 Alpha virt. eigenvalues --    0.34611   0.38980   0.43443   0.45646   0.46275
 Alpha virt. eigenvalues --    0.48454   0.48683   0.49589   0.50125   0.50805
 Alpha virt. eigenvalues --    0.53503   0.55095   0.56573   0.57501   0.57905
 Alpha virt. eigenvalues --    0.58751   0.59256   0.61613   0.62444   0.64403
 Alpha virt. eigenvalues --    0.64931   0.65601   0.66454   0.67426   0.67703
 Alpha virt. eigenvalues --    0.68031   0.69177   0.69573   0.72252   0.72724
 Alpha virt. eigenvalues --    0.74108   0.74226   0.74570   0.74872   0.75341
 Alpha virt. eigenvalues --    0.76738   0.77308   0.79141   0.80102   0.80461
 Alpha virt. eigenvalues --    0.81054   0.82239   0.82876   0.84035   0.85055
 Alpha virt. eigenvalues --    0.86067   0.86498   0.87582   0.87715   0.88266
 Alpha virt. eigenvalues --    0.89695   0.91741   0.94036   0.95364   0.98664
 Alpha virt. eigenvalues --    0.99130   1.03509   1.06496   1.10353   1.11164
 Alpha virt. eigenvalues --    1.12392   1.15362   1.16063   1.18103   1.20296
 Alpha virt. eigenvalues --    1.21437   1.24656   1.25366   1.28342   1.30088
 Alpha virt. eigenvalues --    1.30204   1.31420   1.33303   1.36067   1.36913
 Alpha virt. eigenvalues --    1.37405   1.40721   1.41271   1.42898   1.45335
 Alpha virt. eigenvalues --    1.45814   1.47254   1.52026   1.53373   1.54060
 Alpha virt. eigenvalues --    1.54652   1.57123   1.59182   1.63892   1.64438
 Alpha virt. eigenvalues --    1.66192   1.67481   1.69186   1.70899   1.73418
 Alpha virt. eigenvalues --    1.74418   1.75668   1.77244   1.79914   1.81389
 Alpha virt. eigenvalues --    1.85126   1.87768   1.88787   1.89293   1.91812
 Alpha virt. eigenvalues --    1.93675   1.96315   1.99722   2.01394   2.03532
 Alpha virt. eigenvalues --    2.07466   2.09092   2.16343   2.19668   2.20229
 Alpha virt. eigenvalues --    2.22262   2.26018   2.29879   2.30679   2.32762
 Alpha virt. eigenvalues --    2.34063   2.34545   2.37571   2.41290   2.42517
 Alpha virt. eigenvalues --    2.45350   2.48440   2.50592   2.53338   2.55593
 Alpha virt. eigenvalues --    2.59588   2.63296   2.65477   2.65867   2.67758
 Alpha virt. eigenvalues --    2.72345   2.75131   2.75939   2.77162   2.77783
 Alpha virt. eigenvalues --    2.79092   2.81990   2.82645   2.83764   2.84176
 Alpha virt. eigenvalues --    2.86114   2.87457   2.88111   2.88625   2.90583
 Alpha virt. eigenvalues --    2.93108   2.95193   2.96952   2.97241   3.00742
 Alpha virt. eigenvalues --    3.01380   3.02849   3.04335   3.05864   3.07382
 Alpha virt. eigenvalues --    3.11012   3.17188   3.19589   3.19997   3.23258
 Alpha virt. eigenvalues --    3.24880   3.25926   3.26896   3.27525   3.31165
 Alpha virt. eigenvalues --    3.33797   3.35178   3.35853   3.37908   3.41811
 Alpha virt. eigenvalues --    3.43485   3.44719   3.45661   3.47129   3.49161
 Alpha virt. eigenvalues --    3.49863   3.53883   3.57400   3.59228   3.60007
 Alpha virt. eigenvalues --    3.62254   3.64314   3.65242   3.66804   3.67314
 Alpha virt. eigenvalues --    3.68473   3.70185   3.71384   3.75727   3.77686
 Alpha virt. eigenvalues --    3.79272   3.80474   3.80874   3.82160   3.83667
 Alpha virt. eigenvalues --    3.89818   3.93500   3.93976   3.95807   3.97757
 Alpha virt. eigenvalues --    4.01242   4.03727   4.08614   4.11128   4.11938
 Alpha virt. eigenvalues --    4.13735   4.15135   4.16801   4.18534   4.19343
 Alpha virt. eigenvalues --    4.22585   4.24503   4.27493   4.29363   4.29523
 Alpha virt. eigenvalues --    4.33125   4.34212   4.34673   4.35983   4.37887
 Alpha virt. eigenvalues --    4.38843   4.40035   4.41439   4.44225   4.46021
 Alpha virt. eigenvalues --    4.47434   4.48259   4.49594   4.50310   4.51244
 Alpha virt. eigenvalues --    4.53237   4.55237   4.55839   4.56844   4.57808
 Alpha virt. eigenvalues --    4.58251   4.59141   4.61329   4.62352   4.63015
 Alpha virt. eigenvalues --    4.64710   4.65132   4.67612   4.70091   4.70204
 Alpha virt. eigenvalues --    4.71840   4.73659   4.74415   4.76012   4.78087
 Alpha virt. eigenvalues --    4.79176   4.80414   4.83196   4.83992   4.86172
 Alpha virt. eigenvalues --    4.88902   4.91023   4.93538   4.94844   4.98518
 Alpha virt. eigenvalues --    4.98831   5.01154   5.05076   5.10762   5.12893
 Alpha virt. eigenvalues --    5.15905   5.18853   5.21060   5.22112   5.24390
 Alpha virt. eigenvalues --    5.27701   5.32691   5.33582   5.35684   5.38318
 Alpha virt. eigenvalues --    5.44717   5.48365   5.48895   5.52100   5.59586
 Alpha virt. eigenvalues --    5.62055   5.76793   5.82354   5.96432   6.34948
 Alpha virt. eigenvalues --    8.66338   9.74283  10.40122  10.76117  11.06822
 Alpha virt. eigenvalues --   11.18672  11.39596  11.45297  11.48288  11.54558
 Alpha virt. eigenvalues --   11.75063  12.03167  12.12075  14.30752  17.16294
 Alpha virt. eigenvalues --   18.68051
          Condensed to atoms (all electrons):
               1          2          3          4          5          6
     1  C    5.059045   0.372595  -0.028670   0.007402  -0.000070   0.000000
     2  C    0.372595   4.718362   0.647342  -0.098104   0.003601  -0.000323
     3  N   -0.028670   0.647342   6.325529   0.386051  -0.041345   0.003138
     4  C    0.007402  -0.098104   0.386051   4.821320   0.395543  -0.066005
     5  N   -0.000070   0.003601  -0.041345   0.395543   6.435050   0.376962
     6  C    0.000000  -0.000323   0.003138  -0.066005   0.376962   4.834051
     7  N   -0.000000   0.000001  -0.000003   0.002498  -0.031071   0.395176
     8  N    0.000000  -0.000000  -0.000003   0.000132  -0.004811  -0.057327
     9  C   -0.000000  -0.000000   0.000000  -0.000286   0.002228  -0.059146
    10  C   -0.000000   0.000000  -0.000000  -0.000001   0.000023   0.001742
    11  N   -0.000000  -0.000000  -0.000000  -0.000000  -0.000000  -0.000006
    12  H    0.363725  -0.018035   0.002062  -0.000295   0.000000  -0.000000
    13  H    0.368918  -0.015809  -0.004592  -0.000116  -0.000001   0.000000
    14  H    0.367413  -0.016645  -0.003658  -0.000091   0.000001   0.000000
    15  H   -0.081862   0.371852  -0.057413  -0.013633  -0.000266   0.000062
    16  H   -0.000436  -0.007851  -0.016026   0.344443  -0.029320  -0.002864
    17  H   -0.000435  -0.001008  -0.039347   0.350930  -0.054602  -0.000160
    18  H   -0.000032   0.000267   0.010954  -0.050032   0.328060  -0.052620
    19  H   -0.000000  -0.000005   0.000127  -0.004602  -0.015266   0.345021
    20  H    0.000000   0.000071  -0.000186   0.000565  -0.061509   0.344321
    21  H    0.000000   0.000001  -0.000031  -0.000218   0.006720  -0.008481
    22  H   -0.000000   0.000000  -0.000000   0.000001   0.000346   0.004165
    23  H    0.000000  -0.000000   0.000000  -0.000004   0.000108  -0.002543
    24  H    0.000000   0.000000   0.000000   0.000037  -0.000433  -0.005608
               7          8          9         10         11         12
     1  C   -0.000000   0.000000  -0.000000  -0.000000  -0.000000   0.363725
     2  C    0.000001  -0.000000  -0.000000   0.000000  -0.000000  -0.018035
     3  N   -0.000003  -0.000003   0.000000  -0.000000  -0.000000   0.002062
     4  C    0.002498   0.000132  -0.000286  -0.000001  -0.000000  -0.000295
     5  N   -0.031071  -0.004811   0.002228   0.000023  -0.000000   0.000000
     6  C    0.395176  -0.057327  -0.059146   0.001742  -0.000006  -0.000000
     7  N    6.375247   0.255231   0.364571  -0.035996  -0.002514   0.000000
     8  N    0.255231   6.693804  -0.057790  -0.001567  -0.001133  -0.000000
     9  C    0.364571  -0.057790   4.948296   0.407078  -0.037509   0.000000
    10  C   -0.035996  -0.001567   0.407078   4.367390   1.032735   0.000000
    11  N   -0.002514  -0.001133  -0.037509   1.032735   6.317534   0.000000
    12  H    0.000000  -0.000000   0.000000   0.000000   0.000000   0.590602
    13  H    0.000000  -0.000000   0.000000  -0.000000   0.000000  -0.029050
    14  H    0.000000  -0.000000   0.000000   0.000000   0.000000  -0.028594
    15  H    0.000000  -0.000000   0.000000   0.000000   0.000000  -0.000358
    16  H    0.000199  -0.000004  -0.000013  -0.000000  -0.000000   0.000019
    17  H   -0.000193  -0.000031   0.000059   0.000000   0.000000   0.000025
    18  H   -0.000881   0.007291  -0.000003  -0.000000  -0.000000   0.000000
    19  H   -0.009919   0.003687  -0.004415   0.000140   0.000001   0.000000
    20  H   -0.057995   0.005888  -0.003738  -0.000236   0.000001   0.000000
    21  H   -0.036750   0.326195   0.004299   0.000402   0.000017  -0.000000
    22  H   -0.033542   0.330609  -0.008399   0.010735   0.001981   0.000000
    23  H   -0.021120   0.003409   0.358173  -0.016897   0.000006  -0.000000
    24  H   -0.042241   0.006771   0.337508  -0.035420  -0.000805  -0.000000
              13         14         15         16         17         18
     1  C    0.368918   0.367413  -0.081862  -0.000436  -0.000435  -0.000032
     2  C   -0.015809  -0.016645   0.371852  -0.007851  -0.001008   0.000267
     3  N   -0.004592  -0.003658  -0.057413  -0.016026  -0.039347   0.010954
     4  C   -0.000116  -0.000091  -0.013633   0.344443   0.350930  -0.050032
     5  N   -0.000001   0.000001  -0.000266  -0.029320  -0.054602   0.328060
     6  C    0.000000   0.000000   0.000062  -0.002864  -0.000160  -0.052620
     7  N    0.000000   0.000000   0.000000   0.000199  -0.000193  -0.000881
     8  N   -0.000000  -0.000000  -0.000000  -0.000004  -0.000031   0.007291
     9  C    0.000000   0.000000   0.000000  -0.000013   0.000059  -0.000003
    10  C   -0.000000   0.000000   0.000000  -0.000000   0.000000  -0.000000
    11  N    0.000000   0.000000   0.000000  -0.000000   0.000000  -0.000000
    12  H   -0.029050  -0.028594  -0.000358   0.000019   0.000025   0.000000
    13  H    0.547430  -0.022269   0.004672   0.000102  -0.000019   0.000005
    14  H   -0.022269   0.551466   0.004952  -0.000015   0.000100  -0.000001
    15  H    0.004672   0.004952   0.669761   0.006726   0.007006   0.000115
    16  H    0.000102  -0.000015   0.006726   0.635702  -0.051601   0.008045
    17  H   -0.000019   0.000100   0.007006  -0.051601   0.696720  -0.007079
    18  H    0.000005  -0.000001   0.000115   0.008045  -0.007079   0.537081
    19  H    0.000000  -0.000000  -0.000000   0.006236  -0.002067   0.007189
    20  H   -0.000000   0.000000   0.000002  -0.002189   0.015158  -0.006065
    21  H   -0.000000   0.000000  -0.000000  -0.000012   0.000109  -0.001806
    22  H    0.000000  -0.000000   0.000000   0.000001  -0.000002  -0.000435
    23  H   -0.000000   0.000000  -0.000000  -0.000001   0.000000   0.000008
    24  H    0.000000  -0.000000  -0.000000  -0.000000   0.000005   0.000040
              19         20         21         22         23         24
     1  C   -0.000000   0.000000   0.000000  -0.000000   0.000000   0.000000
     2  C   -0.000005   0.000071   0.000001   0.000000  -0.000000   0.000000
     3  N    0.000127  -0.000186  -0.000031  -0.000000   0.000000   0.000000
     4  C   -0.004602   0.000565  -0.000218   0.000001  -0.000004   0.000037
     5  N   -0.015266  -0.061509   0.006720   0.000346   0.000108  -0.000433
     6  C    0.345021   0.344321  -0.008481   0.004165  -0.002543  -0.005608
     7  N   -0.009919  -0.057995  -0.036750  -0.033542  -0.021120  -0.042241
     8  N    0.003687   0.005888   0.326195   0.330609   0.003409   0.006771
     9  C   -0.004415  -0.003738   0.004299  -0.008399   0.358173   0.337508
    10  C    0.000140  -0.000236   0.000402   0.010735  -0.016897  -0.035420
    11  N    0.000001   0.000001   0.000017   0.001981   0.000006  -0.000805
    12  H    0.000000   0.000000  -0.000000   0.000000  -0.000000  -0.000000
    13  H    0.000000  -0.000000  -0.000000   0.000000  -0.000000   0.000000
    14  H   -0.000000   0.000000   0.000000  -0.000000   0.000000  -0.000000
    15  H   -0.000000   0.000002  -0.000000   0.000000  -0.000000  -0.000000
    16  H    0.006236  -0.002189  -0.000012   0.000001  -0.000001  -0.000000
    17  H   -0.002067   0.015158   0.000109  -0.000002   0.000000   0.000005
    18  H    0.007189  -0.006065  -0.001806  -0.000435   0.000008   0.000040
    19  H    0.615229  -0.057425  -0.000261  -0.000176   0.003695  -0.000668
    20  H   -0.057425   0.737769   0.000002  -0.000375  -0.000770   0.016135
    21  H   -0.000261   0.000002   0.483041  -0.027904  -0.000213  -0.000345
    22  H   -0.000176  -0.000375  -0.027904   0.460452   0.000054  -0.001020
    23  H    0.003695  -0.000770  -0.000213   0.000054   0.554656  -0.039015
    24  H   -0.000668   0.016135  -0.000345  -0.001020  -0.039015   0.624577
 Mulliken charges:
               1
     1  C   -0.427594
     2  C    0.043689
     3  N   -0.183931
     4  C   -0.075536
     5  N   -0.309949
     6  C   -0.049556
     7  N   -0.120698
     8  N   -0.510351
     9  C   -0.250913
    10  C    0.269872
    11  N   -0.310308
    12  H    0.119898
    13  H    0.150729
    14  H    0.147341
    15  H    0.088384
    16  H    0.108857
    17  H    0.086433
    18  H    0.219899
    19  H    0.113478
    20  H    0.070576
    21  H    0.255234
    22  H    0.263510
    23  H    0.160453
    24  H    0.140481
 Sum of Mulliken charges =  -0.00000
 Mulliken charges with hydrogens summed into heavy atoms:
               1
     1  C   -0.009626
     2  C    0.132073
     3  N   -0.183931
     4  C    0.119755
     5  N   -0.090050
     6  C    0.134498
     7  N   -0.120698
     8  N    0.008394
     9  C    0.050021
    10  C    0.269872
    11  N   -0.310308
 Electronic spatial extent (au):  <R**2>=           3630.8760
 Charge=             -0.0000 electrons
 Dipole moment (field-independent basis, Debye):
    X=             -4.5242    Y=             -2.4090    Z=              1.6857  Tot=              5.3956
 Quadrupole moment (field-independent basis, Debye-Ang):
   XX=            -79.0960   YY=            -59.8198   ZZ=            -70.2812
   XY=             -3.4986   XZ=              1.8286   YZ=              1.1625
 Traceless Quadrupole moment (field-independent basis, Debye-Ang):
   XX=             -9.3637   YY=              9.9126   ZZ=             -0.5489
   XY=             -3.4986   XZ=              1.8286   YZ=              1.1625
 Octapole moment (field-independent basis, Debye-Ang**2):
  XXX=           -223.2956  YYY=              9.5322  ZZZ=             -1.7344  XYY=              7.3174
  XXY=            -37.3261  XXZ=             22.2361  XZZ=             -6.7371  YZZ=             -2.7373
  YYZ=             -0.8031  XYZ=              1.0919
 Hexadecapole moment (field-independent basis, Debye-Ang**3):
 XXXX=          -5121.8546 YYYY=           -254.1333 ZZZZ=           -131.7091 XXXY=           -133.3410
 XXXZ=            120.5890 YYYX=             11.3710 YYYZ=              9.6358 ZZZX=              4.6158
 ZZZY=             -2.5459 XXYY=           -764.9603 XXZZ=           -779.5549 YYZZ=            -70.2860
 XXYZ=             13.4335 YYXZ=             -3.2561 ZZXY=             -9.8881
 N-N= 5.710745592164D+02 E-N=-2.328326468208D+03  KE= 5.060575070680D+02
 PrsmSu:  requested number of processors reduced to:  13 ShMem   1 Linda.
 Calling FoFJK, ICntrl=      2127 FMM=F ISym2X=0 I1Cent= 0 IOpClX= 0 NMat=1 NMatS=1 NMatT=0.
 ***** Axes restored to original set *****
 -------------------------------------------------------------------
 Center     Atomic                   Forces (Hartrees/Bohr)
 Number     Number              X              Y              Z
 -------------------------------------------------------------------
      1        6           0.002572516   -0.005382911    0.002168029
      2        6           0.008346944    0.024604776   -0.005610030
      3        7          -0.007049199   -0.028474724    0.006351102
      4        6          -0.003826902    0.007241337    0.000340609
      5        7           0.005189113    0.000075296   -0.007816525
      6        6          -0.006621541    0.016196582    0.001370197
      7        7           0.005122112    0.005827977   -0.017089042
      8        7           0.002666256   -0.001467671    0.013329146
      9        6          -0.013134691    0.003278419    0.003373942
     10        6          -0.000677083    0.012695427    0.000028873
     11        7          -0.006931230   -0.020756719    0.004090260
     12        1          -0.002302945    0.001121392   -0.000181849
     13        1          -0.001954394    0.001055460    0.001039764
     14        1          -0.002312140    0.000628684   -0.001428702
     15        1           0.000730658    0.003324635   -0.001939862
     16        1           0.002768849    0.000083294   -0.000927680
     17        1           0.001589388   -0.007522561    0.004633110
     18        1          -0.002204172   -0.000525596    0.001180626
     19        1           0.001067803    0.003356235   -0.000995874
     20        1           0.006268481   -0.002956552    0.008273037
     21        1           0.006604688   -0.004291383   -0.007840085
     22        1           0.004130866   -0.011007741   -0.006140551
     23        1          -0.004918755    0.000452402    0.000442267
     24        1           0.004875380    0.002443942    0.003349237
 -------------------------------------------------------------------
 Cartesian Forces:  Max     0.028474724 RMS     0.007572129

 GradGradGradGradGradGradGradGradGradGradGradGradGradGradGradGradGradGrad
 Berny optimization.
 FormGI is forming the generalized inverse of G from B-inverse, IUseBI=4.
 Internal  Forces:  Max     0.025353107 RMS     0.006176683
 Search for a local minimum.
 Step number   1 out of a maximum of  111
 All quantities printed in internal units (Hartrees-Bohrs-Radians)
 Mixed Optimization -- RFO/linear search
 Second derivative matrix not updated -- first step.
 ITU=  0
     Eigenvalues ---    0.00268   0.00511   0.00659   0.00727   0.00914
     Eigenvalues ---    0.00934   0.00995   0.01406   0.03175   0.03191
     Eigenvalues ---    0.03211   0.04804   0.04804   0.05400   0.05791
     Eigenvalues ---    0.06586   0.06691   0.06882   0.07421   0.07457
     Eigenvalues ---    0.07593   0.07622   0.09521   0.10775   0.11167
     Eigenvalues ---    0.12988   0.13818   0.16000   0.16000   0.16000
     Eigenvalues ---    0.16000   0.16000   0.16000   0.16000   0.16000
     Eigenvalues ---    0.16322   0.17731   0.21980   0.22000   0.22069
     Eigenvalues ---    0.22367   0.23623   0.25000   0.32073   0.33114
     Eigenvalues ---    0.33532   0.33910   0.33951   0.33964   0.33986
     Eigenvalues ---    0.34046   0.34098   0.34403   0.34403   0.34444
     Eigenvalues ---    0.34446   0.34792   0.34843   0.37117   0.37310
     Eigenvalues ---    0.37893   0.43047   0.43618   0.45425   0.71035
     Eigenvalues ---    1.24746
 RFO step:  Lambda=-1.67634525D-02 EMin= 2.68031521D-03
 Linear search not attempted -- first point.
 Iteration  1 RMS(Cart)=  0.10973844 RMS(Int)=  0.00535989
 Iteration  2 RMS(Cart)=  0.00746771 RMS(Int)=  0.00145631
 Iteration  3 RMS(Cart)=  0.00002564 RMS(Int)=  0.00145622
 Iteration  4 RMS(Cart)=  0.00000025 RMS(Int)=  0.00145622
 Variable       Old X    -DE/DX   Delta X   Delta X   Delta X     New X
                                 (Linear)    (Quad)   (Total)
    R1        2.84011   0.00409   0.00000   0.01212   0.01212   2.85223
    R2        2.06655  -0.00036   0.00000  -0.00099  -0.00099   2.06556
    R3        2.06655   0.00001   0.00000   0.00002   0.00002   2.06656
    R4        2.06583   0.00026   0.00000   0.00072   0.00072   2.06655
    R5        2.43146  -0.02535   0.00000  -0.03487  -0.03487   2.39659
    R6        2.08851  -0.00288   0.00000  -0.00827  -0.00827   2.08024
    R7        2.75669   0.00181   0.00000   0.00467   0.00467   2.76137
    R8        2.74521   0.00459   0.00000   0.01160   0.01160   2.75681
    R9        2.07165   0.00142   0.00000   0.00397   0.00397   2.07562
   R10        2.07354   0.00673   0.00000   0.01886   0.01886   2.09241
   R11        2.75381  -0.00143   0.00000  -0.00366  -0.00366   2.75015
   R12        1.91486   0.00124   0.00000   0.00263   0.00263   1.91748
   R13        2.79314  -0.01105   0.00000  -0.03030  -0.03030   2.76285
   R14        2.07253  -0.00111   0.00000  -0.00310  -0.00310   2.06943
   R15        2.07391   0.01039   0.00000   0.02916   0.02916   2.10307
   R16        2.79230  -0.01578   0.00000  -0.04321  -0.04321   2.74908
   R17        2.81428  -0.02101   0.00000  -0.05968  -0.05968   2.75460
   R18        1.93615  -0.00618   0.00000  -0.01364  -0.01364   1.92250
   R19        1.94312  -0.00747   0.00000  -0.01670  -0.01670   1.92642
   R20        2.79887  -0.01105   0.00000  -0.03058  -0.03058   2.76829
   R21        2.07413  -0.00224   0.00000  -0.00629  -0.00629   2.06784
   R22        2.07482   0.00413   0.00000   0.01161   0.01161   2.08644
   R23        2.20103  -0.02223   0.00000  -0.01758  -0.01758   2.18344
    A1        1.92169   0.00329   0.00000   0.02154   0.02136   1.94306
    A2        1.91463   0.00162   0.00000   0.00759   0.00751   1.92214
    A3        1.91595   0.00213   0.00000   0.01073   0.01063   1.92658
    A4        1.90155  -0.00186   0.00000  -0.00787  -0.00801   1.89353
    A5        1.90364  -0.00201   0.00000  -0.00826  -0.00845   1.89520
    A6        1.90619  -0.00327   0.00000  -0.02434  -0.02434   1.88185
    A7        2.09614   0.00522   0.00000   0.02204   0.02204   2.11818
    A8        2.03677  -0.00010   0.00000   0.00318   0.00318   2.03994
    A9        2.15027  -0.00512   0.00000  -0.02522  -0.02522   2.12506
   A10        2.01585   0.00868   0.00000   0.03254   0.03254   2.04838
   A11        1.89490  -0.00036   0.00000   0.00183   0.00154   1.89644
   A12        1.92790   0.00225   0.00000   0.00817   0.00805   1.93595
   A13        1.91198  -0.00188   0.00000  -0.00370  -0.00418   1.90780
   A14        1.91171  -0.00414   0.00000  -0.03201  -0.03183   1.87988
   A15        1.91812   0.00660   0.00000   0.04888   0.04886   1.96698
   A16        1.89927  -0.00239   0.00000  -0.02257  -0.02220   1.87708
   A17        1.95527  -0.00042   0.00000  -0.00036  -0.00036   1.95490
   A18        1.85812  -0.00001   0.00000   0.00208   0.00206   1.86019
   A19        1.89525   0.00074   0.00000   0.00809   0.00808   1.90333
   A20        1.91032   0.00966   0.00000   0.04407   0.04338   1.95370
   A21        1.89814  -0.00187   0.00000  -0.01520  -0.01447   1.88368
   A22        1.93418  -0.00007   0.00000   0.02666   0.02559   1.95977
   A23        1.90162  -0.00734   0.00000  -0.06018  -0.05997   1.84165
   A24        1.92693  -0.00175   0.00000   0.00749   0.00584   1.93276
   A25        1.89205   0.00110   0.00000  -0.00546  -0.00562   1.88644
   A26        1.91481   0.00151   0.00000  -0.01950  -0.02258   1.89223
   A27        1.91731  -0.00183   0.00000  -0.03589  -0.03811   1.87919
   A28        1.90759  -0.00508   0.00000  -0.05580  -0.05768   1.84992
   A29        1.88738  -0.01398   0.00000  -0.09433  -0.09697   1.79041
   A30        1.91392  -0.01804   0.00000  -0.11666  -0.11928   1.79464
   A31        1.78086   0.00731   0.00000   0.00609  -0.00339   1.77747
   A32        1.96884  -0.00700   0.00000  -0.03227  -0.03248   1.93636
   A33        1.91108  -0.00568   0.00000  -0.03331  -0.03361   1.87746
   A34        1.92742   0.00771   0.00000   0.04489   0.04516   1.97259
   A35        1.87979   0.00483   0.00000   0.01617   0.01534   1.89512
   A36        1.90299  -0.00126   0.00000  -0.01327  -0.01295   1.89004
   A37        1.87057   0.00175   0.00000   0.01966   0.01987   1.89044
   A38        3.10781   0.00266   0.00000   0.04102   0.04102   3.14883
   A39        3.12045   0.00068   0.00000   0.01052   0.01052   3.13098
    D1       -3.12305   0.00005   0.00000   0.00355   0.00354  -3.11951
    D2        0.02013   0.00002   0.00000   0.00229   0.00227   0.02240
    D3        1.06760  -0.00072   0.00000  -0.00494  -0.00499   1.06261
    D4       -2.07241  -0.00076   0.00000  -0.00620  -0.00626  -2.07867
    D5       -1.02709   0.00097   0.00000   0.01364   0.01372  -1.01337
    D6        2.11609   0.00094   0.00000   0.01238   0.01245   2.12854
    D7       -3.11760  -0.00186   0.00000  -0.03838  -0.03837   3.12721
    D8        0.02230  -0.00181   0.00000  -0.03700  -0.03701  -0.01471
    D9        3.10370  -0.00411   0.00000  -0.05228  -0.05226   3.05144
   D10        1.00721  -0.00016   0.00000  -0.01909  -0.01905   0.98816
   D11       -1.08472   0.00258   0.00000   0.00606   0.00600  -1.07872
   D12        3.09063   0.00005   0.00000  -0.01106  -0.01091   3.07972
   D13        1.02128  -0.00061   0.00000  -0.02197  -0.02182   0.99946
   D14       -1.08603   0.00008   0.00000  -0.01923  -0.01902  -1.10505
   D15        3.12781  -0.00058   0.00000  -0.03014  -0.02993   3.09787
   D16        0.99968  -0.00136   0.00000  -0.03673  -0.03709   0.96260
   D17       -1.06966  -0.00202   0.00000  -0.04764  -0.04800  -1.11766
   D18       -3.11946  -0.00433   0.00000  -0.09345  -0.09397   3.06976
   D19        1.08801   0.00003   0.00000  -0.03733  -0.03738   1.05063
   D20       -0.99017  -0.00011   0.00000  -0.03714  -0.03659  -1.02676
   D21       -1.07222  -0.00412   0.00000  -0.08602  -0.08652  -1.15875
   D22        3.13524   0.00024   0.00000  -0.02990  -0.02994   3.10530
   D23        1.05706   0.00010   0.00000  -0.02970  -0.02914   1.02792
   D24        1.08352   0.00531   0.00000   0.08503   0.08533   1.16886
   D25       -3.10229  -0.00116   0.00000  -0.01838  -0.01787  -3.12017
   D26       -3.12610   0.00435   0.00000   0.05682   0.05632  -3.06978
   D27       -1.02873  -0.00211   0.00000  -0.04659  -0.04689  -1.07561
   D28       -1.05011   0.00014   0.00000   0.01760   0.01749  -1.03262
   D29        1.04726  -0.00633   0.00000  -0.08581  -0.08572   0.96154
   D30       -1.17049  -0.00780   0.00000  -0.19401  -0.18911  -1.35960
   D31       -3.09891  -0.00057   0.00000  -0.09721  -0.10120   3.08308
   D32        3.00943  -0.00332   0.00000  -0.10316  -0.09917   2.91026
   D33        1.08100   0.00390   0.00000  -0.00636  -0.01125   1.06975
   D34        3.11171   0.00018   0.00000   0.00940   0.00914   3.12085
   D35        1.01867   0.00254   0.00000   0.03288   0.03173   1.05040
   D36       -1.03713  -0.00074   0.00000   0.00232   0.00157  -1.03556
   D37       -1.06973  -0.00226   0.00000  -0.07160  -0.07042  -1.14015
   D38        3.12041   0.00010   0.00000  -0.04812  -0.04782   3.07258
   D39        1.06461  -0.00319   0.00000  -0.07868  -0.07799   0.98662
         Item               Value     Threshold  Converged?
 Maximum Force            0.025353     0.000450     NO 
 RMS     Force            0.006177     0.000300     NO 
 Maximum Displacement     0.384622     0.001800     NO 
 RMS     Displacement     0.109065     0.001200     NO 
 Predicted change in Energy=-9.748205D-03
 GradGradGradGradGradGradGradGradGradGradGradGradGradGradGradGradGradGrad

                          Input orientation:                          
 ---------------------------------------------------------------------
 Center     Atomic      Atomic             Coordinates (Angstroms)
 Number     Number       Type             X           Y           Z
 ---------------------------------------------------------------------
      1          6           0        0.981680    0.003677   -0.056235
      2          6           0        2.487594    0.075109   -0.128416
      3          7           0        3.089133    1.180299   -0.286805
      4          6           0        4.549553    1.150509   -0.326075
      5          7           0        5.035524    2.490555   -0.636442
      6          6           0        6.488853    2.562751   -0.612476
      7          7           0        6.977087    3.880012   -1.017444
      8          7           0        6.582739    4.847496   -0.005136
      9          6           0        8.433923    3.839940   -0.988756
     10          6           0        9.001503    5.122479   -1.411750
     11          7           0        9.461496    6.130810   -1.738385
     12          1           0        0.639555   -1.021962    0.104290
     13          1           0        0.542286    0.374279   -0.986557
     14          1           0        0.609505    0.627268    0.761394
     15          1           0        3.035862   -0.875124   -0.037536
     16          1           0        4.907012    0.474526   -1.114548
     17          1           0        4.934088    0.769612    0.639877
     18          1           0        4.661452    3.106824    0.077614
     19          1           0        6.873464    1.864239   -1.363069
     20          1           0        6.909556    2.273422    0.376382
     21          1           0        5.600580    5.004277   -0.219085
     22          1           0        7.009913    5.710898   -0.338709
     23          1           0        8.757030    3.066624   -1.692299
     24          1           0        8.839533    3.593420    0.008106
 ---------------------------------------------------------------------
                    Distance matrix (angstroms):
                    1          2          3          4          5
     1  C    0.000000
     2  C    1.509334   0.000000
     3  N    2.424657   1.268220   0.000000
     4  C    3.757361   2.333930   1.461252   0.000000
     5  N    4.791123   3.547452   2.372226   1.458842   0.000000
     6  C    6.098133   4.736323   3.684472   2.416058   1.455319
     7  N    7.203805   5.951740   4.789413   3.717674   2.417731
     8  N    7.405205   6.289760   5.072766   4.231378   2.889220
     9  C    8.433412   7.090343   6.011090   4.770798   3.673429
    10  C    9.610262   8.339899   7.194610   6.064248   4.822564
    11  N   10.596163   9.375437   8.198881   7.136190   5.835663
    12  H    1.093047   2.161704   3.317129   4.493655   5.675474
    13  H    1.093577   2.147121   2.761476   4.134847   4.978995
    14  H    1.093571   2.150316   2.748294   4.120722   5.001543
    15  H    2.234347   1.100818   2.071168   2.545133   3.960446
    16  H    4.092671   2.643023   2.118480   1.098371   2.075927
    17  H    4.085677   2.656679   2.105057   1.107255   2.144977
    18  H    4.815409   3.736228   2.513262   2.000664   1.014689
    19  H    6.315270   4.895019   3.993404   2.642977   2.073229
    20  H    6.362281   4.963985   4.028693   2.706288   2.141251
    21  H    6.809315   5.830575   4.575452   3.995953   2.610034
    22  H    8.306128   7.228950   5.991789   5.181765   3.789125
    23  H    8.515540   7.120444   6.136668   4.820885   3.911048
    24  H    8.639228   7.262526   6.243174   4.948072   4.012759
                    6          7          8          9         10
     6  C    0.000000
     7  N    1.462036   0.000000
     8  N    2.365954   1.454753   0.000000
     9  C    2.357137   1.457669   2.325847   0.000000
    10  C    3.674841   2.407792   2.811512   1.464916   0.000000
    11  N    4.778632   3.429014   3.596984   2.620293   1.155429
    12  H    6.897696   8.090238   8.353679   9.251217  10.486883
    13  H    6.347520   7.327877   7.580232   8.619092   9.710023
    14  H    6.340375   7.368224   7.353735   8.637466   9.764995
    15  H    4.906392   6.253382   6.732738   7.230194   8.570215
    16  H    2.667392   3.986474   4.812663   4.876570   6.201343
    17  H    2.683474   4.073715   4.445586   4.932364   6.300833
    18  H    2.027717   2.675657   2.593864   3.988250   5.011698
    19  H    1.095095   2.047812   3.290642   2.545297   3.891921
    20  H    1.112898   2.128014   2.622636   2.577068   3.961160
    21  H    2.627706   1.948364   1.017344   3.158466   3.605926
    22  H    3.202700   1.952922   1.019418   2.439437   2.337538
    23  H    2.562134   2.070078   3.278043   1.094252   2.089262
    24  H    2.640662   2.145365   2.581860   1.104095   2.092904
                   11         12         13         14         15
    11  N    0.000000
    12  H   11.505835   0.000000
    13  H   10.642143   1.774513   0.000000
    14  H   10.718937   1.775570   1.767442   0.000000
    15  H    9.657369   2.404988   2.946111   2.963559   0.000000
    16  H    7.288762   4.683613   4.367752   4.691594   2.546116
    17  H    7.409184   4.683973   4.699947   4.328631   2.601404
    18  H    5.956741   5.763961   5.056362   4.799378   4.302524
    19  H    5.004238   7.024594   6.515025   6.729088   4.897789
    20  H    5.085674   7.088477   6.782807   6.522937   5.009009
    21  H    4.299304   7.812292   6.900162   6.710468   6.417016
    22  H    2.854063   9.279500   8.410078   8.247348   7.698018
    23  H    3.144461   9.264862   8.673455   8.851736   7.141945
    24  H    3.142518   9.410135   8.955251   8.780596   7.324791
                   16         17         18         19         20
    16  H    0.000000
    17  H    1.779274   0.000000
    18  H    2.900094   2.419304   0.000000
    19  H    2.420744   2.995193   2.917633   0.000000
    20  H    3.077188   2.496668   2.416152   1.787295   0.000000
    21  H    4.669212   4.372004   2.137831   3.576139   3.086352
    22  H    5.695939   5.448210   3.531260   3.983054   3.512502
    23  H    4.677116   5.032912   4.461835   2.258748   2.884748
    24  H    5.143207   4.860610   4.206895   2.955607   2.367030
                   21         22         23         24
    21  H    0.000000
    22  H    1.581089   0.000000
    23  H    3.985980   3.446275   0.000000
    24  H    3.540190   2.819841   1.782049   0.000000
 Stoichiometry    C6H13N5
 Framework group  C1[X(C6H13N5)]
 Deg. of freedom    66
 Full point group                 C1      NOp   1
 Largest Abelian subgroup         C1      NOp   1
 Largest concise Abelian subgroup C1      NOp   1
                         Standard orientation:                         
 ---------------------------------------------------------------------
 Center     Atomic      Atomic             Coordinates (Angstroms)
 Number     Number       Type             X           Y           Z
 ---------------------------------------------------------------------
      1          6           0       -5.398941    0.504965   -0.259480
      2          6           0       -4.145590   -0.297395   -0.007649
      3          7           0       -2.994747    0.223664   -0.119182
      4          6           0       -1.841534   -0.628282    0.162857
      5          7           0       -0.624992    0.117540   -0.140447
      6          6           0        0.574318   -0.636218    0.193405
      7          7           0        1.791583    0.071847   -0.199607
      8          7           0        1.914114    1.266166    0.621911
      9          6           0        2.927037   -0.773321    0.148579
     10          6           0        4.189555   -0.141231   -0.241921
     11          7           0        5.192357    0.349123   -0.540176
     12          1           0       -6.296219   -0.097402   -0.095770
     13          1           0       -5.410494    0.871557   -1.289717
     14          1           0       -5.435648    1.372735    0.404993
     15          1           0       -4.278782   -1.352649    0.276075
     16          1           0       -1.851188   -1.524352   -0.472267
     17          1           0       -1.884462   -0.965503    1.216637
     18          1           0       -0.654033    0.960613    0.423449
     19          1           0        0.568150   -1.558404   -0.397160
     20          1           0        0.611137   -0.915676    1.270016
     21          1           0        1.250296    1.903045    0.187492
     22          1           0        2.806376    1.656996    0.321355
     23          1           0        2.821652   -1.712126   -0.403622
     24          1           0        2.975949   -1.008314    1.226268
 ---------------------------------------------------------------------
 Rotational constants (GHZ):           5.6743527           0.2989865           0.2906883
 Standard basis: 6-31G(2df,p) (6D, 7F)
 There are   406 symmetry adapted cartesian basis functions of A   symmetry.
 There are   373 symmetry adapted basis functions of A   symmetry.
   373 basis functions,   575 primitive gaussians,   406 cartesian basis functions
    42 alpha electrons       42 beta electrons
       nuclear repulsion energy       574.4861580848 Hartrees.
 NAtoms=   24 NActive=   24 NUniq=   24 SFac= 1.00D+00 NAtFMM=   60 NAOKFM=F Big=F
 Integral buffers will be    131072 words long.
 Raffenetti 2 integral format.
 Two-electron integral symmetry is turned on.
 One-electron integrals computed using PRISM.
 PrsmSu:  requested number of processors reduced to:  13 ShMem   1 Linda.
 NBasis=   373 RedAO= T EigKep=  1.43D-04  NBF=   373
 NBsUse=   373 1.00D-06 EigRej= -1.00D+00 NBFU=   373
 Initial guess from the checkpoint file:  "CCdNCNCNpNpCCtN.chk"
 B after Tr=     0.000000   -0.000000    0.000000
         Rot=    0.999975    0.006828   -0.000806    0.001386 Ang=   0.80 deg.
 ExpMin= 1.61D-01 ExpMax= 4.17D+03 ExpMxC= 6.27D+02 IAcc=2 IRadAn=         4 AccDes= 0.00D+00
 Harris functional with IExCor=  402 and IRadAn=       4 diagonalized for initial guess.
 HarFok:  IExCor=  402 AccDes= 0.00D+00 IRadAn=         4 IDoV= 1 UseB2=F ITyADJ=14
 ICtDFT=  3500011 ScaDFX=  1.000000  1.000000  1.000000  1.000000
 FoFCou: FMM=F IPFlag=           0 FMFlag=      100000 FMFlg1=           0
         NFxFlg=           0 DoJE=T BraDBF=F KetDBF=T FulRan=T
         wScrn=  0.000000 ICntrl=       500 IOpCl=  0 I1Cent=   200000004 NGrid=           0
         NMat0=    1 NMatS0=      1 NMatT0=    0 NMatD0=    1 NMtDS0=    0 NMtDT0=    0
 Petite list used in FoFCou.
 Requested convergence on RMS density matrix=1.00D-08 within 128 cycles.
 Requested convergence on MAX density matrix=1.00D-06.
 Requested convergence on             energy=1.00D-06.
 No special actions if energy rises.
 Integral accuracy reduced to 1.0D-05 until final iterations.
 Initial convergence to 1.0D-05 achieved.  Increase integral accuracy.
 SCF Done:  E(RB3LYP) =  -510.150020850     A.U. after   13 cycles
            NFock= 13  Conv=0.87D-08     -V/T= 2.0075
 PrsmSu:  requested number of processors reduced to:  13 ShMem   1 Linda.
 Calling FoFJK, ICntrl=      2127 FMM=F ISym2X=0 I1Cent= 0 IOpClX= 0 NMat=1 NMatS=1 NMatT=0.
 ***** Axes restored to original set *****
 -------------------------------------------------------------------
 Center     Atomic                   Forces (Hartrees/Bohr)
 Number     Number              X              Y              Z
 -------------------------------------------------------------------
      1        6           0.002077913   -0.001922702    0.000116706
      2        6           0.000494649    0.005595044   -0.000939701
      3        7           0.002103866   -0.003842399    0.002731608
      4        6          -0.003712011    0.002156321   -0.003064605
      5        7           0.004262405    0.001230160    0.001078177
      6        6          -0.003221267   -0.002441980   -0.001672240
      7        7           0.003911851   -0.006858793   -0.002235747
      8        7          -0.006333335    0.003584872    0.002806106
      9        6           0.000695067   -0.002375797   -0.004395229
     10        6           0.003242114    0.000194231   -0.002227680
     11        7          -0.000815719   -0.000122870    0.000673621
     12        1           0.000093277    0.000257189   -0.000022926
     13        1          -0.000677453    0.000563344   -0.000018288
     14        1          -0.000432340    0.000627576   -0.000265444
     15        1          -0.000204493   -0.001216036   -0.000250450
     16        1           0.000691282   -0.001214763   -0.000124818
     17        1           0.000499081   -0.000282287   -0.000082484
     18        1          -0.001593684    0.000825110    0.001080635
     19        1          -0.000236519   -0.002749295    0.000472115
     20        1           0.000736600    0.001063533    0.000751929
     21        1          -0.003676416    0.002548174    0.001433467
     22        1           0.000237831    0.003955688    0.003113144
     23        1           0.002047090   -0.000012664    0.000230303
     24        1          -0.000189789    0.000438343    0.000811799
 -------------------------------------------------------------------
 Cartesian Forces:  Max     0.006858793 RMS     0.002290172

 GradGradGradGradGradGradGradGradGradGradGradGradGradGradGradGradGradGrad
 Berny optimization.
 Using GEDIIS/GDIIS optimizer.
 FormGI is forming the generalized inverse of G from B-inverse, IUseBI=4.
 Internal  Forces:  Max     0.014471637 RMS     0.002378215
 Search for a local minimum.
 Step number   2 out of a maximum of  111
 All quantities printed in internal units (Hartrees-Bohrs-Radians)
 Mixed Optimization -- RFO/linear search
 Update second derivatives using D2CorX and points    1    2
 DE= -7.06D-03 DEPred=-9.75D-03 R= 7.24D-01
 TightC=F SS=  1.41D+00  RLast= 4.30D-01 DXNew= 5.0454D-01 1.2888D+00
 Trust test= 7.24D-01 RLast= 4.30D-01 DXMaxT set to 5.05D-01
 ITU=  1  0
 Use linear search instead of GDIIS.
     Eigenvalues ---    0.00280   0.00509   0.00659   0.00727   0.00910
     Eigenvalues ---    0.00930   0.00992   0.01388   0.03169   0.03195
     Eigenvalues ---    0.04133   0.04804   0.04828   0.05212   0.06500
     Eigenvalues ---    0.06710   0.06997   0.07181   0.07204   0.07359
     Eigenvalues ---    0.07545   0.07657   0.09914   0.10806   0.11215
     Eigenvalues ---    0.13274   0.13687   0.15105   0.15931   0.16000
     Eigenvalues ---    0.16000   0.16000   0.16000   0.16000   0.16000
     Eigenvalues ---    0.16708   0.18260   0.21867   0.22005   0.22263
     Eigenvalues ---    0.23060   0.23590   0.24746   0.32067   0.32844
     Eigenvalues ---    0.33121   0.33815   0.33918   0.33953   0.33980
     Eigenvalues ---    0.34052   0.34098   0.34360   0.34403   0.34405
     Eigenvalues ---    0.34447   0.34710   0.36856   0.37217   0.37818
     Eigenvalues ---    0.39950   0.43196   0.44419   0.45517   0.68937
     Eigenvalues ---    1.23698
 RFO step:  Lambda=-3.02603336D-03 EMin= 2.79759591D-03
 Quartic linear search produced a step of -0.15261.
 Iteration  1 RMS(Cart)=  0.10575103 RMS(Int)=  0.00595047
 Iteration  2 RMS(Cart)=  0.00752319 RMS(Int)=  0.00013860
 Iteration  3 RMS(Cart)=  0.00004535 RMS(Int)=  0.00013602
 Iteration  4 RMS(Cart)=  0.00000002 RMS(Int)=  0.00013602
 Variable       Old X    -DE/DX   Delta X   Delta X   Delta X     New X
                                 (Linear)    (Quad)   (Total)
    R1        2.85223  -0.00105  -0.00185  -0.00001  -0.00186   2.85036
    R2        2.06556  -0.00027   0.00015  -0.00087  -0.00072   2.06484
    R3        2.06656   0.00048  -0.00000   0.00115   0.00115   2.06771
    R4        2.06655   0.00031  -0.00011   0.00089   0.00078   2.06733
    R5        2.39659  -0.00422   0.00532  -0.01235  -0.00703   2.38956
    R6        2.08024   0.00093   0.00126   0.00049   0.00175   2.08199
    R7        2.76137  -0.00342  -0.00071  -0.00656  -0.00727   2.75410
    R8        2.75681  -0.00138  -0.00177  -0.00047  -0.00224   2.75457
    R9        2.07562   0.00106  -0.00061   0.00343   0.00283   2.07845
   R10        2.09241   0.00020  -0.00288   0.00462   0.00174   2.09415
   R11        2.75015  -0.00374   0.00056  -0.00905  -0.00849   2.74166
   R12        1.91748   0.00185  -0.00040   0.00392   0.00352   1.92101
   R13        2.76285   0.00087   0.00462  -0.00459   0.00003   2.76288
   R14        2.06943   0.00135   0.00047   0.00258   0.00305   2.07248
   R15        2.10307   0.00067  -0.00445   0.00802   0.00357   2.10664
   R16        2.74908   0.01447   0.00660   0.02471   0.03130   2.78038
   R17        2.75460   0.00493   0.00911  -0.00100   0.00811   2.76271
   R18        1.92250   0.00364   0.00208   0.00392   0.00600   1.92851
   R19        1.92642   0.00243   0.00255   0.00103   0.00358   1.93000
   R20        2.76829   0.00145   0.00467  -0.00324   0.00143   2.76972
   R21        2.06784   0.00047   0.00096  -0.00025   0.00071   2.06854
   R22        2.08644   0.00057  -0.00177   0.00392   0.00215   2.08858
   R23        2.18344  -0.00062   0.00268  -0.00412  -0.00144   2.18200
    A1        1.94306  -0.00002  -0.00326   0.00595   0.00271   1.94576
    A2        1.92214   0.00060  -0.00115   0.00425   0.00311   1.92525
    A3        1.92658   0.00024  -0.00162   0.00305   0.00144   1.92802
    A4        1.89353  -0.00008   0.00122  -0.00113   0.00010   1.89364
    A5        1.89520   0.00006   0.00129  -0.00068   0.00063   1.89583
    A6        1.88185  -0.00083   0.00371  -0.01215  -0.00843   1.87342
    A7        2.11818   0.00052  -0.00336   0.00689   0.00351   2.12169
    A8        2.03994  -0.00104  -0.00048  -0.00412  -0.00462   2.03532
    A9        2.12506   0.00052   0.00385  -0.00277   0.00107   2.12613
   A10        2.04838   0.00171  -0.00497   0.01288   0.00791   2.05630
   A11        1.89644  -0.00096  -0.00024  -0.00236  -0.00255   1.89389
   A12        1.93595   0.00099  -0.00123   0.00957   0.00836   1.94431
   A13        1.90780  -0.00010   0.00064  -0.00345  -0.00273   1.90507
   A14        1.87988   0.00041   0.00486  -0.00435   0.00048   1.88036
   A15        1.96698   0.00033  -0.00746   0.01143   0.00397   1.97095
   A16        1.87708  -0.00062   0.00339  -0.01050  -0.00716   1.86992
   A17        1.95490  -0.00043   0.00006   0.00059   0.00062   1.95552
   A18        1.86019   0.00068  -0.00032   0.00970   0.00935   1.86954
   A19        1.90333   0.00016  -0.00123   0.00720   0.00592   1.90925
   A20        1.95370  -0.00420  -0.00662  -0.00640  -0.01293   1.94078
   A21        1.88368   0.00061   0.00221   0.00038   0.00251   1.88619
   A22        1.95977   0.00138  -0.00391   0.00737   0.00357   1.96335
   A23        1.84165   0.00265   0.00915   0.00279   0.01194   1.85359
   A24        1.93276   0.00050  -0.00089  -0.00185  -0.00251   1.93025
   A25        1.88644  -0.00073   0.00086  -0.00243  -0.00155   1.88489
   A26        1.89223  -0.00340   0.00345  -0.01657  -0.01278   1.87945
   A27        1.87919  -0.00065   0.00582  -0.00496   0.00127   1.88046
   A28        1.84992   0.00566   0.00880   0.02292   0.03206   1.88198
   A29        1.79041   0.00528   0.01480   0.00849   0.02354   1.81394
   A30        1.79464   0.00786   0.01820   0.01632   0.03476   1.82940
   A31        1.77747  -0.00152   0.00052   0.00262   0.00391   1.78138
   A32        1.93636   0.00272   0.00496   0.00232   0.00730   1.94366
   A33        1.87746   0.00256   0.00513   0.00640   0.01156   1.88902
   A34        1.97259  -0.00165  -0.00689   0.00260  -0.00433   1.96826
   A35        1.89512  -0.00237  -0.00234  -0.00712  -0.00937   1.88575
   A36        1.89004  -0.00068   0.00198  -0.00601  -0.00408   1.88597
   A37        1.89044  -0.00072  -0.00303   0.00145  -0.00161   1.88883
   A38        3.14883  -0.00184  -0.00626  -0.01830  -0.02456   3.12427
   A39        3.13098  -0.00038  -0.00161  -0.00326  -0.00487   3.12611
    D1       -3.11951  -0.00002  -0.00054   0.00194   0.00140  -3.11811
    D2        0.02240   0.00017  -0.00035   0.01102   0.01067   0.03307
    D3        1.06261  -0.00031   0.00076  -0.00337  -0.00260   1.06001
    D4       -2.07867  -0.00011   0.00096   0.00572   0.00667  -2.07200
    D5       -1.01337   0.00020  -0.00209   0.00708   0.00498  -1.00839
    D6        2.12854   0.00040  -0.00190   0.01617   0.01425   2.14279
    D7        3.12721  -0.00007   0.00586  -0.01131  -0.00545   3.12176
    D8       -0.01471  -0.00027   0.00565  -0.02084  -0.01520  -0.02992
    D9        3.05144  -0.00047   0.00798  -0.06505  -0.05708   2.99436
   D10        0.98816  -0.00097   0.00291  -0.06391  -0.06102   0.92714
   D11       -1.07872  -0.00074  -0.00092  -0.05464  -0.05554  -1.13426
   D12        3.07972  -0.00088   0.00167  -0.04612  -0.04447   3.03524
   D13        0.99946  -0.00126   0.00333  -0.06134  -0.05804   0.94142
   D14       -1.10505   0.00000   0.00290  -0.03851  -0.03563  -1.14068
   D15        3.09787  -0.00038   0.00457  -0.05373  -0.04920   3.04867
   D16        0.96260  -0.00031   0.00566  -0.04755  -0.04182   0.92078
   D17       -1.11766  -0.00069   0.00733  -0.06276  -0.05539  -1.17305
   D18        3.06976  -0.00036   0.01434  -0.09929  -0.08488   2.98488
   D19        1.05063  -0.00161   0.00570  -0.09937  -0.09366   0.95697
   D20       -1.02676  -0.00193   0.00558  -0.10102  -0.09553  -1.12229
   D21       -1.15875   0.00033   0.01320  -0.08236  -0.06907  -1.22782
   D22        3.10530  -0.00092   0.00457  -0.08243  -0.07785   3.02745
   D23        1.02792  -0.00124   0.00445  -0.08409  -0.07972   0.94819
   D24        1.16886  -0.00317  -0.01302  -0.04974  -0.06275   1.10610
   D25       -3.12017   0.00140   0.00273  -0.03381  -0.03115   3.13187
   D26       -3.06978  -0.00305  -0.00860  -0.05094  -0.05946  -3.12923
   D27       -1.07561   0.00152   0.00716  -0.03501  -0.02785  -1.10346
   D28       -1.03262  -0.00217  -0.00267  -0.05316  -0.05581  -1.08843
   D29        0.96154   0.00240   0.01308  -0.03722  -0.02420   0.93734
   D30       -1.35960   0.00087   0.02886  -0.15925  -0.13086  -1.49046
   D31        3.08308  -0.00140   0.01544  -0.16937  -0.15369   2.92938
   D32        2.91026   0.00038   0.01513  -0.15720  -0.14231   2.76795
   D33        1.06975  -0.00189   0.00172  -0.16733  -0.16514   0.90461
   D34        3.12085   0.00015  -0.00139  -0.07945  -0.08085   3.04000
   D35        1.05040  -0.00008  -0.00484  -0.07604  -0.08079   0.96960
   D36       -1.03556   0.00010  -0.00024  -0.08369  -0.08388  -1.11944
   D37       -1.14015  -0.00128   0.01075  -0.08957  -0.07893  -1.21908
   D38        3.07258  -0.00151   0.00730  -0.08616  -0.07887   2.99372
   D39        0.98662  -0.00133   0.01190  -0.09381  -0.08195   0.90467
         Item               Value     Threshold  Converged?
 Maximum Force            0.014472     0.000450     NO 
 RMS     Force            0.002378     0.000300     NO 
 Maximum Displacement     0.406711     0.001800     NO 
 RMS     Displacement     0.107188     0.001200     NO 
 Predicted change in Energy=-1.966179D-03
 GradGradGradGradGradGradGradGradGradGradGradGradGradGradGradGradGradGrad

                          Input orientation:                          
 ---------------------------------------------------------------------
 Center     Atomic      Atomic             Coordinates (Angstroms)
 Number     Number       Type             X           Y           Z
 ---------------------------------------------------------------------
      1          6           0        0.989040    0.022270   -0.041189
      2          6           0        2.489878    0.075404   -0.181815
      3          7           0        3.111963    1.175393   -0.226543
[...]
 4316,-0.00556462,0.00232071,0.00137327,-0.01118035,0.00099992,0.000869
 56,-0.00095744,0.00010857,-0.00074504,0.00042446,-0.00011511,-0.000134
 71,0.00018961,-0.00010433,0.00005143,0.00026964,-0.00003536,-0.0000240
 9,-0.00000644,0.00001410,0.00001984,0.00001538,-0.00001808,-0.00000822
 ,-0.00004641,-0.00019157,-0.00003296,-0.00006605,0.00021117,0.00009789
 ,-0.00032539,0.00060965,0.00080167,-0.00236315,0.05683806,-0.00026398,
 0.00024338,-0.00048555,0.00220398,0.00003668,0.00074532,-0.00609278,-0
 .00076075,0.00958325,0.00418387,-0.08734630,0.08947179,0.00003809,0.00
 676653,-0.02954573,0.00056237,0.00122754,-0.00050489,-0.00056414,-0.00
 107426,0.00034526,0.00011923,-0.00013650,0.00006318,0.00014421,0.00011
 937,0.00020985,-0.00003586,0.00000573,0.00001908,0.00001422,-0.0000192
 7,-0.00000664,-0.00006193,-0.00004936,0.00004639,-0.00011572,-0.000014
 43,0.00000169,0.00020980,0.00006002,-0.00005984,-0.00036151,-0.0004937
 5,-0.00132609,0.00169715,0.09285989,0.00039734,-0.00068145,0.00072641,
 -0.00434594,-0.00180834,0.00222830,0.00905428,0.00700085,-0.01083700,-
 0.00539059,0.08062142,-0.25178209,-0.00130058,0.00007161,-0.02357345,0
 .00125879,0.00065788,-0.00214191,0.00093682,0.00071371,0.00100767,0.00
 003524,-0.00031067,0.00030828,-0.00025458,-0.00013039,0.00044637,-0.00
 007175,-0.00003801,-0.00002379,0.00003106,0.00001904,0.00003249,0.0000
 1751,0.00003774,-0.00000312,0.00022179,0.00004284,-0.00006258,-0.00045
 006,-0.00012311,-0.00005586,0.00172292,0.00077604,0.00139632,0.0012879
 0,-0.08753321,0.28518566,-0.00021097,-0.00300594,-0.00166465,-0.001563
 61,0.00038451,0.00432444,-0.03055552,0.02163671,-0.00215621,-0.1247001
 0,0.10533533,-0.00759042,0.00606960,-0.01084798,-0.00108040,0.00493386
 ,-0.00254934,-0.00091627,-0.00017001,0.00031679,0.00006580,0.00002447,
 -0.00012575,0.00009712,-0.00007611,0.00001123,0.00008978,-0.00001910,0
 .00000633,-0.00000371,0.00001092,-0.00001307,0.00000631,-0.00096636,-0
 .00026283,0.00029595,0.00028661,0.00014502,0.00011882,-0.00003777,0.00
 002690,0.00007578,-0.00050481,0.00131006,0.00038912,0.00139487,0.00183
 224,-0.00000083,0.14505479,0.00020555,-0.00103486,-0.00057717,-0.00148
 162,0.00038453,-0.00019679,-0.00537024,0.01165929,0.00031423,0.1082489
 5,-0.19023857,0.01670594,0.00443056,-0.03252777,-0.01286482,0.00602814
 ,0.00218301,-0.00141106,-0.00055815,-0.00033916,0.00070490,-0.00033330
 ,-0.00013631,0.00040424,0.00027737,-0.00020719,-0.00002800,-0.00005240
 ,0.00001768,-0.00006196,-0.00002620,-0.00001586,0.00009238,-0.00035515
 ,-0.00014246,0.00011298,0.00008079,0.00005313,0.00004472,-0.00001050,0
 .00002001,0.00002601,-0.00006583,0.00007709,-0.00006958,0.00881100,-0.
 00876541,0.00206992,-0.11645997,0.21709522,0.00004266,0.00035558,0.000
 56551,0.00036884,-0.00046711,-0.00004484,0.00817196,-0.00727692,0.0020
 6447,-0.00903050,0.01793413,-0.05562910,0.00765038,-0.02950670,-0.0029
 4114,0.00366114,0.00115304,-0.00004930,0.00012548,0.00002607,0.0000869
 1,-0.00007297,-0.00042086,0.00024621,-0.00004124,-0.00003699,0.0001403
 0,-0.00002960,-0.00000104,-0.00004366,0.00000876,-0.00001205,0.0000435
 7,0.00015770,0.00001727,-0.00003673,-0.00003851,-0.00001990,-0.0000733
 6,-0.00005062,-0.00007036,-0.00000041,0.00012515,0.00021205,0.00032816
 ,-0.01757929,0.02304153,-0.00101175,0.00683964,-0.00601149,0.05532047,
 0.00006115,0.00013338,0.00019816,-0.00125489,-0.00019663,-0.00053297,0
 .00148502,0.00198906,0.00014342,0.00275892,0.00621415,-0.01265541,-0.0
 4944877,-0.03433372,0.04711287,-0.01056296,-0.01103934,0.03691470,-0.0
 0588804,0.00091769,-0.00089493,0.00081966,0.00060927,-0.00037421,-0.00
 003812,-0.00094442,0.00100418,-0.00047151,-0.00026216,0.00011787,0.000
 08671,0.00002501,0.00003834,0.00006166,0.00003208,0.00002807,-0.000001
 98,-0.00000876,-0.00004482,-0.00009352,-0.00006472,0.00002904,0.000156
 02,-0.00046335,0.00058834,-0.00133297,-0.00321112,-0.00256424,0.000308
 19,-0.00042885,0.00059481,0.06313351,0.00004867,-0.00010698,0.00007486
 ,-0.00037134,-0.00014240,0.00027456,0.00194592,0.00123228,0.00070428,0
 .00534788,0.00283327,-0.03181171,-0.05085247,-0.05987660,0.11563664,0.
 00885447,-0.00401075,0.00629414,-0.00447892,-0.00192850,0.00200454,-0.
 00139882,0.00006291,0.00034626,0.00027675,-0.00102903,0.00074847,-0.00
 049008,0.00008320,-0.00014889,0.00007806,-0.00012220,0.00019640,0.0000
 0425,0.00000247,-0.00002193,0.00007591,0.00001215,0.00001625,-0.000051
 32,0.00002762,-0.00000541,0.00005766,-0.00005237,0.00043056,-0.0014758
 5,-0.00222389,-0.00160169,-0.00001428,-0.00010076,-0.00065753,0.042097
 98,0.06439509,0.00003517,0.00001225,0.00015868,-0.00010891,-0.00020434
 ,0.00053204,0.00069037,0.00181353,0.00222588,0.00158279,0.00812416,-0.
 02625426,0.07253045,0.08570879,-0.38925542,-0.00465551,0.00155361,-0.0
 0156205,0.00053253,-0.00029881,0.00082022,-0.00009523,-0.00025082,0.00
 011851,-0.00009955,0.00022042,0.00043352,-0.00008753,0.00001217,-0.000
 08312,0.00002173,-0.00004782,0.00010445,0.00003555,0.00003340,-0.00003
 399,0.00002940,0.00001180,-0.00004458,-0.00001970,0.00001677,-0.000021
 48,0.00046253,-0.00020104,0.00008478,-0.00112997,-0.00408537,-0.001873
 53,0.00063150,0.00043121,0.00098129,-0.06920720,-0.09261902,0.41249146
 ,-0.00004486,0.00009118,0.00002489,0.00042402,0.00005897,0.00003806,0.
 00043803,-0.00082719,-0.00008059,0.00258905,0.00486022,0.00395892,-0.0
 3677390,0.01898122,0.00781788,-0.12053786,0.10383501,0.02041729,0.0002
 7830,0.00291241,-0.00218999,0.00152050,-0.00146752,0.00065403,0.000101
 65,-0.00173942,0.00117327,0.00039343,-0.00027696,-0.00036935,-0.000062
 75,-0.00001278,0.00013235,0.00000324,-0.00001342,-0.00000884,-0.000024
 29,-0.00000431,0.00002712,0.00000230,0.00000916,0.00000702,-0.00002679
 ,0.00002242,-0.00001568,-0.00008837,-0.00026528,-0.00038420,0.00067962
 ,-0.00250482,-0.00091262,-0.00101099,0.00082207,-0.00089372,0.14576331
 ,0.00002626,-0.00003412,0.00000718,-0.00001757,-0.00012704,-0.00000336
 ,-0.00014069,0.00020209,0.00008498,-0.00213984,0.00443450,0.00067095,-
 0.00440997,0.00995305,0.00022468,0.09988142,-0.19727989,-0.03137532,0.
 01278107,-0.02142012,-0.00188404,-0.00108453,-0.00119953,0.00604226,0.
 00188361,-0.00085267,-0.00097898,-0.00035525,0.00059531,0.00006937,0.0
 0003188,0.00001710,-0.00014450,0.00000575,0.00001209,0.00000361,0.0000
 1324,0.00000534,-0.00000984,-0.00000100,-0.00000146,-0.00000467,0.0000
 2157,-0.00000744,0.00000091,0.00010549,-0.00035471,0.00004142,0.002306
 95,0.00040247,0.00089285,0.00018463,0.00010965,-0.00007939,-0.11650436
 ,0.21652529,0.00005067,-0.00000034,0.00004050,-0.00021153,-0.00007735,
 -0.00015678,0.00007411,0.00013658,0.00003562,-0.00221592,0.00082370,-0
 .00093109,0.00921863,-0.00335523,0.00277288,0.02347729,-0.04064798,-0.
 06053867,-0.01603056,0.02654993,0.00058413,0.00041264,0.00347850,-0.00
 383263,-0.00096621,0.00124241,0.00028847,-0.00038711,-0.00027755,0.000
 24266,0.00006116,0.00003476,-0.00003884,0.00002374,0.00001796,-0.00000
 335,0.00002908,0.00000223,-0.00001656,-0.00000172,-0.00000377,-0.00000
 648,0.00001434,-0.00001572,0.00002569,-0.00011365,0.00009879,0.0001635
 2,0.00050698,0.00092934,0.00043562,0.00015824,-0.00031411,0.00001814,-
 0.02909694,0.02950561,0.06398071,-0.00019898,0.00027498,-0.00010053,-0
 .00010395,-0.00018485,0.00046115,-0.00086551,-0.00155751,-0.00162755,-
 0.00477130,0.00175115,0.00301850,-0.01816497,-0.02185458,-0.02960994,-
 0.07177386,-0.02793253,-0.04869780,0.00283076,0.00144167,0.00266601,-0
 .00023756,-0.00104862,-0.00052706,0.00214007,0.00140633,0.00155711,0.0
 0007351,-0.00008121,-0.00037944,-0.00002131,0.00009116,-0.00001889,-0.
 00001433,-0.00002535,0.00000810,-0.00013778,-0.00003615,0.00004096,0.0
 0000410,-0.00000837,0.00001564,-0.00000020,-0.00007912,-0.00006671,-0.
 00010203,-0.00013964,-0.00028830,0.00023327,-0.00028121,0.00016178,0.0
 0133590,-0.00053113,-0.00044153,0.00654372,0.00821222,0.01429096,0.083
 00866,-0.00008463,0.00003614,-0.00008602,-0.00005311,-0.00010346,0.000
 25615,-0.00052564,-0.00018611,-0.00080000,-0.00209578,0.00089672,0.000
 83578,-0.00400259,-0.00474359,-0.00702281,-0.03298219,-0.10903546,-0.0
 9297939,0.00460559,0.00680992,0.02344987,-0.00146541,0.00563315,-0.000
 14422,0.00320681,0.00156524,0.00056847,-0.00001018,0.00004768,-0.00016
 262,0.00002351,-0.00000461,0.00000405,-0.00003176,-0.00001754,0.000008
 30,-0.00004925,-0.00000799,0.00001213,0.00000248,-0.00000316,0.0000097
 1,-0.00000281,-0.00001217,-0.00002535,-0.00003829,-0.00004319,-0.00008
 229,-0.00007733,0.00059157,0.00036818,-0.00025235,-0.00036506,-0.00040
 386,-0.00637624,-0.01016030,-0.01984047,0.04063277,0.10971445,0.000031
 60,-0.00003335,0.00000484,0.00004934,0.00001566,-0.00009995,0.00014967
 ,0.00019366,0.00017239,0.00111752,0.00040365,0.00119477,0.00179389,0.0
 0136210,0.00417483,-0.05813734,-0.09429991,-0.20026565,-0.00395899,-0.
 00165726,-0.04300826,0.00158918,-0.00076217,0.00496131,-0.00427722,-0.
 00148254,0.00137879,0.00031253,0.00036262,0.00043550,-0.00004305,0.000
 00686,-0.00011614,-0.00000488,0.00000158,-0.00000084,0.00001687,0.0000
 0213,-0.00000709,-0.00000359,-0.00000330,0.00000408,0.00000575,0.00001
 570,0.00002820,0.00032104,0.00029786,0.00026581,0.00003600,-0.00002383
 ,-0.00004232,-0.00047647,-0.00015208,0.00143848,-0.00134935,-0.0031065
 4,-0.00291731,0.06091126,0.09790338,0.23222747,-0.00001099,-0.00000208
 ,-0.00000921,-0.00005539,-0.00002032,0.00003144,-0.00006275,0.00002335
 ,-0.00003451,0.00019664,-0.00047622,0.00013981,-0.00011792,-0.00206194
 ,-0.00020608,-0.00095790,0.00093590,0.00090454,-0.02250600,-0.00492803
 ,0.00612701,-0.30921447,-0.08069948,0.14338431,-0.00306796,0.00491199,
 0.00107646,0.00018124,0.00039773,-0.00065955,0.00017401,-0.00020397,0.
 00014087,-0.00000160,0.00001114,0.00000587,-0.00002995,-0.00000844,-0.
 00000756,0.00000061,-0.00000367,-0.00000104,0.00001627,-0.00001513,-0.
 00004005,0.00001444,0.00003400,-0.00001568,-0.00009838,0.00005112,-0.0
 0006457,-0.00010539,0.00015647,0.00001956,-0.00066564,-0.00043005,0.00
 015597,-0.00035964,0.00010825,-0.00053105,0.32927398,0.00012052,0.0000
 0373,0.00008718,-0.00048095,-0.00003497,-0.00033413,0.00045514,0.00026
 944,0.00046821,-0.00165594,-0.00184427,-0.00210057,0.00024752,0.000729
 34,-0.00097087,0.00718418,0.00070189,0.00023358,0.03807864,0.00232363,
 -0.01974744,-0.11097678,-0.08443758,0.07614062,0.00213946,-0.00699753,
 -0.00117705,-0.00024384,-0.00044390,0.00034008,-0.00006137,0.00021017,
 -0.00017213,0.00006323,0.00003719,-0.00002010,0.00009472,0.00000501,-0
 .00002450,-0.00000673,0.00000572,-0.00001800,0.00002426,-0.00001734,0.
 00006447,0.00019442,0.00003299,0.00028266,0.00006772,0.00093832,0.0005
 2167,-0.00078543,0.00114521,0.00023722,-0.00096005,0.00046054,0.000019
 54,-0.00038860,-0.00013046,0.00023618,0.08059128,0.09203405,-0.0000417
 8,-0.00001481,-0.00006291,0.00005231,-0.00001760,0.00032624,-0.0000087
 3,-0.00005159,-0.00046392,0.00118045,-0.00065256,0.00149653,-0.0006096
 8,-0.00035454,-0.00309419,-0.00261296,0.00261613,0.00376191,0.01113252
 ,-0.00080368,-0.00643635,0.09938647,0.04471682,-0.08469493,-0.00072931
 ,-0.00040415,-0.00158822,0.00026923,-0.00011435,-0.00027649,-0.0000277
 0,-0.00007979,0.00013187,-0.00001635,-0.00001301,0.00000206,-0.0000282
 5,-0.00000293,0.00002254,0.00001371,0.00001822,-0.00001046,-0.00000752
 ,0.00002831,-0.00010485,-0.00006274,-0.00031456,-0.00037858,-0.0001708
 7,-0.00058689,-0.00040891,-0.00030534,0.00075906,-0.00016417,0.0003845
 1,-0.00005729,-0.00077905,-0.00047576,-0.00019490,-0.00079674,-0.14130
 708,-0.05723930,0.11140994,0.00000804,-0.00000973,-0.00001091,-0.00005
 648,-0.00002235,0.00007319,0.00006647,0.00004651,-0.00007589,0.0002864
 6,-0.00028071,0.00032565,0.00059872,-0.00147398,0.00006652,-0.00412898
 ,0.00111471,0.00176639,-0.00782335,0.01213055,-0.01531373,-0.06833371,
 0.05275414,-0.09020844,-0.00042955,0.00242875,-0.00248828,-0.00097335,
 0.00078595,-0.00019841,0.00051496,-0.00086785,0.00063808,0.00000305,0.
 00000841,0.00000237,-0.00001101,-0.00000421,-0.00000103,0.00000277,0.0
 0000356,-0.00000741,0.00000557,-0.00000549,-0.00003976,-0.00000541,-0.
 00004362,-0.00013774,-0.00013774,-0.00008633,-0.00015354,-0.00006377,0
 .00005651,0.00001885,0.00022414,0.00099574,-0.00031597,0.00003990,-0.0
 0041998,0.00024359,0.00806906,-0.01580022,0.03393121,0.07246990,0.0000
 0879,0.00000391,-0.00001636,-0.00012092,-0.00004655,0.00008766,0.00008
 568,0.00006149,-0.00016704,0.00004868,-0.00024920,0.00047945,0.0001486
 6,0.00033533,-0.00016350,0.00476549,-0.00626241,-0.00119812,0.00953130
 ,-0.02245045,0.03246607,0.03330084,-0.07078432,0.08698578,0.00135113,0
 .00080219,0.00060447,0.00041049,0.00058288,0.00001997,-0.00007559,-0.0
 0036848,-0.00013763,0.00000855,0.00000753,0.00000040,0.00000525,-0.000
 00360,-0.00000026,0.00000523,0.00000376,-0.00000979,-0.00000136,0.0000
 0018,-0.00003900,-0.00003503,-0.00006957,-0.00016752,-0.00003446,0.000
 08927,-0.00007699,-0.00006373,-0.00002423,-0.00003767,-0.00025306,-0.0
 0130866,0.00167940,0.00026498,-0.00026342,-0.00034601,0.00157589,-0.00
 526429,0.01228833,-0.05105523,0.10590672,0.00000550,0.00000255,-0.0000
 0008,-0.00002181,-0.00000807,0.00000020,0.00004438,0.00000755,-0.00001
 873,-0.00008658,0.00016359,-0.00000266,-0.00054758,0.00033607,0.000217
 61,0.00171204,-0.00161396,-0.00045730,0.00395547,-0.01156968,0.0130624
 9,-0.06627043,0.14168928,-0.34840753,-0.00093387,0.00008317,0.00093834
 ,-0.00013780,0.00031893,-0.00015387,0.00002731,-0.00008659,-0.00038124
 ,0.00000413,0.00000051,0.00000017,0.00000935,0.00000323,0.00000144,-0.
 00000008,0.00000150,-0.00000193,0.00000012,0.00000347,0.00000799,-0.00
 005486,0.00000640,0.00001950,0.00008623,0.00004518,0.00005589,0.000023
 15,-0.00012099,-0.00002174,0.00025409,-0.00055355,0.00079214,0.0002382
 5,-0.00023039,0.00067682,-0.01008550,0.00313740,-0.01873817,0.07157419
 ,-0.13169007,0.35269959,0.00001185,0.00000584,0.00001122,-0.00003391,-
 0.00000077,-0.00002974,0.00008582,-0.00000994,0.00002403,-0.00017512,0
 .00009009,-0.00011392,0.00078279,-0.00052166,-0.00042346,0.00000422,0.
 00271874,-0.00019305,-0.01907768,0.02956591,0.00257966,-0.00628224,-0.
 00317012,0.00274050,-0.10931375,0.10350190,0.01033172,0.00243163,-0.00
 197561,-0.00395623,-0.00010854,-0.00025436,0.00205467,0.00000683,0.000
 00273,-0.00000253,0.00001116,0.00000118,-0.00000093,-0.00000029,0.0000
 0159,-0.00000195,-0.00000028,0.00000131,0.00000955,-0.00002190,0.00002
 959,0.00001284,0.00002373,-0.00006125,0.00001928,0.00009427,0.00003528
 ,0.00000227,0.00021547,-0.00122799,0.00056839,0.00011399,-0.00020058,0
 .00020983,-0.00123719,0.00226471,-0.00022242,-0.00022440,0.00001395,-0
 .00005535,0.12598731,0.00000281,0.00000178,0.00000246,-0.00001848,-0.0
 0000931,0.00000180,0.00001507,0.00000278,-0.00000956,-0.00008371,0.000
 00370,-0.00008198,0.00038985,0.00049016,-0.00012641,-0.00190374,0.0000
 7500,0.00114701,-0.00214940,0.00621334,-0.00094059,-0.00066537,0.00078
 491,0.00046481,0.11286171,-0.24076369,-0.01935437,0.00605964,-0.017975
 70,0.00489270,-0.00041800,0.00240122,-0.00069252,0.00000237,0.00000164
 ,0.,0.00000106,-0.00000037,-0.00000099,-0.00000004,-0.00000014,-0.0000
 0145,0.00000238,-0.00000197,-0.00000085,-0.00000749,-0.00001652,0.0000
 1007,0.00001640,0.00003986,0.00002815,-0.00007099,0.00015108,0.0000053
 1,-0.00056959,0.00026052,0.00011763,0.00015621,-0.00021993,-0.00004617
 ,-0.00030759,0.00022509,0.00061971,0.00002955,-0.00011962,0.00004793,-
 0.12100535,0.26163880,-0.00000823,0.00000370,-0.00000823,0.00001186,-0
 .00000709,0.00003827,-0.00003020,-0.00001955,-0.00007617,0.00009941,0.
 00007028,0.00024296,-0.00082500,0.00016302,-0.00011318,0.00163782,-0.0
 0150728,-0.00015172,0.00120823,-0.00533494,-0.00094819,0.00291077,0.00
 010001,-0.00041482,0.00891049,-0.01658781,-0.04731486,-0.01595446,0.03
 038342,-0.00152845,0.00246747,-0.00222391,-0.00249737,-0.00000315,-0.0
 0000169,0.00000159,-0.00000552,-0.00000113,0.00000175,0.00000167,0.000
 00009,-0.00000040,-0.00000205,0.00000237,-0.00001118,-0.00003012,0.000
 00537,-0.00004750,0.00002137,-0.00002702,-0.00000387,0.00007509,-0.000
 05881,-0.00003650,0.00037834,0.00078613,-0.00007243,-0.00001034,-0.000
 02213,-0.00014011,0.00072612,-0.00025382,0.00060217,0.00049306,-0.0001
 1573,0.00001589,-0.01359573,0.01458730,0.05249295,-0.00002555,-0.00000
 423,-0.00001530,0.00015133,0.00001967,0.00005721,-0.00018153,-0.000101
 14,0.00010567,0.00008586,0.00037565,-0.00029952,-0.00010527,0.00024920
 ,0.00072388,0.00072203,0.00255426,-0.00513799,-0.03246157,-0.02604741,
 -0.02047001,0.00620032,-0.00135035,-0.00020614,-0.07691566,-0.04531917
 ,-0.06245469,0.00236312,0.00360445,-0.00153790,-0.00002653,-0.00139653
 ,0.00106256,-0.00001595,-0.00001063,0.00000189,-0.00001714,0.00000074,
 0.00000450,0.00000158,-0.00000043,0.00000403,0.00000816,0.00000916,-0.
 00001638,0.00017045,0.00008682,0.00022798,0.00002055,-0.00005767,0.000
 04587,-0.00002809,-0.00019368,0.00014615,0.00005870,-0.00013858,0.0002
 9741,0.00042755,0.00008870,0.00199388,0.00056491,-0.00016589,0.0002760
 9,-0.00010128,0.00011448,0.00025964,0.00670625,0.00766271,0.01152312,0
 .09239778,-0.00001393,-0.00000802,-0.00000723,0.00009480,0.00002086,0.
 00001815,-0.00009378,-0.00003099,0.00008535,0.00016098,0.00012657,-0.0
 0020733,-0.00003563,0.00010048,0.00052126,0.00011553,0.00098046,-0.003
 06514,-0.01162018,-0.00711965,-0.00516090,0.00100533,0.00344045,0.0027
 0013,-0.04616170,-0.11846710,-0.09546796,0.00768735,0.01067058,0.01520
 070,-0.00149940,-0.00320621,0.00091874,-0.00001019,-0.00000791,0.00000
 035,-0.00000617,0.00000224,0.00000340,-0.00000036,0.00000008,0.0000039
 2,0.00000266,0.00000702,0.00000193,0.00006805,0.00001576,0.00013148,-0
 .00000526,-0.00004312,0.00000741,-0.00007768,-0.00007219,0.00004752,0.
 00018232,-0.00023201,-0.00010387,-0.00008258,0.00000159,0.00111177,0.0
 0035980,0.00004799,-0.00014461,-0.00028465,-0.00057846,0.00002656,-0.0
 0980519,-0.01318262,-0.01994079,0.06001989,0.12753420,-0.00000663,-0.0
 0000033,-0.00000081,0.00002293,0.00000970,-0.00000752,-0.00005275,-0.0
 0002030,-0.00000740,0.00006470,0.00008951,-0.00014482,-0.00014314,-0.0
 0006784,-0.00028199,0.00122696,0.00109300,0.00362592,-0.00072342,0.001
 17313,0.00752166,-0.00000125,0.00234487,0.00069015,-0.06476103,-0.0958
 0115,-0.18047528,-0.00914416,-0.01228008,-0.03199200,0.00110793,0.0025
 9176,0.00218724,-0.00000356,-0.00000287,-0.00000039,-0.00000308,-0.000
 00012,0.00000166,-0.00000062,-0.00000075,0.00000285,-0.00000188,0.0000
 0334,0.00000547,-0.00002378,-0.00007390,0.00001083,-0.00000147,-0.0000
 2247,0.00001699,0.00002931,0.00002615,-0.00005663,0.00003351,-0.000132
 46,-0.00008687,-0.00112587,-0.00142159,0.00043112,0.00024993,0.0002891
 0,0.00024467,-0.00018200,-0.00044582,-0.00030480,0.00003134,-0.0006699
 9,-0.00003058,0.07340806,0.10331915,0.19865055\\0.00000205,0.00001208,
 0.00000637,-0.00000378,-0.00000916,0.00000107,-0.00000069,0.00000111,0
 .00000358,0.00000573,0.00000586,-0.00000144,0.00000148,-0.00000529,0.0
 0000009,-0.00000468,0.00000064,0.00000446,-0.00000498,0.00000091,-0.00
 000429,-0.00000161,-0.00000043,-0.00000197,0.00000454,-0.00000008,-0.0
 0000305,0.00000008,0.00000874,0.00000689,0.00000012,-0.00000436,-0.000
 00369,-0.00000010,-0.00000146,-0.00000352,0.00000045,-0.00000286,-0.00
 000375,0.00000261,-0.00000364,0.00000016,-0.00000016,0.00000201,-0.000
 00190,-0.00000112,-0.00000053,-0.00000083,-0.00000146,0.00000068,0.000
 00147,-0.00000077,0.00000104,-0.00000051,0.00000108,0.00000152,-0.0000
 0013,0.00000020,-0.00000360,-0.00000019,0.00000069,-0.00000118,0.00000
 263,0.00000231,0.00000114,-0.00000064,0.00000015,-0.00000230,0.0000018
 3,-0.00000212,-0.00000085,-0.00000264\\\@


 A MAN THINKING OR WORKING IS ALWAYS ALONE, 
 LET HIM BE WHERE HE WILL.

                                    -- THOREAU
 Job cpu time:       0 days  2 hours 54 minutes 16.3 seconds.
 Elapsed time:       0 days  0 hours 43 minutes 34.7 seconds.
 File lengths (MBytes):  RWF=    252 Int=      0 D2E=      0 Chk=     12 Scr=      1
 Normal termination of Gaussian 16 at Tue Jun  1 01:42:30 2021.
### All Done ###
