### Starting Gaussian ###
 Entering Gaussian System, Link 0=g16
 Initial command:
 /cluster/software/gaussian/gaussian-16-A.03/avx2/g16/l1.exe "/local/scratch/cz9n3/Gau-18386.inp" -scrdir="/local/scratch/cz9n3/"
 Entering Link 1 = /cluster/software/gaussian/gaussian-16-A.03/avx2/g16/l1.exe PID=     18387.
  
 Copyright (c) 1988,1990,1992,1993,1995,1998,2003,2009,2016,
            Gaussian, Inc.  All Rights Reserved.
  
 This is part of the Gaussian(R) 16 program.  It is based on
 the Gaussian(R) 09 system (copyright 2009, Gaussian, Inc.),
 the Gaussian(R) 03 system (copyright 2003, Gaussian, Inc.),
 the Gaussian(R) 98 system (copyright 1998, Gaussian, Inc.),
 the Gaussian(R) 94 system (copyright 1995, Gaussian, Inc.),
 the Gaussian 92(TM) system (copyright 1992, Gaussian, Inc.),
 the Gaussian 90(TM) system (copyright 1990, Gaussian, Inc.),
 the Gaussian 88(TM) system (copyright 1988, Gaussian, Inc.),
 the Gaussian 86(TM) system (copyright 1986, Carnegie Mellon
 University), and the Gaussian 82(TM) system (copyright 1983,
 Carnegie Mellon University). Gaussian is a federally registered
 trademark of Gaussian, Inc.
  
 This software contains proprietary and confidential information,
 including trade secrets, belonging to Gaussian, Inc.
  
 This software is provided under written license and may be
 used, copied, transmitted, or stored only in accord with that
 written license.
  
 The following legend is applicable only to US Government
 contracts under FAR:
  
                    RESTRICTED RIGHTS LEGEND
  
 Use, reproduction and disclosure by the US Government is
 subject to restrictions as set forth in subparagraphs (a)
 and (c) of the Commercial Computer Software - Restricted
 Rights clause in FAR 52.227-19.
  
 Gaussian, Inc.
 340 Quinnipiac St., Bldg. 40, Wallingford CT 06492
  
  
 ---------------------------------------------------------------
 Warning -- This program may not be used in any manner that
 competes with the business of Gaussian, Inc. or will provide
 assistance to any competitor of Gaussian, Inc.  The licensee
 of this program is prohibited from giving any competitor of
 Gaussian, Inc. access to this program.  By using this program,
 the user acknowledges that Gaussian, Inc. is engaged in the
 business of creating and licensing software in the field of
 computational chemistry and represents and warrants to the
 licensee that it is not a competitor of Gaussian, Inc. and that
 it will not use this program in any manner prohibited above.
 ---------------------------------------------------------------
  

 Cite this work as:
 Gaussian 16, Revision A.03,
 M. J. Frisch, G. W. Trucks, H. B. Schlegel, G. E. Scuseria, 
 M. A. Robb, J. R. Cheeseman, G. Scalmani, V. Barone, 
 G. A. Petersson, H. Nakatsuji, X. Li, M. Caricato, A. V. Marenich, 
 J. Bloino, B. G. Janesko, R. Gomperts, B. Mennucci, H. P. Hratchian, 
 J. V. Ortiz, A. F. Izmaylov, J. L. Sonnenberg, D. Williams-Young, 
 F. Ding, F. Lipparini, F. Egidi, J. Goings, B. Peng, A. Petrone, 
 T. Henderson, D. Ranasinghe, V. G. Zakrzewski, J. Gao, N. Rega, 
 G. Zheng, W. Liang, M. Hada, M. Ehara, K. Toyota, R. Fukuda, 
 J. Hasegawa, M. Ishida, T. Nakajima, Y. Honda, O. Kitao, H. Nakai, 
 T. Vreven, K. Throssell, J. A. Montgomery, Jr., J. E. Peralta, 
 F. Ogliaro, M. J. Bearpark, J. J. Heyd, E. N. Brothers, K. N. Kudin, 
 V. N. Staroverov, T. A. Keith, R. Kobayashi, J. Normand, 
 K. Raghavachari, A. P. Rendell, J. C. Burant, S. S. Iyengar, 
 J. Tomasi, M. Cossi, J. M. Millam, M. Klene, C. Adamo, R. Cammi, 
 J. W. Ochterski, R. L. Martin, K. Morokuma, O. Farkas, 
 J. B. Foresman, and D. J. Fox, Gaussian, Inc., Wallingford CT, 2016.
 
 ******************************************
 Gaussian 16:  ES64L-G16RevA.03 25-Dec-2016
                 1-Jun-2021 
 ******************************************
 %chk=CCNCpCtNpCCtN.chk
 %NProcShared=20
 Will use up to   20 processors via shared memory.
 -----------------------------
 # opt freq b3lyp/6-31g(2df,p)
 -----------------------------
 1/18=20,19=15,26=3,38=1/1,3;
 2/9=110,12=2,17=6,18=5,40=1/2;
 3/5=1,6=6,7=104,11=2,25=1,30=1,71=1,74=-5/1,2,3;
 4//1;
 5/5=2,38=5/2;
 6/7=2,8=2,9=2,10=2,28=1/1;
 7//1,2,3,16;
 1/18=20,19=15,26=3/3(2);
 2/9=110/2;
 99//99;
 2/9=110/2;
 3/5=1,6=6,7=104,11=2,25=1,30=1,71=1,74=-5/1,2,3;
 4/5=5,16=3,69=1/1;
 5/5=2,38=5/2;
 7//1,2,3,16;
 1/18=20,19=15,26=3/3(-5);
 2/9=110/2;
 6/7=2,8=2,9=2,10=2,19=2,28=1/1;
 99/9=1/99;
 -------------------
 Title Card Required
 -------------------
 Symbolic Z-matrix:
 Charge =  0 Multiplicity = 1
 C                     1.05109  -0.02714  -0.02803 
 C                     2.56857  -0.00506  -0.02651 
 N                     3.08941  -1.09143  -0.86826 
 C                     4.57339  -1.13593  -0.84269 
 C                     5.08006  -1.32189   0.57826 
 N                     5.50038  -1.47615   1.75706 
 C                     5.08005  -2.27354  -1.71421 
 C                     6.60005  -2.27354  -1.71421 
 N                     7.86101  -2.27354  -1.71421 
 H                     0.66877   0.78124   0.60382 
 H                     0.67303  -0.97379   0.37302 
 H                     0.65191   0.10889  -1.03713 
 H                     2.89544  -0.11334   1.01305 
 H                     2.92551   0.96304  -0.39494 
 H                     2.75513  -0.96556  -1.82189 
 H                     4.96227  -0.18212  -1.22388 
 H                     4.73071  -2.16017  -2.7473 
 H                     4.7313   -3.2475   -1.34867 
 

 GradGradGradGradGradGradGradGradGradGradGradGradGradGradGradGradGradGrad
 Berny optimization.
 Initialization pass.
                           ----------------------------
                           !    Initial Parameters    !
                           ! (Angstroms and Degrees)  !
 --------------------------                            --------------------------
 ! Name  Definition              Value          Derivative Info.                !
 --------------------------------------------------------------------------------
 ! R1    R(1,2)                  1.5176         estimate D2E/DX2                !
 ! R2    R(1,10)                 1.0949         estimate D2E/DX2                !
 ! R3    R(1,11)                 1.0954         estimate D2E/DX2                !
 ! R4    R(1,12)                 1.0937         estimate D2E/DX2                !
 ! R5    R(2,3)                  1.4697         estimate D2E/DX2                !
 ! R6    R(2,13)                 1.0951         estimate D2E/DX2                !
 ! R7    R(2,14)                 1.0956         estimate D2E/DX2                !
 ! R8    R(3,4)                  1.4849         estimate D2E/DX2                !
 ! R9    R(3,15)                 1.0183         estimate D2E/DX2                !
 ! R10   R(4,5)                  1.52           estimate D2E/DX2                !
 ! R11   R(4,7)                  1.52           estimate D2E/DX2                !
 ! R12   R(4,16)                 1.0983         estimate D2E/DX2                !
 ! R13   R(5,6)                  1.261          estimate D2E/DX2                !
 ! R14   R(7,8)                  1.52           estimate D2E/DX2                !
 ! R15   R(7,17)                 1.0964         estimate D2E/DX2                !
 ! R16   R(7,18)                 1.0972         estimate D2E/DX2                !
 ! R17   R(8,9)                  1.261          estimate D2E/DX2                !
 ! A1    A(2,1,10)             109.7438         estimate D2E/DX2                !
 ! A2    A(2,1,11)             110.9346         estimate D2E/DX2                !
 ! A3    A(2,1,12)             111.35           estimate D2E/DX2                !
 ! A4    A(10,1,11)            107.8331         estimate D2E/DX2                !
 ! A5    A(10,1,12)            108.2503         estimate D2E/DX2                !
 ! A6    A(11,1,12)            108.6221         estimate D2E/DX2                !
 ! A7    A(1,2,3)              110.061          estimate D2E/DX2                !
 ! A8    A(1,2,13)             107.3353         estimate D2E/DX2                !
 ! A9    A(1,2,14)             109.7718         estimate D2E/DX2                !
 ! A10   A(3,2,13)             111.3966         estimate D2E/DX2                !
 ! A11   A(3,2,14)             110.1876         estimate D2E/DX2                !
 ! A12   A(13,2,14)            108.0199         estimate D2E/DX2                !
 ! A13   A(2,3,4)              111.4977         estimate D2E/DX2                !
 ! A14   A(2,3,15)             109.1868         estimate D2E/DX2                !
 ! A15   A(4,3,15)             110.3588         estimate D2E/DX2                !
 ! A16   A(3,4,5)              110.6649         estimate D2E/DX2                !
 ! A17   A(3,4,7)              110.2236         estimate D2E/DX2                !
 ! A18   A(3,4,16)             108.7752         estimate D2E/DX2                !
 ! A19   A(5,4,7)              109.471          estimate D2E/DX2                !
 ! A20   A(5,4,16)             108.2205         estimate D2E/DX2                !
 ! A21   A(7,4,16)             109.4472         estimate D2E/DX2                !
 ! A22   A(4,7,8)              109.4709         estimate D2E/DX2                !
 ! A23   A(4,7,17)             110.8948         estimate D2E/DX2                !
 ! A24   A(4,7,18)             111.5548         estimate D2E/DX2                !
 ! A25   A(8,7,17)             108.5792         estimate D2E/DX2                !
 ! A26   A(8,7,18)             108.5333         estimate D2E/DX2                !
 ! A27   A(17,7,18)            107.7234         estimate D2E/DX2                !
 ! A28   L(4,5,6,9,-1)         180.0004         estimate D2E/DX2                !
 ! A29   L(7,8,9,6,-1)         180.0            estimate D2E/DX2                !
 ! A30   L(4,5,6,9,-2)         179.9997         estimate D2E/DX2                !
 ! A31   L(7,8,9,6,-2)         180.0            estimate D2E/DX2                !
 ! D1    D(10,1,2,3)           179.7556         estimate D2E/DX2                !
 ! D2    D(10,1,2,13)           58.3661         estimate D2E/DX2                !
 ! D3    D(10,1,2,14)          -58.8001         estimate D2E/DX2                !
 ! D4    D(11,1,2,3)            60.699          estimate D2E/DX2                !
 ! D5    D(11,1,2,13)          -60.6905         estimate D2E/DX2                !
 ! D6    D(11,1,2,14)         -177.8567         estimate D2E/DX2                !
 ! D7    D(12,1,2,3)           -60.4069         estimate D2E/DX2                !
 ! D8    D(12,1,2,13)          178.2036         estimate D2E/DX2                !
 ! D9    D(12,1,2,14)           61.0374         estimate D2E/DX2                !
 ! D10   D(1,2,3,4)           -177.5358         estimate D2E/DX2                !
 ! D11   D(1,2,3,15)            60.2588         estimate D2E/DX2                !
 ! D12   D(13,2,3,4)           -58.6035         estimate D2E/DX2                !
 ! D13   D(13,2,3,15)          179.1911         estimate D2E/DX2                !
 ! D14   D(14,2,3,4)            61.2684         estimate D2E/DX2                !
 ! D15   D(14,2,3,15)          -60.9371         estimate D2E/DX2                !
 ! D16   D(2,3,4,5)             58.3991         estimate D2E/DX2                !
 ! D17   D(2,3,4,7)            179.6378         estimate D2E/DX2                !
 ! D18   D(2,3,4,16)           -60.363          estimate D2E/DX2                !
 ! D19   D(15,3,4,5)           179.9268         estimate D2E/DX2                !
 ! D20   D(15,3,4,7)           -58.8345         estimate D2E/DX2                !
 ! D21   D(15,3,4,16)           61.1647         estimate D2E/DX2                !
 ! D22   D(3,4,7,8)            178.0521         estimate D2E/DX2                !
 ! D23   D(3,4,7,17)            58.2702         estimate D2E/DX2                !
 ! D24   D(3,4,7,18)           -61.8061         estimate D2E/DX2                !
 ! D25   D(5,4,7,8)            -60.0001         estimate D2E/DX2                !
 ! D26   D(5,4,7,17)          -179.782          estimate D2E/DX2                !
 ! D27   D(5,4,7,18)            60.1417         estimate D2E/DX2                !
 ! D28   D(16,4,7,8)            58.4595         estimate D2E/DX2                !
 ! D29   D(16,4,7,17)          -61.3224         estimate D2E/DX2                !
 ! D30   D(16,4,7,18)          178.6013         estimate D2E/DX2                !
 --------------------------------------------------------------------------------
 Trust Radius=3.00D-01 FncErr=1.00D-07 GrdErr=1.00D-06 EigMax=2.50D+02 EigMin=1.00D-04
 Number of steps in this run=     88 maximum allowed number of steps=    108.
 GradGradGradGradGradGradGradGradGradGradGradGradGradGradGradGradGradGrad

                          Input orientation:                          
 ---------------------------------------------------------------------
 Center     Atomic      Atomic             Coordinates (Angstroms)
 Number     Number       Type             X           Y           Z
 ---------------------------------------------------------------------
      1          6           0        1.051090   -0.027140   -0.028030
      2          6           0        2.568570   -0.005060   -0.026510
      3          7           0        3.089410   -1.091430   -0.868260
      4          6           0        4.573390   -1.135930   -0.842690
      5          6           0        5.080060   -1.321890    0.578260
      6          7           0        5.500380   -1.476150    1.757060
      7          6           0        5.080050   -2.273540   -1.714210
      8          6           0        6.600050   -2.273540   -1.714210
      9          7           0        7.861010   -2.273540   -1.714210
     10          1           0        0.668770    0.781240    0.603820
     11          1           0        0.673030   -0.973790    0.373020
     12          1           0        0.651910    0.108890   -1.037130
     13          1           0        2.895440   -0.113340    1.013050
     14          1           0        2.925510    0.963040   -0.394940
     15          1           0        2.755130   -0.965560   -1.821890
     16          1           0        4.962270   -0.182120   -1.223880
     17          1           0        4.730710   -2.160170   -2.747300
     18          1           0        4.731300   -3.247500   -1.348670
 ---------------------------------------------------------------------
                    Distance matrix (angstroms):
                    1          2          3          4          5
     1  C    0.000000
     2  C    1.517641   0.000000
     3  N    2.448152   1.469700   0.000000
     4  C    3.781492   2.442196   1.484867   0.000000
     5  C    4.275110   2.899547   2.471481   1.519998   0.000000
     6  N    5.008229   3.733730   3.585121   2.780964   1.260966
     7  C    4.911419   3.781781   2.464886   1.520003   2.482148
     8  C    6.219363   4.924141   3.799685   2.482147   2.910571
     9  N    7.366446   6.000354   4.988104   3.586384   3.727565
    10  H    1.094934   2.150540   3.396088   4.584102   4.887053
    11  H    1.095407   2.165903   2.719100   4.088649   4.425518
    12  H    1.093678   2.169775   2.722259   4.118906   4.925965
    13  H    2.119647   1.095104   2.129228   2.702772   2.534206
    14  H    2.151402   1.095611   2.114649   2.705857   3.287873
    15  H    2.646189   2.044689   1.018330   2.072180   3.360505
    16  H    4.092848   2.682321   2.112088   1.098311   2.135570
    17  H    5.048153   4.089260   2.714196   2.168261   3.447333
    18  H    5.065447   4.115693   2.752314   2.177080   2.746392
                    6          7          8          9         10
     6  N    0.000000
     7  C    3.586394   0.000000
     8  C    3.727576   1.520000   0.000000
     9  N    4.272952   2.780960   1.260960   0.000000
    10  H    5.456210   5.845027   7.062933   8.150660   0.000000
    11  H    5.046904   5.046554   6.416810   7.596903   1.770146
    12  H    5.816142   5.073740   6.443196   7.622699   1.773430
    13  H    3.032576   4.108154   5.082179   6.063109   2.434297
    14  H    4.148579   4.105845   5.071308   6.047734   2.474560
    15  H    4.539381   2.669768   4.062735   5.271851   3.645309
    16  H    3.293946   2.151356   2.701256   3.607929   4.764734
    17  H    4.620556   1.096433   2.138822   3.298319   6.031688
    18  H    3.657147   1.097198   2.138795   3.298076   6.045421
                   11         12         13         14         15
    11  H    0.000000
    12  H    1.777967   0.000000
    13  H    2.467614   3.047302   0.000000
    14  H    3.068345   2.512218   1.772550   0.000000
    15  H    3.025366   2.488740   2.963587   2.405143   0.000000
    16  H    4.644826   4.324207   3.046370   2.479299   2.417201
    17  H    5.254394   4.970908   4.658107   4.306598   2.487246
    18  H    4.960194   5.291865   4.332558   4.679650   3.055558
                   16         17         18
    16  H    0.000000
    17  H    2.507411   0.000000
    18  H    3.076601   1.771568   0.000000
 Stoichiometry    C6H9N3
 Framework group  C1[X(C6H9N3)]
 Deg. of freedom    48
 Full point group                 C1      NOp   1
 Largest Abelian subgroup         C1      NOp   1
 Largest concise Abelian subgroup C1      NOp   1
                         Standard orientation:                         
 ---------------------------------------------------------------------
 Center     Atomic      Atomic             Coordinates (Angstroms)
 Number     Number       Type             X           Y           Z
 ---------------------------------------------------------------------
      1          6           0        3.573176   -0.333277   -0.076657
      2          6           0        2.212993    0.092838    0.444461
      3          7           0        1.153375   -0.673089   -0.226793
      4          6           0       -0.195730   -0.239863    0.217123
      5          6           0       -0.401662    1.240547   -0.059236
      6          7           0       -0.572492    2.468673   -0.288493
      7          6           0       -1.268146   -1.043214   -0.500483
      8          6           0       -2.639083   -0.620018    0.001349
      9          7           0       -3.776385   -0.268944    0.417658
     10          1           0        4.358157    0.243367    0.423510
     11          1           0        3.655356   -0.148350   -1.153210
     12          1           0        3.756388   -1.395173    0.110274
     13          1           0        2.112083    1.166429    0.253482
     14          1           0        2.165108   -0.064696    1.527630
     15          1           0        1.286782   -1.664916   -0.038434
     16          1           0       -0.280562   -0.402099    1.300068
     17          1           0       -1.143637   -2.116380   -0.313455
     18          1           0       -1.230457   -0.886736   -1.585812
 ---------------------------------------------------------------------
 Rotational constants (GHZ):           3.1377919           0.8181253           0.6815086
 Standard basis: 6-31G(2df,p) (6D, 7F)
 There are   324 symmetry adapted cartesian basis functions of A   symmetry.
 There are   297 symmetry adapted basis functions of A   symmetry.
   297 basis functions,   459 primitive gaussians,   324 cartesian basis functions
    33 alpha electrons       33 beta electrons
       nuclear repulsion energy       391.7954800213 Hartrees.
 NAtoms=   18 NActive=   18 NUniq=   18 SFac= 1.00D+00 NAtFMM=   60 NAOKFM=F Big=F
 Integral buffers will be    131072 words long.
 Raffenetti 2 integral format.
 Two-electron integral symmetry is turned on.
 One-electron integrals computed using PRISM.
 PrsmSu:  requested number of processors reduced to:  13 ShMem   1 Linda.
 NBasis=   297 RedAO= T EigKep=  2.05D-04  NBF=   297
 NBsUse=   297 1.00D-06 EigRej= -1.00D+00 NBFU=   297
 ExpMin= 1.61D-01 ExpMax= 4.17D+03 ExpMxC= 6.27D+02 IAcc=3 IRadAn=         5 AccDes= 0.00D+00
 Harris functional with IExCor=  402 and IRadAn=       5 diagonalized for initial guess.
 HarFok:  IExCor=  402 AccDes= 0.00D+00 IRadAn=         5 IDoV= 1 UseB2=F ITyADJ=14
 ICtDFT=  3500011 ScaDFX=  1.000000  1.000000  1.000000  1.000000
 FoFCou: FMM=F IPFlag=           0 FMFlag=      100000 FMFlg1=           0
         NFxFlg=           0 DoJE=T BraDBF=F KetDBF=T FulRan=T
         wScrn=  0.000000 ICntrl=       500 IOpCl=  0 I1Cent=   200000004 NGrid=           0
         NMat0=    1 NMatS0=      1 NMatT0=    0 NMatD0=    1 NMtDS0=    0 NMtDT0=    0
 Petite list used in FoFCou.
 Requested convergence on RMS density matrix=1.00D-08 within 128 cycles.
 Requested convergence on MAX density matrix=1.00D-06.
 Requested convergence on             energy=1.00D-06.
 No special actions if energy rises.
 Integral accuracy reduced to 1.0D-05 until final iterations.
 Initial convergence to 1.0D-05 achieved.  Increase integral accuracy.
 SCF Done:  E(RB3LYP) =  -398.243138626     A.U. after   15 cycles
            NFock= 15  Conv=0.44D-08     -V/T= 2.0103

 **********************************************************************

            Population analysis using the SCF density.

 **********************************************************************

 Orbital symmetries:
       Occupied  (A) (A) (A) (A) (A) (A) (A) (A) (A) (A) (A) (A)
                 (A) (A) (A) (A) (A) (A) (A) (A) (A) (A) (A) (A)
                 (A) (A) (A) (A) (A) (A) (A) (A) (A)
       Virtual   (A) (A) (A) (A) (A) (A) (A) (A) (A) (A) (A) (A)
                 (A) (A) (A) (A) (A) (A) (A) (A) (A) (A) (A) (A)
                 (A) (A) (A) (A) (A) (A) (A) (A) (A) (A) (A) (A)
                 (A) (A) (A) (A) (A) (A) (A) (A) (A) (A) (A) (A)
                 (A) (A) (A) (A) (A) (A) (A) (A) (A) (A) (A) (A)
                 (A) (A) (A) (A) (A) (A) (A) (A) (A) (A) (A) (A)
                 (A) (A) (A) (A) (A) (A) (A) (A) (A) (A) (A) (A)
                 (A) (A) (A) (A) (A) (A) (A) (A) (A) (A) (A) (A)
                 (A) (A) (A) (A) (A) (A) (A) (A) (A) (A) (A) (A)
                 (A) (A) (A) (A) (A) (A) (A) (A) (A) (A) (A) (A)
                 (A) (A) (A) (A) (A) (A) (A) (A) (A) (A) (A) (A)
                 (A) (A) (A) (A) (A) (A) (A) (A) (A) (A) (A) (A)
                 (A) (A) (A) (A) (A) (A) (A) (A) (A) (A) (A) (A)
                 (A) (A) (A) (A) (A) (A) (A) (A) (A) (A) (A) (A)
                 (A) (A) (A) (A) (A) (A) (A) (A) (A) (A) (A) (A)
                 (A) (A) (A) (A) (A) (A) (A) (A) (A) (A) (A) (A)
                 (A) (A) (A) (A) (A) (A) (A) (A) (A) (A) (A) (A)
                 (A) (A) (A) (A) (A) (A) (A) (A) (A) (A) (A) (A)
                 (A) (A) (A) (A) (A) (A) (A) (A) (A) (A) (A) (A)
                 (A) (A) (A) (A) (A) (A) (A) (A) (A) (A) (A) (A)
                 (A) (A) (A) (A) (A) (A) (A) (A) (A) (A) (A) (A)
                 (A) (A) (A) (A) (A) (A) (A) (A) (A) (A) (A) (A)
 The electronic state is 1-A.
 Alpha  occ. eigenvalues --  -14.36972 -14.36537 -14.35507 -10.29589 -10.26974
 Alpha  occ. eigenvalues --  -10.26134 -10.26097 -10.22765 -10.19177  -0.94972
 Alpha  occ. eigenvalues --   -0.88015  -0.87253  -0.82431  -0.75548  -0.69814
 Alpha  occ. eigenvalues --   -0.63319  -0.55600  -0.54986  -0.50781  -0.48134
 Alpha  occ. eigenvalues --   -0.47542  -0.45380  -0.43986  -0.38889  -0.38558
 Alpha  occ. eigenvalues --   -0.37449  -0.37182  -0.36706  -0.32780  -0.32506
 Alpha  occ. eigenvalues --   -0.31745  -0.31704  -0.26253
 Alpha virt. eigenvalues --   -0.02495  -0.01482  -0.00556   0.00071   0.05775
 Alpha virt. eigenvalues --    0.07789   0.09054   0.10034   0.12579   0.12937
 Alpha virt. eigenvalues --    0.14646   0.15254   0.16769   0.17545   0.17970
 Alpha virt. eigenvalues --    0.19193   0.21186   0.21591   0.25221   0.29328
 Alpha virt. eigenvalues --    0.32912   0.42054   0.43395   0.45128   0.45963
 Alpha virt. eigenvalues --    0.47582   0.48977   0.50513   0.51424   0.52089
 Alpha virt. eigenvalues --    0.54254   0.56555   0.57616   0.58729   0.59322
 Alpha virt. eigenvalues --    0.61857   0.63239   0.64149   0.64300   0.66692
 Alpha virt. eigenvalues --    0.67998   0.69429   0.70235   0.70841   0.71607
 Alpha virt. eigenvalues --    0.72602   0.73200   0.73973   0.74268   0.74636
 Alpha virt. eigenvalues --    0.75982   0.77211   0.77678   0.78715   0.79422
 Alpha virt. eigenvalues --    0.79964   0.80997   0.81950   0.82284   0.83820
 Alpha virt. eigenvalues --    0.84582   0.85562   0.88441   0.90474   0.95331
 Alpha virt. eigenvalues --    1.00302   1.03936   1.05022   1.06867   1.09270
 Alpha virt. eigenvalues --    1.11142   1.12110   1.14508   1.18576   1.20694
 Alpha virt. eigenvalues --    1.23108   1.26132   1.26704   1.27737   1.29480
 Alpha virt. eigenvalues --    1.30934   1.33161   1.33560   1.38545   1.40755
 Alpha virt. eigenvalues --    1.43619   1.46891   1.48820   1.51795   1.52968
 Alpha virt. eigenvalues --    1.56455   1.58145   1.59810   1.62688   1.65295
 Alpha virt. eigenvalues --    1.66510   1.69195   1.69568   1.72521   1.75120
 Alpha virt. eigenvalues --    1.77056   1.78523   1.83048   1.84707   1.88361
 Alpha virt. eigenvalues --    1.89976   1.93816   1.96993   2.00777   2.05192
 Alpha virt. eigenvalues --    2.14233   2.16114   2.20236   2.22933   2.26016
 Alpha virt. eigenvalues --    2.29170   2.29821   2.35584   2.39625   2.43646
 Alpha virt. eigenvalues --    2.46459   2.50294   2.53130   2.56232   2.60260
 Alpha virt. eigenvalues --    2.61582   2.64058   2.68723   2.70161   2.70506
 Alpha virt. eigenvalues --    2.72740   2.75108   2.76257   2.76928   2.78687
 Alpha virt. eigenvalues --    2.79465   2.80113   2.82336   2.84584   2.86592
 Alpha virt. eigenvalues --    2.87733   2.88522   2.89925   2.94563   2.96737
 Alpha virt. eigenvalues --    2.98865   2.99362   3.02200   3.05279   3.08248
 Alpha virt. eigenvalues --    3.10119   3.13619   3.18882   3.24318   3.24992
 Alpha virt. eigenvalues --    3.31263   3.32560   3.32891   3.37604   3.39774
 Alpha virt. eigenvalues --    3.41479   3.47608   3.51703   3.52552   3.54920
 Alpha virt. eigenvalues --    3.56017   3.59004   3.60364   3.61800   3.62588
 Alpha virt. eigenvalues --    3.63197   3.63472   3.63686   3.64411   3.66770
 Alpha virt. eigenvalues --    3.70361   3.72208   3.76475   3.78269   3.82234
 Alpha virt. eigenvalues --    3.87449   3.90306   3.91987   3.93784   3.94941
 Alpha virt. eigenvalues --    3.97897   3.98205   4.01006   4.03741   4.06516
 Alpha virt. eigenvalues --    4.09905   4.12011   4.12452   4.13717   4.16099
 Alpha virt. eigenvalues --    4.18861   4.20189   4.21913   4.22779   4.23808
 Alpha virt. eigenvalues --    4.25009   4.28269   4.29134   4.33742   4.34521
 Alpha virt. eigenvalues --    4.38317   4.41519   4.43374   4.46305   4.47075
 Alpha virt. eigenvalues --    4.48801   4.50885   4.54863   4.55957   4.59043
 Alpha virt. eigenvalues --    4.60153   4.61595   4.62566   4.66089   4.67614
 Alpha virt. eigenvalues --    4.68293   4.70134   4.70682   4.72399   4.72925
 Alpha virt. eigenvalues --    4.74846   4.76489   4.77659   4.79196   4.81168
 Alpha virt. eigenvalues --    4.83017   4.86257   4.87999   4.91250   4.97592
 Alpha virt. eigenvalues --    4.98991   5.05232   5.05651   5.08859   5.10597
 Alpha virt. eigenvalues --    5.12135   5.17698   5.19748   5.28950   5.33146
 Alpha virt. eigenvalues --    5.43650   5.48033   5.53998   5.59053   5.77323
 Alpha virt. eigenvalues --    6.00153   6.20478  10.21171  10.56899  10.95575
 Alpha virt. eigenvalues --   11.28831  11.29346  11.38262  11.68442  11.97601
 Alpha virt. eigenvalues --   12.22315  12.90073  14.12866  15.04647
          Condensed to atoms (all electrons):
               1          2          3          4          5          6
     1  C    4.956986   0.410399  -0.037342   0.002708   0.000446   0.000032
     2  C    0.410399   4.782464   0.374875  -0.052358  -0.005377  -0.001725
     3  N   -0.037342   0.374875   6.465341   0.359976  -0.037432  -0.001668
     4  C    0.002708  -0.052358   0.359976   4.822981   0.323997  -0.039093
     5  C    0.000446  -0.005377  -0.037432   0.323997   4.531832   0.909175
     6  N    0.000032  -0.001725  -0.001668  -0.039093   0.909175   6.507815
     7  C   -0.000185   0.003054  -0.026663   0.374940  -0.010253  -0.000996
     8  C    0.000001  -0.000190   0.002188  -0.033923  -0.004020  -0.000718
     9  N   -0.000000  -0.000000  -0.000008  -0.001474  -0.000605  -0.000396
    10  H    0.371153  -0.022124   0.002985  -0.000185   0.000004   0.000001
    11  H    0.377762  -0.026593   0.002722   0.000323  -0.000048   0.000002
    12  H    0.378557  -0.029800  -0.004020   0.000012  -0.000012  -0.000001
    13  H   -0.026687   0.374159  -0.024263  -0.007894   0.015033   0.001750
    14  H   -0.041975   0.364343  -0.046057   0.001767  -0.003538   0.000007
    15  H    0.000002  -0.042269   0.333949  -0.037817   0.005248  -0.000040
    16  H   -0.000094  -0.002890  -0.046193   0.377752  -0.058286  -0.000180
    17  H   -0.000003  -0.000018  -0.002300  -0.024865   0.003737  -0.000038
    18  H    0.000001   0.000015   0.002977  -0.017068  -0.007471   0.000467
               7          8          9         10         11         12
     1  C   -0.000185   0.000001  -0.000000   0.371153   0.377762   0.378557
     2  C    0.003054  -0.000190  -0.000000  -0.022124  -0.026593  -0.029800
     3  N   -0.026663   0.002188  -0.000008   0.002985   0.002722  -0.004020
     4  C    0.374940  -0.033923  -0.001474  -0.000185   0.000323   0.000012
     5  C   -0.010253  -0.004020  -0.000605   0.000004  -0.000048  -0.000012
     6  N   -0.000996  -0.000718  -0.000396   0.000001   0.000002  -0.000001
     7  C    5.048385   0.322926  -0.041248   0.000002   0.000010  -0.000001
     8  C    0.322926   4.529839   0.928399   0.000000   0.000000  -0.000000
     9  N   -0.041248   0.928399   6.469209  -0.000000   0.000000  -0.000000
    10  H    0.000002   0.000000  -0.000000   0.582881  -0.028083  -0.029730
    11  H    0.000010   0.000000   0.000000  -0.028083   0.570962  -0.032804
    12  H   -0.000001  -0.000000  -0.000000  -0.029730  -0.032804   0.600977
    13  H    0.000371  -0.000008   0.000000  -0.002394  -0.005324   0.004910
    14  H    0.000089   0.000063  -0.000000   0.000546   0.006026  -0.005347
    15  H   -0.001241  -0.000072   0.000002  -0.000311  -0.000496   0.005219
    16  H   -0.050970   0.007659   0.000388   0.000018   0.000038  -0.000016
    17  H    0.360411  -0.021750  -0.000305  -0.000000  -0.000000  -0.000001
    18  H    0.353995  -0.017753  -0.000297   0.000000   0.000003   0.000000
              13         14         15         16         17         18
     1  C   -0.026687  -0.041975   0.000002  -0.000094  -0.000003   0.000001
     2  C    0.374159   0.364343  -0.042269  -0.002890  -0.000018   0.000015
     3  N   -0.024263  -0.046057   0.333949  -0.046193  -0.002300   0.002977
     4  C   -0.007894   0.001767  -0.037817   0.377752  -0.024865  -0.017068
     5  C    0.015033  -0.003538   0.005248  -0.058286   0.003737  -0.007471
     6  N    0.001750   0.000007  -0.000040  -0.000180  -0.000038   0.000467
     7  C    0.000371   0.000089  -0.001241  -0.050970   0.360411   0.353995
     8  C   -0.000008   0.000063  -0.000072   0.007659  -0.021750  -0.017753
     9  N    0.000000  -0.000000   0.000002   0.000388  -0.000305  -0.000297
    10  H   -0.002394   0.000546  -0.000311   0.000018  -0.000000   0.000000
    11  H   -0.005324   0.006026  -0.000496   0.000038  -0.000000   0.000003
    12  H    0.004910  -0.005347   0.005219  -0.000016  -0.000001   0.000000
    13  H    0.567257  -0.047052   0.005850  -0.001569  -0.000003  -0.000022
    14  H   -0.047052   0.675737  -0.005659   0.011997  -0.000024   0.000028
    15  H    0.005850  -0.005659   0.509274  -0.004484   0.003980  -0.000295
    16  H   -0.001569   0.011997  -0.004484   0.629937  -0.004253   0.005766
    17  H   -0.000003  -0.000024   0.003980  -0.004253   0.553704  -0.031043
    18  H   -0.000022   0.000028  -0.000295   0.005766  -0.031043   0.523400
 Mulliken charges:
               1
     1  C   -0.391760
     2  C   -0.125967
     3  N   -0.319066
     4  C   -0.049779
     5  C    0.337569
     6  N   -0.374394
     7  C   -0.332627
     8  C    0.287357
     9  N   -0.353665
    10  H    0.125236
    11  H    0.135499
    12  H    0.112056
    13  H    0.145884
    14  H    0.089049
    15  H    0.229160
    16  H    0.135380
    17  H    0.162771
    18  H    0.187298
 Sum of Mulliken charges =  -0.00000
 Mulliken charges with hydrogens summed into heavy atoms:
               1
     1  C   -0.018970
     2  C    0.108966
     3  N   -0.089906
     4  C    0.085600
     5  C    0.337569
     6  N   -0.374394
     7  C    0.017442
     8  C    0.287357
     9  N   -0.353665
 Electronic spatial extent (au):  <R**2>=           1635.2682
 Charge=             -0.0000 electrons
 Dipole moment (field-independent basis, Debye):
    X=              4.4290    Y=             -4.5311    Z=              0.2720  Tot=              6.3420
 Quadrupole moment (field-independent basis, Debye-Ang):
   XX=            -67.5968   YY=            -57.6980   ZZ=            -53.4526
   XY=              2.7915   XZ=              4.6332   YZ=              1.1772
 Traceless Quadrupole moment (field-independent basis, Debye-Ang):
   XX=             -8.0144   YY=              1.8845   ZZ=              6.1299
   XY=              2.7915   XZ=              4.6332   YZ=              1.1772
 Octapole moment (field-independent basis, Debye-Ang**2):
  XXX=             90.0783  YYY=            -36.2147  ZZZ=             -1.6061  XYY=              8.4503
  XXY=              0.3322  XXZ=            -10.0920  XZZ=              0.7437  YZZ=             -1.7761
  YYZ=              2.6565  XYZ=             -3.0917
 Hexadecapole moment (field-independent basis, Debye-Ang**3):
 XXXX=          -1963.4574 YYYY=           -471.5594 ZZZZ=           -108.6750 XXXY=             -5.2431
 XXXZ=             48.7769 YYYX=             11.5854 YYYZ=              9.4793 ZZZX=              3.4243
 ZZZY=              1.0702 XXYY=           -344.9189 XXZZ=           -302.3986 YYZZ=            -92.0105
 XXYZ=              3.8442 YYXZ=              0.9260 ZZXY=              2.0987
 N-N= 3.917954800213D+02 E-N=-1.707265297384D+03  KE= 3.941924147235D+02
 PrsmSu:  requested number of processors reduced to:  13 ShMem   1 Linda.
 Calling FoFJK, ICntrl=      2127 FMM=F ISym2X=0 I1Cent= 0 IOpClX= 0 NMat=1 NMatS=1 NMatT=0.
 ***** Axes restored to original set *****
 -------------------------------------------------------------------
 Center     Atomic                   Forces (Hartrees/Bohr)
 Number     Number              X              Y              Z
 -------------------------------------------------------------------
      1        6          -0.004755617    0.000942882    0.002236480
      2        6          -0.008181244   -0.001563507   -0.005011779
      3        7           0.012842315   -0.007003937    0.017585963
      4        6          -0.016921334    0.006239842    0.015104418
      5        6           0.049870645   -0.017681991    0.147606265
      6        7          -0.060404837    0.022129813   -0.169850634
      7        6           0.034848373   -0.009069230   -0.004105049
      8        6           0.153468460   -0.003605323   -0.004095413
      9        7          -0.181481513    0.000568711   -0.000222852
     10        1          -0.000831806    0.000166246   -0.001592302
     11        1           0.000907909    0.000508508   -0.001618273
     12        1          -0.001866878    0.000209741   -0.000840941
     13        1           0.006087896   -0.003608166   -0.003570103
     14        1           0.001953267    0.006344146    0.002139742
     15        1           0.005043759    0.000139660    0.001244437
     16        1           0.008762517    0.000878083    0.003306847
     17        1           0.000672267    0.001360017    0.001086336
     18        1          -0.000014179    0.003044503    0.000596858
 -------------------------------------------------------------------
 Cartesian Forces:  Max     0.181481513 RMS     0.046519160

 GradGradGradGradGradGradGradGradGradGradGradGradGradGradGradGradGradGrad
 Berny optimization.
 FormGI is forming the generalized inverse of G from B-inverse, IUseBI=4.
 Internal  Forces:  Max     0.181625164 RMS     0.029628491
 Search for a local minimum.
 Step number   1 out of a maximum of   88
 All quantities printed in internal units (Hartrees-Bohrs-Radians)
 Mixed Optimization -- RFO/linear search
 Second derivative matrix not updated -- first step.
 ITU=  0
     Eigenvalues ---    0.00501   0.00533   0.00569   0.00770   0.02707
     Eigenvalues ---    0.03531   0.03531   0.03531   0.03531   0.04526
     Eigenvalues ---    0.05282   0.05594   0.05691   0.05749   0.05790
     Eigenvalues ---    0.05879   0.05901   0.08919   0.09913   0.10879
     Eigenvalues ---    0.12564   0.16000   0.16000   0.16000   0.16000
     Eigenvalues ---    0.16000   0.17503   0.21938   0.22282   0.23324
     Eigenvalues ---    0.23367   0.30366   0.30367   0.30367   0.30595
     Eigenvalues ---    0.33870   0.33994   0.34018   0.34080   0.34172
     Eigenvalues ---    0.34195   0.34229   0.34249   0.34391   0.35776
     Eigenvalues ---    0.44606   0.79313   0.79315
 RFO step:  Lambda=-8.30545793D-02 EMin= 5.01351153D-03
 Linear search not attempted -- first point.
 Maximum step size (   0.300) exceeded in Quadratic search.
    -- Step size scaled by   0.914
 Iteration  1 RMS(Cart)=  0.05789139 RMS(Int)=  0.00073881
 Iteration  2 RMS(Cart)=  0.00166078 RMS(Int)=  0.00006745
 Iteration  3 RMS(Cart)=  0.00000149 RMS(Int)=  0.00006744
 Iteration  4 RMS(Cart)=  0.00000000 RMS(Int)=  0.00006744
 Variable       Old X    -DE/DX   Delta X   Delta X   Delta X     New X
                                 (Linear)    (Quad)   (Total)
    R1        2.86793   0.00652   0.00000   0.01532   0.01532   2.88325
    R2        2.06913  -0.00051   0.00000  -0.00109  -0.00109   2.06804
    R3        2.07002  -0.00135   0.00000  -0.00289  -0.00289   2.06713
    R4        2.06675   0.00148   0.00000   0.00317   0.00317   2.06993
    R5        2.77733  -0.00014   0.00000  -0.00029  -0.00029   2.77704
    R6        2.06945  -0.00122   0.00000  -0.00261  -0.00261   2.06684
    R7        2.07041   0.00552   0.00000   0.01188   0.01188   2.08229
    R8        2.80599  -0.01149   0.00000  -0.02481  -0.02481   2.78118
    R9        1.92437  -0.00280   0.00000  -0.00484  -0.00484   1.91952
   R10        2.87238  -0.02485   0.00000  -0.05873  -0.05873   2.81365
   R11        2.87239   0.01213   0.00000   0.02866   0.02866   2.90105
   R12        2.07551   0.00272   0.00000   0.00589   0.00589   2.08140
   R13        2.38288  -0.18163   0.00000  -0.18945  -0.18945   2.19343
   R14        2.87238  -0.02801   0.00000  -0.06620  -0.06620   2.80618
   R15        2.07196  -0.00110   0.00000  -0.00237  -0.00237   2.06959
   R16        2.07340  -0.00250   0.00000  -0.00540  -0.00540   2.06800
   R17        2.38287  -0.18148   0.00000  -0.18929  -0.18929   2.19357
    A1        1.91539   0.00152   0.00000   0.00636   0.00635   1.92174
    A2        1.93617  -0.00116   0.00000  -0.00427  -0.00426   1.93191
    A3        1.94342   0.00163   0.00000   0.00540   0.00540   1.94882
    A4        1.88204   0.00045   0.00000   0.00313   0.00313   1.88517
    A5        1.88932  -0.00173   0.00000  -0.00671  -0.00673   1.88260
    A6        1.89581  -0.00079   0.00000  -0.00413  -0.00413   1.89169
    A7        1.92093   0.00165   0.00000   0.00646   0.00644   1.92737
    A8        1.87335   0.00573   0.00000   0.02533   0.02540   1.89876
    A9        1.91588  -0.00209   0.00000  -0.00405  -0.00415   1.91173
   A10        1.94424  -0.00731   0.00000  -0.03585  -0.03583   1.90841
   A11        1.92314   0.00312   0.00000   0.01562   0.01560   1.93873
   A12        1.88530  -0.00112   0.00000  -0.00753  -0.00754   1.87776
   A13        1.94600   0.01319   0.00000   0.03655   0.03667   1.98267
   A14        1.90567  -0.00263   0.00000  -0.00667  -0.00637   1.89930
   A15        1.92612  -0.00754   0.00000  -0.03035  -0.03030   1.89583
   A16        1.93147  -0.00262   0.00000  -0.01303  -0.01299   1.91847
   A17        1.92377  -0.00537   0.00000  -0.01487  -0.01489   1.90888
   A18        1.89849   0.00773   0.00000   0.03630   0.03636   1.93485
   A19        1.91063   0.00473   0.00000   0.01095   0.01083   1.92146
   A20        1.88880  -0.00288   0.00000  -0.01368  -0.01360   1.87520
   A21        1.91021  -0.00154   0.00000  -0.00551  -0.00544   1.90477
   A22        1.91063   0.01058   0.00000   0.03246   0.03251   1.94314
   A23        1.93548  -0.00321   0.00000  -0.01243  -0.01245   1.92303
   A24        1.94700  -0.00368   0.00000  -0.01193  -0.01199   1.93500
   A25        1.89506  -0.00407   0.00000  -0.01308  -0.01298   1.88208
   A26        1.89426  -0.00193   0.00000  -0.00061  -0.00060   1.89366
   A27        1.88013   0.00210   0.00000   0.00509   0.00495   1.88508
   A28        3.14160  -0.00040   0.00000  -0.00312  -0.00312   3.13848
   A29        3.14159   0.00021   0.00000   0.00166   0.00166   3.14325
   A30        3.14159   0.00009   0.00000   0.00070   0.00070   3.14228
   A31        3.14159   0.00138   0.00000   0.01062   0.01062   3.15222
    D1        3.13733  -0.00235   0.00000  -0.01311  -0.01310   3.12422
    D2        1.01868   0.00202   0.00000   0.01103   0.01102   1.02970
    D3       -1.02626   0.00124   0.00000   0.00787   0.00785  -1.01840
    D4        1.05940  -0.00316   0.00000  -0.01838  -0.01837   1.04103
    D5       -1.05925   0.00122   0.00000   0.00577   0.00576  -1.05349
    D6       -3.10418   0.00043   0.00000   0.00260   0.00259  -3.10159
    D7       -1.05430  -0.00248   0.00000  -0.01388  -0.01385  -1.06815
    D8        3.11024   0.00190   0.00000   0.01027   0.01027   3.12051
    D9        1.06530   0.00111   0.00000   0.00711   0.00710   1.07241
   D10       -3.09858  -0.00279   0.00000  -0.01520  -0.01508  -3.11366
   D11        1.05171  -0.00018   0.00000   0.00354   0.00358   1.05529
   D12       -1.02282   0.00080   0.00000  -0.00214  -0.00213  -1.02496
   D13        3.12747   0.00340   0.00000   0.01661   0.01653  -3.13919
   D14        1.06934  -0.00328   0.00000  -0.02450  -0.02450   1.04483
   D15       -1.06355  -0.00068   0.00000  -0.00575  -0.00584  -1.06939
   D16        1.01926   0.00017   0.00000   0.01034   0.01034   1.02960
   D17        3.13527   0.00082   0.00000   0.00561   0.00581   3.14108
   D18       -1.05353   0.00049   0.00000   0.01243   0.01254  -1.04100
   D19        3.14032   0.00057   0.00000   0.00566   0.00546  -3.13741
   D20       -1.02686   0.00122   0.00000   0.00094   0.00092  -1.02593
   D21        1.06753   0.00089   0.00000   0.00775   0.00765   1.07518
   D22        3.10760   0.00172   0.00000   0.00730   0.00730   3.11489
   D23        1.01701   0.00198   0.00000   0.01046   0.01054   1.02755
   D24       -1.07872   0.00397   0.00000   0.02041   0.02040  -1.05832
   D25       -1.04720  -0.00191   0.00000  -0.01138  -0.01143  -1.05863
   D26       -3.13779  -0.00165   0.00000  -0.00823  -0.00818   3.13721
   D27        1.04967   0.00033   0.00000   0.00173   0.00167   1.05134
   D28        1.02031  -0.00353   0.00000  -0.02478  -0.02481   0.99550
   D29       -1.07028  -0.00327   0.00000  -0.02163  -0.02157  -1.09185
   D30        3.11718  -0.00128   0.00000  -0.01167  -0.01171   3.10547
         Item               Value     Threshold  Converged?
 Maximum Force            0.181625     0.000450     NO 
 RMS     Force            0.029628     0.000300     NO 
 Maximum Displacement     0.227482     0.001800     NO 
 RMS     Displacement     0.057864     0.001200     NO 
 Predicted change in Energy=-4.514627D-02
 GradGradGradGradGradGradGradGradGradGradGradGradGradGradGradGradGradGrad

                          Input orientation:                          
 ---------------------------------------------------------------------
 Center     Atomic      Atomic             Coordinates (Angstroms)
 Number     Number       Type             X           Y           Z
 ---------------------------------------------------------------------
      1          6           0        1.039301   -0.049813   -0.046465
      2          6           0        2.563645    0.003522   -0.008531
      3          7           0        3.135182   -1.073179   -0.829273
      4          6           0        4.606372   -1.109449   -0.812128
      5          6           0        5.093144   -1.290029    0.583339
      6          7           0        5.475483   -1.432758    1.669940
      7          6           0        5.097558   -2.264810   -1.695654
      8          6           0        6.580909   -2.318974   -1.738848
      9          7           0        7.740632   -2.350521   -1.777318
     10          1           0        0.619391    0.742961    0.580279
     11          1           0        0.676575   -1.009288    0.333538
     12          1           0        0.655172    0.086629   -1.063145
     13          1           0        2.894671   -0.115704    1.027054
     14          1           0        2.906510    0.991377   -0.356047
     15          1           0        2.824820   -0.953606   -1.789045
     16          1           0        5.026407   -0.163356   -1.188454
     17          1           0        4.736593   -2.135782   -2.721557
     18          1           0        4.725717   -3.224753   -1.324405
 ---------------------------------------------------------------------
                    Distance matrix (angstroms):
                    1          2          3          4          5
     1  C    0.000000
     2  C    1.525749   0.000000
     3  N    2.460241   1.469544   0.000000
     4  C    3.799087   2.461139   1.471737   0.000000
     5  C    4.285841   2.902060   2.424069   1.488920   0.000000
     6  N    4.953614   3.654992   3.442727   2.649631   1.160714
     7  C    4.908716   3.796371   2.453878   1.535168   2.478714
     8  C    6.222754   4.952413   3.775230   2.494104   2.943591
     9  N    7.293624   5.955780   4.872428   3.506485   3.702234
    10  H    1.094360   2.161849   3.407992   4.611533   4.914013
    11  H    1.093876   2.168831   2.720471   4.094617   4.432527
    12  H    1.095358   2.182061   2.747781   4.135891   4.929675
    13  H    2.144571   1.093723   2.102512   2.701859   2.531641
    14  H    2.160182   1.101899   2.130405   2.740622   3.296760
    15  H    2.653584   2.038268   1.015767   2.037788   3.299496
    16  H    4.148981   2.735921   2.129206   1.101427   2.100737
    17  H    5.017704   4.081524   2.697106   2.171690   3.429980
    18  H    5.030213   4.102175   2.721071   2.179720   2.741832
                    6          7          8          9         10
     6  N    0.000000
     7  C    3.487457   0.000000
     8  C    3.691502   1.484967   0.000000
     9  N    4.225728   2.645723   1.160790   0.000000
    10  H    5.431642   5.854958   7.091790   8.114183   0.000000
    11  H    4.999481   5.023848   6.393061   7.493699   1.770460
    12  H    5.745754   5.065978   6.431008   7.526851   1.769999
    13  H    2.967915   4.109076   5.108127   6.028453   2.472613
    14  H    4.071938   4.147046   5.135345   6.046241   2.483813
    15  H    4.384082   2.625512   3.996867   5.110451   3.654580
    16  H    3.159663   2.162966   2.714056   3.535176   4.834420
    17  H    4.508376   1.095182   2.097803   3.156256   6.011708
    18  H    3.569243   1.094341   2.105690   3.171611   6.019343
                   11         12         13         14         15
    11  H    0.000000
    12  H    1.775448   0.000000
    13  H    2.489861   3.070054   0.000000
    14  H    3.074215   2.527268   1.771649   0.000000
    15  H    3.020500   2.513244   2.938941   2.417253   0.000000
    16  H    4.685414   4.380170   3.074906   2.553483   2.414992
    17  H    5.204454   4.934312   4.639556   4.327120   2.433515
    18  H    4.904347   5.253841   4.306771   4.692865   2.997900
                   16         17         18
    16  H    0.000000
    17  H    2.514928   0.000000
    18  H    3.079130   1.771443   0.000000
 Stoichiometry    C6H9N3
 Framework group  C1[X(C6H9N3)]
 Deg. of freedom    48
 Full point group                 C1      NOp   1
 Largest Abelian subgroup         C1      NOp   1
 Largest concise Abelian subgroup C1      NOp   1
                         Standard orientation:                         
 ---------------------------------------------------------------------
 Center     Atomic      Atomic             Coordinates (Angstroms)
 Number     Number       Type             X           Y           Z
 ---------------------------------------------------------------------
      1          6           0        3.560937   -0.399620   -0.118210
      2          6           0        2.225516    0.095423    0.429047
      3          7           0        1.112942   -0.631342   -0.198290
      4          6           0       -0.213654   -0.181661    0.253307
      5          6           0       -0.387011    1.266745   -0.044937
      6          7           0       -0.525757    2.395319   -0.278017
      7          6           0       -1.298871   -1.000502   -0.459816
      8          6           0       -2.657403   -0.606400   -0.007927
      9          7           0       -3.716575   -0.301552    0.356291
     10          1           0        4.384621    0.157043    0.339277
     11          1           0        3.613388   -0.252440   -1.200870
     12          1           0        3.715476   -1.463101    0.093771
     13          1           0        2.129491    1.162937    0.211279
     14          1           0        2.209254   -0.023732    1.524364
     15          1           0        1.208559   -1.620769    0.010695
     16          1           0       -0.321588   -0.309785    1.341919
     17          1           0       -1.170052   -2.066658   -0.245017
     18          1           0       -1.240511   -0.864387   -1.544089
 ---------------------------------------------------------------------
 Rotational constants (GHZ):           3.2854960           0.8289448           0.6933887
 Standard basis: 6-31G(2df,p) (6D, 7F)
 There are   324 symmetry adapted cartesian basis functions of A   symmetry.
 There are   297 symmetry adapted basis functions of A   symmetry.
   297 basis functions,   459 primitive gaussians,   324 cartesian basis functions
    33 alpha electrons       33 beta electrons
       nuclear repulsion energy       397.6251089246 Hartrees.
 NAtoms=   18 NActive=   18 NUniq=   18 SFac= 1.00D+00 NAtFMM=   60 NAOKFM=F Big=F
 Integral buffers will be    131072 words long.
 Raffenetti 2 integral format.
 Two-electron integral symmetry is turned on.
 One-electron integrals computed using PRISM.
 PrsmSu:  requested number of processors reduced to:  13 ShMem   1 Linda.
 NBasis=   297 RedAO= T EigKep=  1.50D-04  NBF=   297
 NBsUse=   297 1.00D-06 EigRej= -1.00D+00 NBFU=   297
 Initial guess from the checkpoint file:  "CCNCpCtNpCCtN.chk"
 B after Tr=     0.000000   -0.000000    0.000000
         Rot=    0.999989    0.002352   -0.000953    0.003915 Ang=   0.53 deg.
 ExpMin= 1.61D-01 ExpMax= 4.17D+03 ExpMxC= 6.27D+02 IAcc=2 IRadAn=         4 AccDes= 0.00D+00
 Harris functional with IExCor=  402 and IRadAn=       4 diagonalized for initial guess.
 HarFok:  IExCor=  402 AccDes= 0.00D+00 IRadAn=         4 IDoV= 1 UseB2=F ITyADJ=14
 ICtDFT=  3500011 ScaDFX=  1.000000  1.000000  1.000000  1.000000
 FoFCou: FMM=F IPFlag=           0 FMFlag=      100000 FMFlg1=           0
         NFxFlg=           0 DoJE=T BraDBF=F KetDBF=T FulRan=T
         wScrn=  0.000000 ICntrl=       500 IOpCl=  0 I1Cent=   200000004 NGrid=           0
         NMat0=    1 NMatS0=      1 NMatT0=    0 NMatD0=    1 NMtDS0=    0 NMtDT0=    0
 Petite list used in FoFCou.
 Requested convergence on RMS density matrix=1.00D-08 within 128 cycles.
 Requested convergence on MAX density matrix=1.00D-06.
 Requested convergence on             energy=1.00D-06.
 No special actions if energy rises.
 Integral accuracy reduced to 1.0D-05 until final iterations.
 Initial convergence to 1.0D-05 achieved.  Increase integral accuracy.
 SCF Done:  E(RB3LYP) =  -398.288961275     A.U. after   12 cycles
            NFock= 12  Conv=0.96D-08     -V/T= 2.0081
 PrsmSu:  requested number of processors reduced to:  13 ShMem   1 Linda.
 Calling FoFJK, ICntrl=      2127 FMM=F ISym2X=0 I1Cent= 0 IOpClX= 0 NMat=1 NMatS=1 NMatT=0.
 ***** Axes restored to original set *****
 -------------------------------------------------------------------
 Center     Atomic                   Forces (Hartrees/Bohr)
 Number     Number              X              Y              Z
 -------------------------------------------------------------------
      1        6          -0.000670878   -0.000093283    0.001495744
      2        6          -0.004815319    0.000461422   -0.004521374
      3        7           0.005359292   -0.003659457    0.008281589
      4        6          -0.010503607    0.003981747    0.006880325
      5        6           0.001175191   -0.000671231    0.004564065
      6        7          -0.004634343    0.001863489   -0.013326007
      7        6           0.019303890   -0.004841712   -0.002613329
      8        6           0.002111829   -0.000576912   -0.001902481
      9        7          -0.014051507    0.000455635    0.000305080
     10        1           0.000032095    0.000254208   -0.000900766
     11        1           0.000362953   -0.000158339   -0.000929335
     12        1          -0.000198486    0.000009665   -0.000241254
     13        1           0.002610967   -0.001339478   -0.001050137
     14        1           0.001009633    0.002199363    0.001912394
     15        1           0.001295204   -0.000403381   -0.000550970
     16        1           0.005033803   -0.000019505    0.001208658
     17        1          -0.001504662    0.000751755    0.000786864
     18        1          -0.001916056    0.001786012    0.000600934
 -------------------------------------------------------------------
 Cartesian Forces:  Max     0.019303890 RMS     0.004764565

 GradGradGradGradGradGradGradGradGradGradGradGradGradGradGradGradGradGrad
 Berny optimization.
 Using GEDIIS/GDIIS optimizer.
 FormGI is forming the generalized inverse of G from B-inverse, IUseBI=4.
 Internal  Forces:  Max     0.014230888 RMS     0.003311016
 Search for a local minimum.
 Step number   2 out of a maximum of   88
 All quantities printed in internal units (Hartrees-Bohrs-Radians)
 Mixed Optimization -- RFO/linear search
 Update second derivatives using D2CorX and points    1    2
 DE= -4.58D-02 DEPred=-4.51D-02 R= 1.01D+00
 TightC=F SS=  1.41D+00  RLast= 3.08D-01 DXNew= 5.0454D-01 9.2260D-01
 Trust test= 1.01D+00 RLast= 3.08D-01 DXMaxT set to 5.05D-01
 ITU=  1  0
 Use linear search instead of GDIIS.
     Eigenvalues ---    0.00501   0.00533   0.00569   0.00770   0.02654
     Eigenvalues ---    0.03531   0.03531   0.03531   0.03532   0.04459
     Eigenvalues ---    0.05280   0.05583   0.05595   0.05636   0.05750
     Eigenvalues ---    0.05966   0.06017   0.09044   0.09820   0.11100
     Eigenvalues ---    0.12628   0.15978   0.16000   0.16000   0.16000
     Eigenvalues ---    0.16005   0.17310   0.21934   0.22269   0.23197
     Eigenvalues ---    0.23426   0.29844   0.30366   0.30369   0.30609
     Eigenvalues ---    0.33862   0.33963   0.33995   0.34080   0.34169
     Eigenvalues ---    0.34195   0.34230   0.34248   0.34391   0.35776
     Eigenvalues ---    0.44609   0.79314   0.89033
 RFO step:  Lambda=-1.48069311D-03 EMin= 5.01388889D-03
 Quartic linear search produced a step of  0.08937.
 Iteration  1 RMS(Cart)=  0.04845939 RMS(Int)=  0.00078561
 Iteration  2 RMS(Cart)=  0.00146989 RMS(Int)=  0.00010064
 Iteration  3 RMS(Cart)=  0.00000059 RMS(Int)=  0.00010064
 Variable       Old X    -DE/DX   Delta X   Delta X   Delta X     New X
                                 (Linear)    (Quad)   (Total)
    R1        2.88325   0.00049   0.00137  -0.00125   0.00012   2.88337
    R2        2.06804  -0.00034  -0.00010  -0.00089  -0.00099   2.06705
    R3        2.06713  -0.00030  -0.00026  -0.00043  -0.00069   2.06643
    R4        2.06993   0.00029   0.00028   0.00035   0.00063   2.07056
    R5        2.77704  -0.00074  -0.00003  -0.00219  -0.00221   2.77482
    R6        2.06684  -0.00006  -0.00023   0.00029   0.00006   2.06690
    R7        2.08229   0.00168   0.00106   0.00316   0.00422   2.08651
    R8        2.78118  -0.00509  -0.00222  -0.01167  -0.01389   2.76729
    R9        1.91952   0.00008  -0.00043   0.00097   0.00054   1.92006
   R10        2.81365  -0.00949  -0.00525  -0.02241  -0.02766   2.78600
   R11        2.90105   0.00471   0.00256   0.01123   0.01379   2.91483
   R12        2.08140   0.00149   0.00053   0.00369   0.00421   2.08561
   R13        2.19343  -0.01423  -0.01693   0.00509  -0.01184   2.18159
   R14        2.80618  -0.01188  -0.00592  -0.02947  -0.03539   2.77079
   R15        2.06959  -0.00015  -0.00021  -0.00005  -0.00026   2.06933
   R16        2.06800  -0.00071  -0.00048  -0.00128  -0.00176   2.06624
   R17        2.19357  -0.01406  -0.01692   0.00530  -0.01161   2.18196
    A1        1.92174   0.00033   0.00057   0.00166   0.00222   1.92396
    A2        1.93191  -0.00030  -0.00038   0.00003  -0.00036   1.93155
    A3        1.94882  -0.00006   0.00048  -0.00412  -0.00364   1.94519
    A4        1.88517   0.00057   0.00028   0.00716   0.00743   1.89260
    A5        1.88260  -0.00035  -0.00060  -0.00208  -0.00269   1.87991
    A6        1.89169  -0.00017  -0.00037  -0.00238  -0.00276   1.88893
    A7        1.92737  -0.00050   0.00058  -0.00223  -0.00170   1.92567
    A8        1.89876   0.00262   0.00227   0.01022   0.01245   1.91121
    A9        1.91173  -0.00027  -0.00037   0.00499   0.00453   1.91627
   A10        1.90841  -0.00273  -0.00320  -0.01848  -0.02163   1.88678
   A11        1.93873   0.00181   0.00139   0.01371   0.01509   1.95382
   A12        1.87776  -0.00092  -0.00067  -0.00842  -0.00907   1.86869
   A13        1.98267   0.00467   0.00328   0.01161   0.01493   1.99760
   A14        1.89930  -0.00083  -0.00057  -0.00354  -0.00402   1.89529
   A15        1.89583  -0.00276  -0.00271  -0.01306  -0.01574   1.88008
   A16        1.91847  -0.00002  -0.00116   0.00132   0.00010   1.91857
   A17        1.90888  -0.00354  -0.00133  -0.01261  -0.01390   1.89498
   A18        1.93485   0.00443   0.00325   0.02917   0.03238   1.96723
   A19        1.92146   0.00181   0.00097   0.00173   0.00266   1.92412
   A20        1.87520  -0.00135  -0.00122  -0.00718  -0.00852   1.86669
   A21        1.90477  -0.00125  -0.00049  -0.01228  -0.01266   1.89211
   A22        1.94314   0.00472   0.00291   0.01983   0.02284   1.96598
   A23        1.92303  -0.00281  -0.00111  -0.01903  -0.02036   1.90267
   A24        1.93500  -0.00341  -0.00107  -0.01913  -0.02044   1.91456
   A25        1.88208  -0.00063  -0.00116   0.00531   0.00428   1.88636
   A26        1.89366   0.00077  -0.00005   0.01860   0.01861   1.91227
   A27        1.88508   0.00139   0.00044  -0.00512  -0.00526   1.87982
   A28        3.13848  -0.00002  -0.00028   0.00247   0.00219   3.14067
   A29        3.14325   0.00030   0.00015   0.00735   0.00750   3.15075
   A30        3.14228  -0.00026   0.00006  -0.00838  -0.00832   3.13396
   A31        3.15222   0.00023   0.00095  -0.00348  -0.00253   3.14968
    D1        3.12422  -0.00094  -0.00117  -0.00872  -0.00990   3.11432
    D2        1.02970   0.00107   0.00098   0.00893   0.00994   1.03964
    D3       -1.01840   0.00082   0.00070   0.01035   0.01105  -1.00735
    D4        1.04103  -0.00166  -0.00164  -0.01869  -0.02035   1.02068
    D5       -1.05349   0.00035   0.00051  -0.00104  -0.00050  -1.05399
    D6       -3.10159   0.00010   0.00023   0.00038   0.00061  -3.10099
    D7       -1.06815  -0.00120  -0.00124  -0.01290  -0.01416  -1.08231
    D8        3.12051   0.00081   0.00092   0.00475   0.00569   3.12620
    D9        1.07241   0.00057   0.00063   0.00617   0.00680   1.07920
   D10       -3.11366  -0.00111  -0.00135  -0.02859  -0.02992   3.13960
   D11        1.05529  -0.00008   0.00032  -0.01707  -0.01675   1.03854
   D12       -1.02496   0.00010  -0.00019  -0.02899  -0.02913  -1.05408
   D13       -3.13919   0.00113   0.00148  -0.01746  -0.01595   3.12805
   D14        1.04483  -0.00166  -0.00219  -0.04266  -0.04488   0.99995
   D15       -1.06939  -0.00062  -0.00052  -0.03114  -0.03171  -1.10111
   D16        1.02960   0.00089   0.00092   0.05829   0.05926   1.08886
   D17        3.14108   0.00087   0.00052   0.05325   0.05387  -3.08824
   D18       -1.04100  -0.00018   0.00112   0.04823   0.04929  -0.99171
   D19       -3.13741   0.00092   0.00049   0.05208   0.05257  -3.08484
   D20       -1.02593   0.00091   0.00008   0.04705   0.04717  -0.97876
   D21        1.07518  -0.00014   0.00068   0.04203   0.04259   1.11777
   D22        3.11489   0.00040   0.00065  -0.02859  -0.02794   3.08695
   D23        1.02755  -0.00000   0.00094  -0.03550  -0.03434   0.99321
   D24       -1.05832   0.00226   0.00182  -0.00461  -0.00295  -1.06127
   D25       -1.05863  -0.00074  -0.00102  -0.03391  -0.03496  -1.09358
   D26        3.13721  -0.00114  -0.00073  -0.04081  -0.04135   3.09586
   D27        1.05134   0.00112   0.00015  -0.00992  -0.00996   1.04138
   D28        0.99550  -0.00206  -0.00222  -0.04893  -0.05118   0.94432
   D29       -1.09185  -0.00247  -0.00193  -0.05583  -0.05757  -1.14942
   D30        3.10547  -0.00021  -0.00105  -0.02495  -0.02618   3.07929
         Item               Value     Threshold  Converged?
 Maximum Force            0.014231     0.000450     NO 
 RMS     Force            0.003311     0.000300     NO 
 Maximum Displacement     0.217828     0.001800     NO 
 RMS     Displacement     0.048633     0.001200     NO 
 Predicted change in Energy=-1.571932D-03
 GradGradGradGradGradGradGradGradGradGradGradGradGradGradGradGradGradGrad

                          Input orientation:                          
 ---------------------------------------------------------------------
 Center     Atomic      Atomic             Coordinates (Angstroms)
 Number     Number       Type             X           Y           Z
 ---------------------------------------------------------------------
      1          6           0        1.035556   -0.052213   -0.079949
      2          6           0        2.558073    0.012765   -0.003627
      3          7           0        3.154965   -1.083055   -0.777587
      4          6           0        4.619159   -1.104720   -0.767792
      5          6           0        5.109509   -1.304525    0.608127
      6          7           0        5.497469   -1.453704    1.685151
      7          6           0        5.099634   -2.253767   -1.677754
      8          6           0        6.560369   -2.310956   -1.791071
      9          7           0        7.709879   -2.350011   -1.892588
     10          1           0        0.592201    0.748085    0.519583
     11          1           0        0.670657   -1.010896    0.298917
     12          1           0        0.680523    0.066913   -1.109660
     13          1           0        2.876398   -0.093637    1.037357
     14          1           0        2.907977    1.001010   -0.350111
     15          1           0        2.853371   -0.998724   -1.744174
     16          1           0        5.061768   -0.162156   -1.133479
     17          1           0        4.686232   -2.110595   -2.681606
     18          1           0        4.724341   -3.207345   -1.296457
 ---------------------------------------------------------------------
                    Distance matrix (angstroms):
                    1          2          3          4          5
     1  C    0.000000
     2  C    1.525813   0.000000
     3  N    2.457891   1.468372   0.000000
     4  C    3.797778   2.465928   1.464388   0.000000
     5  C    4.317271   2.935869   2.406137   1.474286   0.000000
     6  N    4.998843   3.693583   3.419033   2.628717   1.154448
     7  C    4.890456   3.794655   2.441845   1.542464   2.475158
     8  C    6.209141   4.961151   3.759212   2.504077   2.978934
     9  N    7.287807   5.974277   4.857535   3.516882   3.756133
    10  H    1.093837   2.163122   3.406389   4.615909   4.962572
    11  H    1.093510   2.168353   2.708478   4.091130   4.459287
    12  H    1.095693   2.179778   2.748738   4.123403   4.944447
    13  H    2.153785   1.093755   2.085802   2.705193   2.576291
    14  H    2.165232   1.104134   2.141744   2.745306   3.328732
    15  H    2.640072   2.034654   1.016052   2.020536   3.273682
    16  H    4.163220   2.752391   2.147234   1.103656   2.083381
    17  H    4.932849   4.026077   2.650643   2.163092   3.413393
    18  H    5.004187   4.090628   2.691612   2.170617   2.719653
                    6          7          8          9         10
     6  N    0.000000
     7  C    3.479584   0.000000
     8  C    3.734804   1.466240   0.000000
     9  N    4.300970   2.620838   1.154644   0.000000
    10  H    5.501644   5.844345   7.093370   8.128844   0.000000
    11  H    5.041413   5.006775   6.383332   7.493101   1.774504
    12  H    5.772886   5.023627   6.378964   7.474379   1.768115
    13  H    3.023150   4.120773   5.146664   6.085913   2.488803
    14  H    4.107723   4.142412   5.136678   6.055315   2.486595
    15  H    4.354140   2.573955   3.932682   5.043181   3.645385
    16  H    3.130912   2.161598   2.701032   3.517875   4.851617
    17  H    4.489787   1.095043   2.084607   3.134056   5.931337
    18  H    3.544428   1.093409   2.102179   3.162883   6.001501
                   11         12         13         14         15
    11  H    0.000000
    12  H    1.773656   0.000000
    13  H    2.500391   3.075276   0.000000
    14  H    3.078085   2.531996   1.767574   0.000000
    15  H    2.989751   2.501891   2.925171   2.438305   0.000000
    16  H    4.696166   4.387294   3.081082   2.570105   2.439224
    17  H    5.120323   4.822683   4.601555   4.275530   2.339747
    18  H    4.878725   5.206546   4.307755   4.680278   2.928991
                   16         17         18
    16  H    0.000000
    17  H    2.516772   0.000000
    18  H    3.068158   1.767187   0.000000
 Stoichiometry    C6H9N3
 Framework group  C1[X(C6H9N3)]
 Deg. of freedom    48
 Full point group                 C1      NOp   1
 Largest Abelian subgroup         C1      NOp   1
 Largest concise Abelian subgroup C1      NOp   1
                         Standard orientation:                         
 ---------------------------------------------------------------------
 Center     Atomic      Atomic             Coordinates (Angstroms)
 Number     Number       Type             X           Y           Z
 ---------------------------------------------------------------------
      1          6           0        3.554015   -0.460609   -0.114514
      2          6           0        2.237922    0.077862    0.438706
      3          7           0        1.101220   -0.581833   -0.216142
      4          6           0       -0.211850   -0.132446    0.251117
      5          6           0       -0.386778    1.301236   -0.044646
      6          7           0       -0.524669    2.425420   -0.268129
      7          6           0       -1.298130   -0.961428   -0.464410
      8          6           0       -2.651782   -0.633278   -0.006369
      9          7           0       -3.717813   -0.386175    0.362034
     10          1           0        4.399239    0.051458    0.354382
     11          1           0        3.611216   -0.304180   -1.195265
     12          1           0        3.662799   -1.532883    0.082814
     13          1           0        2.169485    1.150971    0.238575
     14          1           0        2.213225   -0.049527    1.535189
     15          1           0        1.164681   -1.581466   -0.045649
     16          1           0       -0.341275   -0.254465    1.340345
     17          1           0       -1.121800   -2.024480   -0.269615
     18          1           0       -1.229124   -0.805338   -1.544418
 ---------------------------------------------------------------------
 Rotational constants (GHZ):           3.2233955           0.8297806           0.6916559
 Standard basis: 6-31G(2df,p) (6D, 7F)
 There are   324 symmetry adapted cartesian basis functions of A   symmetry.
 There are   297 symmetry adapted basis functions of A   symmetry.
   297 basis functions,   459 primitive gaussians,   324 cartesian basis functions
    33 alpha electrons       33 beta electrons
       nuclear repulsion energy       398.0719741593 Hartrees.
 NAtoms=   18 NActive=   18 NUniq=   18 SFac= 1.00D+00 NAtFMM=   60 NAOKFM=F Big=F
 Integral buffers will be    131072 words long.
 Raffenetti 2 integral format.
 Two-electron integral symmetry is turned on.
 One-electron integrals computed using PRISM.
 PrsmSu:  requested number of processors reduced to:  13 ShMem   1 Linda.
 NBasis=   297 RedAO= T EigKep=  1.44D-04  NBF=   297
 NBsUse=   297 1.00D-06 EigRej= -1.00D+00 NBFU=   297
 Initial guess from the checkpoint file:  "CCNCpCtNpCCtN.chk"
 B after Tr=    -0.000000    0.000000   -0.000000
         Rot=    0.999987   -0.005024   -0.000035    0.000412 Ang=  -0.58 deg.
 ExpMin= 1.61D-01 ExpMax= 4.17D+03 ExpMxC= 6.27D+02 IAcc=2 IRadAn=         4 AccDes= 0.00D+00
 Harris functional with IExCor=  402 and IRadAn=       4 diagonalized for initial guess.
 HarFok:  IExCor=  402 AccDes= 0.00D+00 IRadAn=         4 IDoV= 1 UseB2=F ITyADJ=14
 ICtDFT=  3500011 ScaDFX=  1.000000  1.000000  1.000000  1.000000
 FoFCou: FMM=F IPFlag=           0 FMFlag=      100000 FMFlg1=           0
         NFxFlg=           0 DoJE=T BraDBF=F KetDBF=T FulRan=T
         wScrn=  0.000000 ICntrl=       500 IOpCl=  0 I1Cent=   200000004 NGrid=           0
         NMat0=    1 NMatS0=      1 NMatT0=    0 NMatD0=    1 NMtDS0=    0 NMtDT0=    0
 Petite list used in FoFCou.
 Requested convergence on RMS density matrix=1.00D-08 within 128 cycles.
 Requested convergence on MAX density matrix=1.00D-06.
 Requested convergence on             energy=1.00D-06.
 No special actions if energy rises.
 Integral accuracy reduced to 1.0D-05 until final iterations.
 Initial convergence to 1.0D-05 achieved.  Increase integral accuracy.
 SCF Done:  E(RB3LYP) =  -398.290541670     A.U. after   12 cycles
            NFock= 12  Conv=0.54D-08     -V/T= 2.0078
 PrsmSu:  requested number of processors reduced to:  13 ShMem   1 Linda.
 Calling FoFJK, ICntrl=      2127 FMM=F ISym2X=0 I1Cent= 0 IOpClX= 0 NMat=1 NMatS=1 NMatT=0.
 ***** Axes restored to original set *****
 -------------------------------------------------------------------
 Center     Atomic                   Forces (Hartrees/Bohr)
 Number     Number              X              Y              Z
 -------------------------------------------------------------------
      1        6           0.000102741    0.000073669    0.000801243
      2        6          -0.001847342    0.000016370   -0.001386731
      3        7           0.002489661   -0.000146282    0.001728258
      4        6          -0.005081943    0.002029762    0.001236244
      5        6          -0.000585896    0.000493201   -0.001352916
      6        7           0.000142419   -0.000153177    0.000566398
      7        6           0.006706727   -0.002266632   -0.001589284
      8        6          -0.003451565   -0.000502441   -0.000405792
      9        7           0.000422817    0.000237054   -0.000003169
     10        1          -0.000042363    0.000031803   -0.000398017
     11        1           0.000172659   -0.000022353   -0.000351964
     12        1          -0.000065588    0.000030975   -0.000217042
     13        1           0.000920200   -0.000250961    0.000316578
     14        1           0.000546801    0.000288061    0.000617455
     15        1          -0.000196467   -0.000725003   -0.000457626
     16        1           0.001489814    0.000378983    0.000641972
     17        1          -0.000980413    0.000215898    0.000020123
     18        1          -0.000742262    0.000271075    0.000234271
 -------------------------------------------------------------------
 Cartesian Forces:  Max     0.006706727 RMS     0.001503348

 GradGradGradGradGradGradGradGradGradGradGradGradGradGradGradGradGradGrad
 Berny optimization.
 Using GEDIIS/GDIIS optimizer.
 FormGI is forming the generalized inverse of G from B-inverse, IUseBI=4.
 Internal  Forces:  Max     0.003160443 RMS     0.000703861
 Search for a local minimum.
 Step number   3 out of a maximum of   88
 All quantities printed in internal units (Hartrees-Bohrs-Radians)
 Mixed Optimization -- En-DIIS/RFO-DIIS
 Update second derivatives using D2CorX and points    1    2    3
 DE= -1.58D-03 DEPred=-1.57D-03 R= 1.01D+00
 TightC=F SS=  1.41D+00  RLast= 2.03D-01 DXNew= 8.4853D-01 6.0889D-01
 Trust test= 1.01D+00 RLast= 2.03D-01 DXMaxT set to 6.09D-01
 ITU=  1  1  0
 Use linear search instead of GDIIS.
     Eigenvalues ---    0.00501   0.00533   0.00578   0.00762   0.02683
     Eigenvalues ---    0.03529   0.03531   0.03532   0.03544   0.04472
     Eigenvalues ---    0.05299   0.05471   0.05594   0.05616   0.05699
     Eigenvalues ---    0.05949   0.06124   0.09032   0.09671   0.11173
     Eigenvalues ---    0.12680   0.15437   0.16000   0.16000   0.16003
     Eigenvalues ---    0.16011   0.17117   0.21642   0.21997   0.23052
     Eigenvalues ---    0.23742   0.27578   0.30368   0.30595   0.31217
     Eigenvalues ---    0.33690   0.33892   0.34005   0.34095   0.34181
     Eigenvalues ---    0.34195   0.34248   0.34300   0.34392   0.35774
     Eigenvalues ---    0.44614   0.79315   1.04495
 RFO step:  Lambda=-1.80780406D-04 EMin= 5.00701699D-03
 Quartic linear search produced a step of  0.29435.
 Iteration  1 RMS(Cart)=  0.02927321 RMS(Int)=  0.00032104
 Iteration  2 RMS(Cart)=  0.00050995 RMS(Int)=  0.00005348
 Iteration  3 RMS(Cart)=  0.00000008 RMS(Int)=  0.00005348
 Variable       Old X    -DE/DX   Delta X   Delta X   Delta X     New X
                                 (Linear)    (Quad)   (Total)
    R1        2.88337  -0.00016   0.00004  -0.00097  -0.00094   2.88243
    R2        2.06705  -0.00018  -0.00029  -0.00042  -0.00071   2.06635
    R3        2.06643  -0.00016  -0.00020  -0.00039  -0.00060   2.06584
    R4        2.07056   0.00023   0.00019   0.00065   0.00084   2.07140
    R5        2.77482  -0.00011  -0.00065   0.00011  -0.00055   2.77427
    R6        2.06690   0.00059   0.00002   0.00223   0.00225   2.06914
    R7        2.08651   0.00024   0.00124  -0.00027   0.00097   2.08749
    R8        2.76729  -0.00209  -0.00409  -0.00425  -0.00834   2.75895
    R9        1.92006   0.00043   0.00016   0.00116   0.00132   1.92138
   R10        2.78600  -0.00093  -0.00814   0.00352  -0.00462   2.78137
   R11        2.91483   0.00316   0.00406   0.00955   0.01361   2.92844
   R12        2.08561   0.00071   0.00124   0.00160   0.00284   2.08845
   R13        2.18159   0.00060  -0.00349   0.00445   0.00097   2.18256
   R14        2.77079  -0.00298  -0.01042  -0.00314  -0.01356   2.75723
   R15        2.06933   0.00038  -0.00008   0.00151   0.00144   2.07077
   R16        2.06624   0.00010  -0.00052   0.00086   0.00034   2.06659
   R17        2.18196   0.00041  -0.00342   0.00411   0.00069   2.18265
    A1        1.92396   0.00027   0.00065   0.00225   0.00289   1.92686
    A2        1.93155  -0.00014  -0.00011  -0.00049  -0.00060   1.93095
    A3        1.94519  -0.00011  -0.00107  -0.00150  -0.00257   1.94261
    A4        1.89260   0.00017   0.00219   0.00190   0.00408   1.89668
    A5        1.87991  -0.00016  -0.00079  -0.00118  -0.00197   1.87794
    A6        1.88893  -0.00002  -0.00081  -0.00096  -0.00178   1.88715
    A7        1.92567  -0.00012  -0.00050   0.00055   0.00004   1.92571
    A8        1.91121   0.00076   0.00366   0.00379   0.00744   1.91865
    A9        1.91627   0.00013   0.00133   0.00220   0.00351   1.91977
   A10        1.88678  -0.00064  -0.00637  -0.00150  -0.00785   1.87893
   A11        1.95382   0.00023   0.00444  -0.00183   0.00260   1.95642
   A12        1.86869  -0.00036  -0.00267  -0.00323  -0.00591   1.86278
   A13        1.99760   0.00022   0.00439  -0.00187   0.00252   2.00012
   A14        1.89529   0.00022  -0.00118   0.00658   0.00541   1.90069
   A15        1.88008  -0.00027  -0.00463   0.00501   0.00036   1.88045
   A16        1.91857  -0.00019   0.00003  -0.00217  -0.00216   1.91641
   A17        1.89498  -0.00067  -0.00409   0.00095  -0.00314   1.89184
   A18        1.96723   0.00101   0.00953   0.00312   0.01264   1.97988
   A19        1.92412   0.00053   0.00078   0.00080   0.00157   1.92568
   A20        1.86669  -0.00049  -0.00251  -0.00490  -0.00744   1.85924
   A21        1.89211  -0.00016  -0.00373   0.00222  -0.00148   1.89063
   A22        1.96598   0.00158   0.00672   0.00512   0.01189   1.97787
   A23        1.90267  -0.00115  -0.00599  -0.00550  -0.01161   1.89107
   A24        1.91456  -0.00104  -0.00602  -0.00321  -0.00937   1.90519
   A25        1.88636   0.00002   0.00126   0.00300   0.00433   1.89069
   A26        1.91227   0.00023   0.00548   0.00335   0.00885   1.92112
   A27        1.87982   0.00032  -0.00155  -0.00308  -0.00495   1.87487
   A28        3.14067   0.00006   0.00064   0.00215   0.00279   3.14346
   A29        3.15075  -0.00020   0.00221  -0.00935  -0.00714   3.14361
   A30        3.13396   0.00019  -0.00245   0.00875   0.00630   3.14026
   A31        3.14968   0.00048  -0.00075   0.01585   0.01510   3.16479
    D1        3.11432  -0.00010  -0.00291   0.00185  -0.00107   3.11325
    D2        1.03964   0.00028   0.00293   0.00102   0.00396   1.04360
    D3       -1.00735   0.00020   0.00325   0.00142   0.00468  -1.00267
    D4        1.02068  -0.00040  -0.00599  -0.00167  -0.00766   1.01302
    D5       -1.05399  -0.00001  -0.00015  -0.00250  -0.00264  -1.05663
    D6       -3.10099  -0.00010   0.00018  -0.00209  -0.00192  -3.10290
    D7       -1.08231  -0.00019  -0.00417   0.00088  -0.00329  -1.08560
    D8        3.12620   0.00019   0.00167   0.00005   0.00173   3.12793
    D9        1.07920   0.00010   0.00200   0.00046   0.00245   1.08166
   D10        3.13960  -0.00030  -0.00881  -0.01684  -0.02564   3.11396
   D11        1.03854  -0.00027  -0.00493  -0.02679  -0.03173   1.00681
   D12       -1.05408   0.00017  -0.00857  -0.01282  -0.02138  -1.07546
   D13        3.12805   0.00020  -0.00470  -0.02278  -0.02747   3.10058
   D14        0.99995  -0.00054  -0.01321  -0.01878  -0.03200   0.96795
   D15       -1.10111  -0.00051  -0.00933  -0.02874  -0.03809  -1.13920
   D16        1.08886  -0.00001   0.01744   0.00531   0.02276   1.11163
   D17       -3.08824   0.00011   0.01586   0.00556   0.02144  -3.06680
   D18       -0.99171   0.00008   0.01451   0.01096   0.02545  -0.96626
   D19       -3.08484   0.00023   0.01547   0.01609   0.03157  -3.05328
   D20       -0.97876   0.00034   0.01389   0.01635   0.03024  -0.94852
   D21        1.11777   0.00032   0.01254   0.02175   0.03425   1.15202
   D22        3.08695   0.00008  -0.00822  -0.01647  -0.02470   3.06225
   D23        0.99321  -0.00017  -0.01011  -0.01976  -0.02976   0.96345
   D24       -1.06127   0.00071  -0.00087  -0.01097  -0.01193  -1.07320
   D25       -1.09358  -0.00025  -0.01029  -0.01805  -0.02836  -1.12194
   D26        3.09586  -0.00051  -0.01217  -0.02135  -0.03341   3.06245
   D27        1.04138   0.00038  -0.00293  -0.01255  -0.01559   1.02579
   D28        0.94432  -0.00064  -0.01506  -0.02221  -0.03729   0.90703
   D29       -1.14942  -0.00089  -0.01695  -0.02551  -0.04235  -1.19177
   D30        3.07929  -0.00001  -0.00771  -0.01672  -0.02452   3.05477
[...]
 .021355,0.0121036,-0.0253252,0.0747691,-0.2392969,0.0322,0.0260456,0.0
 042566,-0.2940767,-0.0002089,0.0077036,-0.003091,-0.3001823,-0.0269202
 ,0.0535013,0.0318352,0.0771805,-0.0362777,-0.0738979,0.0481047,-0.0751
 111,0.0161891,0.009461,-0.0334321,0.0051133,-0.0886486,-0.0680649,0.05
 40756,0.0002003,0.0479478,0.0424068,-0.0059942,0.0064681,-0.0178867,-0
 .0121586,0.0577581,0.0161506,-0.0769132,0.0224552,-0.1381692,0.0106192
 ,-0.0036926,-0.0563013,0.0352118,0.0202733,0.0207722,-0.0351664,0.0003
 692,-0.0834967,-0.0832061,-0.0886288,0.0430958,0.0168837,-0.2118997,0.
 0001873,0.0761635,0.0588369,-0.0064984,0.1420401,0.0455953,-0.0214112,
 0.0768625,0.1993808,0.0582777,-0.0234534,-0.0340048,-0.0010008,-0.1021
 118,-0.0002252,-0.0006802,-0.0930912,-0.0831486,0.0406355,0.006583,0.0
 229476,-0.0400615,-0.0201018,0.0165274,-0.0192188,0.0341085,0.0723238,
 0.0040343,-0.0416164,0.006249,-0.0372562,0.0172845,-0.0117543,0.020785
 1,0.0020161,0.0199328,0.0074796,0.0354127,0.0361285,0.0685361\Polar=94
 .5457912,-10.3182183,62.6204828,-2.4261821,3.2419593,76.2208904\Quadru
 pole=-6.1536873,6.0117905,0.1418968,1.340869,1.4326099,0.6923164\PG=C0
 1 [X(C6H9N3)]\NImag=0\\0.47465909,-0.00498984,0.57959304,-0.01068839,0
 .00312383,0.56397273,-0.19432945,-0.01456813,-0.01856899,0.49787991,-0
 .00651685,-0.07884866,0.00129931,0.02991847,0.50737324,-0.01040028,-0.
 00094434,-0.08045547,0.03328433,-0.03608176,0.58199385,-0.02221131,0.0
 3382414,0.02404988,-0.09912011,0.05071642,0.00469221,0.47710697,0.0058
 4567,-0.00229116,-0.00390553,0.02107905,-0.14320893,-0.03694660,-0.088
 56872,0.27000383,0.00115254,0.00156468,0.00066091,0.00923870,-0.075816
 14,-0.11944962,0.09114112,0.09345955,0.61013429,-0.00037097,0.00198291
 ,0.00157310,-0.02539086,-0.00031170,0.00856662,-0.19522640,0.01913125,
 -0.02168527,0.46080135,0.00080721,-0.00394373,-0.00272301,0.03183149,-
 0.00783543,0.00038853,-0.02586962,-0.06927614,-0.01315601,0.02997899,0
 .50407491,0.00075782,-0.00312723,-0.00318418,0.01985465,0.00742978,0.0
 0201040,0.01757885,-0.01454863,-0.09286624,0.01300826,-0.02966697,0.49
 981100,-0.00009044,-0.00008627,-0.00016102,-0.00093369,0.00085231,-0.0
 0235852,-0.02733612,0.00256316,-0.04211798,-0.08199631,0.00846867,-0.0
 4647571,0.28567046,0.00012871,-0.00008219,-0.00001182,0.00126508,0.000
 51612,0.00164235,0.00475882,0.00132407,-0.00076905,0.00618032,-0.07505
 675,0.02509782,-0.06652405,0.13453318,0.00036166,-0.00054645,-0.000514
 09,0.00014966,0.00018521,0.00348361,-0.01963324,-0.00053532,-0.0051626
 2,-0.05057061,0.02732864,-0.21818918,0.46668695,-0.17923240,1.37533885
 ,0.00003045,-0.00000851,-0.00025057,-0.00018141,-0.00014561,0.00113721
 ,0.00215118,0.00025837,0.00408253,0.01536776,0.00120661,-0.00580080,-0
 .17846898,0.05393952,-0.39257186,0.16328437,-0.00008674,0.00000337,0.0
 0022588,0.00020959,-0.00020225,-0.00089990,-0.00082157,0.00040059,0.00
 060106,0.00126403,0.01754546,0.00222750,0.05420430,-0.05708525,0.15115
 259,-0.05589771,0.03920634,-0.00017558,0.00033642,0.00052897,0.0008607
 5,-0.00116294,-0.00166711,0.00177972,-0.00023525,-0.00202186,-0.001915
 89,0.00165435,0.00339759,-0.39379845,0.15118946,-1.10001002,0.39775532
 ,-0.15327048,1.09723107,-0.00003788,0.00161473,0.00118036,-0.00561728,
 -0.00170747,-0.00202897,-0.02283911,0.03069262,0.02479872,-0.07052960,
 0.00706008,0.00165982,0.00557856,-0.00987225,-0.00256314,-0.00157792,0
 .00211887,-0.00192102,0.52142001,-0.00026053,0.00042207,-0.00015648,-0
 .00045584,-0.00011163,0.00041638,0.00589740,-0.00222298,-0.00266525,0.
 01676038,-0.12435914,-0.03428585,-0.00521854,0.00386787,-0.00608461,0.
 00212139,-0.00155998,0.00321430,0.03023259,0.49742772,-0.00020150,-0.0
 0000311,0.00038126,-0.00090512,0.00037662,-0.00041067,0.00437499,-0.00
 345964,-0.00171039,0.01494036,-0.03902159,-0.09755139,0.00767569,-0.02
 509645,-0.03320046,-0.00108300,0.00238760,0.00223756,0.02379421,-0.063
 15327,0.51746721,-0.00014635,0.00001901,-0.00003478,0.00014360,0.00010
 019,-0.00008426,-0.00135704,0.00224873,0.00226556,-0.02043367,0.009239
 54,0.00950194,0.00109178,-0.00070894,-0.00046293,-0.00066707,0.0001149
 4,-0.00023297,-0.26465823,0.00166445,0.02102770,1.56683589,0.00007868,
 -0.00057867,-0.00038806,0.00150352,0.00115667,0.00045874,0.00155032,-0
 .00456329,-0.00452553,0.02694429,0.00203473,0.00137483,0.00009385,0.00
 064933,0.00034711,-0.00009097,-0.00004814,-0.00024283,0.00208685,-0.07
 313657,0.00031364,-0.01311412,0.10901190,0.00004745,-0.00039704,-0.000
 27471,0.00097530,-0.00003947,0.00137779,0.00143844,-0.00392132,-0.0035
 6190,0.02236897,0.00297262,-0.00288963,0.00133947,-0.00020891,-0.00017
 055,-0.00027589,0.00014198,-0.00029228,0.02304580,0.00049161,-0.074200
 26,-0.18794501,0.00190631,0.13205766,0.00005736,0.00020979,0.00016910,
 -0.00012617,-0.00054049,-0.00054943,0.00007516,0.00139322,0.00112057,0
 .00061897,-0.00546047,-0.00411631,-0.00070071,0.00044772,0.00000738,0.
 00054063,-0.00019007,0.00017434,-0.00436909,-0.00058798,0.00316394,-1.
 23995834,0.00730821,0.15587340,1.24350822,-0.00001813,0.00010486,0.000
 07200,-0.00029240,-0.00027457,-0.00008923,0.00010226,0.00103742,0.0006
 3389,-0.00279942,-0.00135447,-0.00117493,-0.00009126,-0.00004653,-0.00
 006231,0.00013567,0.00006332,0.00005568,-0.00035272,0.01898116,-0.0002
 9475,0.00642406,-0.03719713,0.00036088,-0.00623347,0.01814738,-0.00001
 531,0.00003418,0.00002920,-0.00011552,0.00010407,-0.00025636,-0.000165
 19,0.00042061,0.00051815,-0.00213610,-0.00076049,0.00034616,-0.0002949
 1,0.00008862,-0.00023579,0.00042643,-0.00017929,0.00015218,0.00163913,
 -0.00032158,0.01842851,0.15605109,0.00026303,-0.05748019,-0.15805701,0
 .00016002,0.03894794,-0.09053533,0.07834129,0.05774482,-0.01013648,0.0
 2575587,0.01868720,-0.00788229,-0.00063655,-0.00183614,-0.00010739,0.0
 0141849,0.00147680,0.00006736,0.00002931,0.00019999,0.00001465,-0.0000
 2845,-0.00015644,-0.00069841,-0.00008693,-0.00009565,0.00001162,0.0002
 3616,0.00015937,-0.00010688,-0.00003949,-0.00000967,0.09923948,0.08046
 569,-0.19265469,-0.10674936,-0.00190815,0.00044692,0.00207611,0.000316
 02,0.00088796,0.00020202,-0.00039583,0.00066805,-0.00039621,-0.0000392
 6,-0.00000333,0.00004856,-0.00000302,0.00001123,0.00000381,-0.00007635
 ,0.00002344,0.00003210,-0.00001676,0.00001540,0.00001627,0.00001030,-0
 .00001125,-0.00000765,-0.08821070,0.20627870,0.05937774,-0.10715105,-0
 .12382459,-0.00174369,0.00332480,0.00060881,-0.00085525,0.00042269,0.0
 0051870,-0.00038379,-0.00008261,0.00060291,0.00014608,-0.00000236,0.00
 002088,0.00000383,-0.00001196,0.00000630,-0.00008438,0.00001130,-0.000
 00563,-0.00000703,0.00002378,0.00001419,-0.00000134,-0.00000605,-0.000
 00535,-0.06370423,0.11723612,0.13127009,-0.07802334,-0.07916889,0.0301
 4036,-0.01409327,-0.03229314,0.01166113,0.00309910,0.00009279,-0.00036
 278,-0.00009431,0.00009557,-0.00023980,0.00000215,-0.00007468,0.000006
 89,0.00001727,0.00006771,0.00001122,0.00001792,0.00010724,-0.00003835,
 0.00001143,-0.00000767,-0.00001573,0.00000891,0.00000572,-0.00000066,0
 .00459535,0.01170591,-0.00574101,0.08675668,-0.08167126,-0.25228458,0.
 07836094,-0.00015691,-0.00137611,-0.00053650,0.00017404,0.00139747,0.0
 0025982,0.00029200,0.00031207,0.00001027,-0.00001178,-0.00001571,0.000
 01517,0.00000443,0.00002864,-0.00002161,-0.00006968,-0.00001136,-0.000
 00931,0.00000184,0.00001940,0.00002568,-0.00002299,0.00000355,-0.00000
 145,-0.00817912,-0.01893908,0.00872056,0.09024396,0.27193859,0.0306882
 3,0.07866579,-0.07814359,-0.00124920,-0.00386025,0.00066923,-0.0002013
 3,0.00040824,-0.00005361,0.00015259,-0.00022847,0.00006071,0.00000329,
 -0.00000881,0.00003168,0.00003393,-0.00000215,-0.00004485,0.00002618,0
 .00001765,-0.00002345,0.00000598,-0.00001124,0.00000123,-0.00001716,0.
 00000013,0.00000036,-0.00743493,-0.01588346,0.00618430,-0.03248842,-0.
 08606665,0.07971539,-0.06664111,0.00824585,-0.06676123,-0.01148895,0.0
 0462556,-0.03470736,0.00257088,-0.00136644,-0.00102482,0.00010255,-0.0
 0016833,-0.00000139,0.00012066,-0.00001889,-0.00016142,-0.00013152,0.0
 0010519,0.00023513,0.00000891,-0.00000992,0.00002941,0.00000663,-0.000
 00409,-0.00000590,0.00000025,0.00000059,0.00001403,0.00345528,-0.00264
 602,0.01290226,0.00266095,-0.00031312,0.01114857,0.07461061,0.00813884
 ,-0.05154096,0.03050069,-0.00030989,-0.00090867,-0.00213916,0.00003260
 ,0.00020723,0.00083155,0.00007894,-0.00005082,-0.00010227,-0.00003376,
 -0.00005586,-0.00001180,-0.00000419,0.00002699,-0.00002973,0.00001098,
 -0.00001589,0.00001742,0.00000232,0.00000676,-0.00001082,-0.00001689,-
 0.00000343,0.00000359,-0.00753373,0.00321769,-0.02316281,0.00844546,-0
 .00230900,0.02750094,-0.00909913,0.05020574,-0.06757340,0.02977058,-0.
 28145242,-0.00022087,-0.00048313,-0.00279515,0.00036044,0.00037303,0.0
 0145712,0.00005471,0.00010653,0.00038335,0.00018806,-0.00005888,-0.000
 07140,-0.00003960,0.00002165,0.00008365,-0.00009250,0.00000801,-0.0000
 5048,0.00000480,0.00003089,0.00001968,-0.00001610,-0.00000388,0.000010
 58,-0.00468667,0.00303477,-0.01631330,-0.00242408,0.00019410,-0.009786
 07,0.07638592,-0.03258033,0.30604614,-0.01086025,0.00443545,-0.0326347
 7,-0.06589027,0.00692733,-0.06728606,0.00343255,0.00154814,0.01562205,
 0.00144933,-0.00047900,0.00156159,-0.00054809,0.00047706,0.00005090,-0
 .00058594,0.00022089,-0.00040459,0.00008256,0.00006177,0.00009176,-0.0
 0004248,0.00001594,-0.00007611,-0.00001223,-0.00000297,0.00000577,0.00
 129899,0.00029453,0.00039848,0.00167304,-0.00029032,0.00030789,-0.0065
 9713,-0.00046285,-0.00027562,0.07470816,-0.00057269,-0.00001294,-0.000
 87240,0.00945146,-0.05517384,0.03758364,-0.00717265,-0.00148481,-0.031
 57395,-0.00108335,0.00106329,-0.00080048,0.00059896,0.00003459,0.00013
 879,0.00008887,-0.00035661,0.00030760,-0.00010984,-0.00003004,-0.00008
 492,0.00004049,-0.00003239,0.00015530,0.00003870,0.00000422,-0.0000346
 0,0.00017917,0.00004675,0.00028642,0.00019831,0.00027719,-0.00076443,-
 0.00002574,0.00097892,-0.00054777,-0.01214575,0.06153479,-0.00099445,0
 .00056569,-0.00022168,-0.06352752,0.03026186,-0.28292973,-0.00281854,-
 0.00566005,-0.02017200,-0.00140717,0.00024877,-0.00063216,0.00039473,0
 .00009391,-0.00054451,-0.00069855,0.00042857,0.00065069,0.00020679,-0.
 00012409,0.00004501,0.00003484,-0.00007503,0.00000272,0.00005774,0.000
 01165,0.00002956,-0.00045294,0.00020777,0.00044323,-0.00009292,-0.0003
 5413,0.00043375,0.00035561,-0.00000789,0.00160790,0.06933752,-0.027135
 98,0.31184045,-0.01335571,-0.02986865,0.01214987,-0.07943905,-0.070317
 99,0.02647037,0.00226711,0.01725067,-0.00167494,0.00478055,0.00287951,
 -0.00128219,-0.00012234,-0.00003810,0.00007624,0.00002361,-0.00000909,
 -0.00005304,0.00003393,0.00002332,0.00006514,-0.00006151,-0.00006755,0
 .00010221,-0.00003230,0.00002217,-0.00002111,0.00102234,0.00048570,0.0
 0031911,-0.00679814,0.00002803,-0.00103985,0.00174682,0.00027129,-0.00
 055049,0.00358800,0.00692575,-0.00317239,0.08606109,-0.00056978,0.0004
 7247,0.00095402,-0.07185207,-0.22047428,0.06911834,0.00127687,-0.03526
 810,-0.00305856,-0.00462975,0.00114329,-0.00035828,0.00015551,-0.00026
 957,0.00003899,0.00004187,0.00010632,0.00017660,0.00027098,0.00043439,
 -0.00014876,0.00006191,-0.00003383,-0.00018376,0.00016266,0.00001956,0
 .00000365,-0.00078330,0.00036628,0.00012964,0.00053299,0.00127393,-0.0
 0014965,-0.00004093,0.00011468,-0.00038642,-0.00261432,-0.00367805,0.0
 0310042,0.07521470,0.25446487,-0.00225587,-0.00234392,0.00114470,0.026
 88805,0.06916259,-0.08094896,-0.00199866,-0.02412808,0.00607797,-0.002
 99827,-0.00050248,0.00072294,0.00024962,0.00015841,-0.00060569,-0.0003
 0415,-0.00001982,0.00019594,-0.00013836,-0.00000197,0.00006258,0.00006
 294,0.00010694,-0.00008686,0.00002968,-0.00003721,0.00001513,0.0002975
 9,0.00013492,-0.00000554,-0.00050810,-0.00054997,0.00116345,0.00049308
 ,-0.00067288,0.00069706,0.01150753,0.02717275,-0.00995919,-0.03089192,
 -0.06943640,0.08020643,0.00190694,-0.00045264,0.00211530,0.00554065,-0
 .00175022,0.01547568,-0.08280262,0.01662051,-0.09403281,-0.01987677,0.
 00349823,-0.03904988,-0.00747299,-0.00012139,0.00056802,0.00094177,0.0
 0006835,-0.00083923,0.00080297,-0.00006406,-0.00179213,0.00022826,-0.0
 0047852,0.00044778,0.00023142,0.00005302,-0.00006560,-0.00012606,-0.00
 018207,-0.00058019,-0.00020396,-0.00012507,0.00014333,-0.00044532,0.00
 052356,-0.00109981,-0.00145388,0.00319007,0.00256360,-0.00011706,0.000
 52634,-0.00047095,0.10192341,-0.00106489,0.00134392,0.00018472,-0.0067
 7493,-0.00511371,-0.03266077,0.03213819,-0.02335126,0.03461550,-0.0077
 8628,-0.00231239,-0.00098306,0.00215885,-0.00043887,0.00091145,-0.0001
 6299,0.00015344,0.00053379,0.00122522,0.00035987,0.00164497,-0.0004030
 2,-0.00009560,-0.00029795,-0.00015837,-0.00008422,0.00001462,-0.000365
 03,-0.00033710,0.00023866,-0.00012680,-0.00011870,0.00043337,0.0006791
 2,0.00014122,0.00053983,0.00201469,-0.00294945,-0.00185194,-0.00071074
 ,0.00062247,-0.00045572,-0.02169573,0.03159684,-0.00014933,0.00059360,
 0.00123911,-0.00519250,0.00490934,-0.02135654,-0.11956029,-0.00263317,
 -0.38202697,0.00583777,0.00328488,-0.00111963,-0.00025103,-0.00037925,
 -0.00039759,-0.00007771,-0.00004532,0.00073361,0.00118521,-0.00014112,
 0.00156410,-0.00000150,-0.00016381,0.00018301,0.00007215,0.00001814,-0
 .00005190,-0.00018398,0.00002888,0.00050437,0.00015598,-0.00000230,-0.
 00017876,0.00109686,-0.00012878,0.00018277,0.00198656,-0.00415342,-0.0
 0067987,-0.00057125,0.00020749,0.00153103,0.11498020,-0.00126142,0.399
 25426,-0.00003949,0.00052445,0.00000927,0.00322525,-0.00545991,-0.0028
 9661,-0.03374640,-0.02782229,0.01220193,-0.07585523,-0.07220482,0.0266
 3728,0.00601712,0.00897134,-0.00256278,-0.00119099,-0.00112838,-0.0018
 3563,0.00379404,0.00987492,-0.00252855,0.00118843,0.00048875,-0.000556
 73,-0.00016867,-0.00016356,0.00004343,-0.00013028,0.00022189,-0.000037
 19,0.00041742,0.00010332,-0.00010608,0.00005167,-0.00006256,0.00000361
 ,-0.00018035,0.00038891,0.00028809,0.00051991,0.00252365,0.00004971,0.
 00110334,0.00018572,0.00077965,0.09557108,0.00022613,0.00016912,0.0000
 1118,0.00092302,0.00406655,-0.00080131,-0.00546871,0.00307577,-0.00243
 957,-0.06954685,-0.21911477,0.06686254,0.00050907,-0.00493732,0.007370
 05,-0.00067886,0.00064839,-0.00155818,-0.00593984,-0.02370179,0.005890
 15,-0.00167694,-0.00018331,0.00060972,0.00084879,0.00051056,-0.0000753
 2,-0.00004107,-0.00001010,0.00002749,0.00013911,-0.00017682,-0.0000554
 5,0.00000604,-0.00001859,-0.00001508,0.00000401,-0.00021401,0.00016313
 ,-0.00194022,0.00035385,0.00134332,-0.00043537,0.00058201,-0.00040271,
 0.08228562,0.24003416,0.00002857,-0.00026187,0.00010010,-0.00002112,0.
 00088399,-0.00000694,0.00245321,-0.00181685,0.00574772,0.02805804,0.06
 962941,-0.07750383,0.00815679,0.03196324,-0.02013781,-0.00226291,-0.00
 349697,-0.00092245,-0.00480231,-0.01948835,0.00611013,-0.00128768,0.00
 015920,0.00075553,0.00035943,0.00008121,-0.00011676,0.00003820,0.00001
 702,-0.00002130,-0.00010444,-0.00003462,-0.00003385,-0.00002909,0.0000
 0631,-0.00002193,-0.00004932,0.00016033,-0.00009498,0.00008741,-0.0002
 8523,-0.00017313,-0.00003749,-0.00097704,0.00056343,-0.03127935,-0.073
 85059,0.08683756,-0.00001477,-0.00003338,-0.00002343,0.00007455,-0.000
 09259,0.00019911,0.00087650,0.00007331,0.00124208,0.00327668,-0.000785
 14,0.00869929,-0.00087105,0.00169421,0.00105732,0.00044335,-0.00032939
 ,0.00035763,-0.09055655,0.01324010,-0.09974483,-0.02399322,0.00484984,
 -0.03156028,0.00071046,-0.00062092,0.00415552,0.00001182,-0.00000455,-
 0.00001220,-0.00000714,0.00000073,0.00000995,-0.00002454,0.00001223,-0
 .00001463,-0.00007478,0.00002476,-0.00003666,0.00001508,-0.00007626,-0
 .00002528,-0.00027245,0.00056198,0.00006182,-0.00004031,-0.00045802,-0
 .00048079,0.10549308,0.00002396,0.00006668,0.00010141,-0.00014061,-0.0
 0012790,-0.00020405,-0.00211896,0.00094486,0.00074095,-0.00872838,0.00
 077188,-0.02451516,0.00241935,-0.00359200,-0.00261766,-0.00065473,0.00
 085181,-0.00044178,0.01376942,-0.04921107,0.03127748,0.00007368,-0.001
 27385,-0.00014610,-0.00015858,0.00084864,0.00004324,-0.00004369,-0.000
 00660,-0.00000533,-0.00000732,-0.00001133,0.00001131,0.00003253,0.0000
 0959,-0.00000319,-0.00000723,0.00000463,0.00011150,-0.00002081,0.00000
 598,-0.00002777,0.00082268,0.00034703,0.00026412,-0.00058102,0.0011153
 5,0.00069668,-0.01726166,0.05204948,0.00001846,0.00003353,0.00003973,0
 .00037466,-0.00034219,0.00017126,-0.00151798,0.00147726,0.00156080,-0.
 00712824,0.00147338,-0.01912656,0.00111999,-0.00347162,-0.00187967,-0.
 00012704,0.00032577,0.00006468,-0.09727242,0.03030823,-0.25480234,-0.0
 0176051,-0.00069423,0.00712849,0.00267468,0.00017334,-0.00132888,-0.00
 002714,0.00000835,0.00000639,0.00000399,-0.00001016,-0.00001635,0.0000
 3398,-0.00002520,0.00000989,-0.00013967,0.00019730,0.00020162,-0.00003
 326,0.00012362,0.00001154,0.00152284,-0.00090508,0.00016543,0.00004359
 ,0.00015450,0.00094548,0.10717709,-0.02983701,0.27718536,0.00000257,-0
 .00002130,-0.00000887,-0.00011696,0.00023981,0.00013763,0.00094196,-0.
 00040349,-0.00013106,0.00348431,0.00848299,-0.00377021,-0.00000737,-0.
 00053378,-0.00063901,-0.00001121,0.00011755,0.00015874,-0.07085484,-0.
 07329976,0.03122593,-0.01819973,-0.03139349,0.01463747,-0.00027700,0.0
 0387084,-0.00145433,0.00000622,-0.00001734,0.00000278,-0.00004006,-0.0
 0000810,0.00001703,-0.00000663,0.00000677,-0.00000376,0.00001276,-0.00
 001544,-0.00003776,-0.00013235,-0.00020109,0.00001336,0.00009233,0.000
 28498,-0.00016861,-0.00053653,0.00124408,0.00117287,0.00495329,0.01258
 139,-0.00496302,0.08068921,0.00003582,0.00006205,-0.00002732,0.0002772
 6,0.00009648,-0.00038047,-0.00076685,0.00238748,0.00109503,-0.00733156
 ,-0.02431004,0.00695631,-0.00001909,0.00065820,0.00155400,-0.00015014,
 0.00020634,-0.00050920,-0.07095419,-0.24715606,0.08933180,-0.00407140,
 0.00424858,-0.00147498,0.00294992,-0.00074907,0.00024474,-0.00001225,-
 0.00000028,0.00000070,0.00004372,-0.00000814,-0.00000687,-0.00000227,-
 0.00000559,-0.00000069,0.00000262,-0.00001226,0.00001584,-0.00012799,0
 .00034574,0.00009728,0.00000232,-0.00034550,0.00000486,0.00185396,-0.0
 0219905,-0.00338586,-0.00079526,-0.00279318,0.00101022,0.07906538,0.26
 957431,0.00002164,0.00008671,-0.00002599,-0.00008157,-0.00015167,-0.00
 003842,-0.00111837,0.00122908,0.00034954,-0.00633508,-0.02094546,0.005
 72774,-0.00050305,-0.00099426,0.00224437,0.00005283,0.00041329,-0.0003
 2367,0.03136689,0.09195508,-0.08434126,0.00286184,0.00111626,-0.002583
 90,-0.00094504,0.00010142,0.00099746,-0.00001619,-0.00001003,-0.000004
 44,0.00003672,0.00000016,0.00002043,-0.00000362,0.00001117,-0.00000738
 ,-0.00000392,-0.00003420,-0.00002080,0.00002009,0.00015430,-0.00004940
 ,0.00015135,0.00027605,-0.00010985,0.00174636,-0.00323386,-0.00202697,
 0.00893829,0.02455136,-0.01033687,-0.03618917,-0.09452540,0.09052941\\
 0.00001558,-0.00000306,0.00002311,-0.00000981,0.00001577,0.00000385,0.
 00004769,0.00000155,-0.00002946,-0.00005901,0.00005057,-0.00002030,-0.
 00002058,-0.00000220,-0.00001821,0.00001415,-0.00000603,0.00003091,0.0
 0003204,-0.00003802,-0.00001247,-0.00004015,0.00000777,-0.00001234,0.0
 0002114,-0.00000258,0.00000924,-0.00000370,0.00000093,-0.00000858,0.00
 000014,0.00000336,-0.00000197,-0.00000500,-0.00000185,-0.00000788,0.00
 000797,-0.00000373,0.00000577,0.00000406,-0.00000803,0.00000034,0.0000
 0569,-0.00000717,0.00001731,-0.00001294,-0.00000354,0.00001516,0.00000
 292,-0.00000088,0.00000300,-0.00000019,-0.00000284,0.00000250\\\@


 ON INDUCTION, OR "WHY DO YOU BELIEVE THE SUN WILL RISE TOMORROW?":

 ... THE FARMER WHO HAS FED THE CHICKEN EVERY DAY THROUGHOUT ITS
 LIFE AT LAST WRINGS ITS NECK INSTEAD, SHOWING THAT MORE REFINED VIEWS
 AS TO THE UNIFORMITY OF NATURE WOULD HAVE BEEN USEFUL TO THE CHICKEN.

                               -- BERTRAND RUSSELL
 Job cpu time:       0 days  2 hours 19 minutes  7.3 seconds.
 Elapsed time:       0 days  0 hours 35 minutes 16.8 seconds.
 File lengths (MBytes):  RWF=    128 Int=      0 D2E=      0 Chk=      8 Scr=      1
 Normal termination of Gaussian 16 at Tue Jun  1 16:01:39 2021.
### All Done ###
