### Starting Gaussian ###
 Entering Gaussian System, Link 0=g16
 Initial command:
 /cluster/software/gaussian/gaussian-16-A.03/avx2/g16/l1.exe "/local/scratch/linjian/Gau-30748.inp" -scrdir="/local/scratch/linjian/"
 Entering Link 1 = /cluster/software/gaussian/gaussian-16-A.03/avx2/g16/l1.exe PID=     30749.
  
 Copyright (c) 1988,1990,1992,1993,1995,1998,2003,2009,2016,
            Gaussian, Inc.  All Rights Reserved.
  
 This is part of the Gaussian(R) 16 program.  It is based on
 the Gaussian(R) 09 system (copyright 2009, Gaussian, Inc.),
 the Gaussian(R) 03 system (copyright 2003, Gaussian, Inc.),
 the Gaussian(R) 98 system (copyright 1998, Gaussian, Inc.),
 the Gaussian(R) 94 system (copyright 1995, Gaussian, Inc.),
 the Gaussian 92(TM) system (copyright 1992, Gaussian, Inc.),
 the Gaussian 90(TM) system (copyright 1990, Gaussian, Inc.),
 the Gaussian 88(TM) system (copyright 1988, Gaussian, Inc.),
 the Gaussian 86(TM) system (copyright 1986, Carnegie Mellon
 University), and the Gaussian 82(TM) system (copyright 1983,
 Carnegie Mellon University). Gaussian is a federally registered
 trademark of Gaussian, Inc.
  
 This software contains proprietary and confidential information,
 including trade secrets, belonging to Gaussian, Inc.
  
 This software is provided under written license and may be
 used, copied, transmitted, or stored only in accord with that
 written license.
  
 The following legend is applicable only to US Government
 contracts under FAR:
  
                    RESTRICTED RIGHTS LEGEND
  
 Use, reproduction and disclosure by the US Government is
 subject to restrictions as set forth in subparagraphs (a)
 and (c) of the Commercial Computer Software - Restricted
 Rights clause in FAR 52.227-19.
  
 Gaussian, Inc.
 340 Quinnipiac St., Bldg. 40, Wallingford CT 06492
  
  
 ---------------------------------------------------------------
 Warning -- This program may not be used in any manner that
 competes with the business of Gaussian, Inc. or will provide
 assistance to any competitor of Gaussian, Inc.  The licensee
 of this program is prohibited from giving any competitor of
 Gaussian, Inc. access to this program.  By using this program,
 the user acknowledges that Gaussian, Inc. is engaged in the
 business of creating and licensing software in the field of
 computational chemistry and represents and warrants to the
 licensee that it is not a competitor of Gaussian, Inc. and that
 it will not use this program in any manner prohibited above.
 ---------------------------------------------------------------
  

 Cite this work as:
 Gaussian 16, Revision A.03,
 M. J. Frisch, G. W. Trucks, H. B. Schlegel, G. E. Scuseria, 
 M. A. Robb, J. R. Cheeseman, G. Scalmani, V. Barone, 
 G. A. Petersson, H. Nakatsuji, X. Li, M. Caricato, A. V. Marenich, 
 J. Bloino, B. G. Janesko, R. Gomperts, B. Mennucci, H. P. Hratchian, 
 J. V. Ortiz, A. F. Izmaylov, J. L. Sonnenberg, D. Williams-Young, 
 F. Ding, F. Lipparini, F. Egidi, J. Goings, B. Peng, A. Petrone, 
 T. Henderson, D. Ranasinghe, V. G. Zakrzewski, J. Gao, N. Rega, 
 G. Zheng, W. Liang, M. Hada, M. Ehara, K. Toyota, R. Fukuda, 
 J. Hasegawa, M. Ishida, T. Nakajima, Y. Honda, O. Kitao, H. Nakai, 
 T. Vreven, K. Throssell, J. A. Montgomery, Jr., J. E. Peralta, 
 F. Ogliaro, M. J. Bearpark, J. J. Heyd, E. N. Brothers, K. N. Kudin, 
 V. N. Staroverov, T. A. Keith, R. Kobayashi, J. Normand, 
 K. Raghavachari, A. P. Rendell, J. C. Burant, S. S. Iyengar, 
 J. Tomasi, M. Cossi, J. M. Millam, M. Klene, C. Adamo, R. Cammi, 
 J. W. Ochterski, R. L. Martin, K. Morokuma, O. Farkas, 
 J. B. Foresman, and D. J. Fox, Gaussian, Inc., Wallingford CT, 2016.
 
 ******************************************
 Gaussian 16:  ES64L-G16RevA.03 25-Dec-2016
                31-May-2021 
 ******************************************
 %chk=CCNCpNppNpCCN.chk
 %NProcShared=20
 Will use up to   20 processors via shared memory.
 -----------------------------
 # opt freq b3lyp/6-31g(2df,p)
 -----------------------------
 1/18=20,19=15,26=3,38=1/1,3;
 2/9=110,12=2,17=6,18=5,40=1/2;
 3/5=1,6=6,7=104,11=2,25=1,30=1,71=1,74=-5/1,2,3;
 4//1;
 5/5=2,38=5/2;
 6/7=2,8=2,9=2,10=2,28=1/1;
 7//1,2,3,16;
 1/18=20,19=15,26=3/3(2);
 2/9=110/2;
 99//99;
 2/9=110/2;
 3/5=1,6=6,7=104,11=2,25=1,30=1,71=1,74=-5/1,2,3;
 4/5=5,16=3,69=1/1;
 5/5=2,38=5/2;
 7//1,2,3,16;
 1/18=20,19=15,26=3/3(-5);
 2/9=110/2;
 6/7=2,8=2,9=2,10=2,19=2,28=1/1;
 99/9=1/99;
 -------------------
 Title Card Required
 -------------------
 Symbolic Z-matrix:
 Charge =  0 Multiplicity = 1
 C                     0.92782   0.05525   0.05232 
 C                     2.43358   0.15885   0.05181 
 N                     3.09918  -1.15293   0.03642 
 C                     4.54053  -1.24246   0.05163 
 N                     4.93919  -0.69691  -1.2 
 N                     5.0882   -0.39278   1.06269 
 C                     5.02058  -2.69652   0.21126 
 C                     6.55033  -2.79294   0.21933 
 N                     6.99853  -4.17239   0.28855 
 H                     0.49714   1.06075   0.00666 
 H                     0.57476  -0.43005   0.96677 
 H                     0.5705   -0.51925  -0.80576 
 H                     2.73833   0.70046   0.94965 
 H                     2.76272   0.71563  -0.83045 
 H                     2.5624   -1.97858  -0.21695 
 H                     5.01479   0.3061   -1.33468 
 H                     4.94805  -1.25395  -2.04679 
 H                     4.60124   0.39686   1.47351 
 H                     5.98864  -0.56062   1.49591 
 H                     4.62044  -3.30682  -0.60993 
 H                     4.62067  -3.12589   1.14033 
 H                     6.97029  -2.25781   1.07587 
 H                     6.95759  -2.33457  -0.68772 
 H                     6.71548  -4.60981   1.16693 
 H                     8.022    -4.20199   0.29558 
 

 GradGradGradGradGradGradGradGradGradGradGradGradGradGradGradGradGradGrad
 Berny optimization.
 Initialization pass.
                           ----------------------------
                           !    Initial Parameters    !
                           ! (Angstroms and Degrees)  !
 --------------------------                            --------------------------
 ! Name  Definition              Value          Derivative Info.                !
 --------------------------------------------------------------------------------
 ! R1    R(1,2)                  1.5093         estimate D2E/DX2                !
 ! R2    R(1,10)                 1.0948         estimate D2E/DX2                !
 ! R3    R(1,11)                 1.0938         estimate D2E/DX2                !
 ! R4    R(1,12)                 1.0927         estimate D2E/DX2                !
 ! R5    R(2,3)                  1.4711         estimate D2E/DX2                !
 ! R6    R(2,13)                 1.0919         estimate D2E/DX2                !
 ! R7    R(2,14)                 1.0939         estimate D2E/DX2                !
 ! R8    R(3,4)                  1.4442         estimate D2E/DX2                !
 ! R9    R(3,15)                 1.0169         estimate D2E/DX2                !
 ! R10   R(4,5)                  1.4224         estimate D2E/DX2                !
 ! R11   R(4,6)                  1.4297         estimate D2E/DX2                !
 ! R12   R(4,7)                  1.5396         estimate D2E/DX2                !
 ! R13   R(5,16)                 1.0148         estimate D2E/DX2                !
 ! R14   R(5,17)                 1.0136         estimate D2E/DX2                !
 ! R15   R(6,18)                 1.0146         estimate D2E/DX2                !
 ! R16   R(6,19)                 1.0132         estimate D2E/DX2                !
 ! R17   R(7,8)                  1.5328         estimate D2E/DX2                !
 ! R18   R(7,20)                 1.0986         estimate D2E/DX2                !
 ! R19   R(7,21)                 1.0988         estimate D2E/DX2                !
 ! R20   R(8,9)                  1.4521         estimate D2E/DX2                !
 ! R21   R(8,22)                 1.0938         estimate D2E/DX2                !
 ! R22   R(8,23)                 1.0949         estimate D2E/DX2                !
 ! R23   R(9,24)                 1.0213         estimate D2E/DX2                !
 ! R24   R(9,25)                 1.0239         estimate D2E/DX2                !
 ! A1    A(2,1,10)             109.2325         estimate D2E/DX2                !
 ! A2    A(2,1,11)             110.6562         estimate D2E/DX2                !
 ! A3    A(2,1,12)             111.2263         estimate D2E/DX2                !
 ! A4    A(10,1,11)            108.3838         estimate D2E/DX2                !
 ! A5    A(10,1,12)            108.7524         estimate D2E/DX2                !
 ! A6    A(11,1,12)            108.5236         estimate D2E/DX2                !
 ! A7    A(1,2,3)              112.9663         estimate D2E/DX2                !
 ! A8    A(1,2,13)             108.1919         estimate D2E/DX2                !
 ! A9    A(1,2,14)             109.5952         estimate D2E/DX2                !
 ! A10   A(3,2,13)             108.9429         estimate D2E/DX2                !
 ! A11   A(3,2,14)             108.0161         estimate D2E/DX2                !
 ! A12   A(13,2,14)            109.0693         estimate D2E/DX2                !
 ! A13   A(2,3,4)              120.4467         estimate D2E/DX2                !
 ! A14   A(2,3,15)             119.196          estimate D2E/DX2                !
 ! A15   A(4,3,15)             118.6279         estimate D2E/DX2                !
 ! A16   A(3,4,5)              104.2811         estimate D2E/DX2                !
 ! A17   A(3,4,6)              110.6651         estimate D2E/DX2                !
 ! A18   A(3,4,7)              111.7672         estimate D2E/DX2                !
 ! A19   A(5,4,6)              106.677          estimate D2E/DX2                !
 ! A20   A(5,4,7)              111.4751         estimate D2E/DX2                !
 ! A21   A(6,4,7)              111.6247         estimate D2E/DX2                !
 ! A22   A(4,5,16)             121.114          estimate D2E/DX2                !
 ! A23   A(4,5,17)             121.7894         estimate D2E/DX2                !
 ! A24   A(16,5,17)            115.5713         estimate D2E/DX2                !
 ! A25   A(4,6,18)             124.4027         estimate D2E/DX2                !
 ! A26   A(4,6,19)             122.9788         estimate D2E/DX2                !
 ! A27   A(18,6,19)            112.4773         estimate D2E/DX2                !
 ! A28   A(4,7,8)              111.7864         estimate D2E/DX2                !
 ! A29   A(4,7,20)             109.4875         estimate D2E/DX2                !
 ! A30   A(4,7,21)             110.0741         estimate D2E/DX2                !
 ! A31   A(8,7,20)             109.42           estimate D2E/DX2                !
 ! A32   A(8,7,21)             109.5227         estimate D2E/DX2                !
 ! A33   A(20,7,21)            106.4019         estimate D2E/DX2                !
 ! A34   A(7,8,9)              111.5955         estimate D2E/DX2                !
 ! A35   A(7,8,22)             110.8872         estimate D2E/DX2                !
 ! A36   A(7,8,23)             109.9096         estimate D2E/DX2                !
 ! A37   A(9,8,22)             107.9947         estimate D2E/DX2                !
 ! A38   A(9,8,23)             108.8078         estimate D2E/DX2                !
 ! A39   A(22,8,23)            107.5248         estimate D2E/DX2                !
 ! A40   A(8,9,24)             111.2437         estimate D2E/DX2                !
 ! A41   A(8,9,25)             109.6524         estimate D2E/DX2                !
 ! A42   A(24,9,25)            104.9956         estimate D2E/DX2                !
 ! D1    D(10,1,2,3)          -176.8188         estimate D2E/DX2                !
 ! D2    D(10,1,2,13)           62.4915         estimate D2E/DX2                !
 ! D3    D(10,1,2,14)          -56.3266         estimate D2E/DX2                !
 ! D4    D(11,1,2,3)            63.9395         estimate D2E/DX2                !
 ! D5    D(11,1,2,13)          -56.7502         estimate D2E/DX2                !
 ! D6    D(11,1,2,14)         -175.5683         estimate D2E/DX2                !
 ! D7    D(12,1,2,3)           -56.7682         estimate D2E/DX2                !
 ! D8    D(12,1,2,13)         -177.4579         estimate D2E/DX2                !
 ! D9    D(12,1,2,14)           63.724          estimate D2E/DX2                !
 ! D10   D(1,2,3,4)           -179.1806         estimate D2E/DX2                !
 ! D11   D(1,2,3,15)            16.0032         estimate D2E/DX2                !
 ! D12   D(13,2,3,4)           -58.9196         estimate D2E/DX2                !
 ! D13   D(13,2,3,15)          136.2642         estimate D2E/DX2                !
 ! D14   D(14,2,3,4)            59.4301         estimate D2E/DX2                !
 ! D15   D(14,2,3,15)         -105.3861         estimate D2E/DX2                !
 ! D16   D(2,3,4,5)            -66.6598         estimate D2E/DX2                !
 ! D17   D(2,3,4,6)             47.702          estimate D2E/DX2                !
 ! D18   D(2,3,4,7)            172.7817         estimate D2E/DX2                !
 ! D19   D(15,3,4,5)            98.2413         estimate D2E/DX2                !
 ! D20   D(15,3,4,6)          -147.3969         estimate D2E/DX2                !
 ! D21   D(15,3,4,7)           -22.3172         estimate D2E/DX2                !
 ! D22   D(3,4,5,16)            81.9776         estimate D2E/DX2                !
 ! D23   D(3,4,5,17)           -83.3103         estimate D2E/DX2                !
 ! D24   D(6,4,5,16)           -35.1777         estimate D2E/DX2                !
 ! D25   D(6,4,5,17)           159.5343         estimate D2E/DX2                !
 ! D26   D(7,4,5,16)          -157.2686         estimate D2E/DX2                !
 ! D27   D(7,4,5,17)            37.4435         estimate D2E/DX2                !
 ! D28   D(3,4,6,18)           -20.6555         estimate D2E/DX2                !
 ! D29   D(3,4,6,19)           154.6972         estimate D2E/DX2                !
 ! D30   D(5,4,6,18)            92.1877         estimate D2E/DX2                !
 ! D31   D(5,4,6,19)           -92.4595         estimate D2E/DX2                !
 ! D32   D(7,4,6,18)          -145.8158         estimate D2E/DX2                !
 ! D33   D(7,4,6,19)            29.5369         estimate D2E/DX2                !
 ! D34   D(3,4,7,8)            179.6708         estimate D2E/DX2                !
 ! D35   D(3,4,7,20)            58.2537         estimate D2E/DX2                !
 ! D36   D(3,4,7,21)           -58.376          estimate D2E/DX2                !
 ! D37   D(5,4,7,8)             63.4057         estimate D2E/DX2                !
 ! D38   D(5,4,7,20)           -58.0114         estimate D2E/DX2                !
 ! D39   D(5,4,7,21)          -174.6412         estimate D2E/DX2                !
 ! D40   D(6,4,7,8)            -55.7832         estimate D2E/DX2                !
 ! D41   D(6,4,7,20)          -177.2004         estimate D2E/DX2                !
 ! D42   D(6,4,7,21)            66.1699         estimate D2E/DX2                !
 ! D43   D(4,7,8,9)           -176.5293         estimate D2E/DX2                !
 ! D44   D(4,7,8,22)            63.028          estimate D2E/DX2                !
 ! D45   D(4,7,8,23)           -55.7227         estimate D2E/DX2                !
 ! D46   D(20,7,8,9)           -55.0732         estimate D2E/DX2                !
 ! D47   D(20,7,8,22)         -175.5159         estimate D2E/DX2                !
 ! D48   D(20,7,8,23)           65.7334         estimate D2E/DX2                !
 ! D49   D(21,7,8,9)            61.2012         estimate D2E/DX2                !
 ! D50   D(21,7,8,22)          -59.2415         estimate D2E/DX2                !
 ! D51   D(21,7,8,23)         -177.9922         estimate D2E/DX2                !
 ! D52   D(7,8,9,24)           -64.104          estimate D2E/DX2                !
 ! D53   D(7,8,9,25)          -179.8007         estimate D2E/DX2                !
 ! D54   D(22,8,9,24)           58.0192         estimate D2E/DX2                !
 ! D55   D(22,8,9,25)          -57.6776         estimate D2E/DX2                !
 ! D56   D(23,8,9,24)          174.4484         estimate D2E/DX2                !
 ! D57   D(23,8,9,25)           58.7516         estimate D2E/DX2                !
 --------------------------------------------------------------------------------
 Trust Radius=3.00D-01 FncErr=1.00D-07 GrdErr=1.00D-06 EigMax=2.50D+02 EigMin=1.00D-04
 Number of steps in this run=    133 maximum allowed number of steps=    150.
 GradGradGradGradGradGradGradGradGradGradGradGradGradGradGradGradGradGrad

                          Input orientation:                          
 ---------------------------------------------------------------------
 Center     Atomic      Atomic             Coordinates (Angstroms)
 Number     Number       Type             X           Y           Z
 ---------------------------------------------------------------------
      1          6           0        0.927820    0.055250    0.052320
      2          6           0        2.433580    0.158850    0.051810
      3          7           0        3.099180   -1.152930    0.036420
      4          6           0        4.540530   -1.242460    0.051630
      5          7           0        4.939190   -0.696910   -1.200000
      6          7           0        5.088200   -0.392780    1.062690
      7          6           0        5.020580   -2.696520    0.211260
      8          6           0        6.550330   -2.792940    0.219330
      9          7           0        6.998530   -4.172390    0.288550
     10          1           0        0.497140    1.060750    0.006660
     11          1           0        0.574760   -0.430050    0.966770
     12          1           0        0.570500   -0.519250   -0.805760
     13          1           0        2.738330    0.700460    0.949650
     14          1           0        2.762720    0.715630   -0.830450
     15          1           0        2.562400   -1.978580   -0.216950
     16          1           0        5.014790    0.306100   -1.334680
     17          1           0        4.948050   -1.253950   -2.046790
     18          1           0        4.601240    0.396860    1.473510
     19          1           0        5.988640   -0.560620    1.495910
     20          1           0        4.620440   -3.306820   -0.609930
     21          1           0        4.620670   -3.125890    1.140330
     22          1           0        6.970290   -2.257810    1.075870
     23          1           0        6.957590   -2.334570   -0.687720
     24          1           0        6.715480   -4.609810    1.166930
     25          1           0        8.022000   -4.201990    0.295580
 ---------------------------------------------------------------------
                    Distance matrix (angstroms):
                    1          2          3          4          5
     1  C    0.000000
     2  C    1.509320   0.000000
     3  N    2.484906   1.471063   0.000000
     4  C    3.838714   2.530397   1.444208   0.000000
     5  N    4.269091   2.928726   2.263255   1.422369   0.000000
     6  N    4.304688   2.893645   2.363738   1.429735   2.287895
     7  C    4.934388   3.856311   2.470833   1.539552   2.448820
     8  C    6.304974   5.068408   3.825379   2.543896   3.000602
     9  N    7.401504   6.297178   4.938182   3.831760   4.305302
    10  H    1.094806   2.136647   3.416413   4.653579   4.927190
    11  H    1.093794   2.153873   2.785822   4.150280   4.879995
    12  H    1.092716   2.160165   2.739533   4.125444   4.390039
    13  H    2.121189   1.091939   2.097440   2.798089   3.378968
    14  H    2.140617   1.093947   2.087148   2.787972   2.620851
    15  H    2.623132   2.158109   1.016871   2.127676   2.873708
    16  H    4.323195   2.933715   2.770965   2.131857   1.014832
    17  H    4.720436   3.566887   2.787165   2.137656   1.013620
    18  H    3.953542   2.603196   2.592925   2.170898   2.908298
    19  H    5.298599   3.904038   3.290885   2.155893   2.896179
    20  H    5.037612   4.151039   2.715003   2.169246   2.694701
    21  H    4.994052   4.093624   2.725091   2.176924   3.388000
    22  H    6.550522   5.241248   4.157729   2.825551   3.426567
    23  H    6.528172   5.218306   4.099754   2.753456   2.649207
    24  H    7.516791   6.505250   5.128908   4.160931   4.905950
    25  H    8.277117   7.092728   5.796386   4.575911   4.901639
                    6          7          8          9         10
     6  N    0.000000
     7  C    2.456974   0.000000
     8  C    2.934254   1.532807   0.000000
     9  N    4.305125   2.469099   1.452087   0.000000
    10  H    4.930089   5.883914   7.178946   8.350646   0.000000
    11  H    4.514613   5.047078   6.469108   7.465247   1.774914
    12  H    4.890472   5.057474   6.479108   7.474123   1.778147
    13  H    2.594194   4.158528   5.221930   6.506230   2.458042
    14  H    3.196937   4.222068   5.268595   6.564068   2.439818
    15  H    3.245290   2.596430   4.093545   4.974694   3.681416
    16  H    2.498240   3.377231   3.791686   5.160133   4.772615
    17  H    3.229570   2.680496   3.173498   4.263282   5.420802
    18  H    1.014610   3.367213   3.942936   5.294259   4.408632
    19  H    1.013233   2.673861   2.632186   3.939858   5.916357
    20  H    3.392357   1.098604   2.162457   2.685478   6.038001
    21  H    2.773897   1.098844   2.163951   2.734028   5.984702
    22  H    2.649674   2.177472   1.093797   2.070335   7.352396
    23  H    3.213892   2.165913   1.094853   2.081433   7.331287
    24  H    4.521310   2.728859   2.055781   1.021276   8.495247
    25  H    4.868852   3.358880   2.038884   1.023922   9.187134
                   11         12         13         14         15
    11  H    0.000000
    12  H    1.774778   0.000000
    13  H    2.441184   3.044445   0.000000
    14  H    3.054464   2.516221   1.780332   0.000000
    15  H    2.783855   2.538505   2.927313   2.770429   0.000000
    16  H    5.054944   4.551118   3.248993   2.343882   3.533171
    17  H    5.374572   4.609000   4.204906   3.183457   3.092690
    18  H    4.141631   4.720296   1.958835   2.964794   3.557701
    19  H    5.441244   5.886904   3.528915   4.176999   4.084559
    20  H    5.208581   4.920458   4.693924   4.436198   2.480763
    21  H    4.864881   5.194778   4.268550   4.700343   2.719376
    22  H    6.652474   6.893507   5.164957   5.493546   4.602048
    23  H    6.863312   6.641102   5.449270   5.188548   4.434642
    24  H    7.430942   7.641006   6.638064   6.926337   5.107501
    25  H    8.374928   8.384532   7.237333   7.287726   5.917218
                   16         17         18         19         20
    16  H    0.000000
    17  H    1.716191   0.000000
    18  H    2.839928   3.903583   0.000000
    19  H    3.116380   3.756895   1.685867   0.000000
    20  H    3.705937   2.527087   4.249510   3.721310   0.000000
    21  H    4.249654   3.710670   3.538524   2.928889   1.759587
    22  H    4.025962   3.853336   3.580194   2.005124   3.076384
    23  H    3.341582   2.655760   4.205236   2.975568   2.532507
    24  H    5.772051   4.971278   5.443413   4.127041   3.040429
    25  H    5.658969   4.860741   5.851371   4.339922   3.632064
                   21         22         23         24         25
    21  H    0.000000
    22  H    2.505680   0.000000
    23  H    3.070692   1.765305   0.000000
    24  H    2.567286   2.367514   2.945346   0.000000
    25  H    3.666148   2.344095   2.363706   1.622517   0.000000
 Stoichiometry    C5H16N4
 Framework group  C1[X(C5H16N4)]
 Deg. of freedom    69
 Full point group                 C1      NOp   1
 Largest Abelian subgroup         C1      NOp   1
 Largest concise Abelian subgroup C1      NOp   1
                         Standard orientation:                         
 ---------------------------------------------------------------------
 Center     Atomic      Atomic             Coordinates (Angstroms)
 Number     Number       Type             X           Y           Z
 ---------------------------------------------------------------------
      1          6           0        3.692257   -0.796229   -0.081329
      2          6           0        2.521689    0.156564   -0.082319
      3          7           0        1.224461   -0.527782    0.031256
      4          6           0       -0.005230    0.229574    0.028397
      5          7           0        0.039393    0.975671    1.238554
      6          7           0       -0.009949    1.180031   -1.039661
      7          6           0       -1.240593   -0.687739   -0.022962
      8          6           0       -2.546142    0.115388   -0.017843
      9          7           0       -3.708496   -0.754316    0.015403
     10          1           0        4.624245   -0.222528   -0.110763
     11          1           0        3.660286   -1.447641   -0.959410
     12          1           0        3.692744   -1.421404    0.814878
     13          1           0        2.543441    0.722344   -1.015995
     14          1           0        2.612839    0.850595    0.758355
     15          1           0        1.199791   -1.495715    0.341937
     16          1           0        0.560367    1.844394    1.300118
     17          1           0       -0.249750    0.575247    2.123700
     18          1           0        0.823248    1.519247   -1.508862
     19          1           0       -0.861685    1.537727   -1.455885
     20          1           0       -1.227376   -1.368893    0.838888
     21          1           0       -1.202796   -1.321423   -0.919887
     22          1           0       -2.620367    0.744688   -0.909394
     23          1           0       -2.574267    0.775685    0.855037
     24          1           0       -3.768503   -1.324271   -0.829910
     25          1           0       -4.561970   -0.188632    0.014659
 ---------------------------------------------------------------------
 Rotational constants (GHZ):           3.7024162           0.7002473           0.6748246
 Standard basis: 6-31G(2df,p) (6D, 7F)
 There are   359 symmetry adapted cartesian basis functions of A   symmetry.
 There are   332 symmetry adapted basis functions of A   symmetry.
   332 basis functions,   508 primitive gaussians,   359 cartesian basis functions
    37 alpha electrons       37 beta electrons
       nuclear repulsion energy       505.3121370402 Hartrees.
 NAtoms=   25 NActive=   25 NUniq=   25 SFac= 1.00D+00 NAtFMM=   60 NAOKFM=F Big=F
 Integral buffers will be    131072 words long.
 Raffenetti 2 integral format.
 Two-electron integral symmetry is turned on.
 One-electron integrals computed using PRISM.
 PrsmSu:  requested number of processors reduced to:  13 ShMem   1 Linda.
 NBasis=   332 RedAO= T EigKep=  2.79D-04  NBF=   332
 NBsUse=   332 1.00D-06 EigRej= -1.00D+00 NBFU=   332
 ExpMin= 1.61D-01 ExpMax= 4.17D+03 ExpMxC= 6.27D+02 IAcc=3 IRadAn=         5 AccDes= 0.00D+00
 Harris functional with IExCor=  402 and IRadAn=       5 diagonalized for initial guess.
 HarFok:  IExCor=  402 AccDes= 0.00D+00 IRadAn=         5 IDoV= 1 UseB2=F ITyADJ=14
 ICtDFT=  3500011 ScaDFX=  1.000000  1.000000  1.000000  1.000000
 FoFCou: FMM=F IPFlag=           0 FMFlag=      100000 FMFlg1=           0
         NFxFlg=           0 DoJE=T BraDBF=F KetDBF=T FulRan=T
         wScrn=  0.000000 ICntrl=       500 IOpCl=  0 I1Cent=   200000004 NGrid=           0
         NMat0=    1 NMatS0=      1 NMatT0=    0 NMatD0=    1 NMtDS0=    0 NMtDT0=    0
 Petite list used in FoFCou.
 Requested convergence on RMS density matrix=1.00D-08 within 128 cycles.
 Requested convergence on MAX density matrix=1.00D-06.
 Requested convergence on             energy=1.00D-06.
 No special actions if energy rises.
 Integral accuracy reduced to 1.0D-05 until final iterations.
 Initial convergence to 1.0D-05 achieved.  Increase integral accuracy.
 SCF Done:  E(RB3LYP) =  -419.146938420     A.U. after   12 cycles
            NFock= 12  Conv=0.43D-08     -V/T= 2.0077

 **********************************************************************

            Population analysis using the SCF density.

 **********************************************************************

 Orbital symmetries:
       Occupied  (A) (A) (A) (A) (A) (A) (A) (A) (A) (A) (A) (A)
                 (A) (A) (A) (A) (A) (A) (A) (A) (A) (A) (A) (A)
                 (A) (A) (A) (A) (A) (A) (A) (A) (A) (A) (A) (A)
                 (A)
       Virtual   (A) (A) (A) (A) (A) (A) (A) (A) (A) (A) (A) (A)
                 (A) (A) (A) (A) (A) (A) (A) (A) (A) (A) (A) (A)
                 (A) (A) (A) (A) (A) (A) (A) (A) (A) (A) (A) (A)
                 (A) (A) (A) (A) (A) (A) (A) (A) (A) (A) (A) (A)
                 (A) (A) (A) (A) (A) (A) (A) (A) (A) (A) (A) (A)
                 (A) (A) (A) (A) (A) (A) (A) (A) (A) (A) (A) (A)
                 (A) (A) (A) (A) (A) (A) (A) (A) (A) (A) (A) (A)
                 (A) (A) (A) (A) (A) (A) (A) (A) (A) (A) (A) (A)
                 (A) (A) (A) (A) (A) (A) (A) (A) (A) (A) (A) (A)
                 (A) (A) (A) (A) (A) (A) (A) (A) (A) (A) (A) (A)
                 (A) (A) (A) (A) (A) (A) (A) (A) (A) (A) (A) (A)
                 (A) (A) (A) (A) (A) (A) (A) (A) (A) (A) (A) (A)
                 (A) (A) (A) (A) (A) (A) (A) (A) (A) (A) (A) (A)
                 (A) (A) (A) (A) (A) (A) (A) (A) (A) (A) (A) (A)
                 (A) (A) (A) (A) (A) (A) (A) (A) (A) (A) (A) (A)
                 (A) (A) (A) (A) (A) (A) (A) (A) (A) (A) (A) (A)
                 (A) (A) (A) (A) (A) (A) (A) (A) (A) (A) (A) (A)
                 (A) (A) (A) (A) (A) (A) (A) (A) (A) (A) (A) (A)
                 (A) (A) (A) (A) (A) (A) (A) (A) (A) (A) (A) (A)
                 (A) (A) (A) (A) (A) (A) (A) (A) (A) (A) (A) (A)
                 (A) (A) (A) (A) (A) (A) (A) (A) (A) (A) (A) (A)
                 (A) (A) (A) (A) (A) (A) (A) (A) (A) (A) (A) (A)
                 (A) (A) (A) (A) (A) (A) (A) (A) (A) (A) (A) (A)
                 (A) (A) (A) (A) (A) (A) (A) (A) (A) (A) (A) (A)
                 (A) (A) (A) (A) (A) (A) (A)
 The electronic state is 1-A.
 Alpha  occ. eigenvalues --  -14.29920 -14.28286 -14.27553 -14.26594 -10.25447
 Alpha  occ. eigenvalues --  -10.19473 -10.19412 -10.17313 -10.16951  -0.93031
 Alpha  occ. eigenvalues --   -0.87148  -0.82898  -0.80402  -0.73909  -0.71899
 Alpha  occ. eigenvalues --   -0.62636  -0.58921  -0.57341  -0.50384  -0.49300
 Alpha  occ. eigenvalues --   -0.46688  -0.46187  -0.45032  -0.43201  -0.42810
 Alpha  occ. eigenvalues --   -0.42151  -0.40421  -0.37766  -0.35777  -0.34887
 Alpha  occ. eigenvalues --   -0.34754  -0.33772  -0.32985  -0.22639  -0.22280
 Alpha  occ. eigenvalues --   -0.20692  -0.15953
 Alpha virt. eigenvalues --    0.07845   0.09099   0.10356   0.11338   0.11721
 Alpha virt. eigenvalues --    0.13352   0.13825   0.15307   0.17035   0.17383
 Alpha virt. eigenvalues --    0.18181   0.19243   0.19942   0.20423   0.21245
 Alpha virt. eigenvalues --    0.23057   0.23687   0.25338   0.26048   0.26923
 Alpha virt. eigenvalues --    0.28852   0.31257   0.33272   0.35303   0.46381
 Alpha virt. eigenvalues --    0.47399   0.49145   0.49550   0.51122   0.52399
 Alpha virt. eigenvalues --    0.52827   0.54539   0.54779   0.56715   0.57634
 Alpha virt. eigenvalues --    0.60352   0.62082   0.62443   0.64259   0.65119
 Alpha virt. eigenvalues --    0.67260   0.68672   0.69932   0.71514   0.72340
 Alpha virt. eigenvalues --    0.73747   0.74360   0.74518   0.75434   0.75558
 Alpha virt. eigenvalues --    0.76161   0.76569   0.77680   0.78760   0.79761
 Alpha virt. eigenvalues --    0.82316   0.82820   0.83026   0.83993   0.84425
 Alpha virt. eigenvalues --    0.85536   0.86741   0.87240   0.88751   0.89221
 Alpha virt. eigenvalues --    0.90410   0.91708   0.92534   0.94499   0.99696
 Alpha virt. eigenvalues --    1.02926   1.05397   1.09718   1.11836   1.13083
 Alpha virt. eigenvalues --    1.16372   1.19021   1.21849   1.23814   1.25993
 Alpha virt. eigenvalues --    1.27957   1.30703   1.31494   1.33563   1.36200
 Alpha virt. eigenvalues --    1.37651   1.39009   1.42779   1.44569   1.47131
 Alpha virt. eigenvalues --    1.49737   1.49839   1.52422   1.53771   1.55932
 Alpha virt. eigenvalues --    1.57045   1.59605   1.60875   1.62432   1.65256
 Alpha virt. eigenvalues --    1.67839   1.69641   1.72860   1.74404   1.74977
 Alpha virt. eigenvalues --    1.80150   1.81934   1.83658   1.87818   1.89605
 Alpha virt. eigenvalues --    1.91456   1.93877   1.95832   1.96280   1.97252
 Alpha virt. eigenvalues --    1.99878   2.02381   2.06371   2.06538   2.07469
 Alpha virt. eigenvalues --    2.11045   2.17311   2.19229   2.20262   2.21805
 Alpha virt. eigenvalues --    2.26434   2.29738   2.32992   2.35525   2.38793
 Alpha virt. eigenvalues --    2.41845   2.42684   2.44964   2.47140   2.48417
 Alpha virt. eigenvalues --    2.50020   2.53432   2.55356   2.58980   2.59854
 Alpha virt. eigenvalues --    2.60972   2.62966   2.67999   2.72430   2.73971
 Alpha virt. eigenvalues --    2.77790   2.78373   2.79052   2.81590   2.83377
 Alpha virt. eigenvalues --    2.84247   2.85543   2.86488   2.88864   2.90295
 Alpha virt. eigenvalues --    2.91298   2.92339   2.93405   2.96013   2.96610
 Alpha virt. eigenvalues --    2.98859   2.99712   3.00739   3.03385   3.04617
 Alpha virt. eigenvalues --    3.06541   3.09916   3.11120   3.11974   3.13864
 Alpha virt. eigenvalues --    3.16911   3.19035   3.20617   3.28089   3.28295
 Alpha virt. eigenvalues --    3.31984   3.33554   3.34557   3.37209   3.38454
 Alpha virt. eigenvalues --    3.39322   3.42513   3.46924   3.54638   3.55812
 Alpha virt. eigenvalues --    3.57725   3.59410   3.60785   3.61596   3.62414
 Alpha virt. eigenvalues --    3.64577   3.70921   3.73943   3.75076   3.77175
 Alpha virt. eigenvalues --    3.77831   3.81080   3.84790   3.87708   3.89414
 Alpha virt. eigenvalues --    3.94994   3.97042   3.99869   4.00460   4.03565
 Alpha virt. eigenvalues --    4.08403   4.09710   4.12502   4.14694   4.17317
 Alpha virt. eigenvalues --    4.18684   4.20323   4.21527   4.23543   4.24201
 Alpha virt. eigenvalues --    4.25081   4.28014   4.32973   4.33166   4.34235
 Alpha virt. eigenvalues --    4.35519   4.37950   4.41321   4.42681   4.44555
 Alpha virt. eigenvalues --    4.46743   4.46784   4.47612   4.50267   4.52317
 Alpha virt. eigenvalues --    4.52753   4.55599   4.57595   4.57753   4.58670
 Alpha virt. eigenvalues --    4.60859   4.64564   4.65765   4.66937   4.68548
 Alpha virt. eigenvalues --    4.68931   4.70354   4.70933   4.73231   4.73525
 Alpha virt. eigenvalues --    4.75106   4.76481   4.79470   4.80692   4.82167
 Alpha virt. eigenvalues --    4.83154   4.86749   4.88711   4.89205   4.92278
 Alpha virt. eigenvalues --    4.93405   4.94828   4.96937   4.98759   5.00673
 Alpha virt. eigenvalues --    5.01655   5.03372   5.08150   5.09051   5.11961
 Alpha virt. eigenvalues --    5.14343   5.16546   5.20084   5.23552   5.27472
 Alpha virt. eigenvalues --    5.28206   5.36235   5.41989   5.43107   5.47204
 Alpha virt. eigenvalues --    5.50313   5.53922   5.63963   5.69072   5.74633
 Alpha virt. eigenvalues --    5.83960   6.10792   9.01833   9.99234  11.20149
 Alpha virt. eigenvalues --   11.30685  11.43278  11.44004  11.48913  11.67996
 Alpha virt. eigenvalues --   11.93581  12.55641  12.80107  14.57499  17.77307
          Condensed to atoms (all electrons):
               1          2          3          4          5          6
     1  C    4.959679   0.409215  -0.029690   0.000071   0.000600   0.000402
     2  C    0.409215   4.744220   0.418052  -0.050719  -0.006384  -0.003685
     3  N   -0.029690   0.418052   6.460871   0.463045  -0.157247  -0.038216
     4  C    0.000071  -0.050719   0.463045   4.459265   0.368450   0.312396
     5  N    0.000600  -0.006384  -0.157247   0.368450   6.708117  -0.106672
     6  N    0.000402  -0.003685  -0.038216   0.312396  -0.106672   6.713440
     7  C   -0.000187   0.003791  -0.046221   0.345361  -0.028612  -0.027769
     8  C    0.000001  -0.000169   0.001637  -0.027928  -0.010303  -0.008732
     9  N   -0.000000  -0.000000  -0.000010   0.000729   0.000377   0.000178
    10  H    0.372999  -0.024846   0.002160  -0.000091   0.000030  -0.000002
    11  H    0.373303  -0.026640   0.002228   0.000302   0.000011  -0.000038
    12  H    0.376359  -0.027771  -0.002585   0.000084  -0.000024   0.000012
    13  H   -0.028943   0.358361  -0.040239  -0.011744  -0.001545   0.004538
    14  H   -0.035680   0.337893  -0.066963   0.002905   0.025960  -0.002886
    15  H   -0.002738  -0.048070   0.348870  -0.042938   0.007149   0.004901
    16  H    0.000019   0.001287   0.000926  -0.029393   0.337369   0.008953
    17  H    0.000024   0.000576   0.006328  -0.035394   0.332040   0.008987
    18  H   -0.000371   0.002610  -0.007219  -0.028417   0.001171   0.346820
    19  H   -0.000004   0.000055   0.003677  -0.031330   0.003619   0.350879
    20  H   -0.000010   0.000164  -0.001149  -0.010406  -0.004061   0.004520
    21  H   -0.000013   0.000027   0.002177  -0.014910   0.003669  -0.002582
    22  H   -0.000000   0.000006   0.000115   0.001565   0.001074  -0.002215
    23  H   -0.000000  -0.000009   0.000321  -0.003659   0.017969  -0.000833
    24  H   -0.000000   0.000000  -0.000001  -0.000171  -0.000007   0.000013
    25  H    0.000000  -0.000000   0.000000  -0.000263   0.000014   0.000003
               7          8          9         10         11         12
     1  C   -0.000187   0.000001  -0.000000   0.372999   0.373303   0.376359
     2  C    0.003791  -0.000169  -0.000000  -0.024846  -0.026640  -0.027771
     3  N   -0.046221   0.001637  -0.000010   0.002160   0.002228  -0.002585
     4  C    0.345361  -0.027928   0.000729  -0.000091   0.000302   0.000084
     5  N   -0.028612  -0.010303   0.000377   0.000030   0.000011  -0.000024
     6  N   -0.027769  -0.008732   0.000178  -0.000002  -0.000038   0.000012
     7  C    5.020173   0.407518  -0.033594   0.000003   0.000007  -0.000016
     8  C    0.407518   4.842360   0.373573  -0.000000   0.000000  -0.000000
     9  N   -0.033594   0.373573   6.562880   0.000000   0.000000   0.000000
    10  H    0.000003  -0.000000   0.000000   0.598439  -0.029902  -0.030169
    11  H    0.000007   0.000000   0.000000  -0.029902   0.600336  -0.036867
    12  H   -0.000016  -0.000000   0.000000  -0.030169  -0.036867   0.604035
    13  H   -0.000074  -0.000010   0.000000  -0.002206  -0.009365   0.006576
    14  H    0.000574   0.000013  -0.000000  -0.000019   0.006965  -0.007333
    15  H   -0.004482  -0.000074  -0.000005  -0.000105   0.001127   0.004277
    16  H    0.005261   0.000462   0.000004  -0.000003  -0.000000   0.000006
    17  H   -0.006123   0.000911  -0.000012  -0.000001  -0.000001   0.000009
    18  H    0.004982   0.000193  -0.000002   0.000010   0.000001   0.000011
    19  H   -0.010865   0.003124  -0.000422  -0.000000   0.000000   0.000000
    20  H    0.330616  -0.029979   0.002915   0.000000  -0.000001   0.000003
    21  H    0.350281  -0.035515  -0.001864   0.000000   0.000008  -0.000002
    22  H   -0.050023   0.372654  -0.048776   0.000000   0.000000  -0.000000
    23  H   -0.023133   0.343414  -0.019347  -0.000000  -0.000000   0.000000
    24  H   -0.002363  -0.052839   0.339826  -0.000000  -0.000000   0.000000
    25  H    0.005062  -0.048111   0.340615  -0.000000   0.000000  -0.000000
              13         14         15         16         17         18
     1  C   -0.028943  -0.035680  -0.002738   0.000019   0.000024  -0.000371
     2  C    0.358361   0.337893  -0.048070   0.001287   0.000576   0.002610
     3  N   -0.040239  -0.066963   0.348870   0.000926   0.006328  -0.007219
     4  C   -0.011744   0.002905  -0.042938  -0.029393  -0.035394  -0.028417
     5  N   -0.001545   0.025960   0.007149   0.337369   0.332040   0.001171
     6  N    0.004538  -0.002886   0.004901   0.008953   0.008987   0.346820
     7  C   -0.000074   0.000574  -0.004482   0.005261  -0.006123   0.004982
     8  C   -0.000010   0.000013  -0.000074   0.000462   0.000911   0.000193
     9  N    0.000000  -0.000000  -0.000005   0.000004  -0.000012  -0.000002
    10  H   -0.002206  -0.000019  -0.000105  -0.000003  -0.000001   0.000010
    11  H   -0.009365   0.006965   0.001127  -0.000000  -0.000001   0.000001
    12  H    0.006576  -0.007333   0.004277   0.000006   0.000009   0.000011
    13  H    0.701331  -0.071112   0.005188   0.000152   0.000026   0.006274
    14  H   -0.071112   0.738058   0.003809   0.000073  -0.000535  -0.000151
    15  H    0.005188   0.003809   0.508873  -0.000302   0.000057  -0.000062
    16  H    0.000152   0.000073  -0.000302   0.483437  -0.028554   0.001167
    17  H    0.000026  -0.000535   0.000057  -0.028554   0.513512  -0.000235
    18  H    0.006274  -0.000151  -0.000062   0.001167  -0.000235   0.474887
    19  H   -0.000166   0.000016  -0.000171  -0.000110  -0.000243  -0.032579
    20  H    0.000025  -0.000036   0.005037  -0.000185   0.001933  -0.000143
    21  H   -0.000041   0.000018   0.001321  -0.000221  -0.000301  -0.000090
    22  H   -0.000001  -0.000000   0.000017  -0.000076  -0.000047   0.000066
    23  H    0.000001  -0.000010  -0.000017  -0.000377  -0.000101  -0.000029
    24  H    0.000000   0.000000   0.000001  -0.000000   0.000001  -0.000001
    25  H   -0.000000   0.000000   0.000000  -0.000001   0.000001  -0.000000
              19         20         21         22         23         24
     1  C   -0.000004  -0.000010  -0.000013  -0.000000  -0.000000  -0.000000
     2  C    0.000055   0.000164   0.000027   0.000006  -0.000009   0.000000
     3  N    0.003677  -0.001149   0.002177   0.000115   0.000321  -0.000001
     4  C   -0.031330  -0.010406  -0.014910   0.001565  -0.003659  -0.000171
     5  N    0.003619  -0.004061   0.003669   0.001074   0.017969  -0.000007
     6  N    0.350879   0.004520  -0.002582  -0.002215  -0.000833   0.000013
     7  C   -0.010865   0.330616   0.350281  -0.050023  -0.023133  -0.002363
     8  C    0.003124  -0.029979  -0.035515   0.372654   0.343414  -0.052839
     9  N   -0.000422   0.002915  -0.001864  -0.048776  -0.019347   0.339826
    10  H   -0.000000   0.000000   0.000000   0.000000  -0.000000  -0.000000
    11  H    0.000000  -0.000001   0.000008   0.000000  -0.000000  -0.000000
    12  H    0.000000   0.000003  -0.000002  -0.000000   0.000000   0.000000
    13  H   -0.000166   0.000025  -0.000041  -0.000001   0.000001   0.000000
    14  H    0.000016  -0.000036   0.000018  -0.000000  -0.000010   0.000000
    15  H   -0.000171   0.005037   0.001321   0.000017  -0.000017   0.000001
    16  H   -0.000110  -0.000185  -0.000221  -0.000076  -0.000377  -0.000000
    17  H   -0.000243   0.001933  -0.000301  -0.000047  -0.000101   0.000001
    18  H   -0.032579  -0.000143  -0.000090   0.000066  -0.000029  -0.000001
    19  H    0.474459   0.000137   0.000637   0.010703  -0.000124  -0.000047
    20  H    0.000137   0.638575  -0.039573   0.007105  -0.004812  -0.000483
    21  H    0.000637  -0.039573   0.632760  -0.006081   0.006090   0.004719
    22  H    0.010703   0.007105  -0.006081   0.699562  -0.046897  -0.005903
    23  H   -0.000124  -0.004812   0.006090  -0.046897   0.614165   0.006411
    24  H   -0.000047  -0.000483   0.004719  -0.005903   0.006411   0.525743
    25  H   -0.000015  -0.000114  -0.000041  -0.003335  -0.002797  -0.033306
              25
     1  C    0.000000
     2  C   -0.000000
     3  N    0.000000
     4  C   -0.000263
     5  N    0.000014
     6  N    0.000003
     7  C    0.005062
     8  C   -0.048111
     9  N    0.340615
    10  H   -0.000000
    11  H    0.000000
    12  H   -0.000000
    13  H   -0.000000
    14  H    0.000000
    15  H    0.000000
    16  H   -0.000001
    17  H    0.000001
    18  H   -0.000000
    19  H   -0.000015
    20  H   -0.000114
    21  H   -0.000041
    22  H   -0.003335
    23  H   -0.002797
    24  H   -0.033306
    25  H    0.521628
 Mulliken charges:
               1
     1  C   -0.395036
     2  C   -0.087965
     3  N   -0.320867
     4  C    0.333191
     5  N   -0.492763
     6  N   -0.562411
     7  C   -0.240165
     8  C   -0.132199
     9  N   -0.517067
    10  H    0.113703
    11  H    0.118525
    12  H    0.113393
    13  H    0.082975
    14  H    0.068443
    15  H    0.208337
    16  H    0.220107
    17  H    0.207141
    18  H    0.231110
    19  H    0.228771
    20  H    0.099922
    21  H    0.099528
    22  H    0.070487
    23  H    0.113772
    24  H    0.218408
    25  H    0.220661
 Sum of Mulliken charges =  -0.00000
 Mulliken charges with hydrogens summed into heavy atoms:
               1
     1  C   -0.049416
     2  C    0.063453
     3  N   -0.112531
     4  C    0.333191
     5  N   -0.065514
     6  N   -0.102529
     7  C   -0.040715
     8  C    0.052060
     9  N   -0.077998
 Electronic spatial extent (au):  <R**2>=           1835.2481
 Charge=             -0.0000 electrons
 Dipole moment (field-independent basis, Debye):
    X=             -0.0212    Y=              0.5731    Z=             -0.8277  Tot=              1.0070
 Quadrupole moment (field-independent basis, Debye-Ang):
   XX=            -53.6492   YY=            -56.1923   ZZ=            -55.3311
   XY=             -1.5044   XZ=              4.4915   YZ=             -0.5585
 Traceless Quadrupole moment (field-independent basis, Debye-Ang):
   XX=              1.4083   YY=             -1.1348   ZZ=             -0.2736
   XY=             -1.5044   XZ=              4.4915   YZ=             -0.5585
 Octapole moment (field-independent basis, Debye-Ang**2):
  XXX=            -24.1943  YYY=              2.7442  ZZZ=              3.4561  XYY=              4.6157
  XXY=             14.5428  XXZ=            -19.2277  XZZ=             -3.4491  YZZ=              5.3985
  YYZ=             -3.5979  XYZ=             -6.9977
 Hexadecapole moment (field-independent basis, Debye-Ang**3):
 XXXX=          -1773.1541 YYYY=           -282.3274 ZZZZ=           -194.4599 XXXY=            -28.2002
 XXXZ=             63.1122 YYYX=              4.5760 YYYZ=             -0.2386 ZZZX=              1.9041
 ZZZY=             -2.8471 XXYY=           -375.7634 XXZZ=           -350.5494 YYZZ=            -70.5350
 XXYZ=             22.2878 YYXZ=             15.9770 ZZXY=              3.7673
 N-N= 5.053121370402D+02 E-N=-1.985880868921D+03  KE= 4.159374968921D+02
 PrsmSu:  requested number of processors reduced to:  13 ShMem   1 Linda.
 Calling FoFJK, ICntrl=      2127 FMM=F ISym2X=0 I1Cent= 0 IOpClX= 0 NMat=1 NMatS=1 NMatT=0.
 ***** Axes restored to original set *****
 -------------------------------------------------------------------
 Center     Atomic                   Forces (Hartrees/Bohr)
 Number     Number              X              Y              Z
 -------------------------------------------------------------------
      1        6          -0.003900792   -0.000874120    0.002484880
      2        6           0.015121523   -0.026851920   -0.007887162
      3        7          -0.036032909   -0.011245092    0.039856196
      4        6          -0.018497274    0.020428844   -0.011235142
      5        7           0.049066215    0.005175329   -0.046559900
      6        7           0.008650355    0.014758795    0.034478601
      7        6           0.002491609   -0.000139204   -0.000305037
      8        6           0.001488620   -0.001946191    0.003119907
      9        7           0.007206704   -0.018254743   -0.003273009
     10        1          -0.001949433   -0.001303219   -0.000656757
     11        1          -0.001442183   -0.000856890   -0.000206196
     12        1          -0.001554612   -0.000115015   -0.001456602
     13        1           0.000737055    0.005295031    0.001639429
     14        1           0.000621420    0.008875753   -0.001925118
     15        1           0.005898158    0.011043313    0.001209222
     16        1          -0.000732050   -0.012440850    0.006090407
     17        1          -0.006554985    0.004005916    0.006542638
     18        1          -0.001058089   -0.013261479   -0.008791783
     19        1          -0.009186260   -0.003254069   -0.010333238
     20        1           0.002083998    0.001258403   -0.000503072
     21        1          -0.001026528    0.004363525   -0.001108513
     22        1          -0.002430931    0.011038137    0.002239979
     23        1          -0.001551264    0.000229422    0.000610278
     24        1          -0.000573240    0.003761434   -0.003008008
     25        1          -0.006875104    0.000308891   -0.001022000
 -------------------------------------------------------------------
 Cartesian Forces:  Max     0.049066215 RMS     0.013015656

 GradGradGradGradGradGradGradGradGradGradGradGradGradGradGradGradGradGrad
 Berny optimization.
 FormGI is forming the generalized inverse of G from B-inverse, IUseBI=4.
 Internal  Forces:  Max     0.040313594 RMS     0.007985860
 Search for a local minimum.
 Step number   1 out of a maximum of  133
 All quantities printed in internal units (Hartrees-Bohrs-Radians)
 Mixed Optimization -- RFO/linear search
 Second derivative matrix not updated -- first step.
 ITU=  0
     Eigenvalues ---    0.00243   0.00332   0.00643   0.00752   0.01003
     Eigenvalues ---    0.01029   0.01107   0.01298   0.01311   0.01396
     Eigenvalues ---    0.01536   0.03538   0.04307   0.04326   0.04496
     Eigenvalues ---    0.04789   0.05261   0.05404   0.05628   0.05720
     Eigenvalues ---    0.05911   0.05920   0.08167   0.08258   0.09410
     Eigenvalues ---    0.09428   0.12089   0.12772   0.12861   0.15512
     Eigenvalues ---    0.16000   0.16000   0.16000   0.16000   0.16000
     Eigenvalues ---    0.16000   0.16000   0.16000   0.16000   0.16251
     Eigenvalues ---    0.16903   0.21879   0.21949   0.22050   0.22078
     Eigenvalues ---    0.28559   0.29166   0.31419   0.33810   0.33837
     Eigenvalues ---    0.34258   0.34263   0.34360   0.34378   0.34378
     Eigenvalues ---    0.34501   0.34590   0.35613   0.37973   0.39014
     Eigenvalues ---    0.41027   0.42106   0.43718   0.44135   0.44841
     Eigenvalues ---    0.45173   0.45209   0.45372   0.45435
 RFO step:  Lambda=-3.70607794D-02 EMin= 2.42750984D-03
 Linear search not attempted -- first point.
 Maximum step size (   0.300) exceeded in Quadratic search.
    -- Step size scaled by   0.945
 Iteration  1 RMS(Cart)=  0.15098190 RMS(Int)=  0.00527133
 Iteration  2 RMS(Cart)=  0.01108072 RMS(Int)=  0.00138943
 Iteration  3 RMS(Cart)=  0.00003890 RMS(Int)=  0.00138926
 Iteration  4 RMS(Cart)=  0.00000007 RMS(Int)=  0.00138926
 Variable       Old X    -DE/DX   Delta X   Delta X   Delta X     New X
                                 (Linear)    (Quad)   (Total)
    R1        2.85220   0.00904   0.00000   0.02433   0.02433   2.87653
    R2        2.06888  -0.00040   0.00000  -0.00100  -0.00100   2.06788
    R3        2.06697   0.00067   0.00000   0.00167   0.00167   2.06864
    R4        2.06493   0.00171   0.00000   0.00424   0.00424   2.06917
    R5        2.77991  -0.01766   0.00000  -0.04243  -0.04243   2.73748
    R6        2.06347   0.00418   0.00000   0.01031   0.01031   2.07378
    R7        2.06726   0.00626   0.00000   0.01553   0.01553   2.08279
    R8        2.72916   0.02112   0.00000   0.04671   0.04671   2.77587
    R9        1.92161  -0.01238   0.00000  -0.02410  -0.02410   1.89751
   R10        2.68789   0.04031   0.00000   0.08315   0.08315   2.77104
   R11        2.70181   0.00920   0.00000   0.01944   0.01944   2.72125
   R12        2.90933  -0.00067   0.00000  -0.00196  -0.00196   2.90737
   R13        1.91775  -0.01316   0.00000  -0.02544  -0.02544   1.89232
   R14        1.91546  -0.00773   0.00000  -0.01487  -0.01487   1.90059
   R15        1.91734  -0.01337   0.00000  -0.02583  -0.02583   1.89150
   R16        1.91473  -0.01204   0.00000  -0.02316  -0.02316   1.89158
   R17        2.89659  -0.00243   0.00000  -0.00699  -0.00699   2.88960
   R18        2.07606  -0.00108   0.00000  -0.00272  -0.00272   2.07334
   R19        2.07651  -0.00227   0.00000  -0.00572  -0.00572   2.07080
   R20        2.74405   0.01305   0.00000   0.02959   0.02959   2.77364
   R21        2.06698   0.00622   0.00000   0.01544   0.01544   2.08241
   R22        2.06897  -0.00099   0.00000  -0.00246  -0.00246   2.06652
   R23        1.92993  -0.00404   0.00000  -0.00798  -0.00798   1.92195
   R24        1.93493  -0.00689   0.00000  -0.01372  -0.01372   1.92121
    A1        1.90647   0.00289   0.00000   0.01439   0.01434   1.92080
    A2        1.93132   0.00141   0.00000   0.00762   0.00757   1.93888
    A3        1.94127   0.00036   0.00000   0.00033   0.00033   1.94160
    A4        1.89165  -0.00147   0.00000  -0.00421  -0.00431   1.88734
    A5        1.89809  -0.00213   0.00000  -0.01192  -0.01191   1.88617
    A6        1.89409  -0.00121   0.00000  -0.00682  -0.00682   1.88727
    A7        1.97163  -0.01026   0.00000  -0.03500  -0.03483   1.93680
    A8        1.88830   0.00246   0.00000   0.00278   0.00288   1.89119
    A9        1.91280   0.00070   0.00000  -0.00212  -0.00178   1.91102
   A10        1.90141   0.00375   0.00000   0.01601   0.01581   1.91722
   A11        1.88524   0.00700   0.00000   0.03983   0.03974   1.92498
   A12        1.90362  -0.00360   0.00000  -0.02181  -0.02214   1.88148
   A13        2.10219   0.01152   0.00000   0.03985   0.03957   2.14176
   A14        2.08036  -0.00711   0.00000  -0.03127  -0.03153   2.04884
   A15        2.07045  -0.00478   0.00000  -0.01998  -0.02030   2.05015
   A16        1.82005   0.02825   0.00000   0.18531   0.18425   2.00430
   A17        1.93147  -0.00655   0.00000  -0.03133  -0.03994   1.89153
   A18        1.95071  -0.01456   0.00000  -0.09155  -0.09027   1.86044
   A19        1.86186   0.00137   0.00000   0.03589   0.03298   1.89485
   A20        1.94561  -0.01557   0.00000  -0.07529  -0.07091   1.87470
   A21        1.94822   0.00857   0.00000  -0.00679  -0.00980   1.93842
   A22        2.11384  -0.00408   0.00000  -0.02231  -0.02281   2.09103
   A23        2.12563  -0.00064   0.00000  -0.00580  -0.00630   2.11932
   A24        2.01710   0.00396   0.00000   0.01615   0.01563   2.03273
   A25        2.17124  -0.00608   0.00000  -0.02936  -0.02941   2.14183
   A26        2.14639  -0.00409   0.00000  -0.01984  -0.01989   2.12650
   A27        1.96310   0.01010   0.00000   0.04819   0.04815   2.01124
   A28        1.95104   0.01254   0.00000   0.04696   0.04707   1.99811
   A29        1.91092  -0.00318   0.00000  -0.01356  -0.01343   1.89749
   A30        1.92116  -0.00641   0.00000  -0.02813  -0.02857   1.89258
   A31        1.90974  -0.00546   0.00000  -0.02392  -0.02371   1.88603
   A32        1.91153  -0.00105   0.00000   0.00733   0.00757   1.91910
   A33        1.85706   0.00304   0.00000   0.00921   0.00897   1.86603
   A34        1.94771  -0.00654   0.00000  -0.02229  -0.02232   1.92539
   A35        1.93535  -0.00342   0.00000  -0.02035  -0.02024   1.91510
   A36        1.91829   0.00089   0.00000  -0.01190  -0.01225   1.90603
   A37        1.88486   0.00999   0.00000   0.06834   0.06835   1.95321
   A38        1.89905   0.00081   0.00000  -0.00372  -0.00423   1.89483
   A39        1.87666  -0.00136   0.00000  -0.00824  -0.00884   1.86782
   A40        1.94157  -0.00420   0.00000  -0.02009  -0.02009   1.92148
   A41        1.91379   0.00056   0.00000   0.00271   0.00271   1.91651
   A42        1.83252   0.00175   0.00000   0.00845   0.00845   1.84096
    D1       -3.08607  -0.00061   0.00000  -0.00800  -0.00797  -3.09404
    D2        1.09068  -0.00051   0.00000  -0.00786  -0.00787   1.08282
    D3       -0.98308   0.00198   0.00000   0.01800   0.01807  -0.96502
    D4        1.11595  -0.00147   0.00000  -0.01650  -0.01653   1.09942
    D5       -0.99048  -0.00137   0.00000  -0.01637  -0.01643  -1.00691
    D6       -3.06424   0.00112   0.00000   0.00950   0.00951  -3.05474
    D7       -0.99079  -0.00115   0.00000  -0.01324  -0.01325  -1.00404
    D8       -3.09722  -0.00104   0.00000  -0.01311  -0.01314  -3.11036
    D9        1.11219   0.00145   0.00000   0.01275   0.01279   1.12499
   D10       -3.12729  -0.00174   0.00000  -0.03508  -0.03510   3.12079
   D11        0.27931   0.00063   0.00000   0.01709   0.01692   0.29623
   D12       -1.02834  -0.00266   0.00000  -0.04307  -0.04320  -1.07154
   D13        2.37826  -0.00029   0.00000   0.00910   0.00883   2.38708
   D14        1.03725  -0.00093   0.00000  -0.03770  -0.03732   0.99993
   D15       -1.83933   0.00145   0.00000   0.01447   0.01470  -1.82464
   D16       -1.16343  -0.00488   0.00000   0.00244   0.00074  -1.16269
   D17        0.83256   0.00872   0.00000   0.12804   0.12648   0.95904
   D18        3.01561   0.00421   0.00000   0.02771   0.03112   3.04673
   D19        1.71463  -0.00761   0.00000  -0.05119  -0.05299   1.66164
   D20       -2.57256   0.00599   0.00000   0.07441   0.07275  -2.49981
   D21       -0.38951   0.00148   0.00000  -0.02592  -0.02261  -0.41212
   D22        1.43078   0.00550   0.00000   0.04528   0.04978   1.48056
   D23       -1.45404   0.00852   0.00000   0.09967   0.10407  -1.34997
   D24       -0.61397  -0.00089   0.00000  -0.02160  -0.02540  -0.63937
   D25        2.78440   0.00213   0.00000   0.03279   0.02889   2.81329
   D26       -2.74485  -0.00299   0.00000   0.00854   0.00799  -2.73687
   D27        0.65351   0.00002   0.00000   0.06293   0.06228   0.71580
   D28       -0.36051  -0.01477   0.00000  -0.09814  -0.09648  -0.45699
   D29        2.69998  -0.01554   0.00000  -0.11270  -0.11104   2.58894
   D30        1.60898   0.01594   0.00000   0.12333   0.12173   1.73071
   D31       -1.61372   0.01517   0.00000   0.10877   0.10717  -1.50655
   D32       -2.54497   0.00281   0.00000   0.04998   0.04991  -2.49505
   D33        0.51552   0.00204   0.00000   0.03541   0.03535   0.55087
   D34        3.13585   0.00836   0.00000   0.06502   0.06618  -3.08116
   D35        1.01672   0.00916   0.00000   0.07356   0.07468   1.09140
   D36       -1.01885   0.01106   0.00000   0.08663   0.08742  -0.93143
   D37        1.10664  -0.00776   0.00000  -0.06035  -0.06116   1.04548
   D38       -1.01249  -0.00695   0.00000  -0.05181  -0.05266  -1.06515
   D39       -3.04806  -0.00505   0.00000  -0.03874  -0.03992  -3.08798
   D40       -0.97360  -0.00477   0.00000  -0.05058  -0.05052  -1.02412
   D41       -3.09273  -0.00396   0.00000  -0.04204  -0.04203  -3.13476
   D42        1.15488  -0.00207   0.00000  -0.02897  -0.02928   1.12560
   D43       -3.08102   0.00282   0.00000   0.03576   0.03590  -3.04512
   D44        1.10005  -0.00311   0.00000  -0.02206  -0.02174   1.07831
   D45       -0.97255   0.00014   0.00000   0.00836   0.00860  -0.96394
   D46       -0.96121   0.00332   0.00000   0.03318   0.03303  -0.92818
   D47       -3.06333  -0.00261   0.00000  -0.02464  -0.02460  -3.08793
   D48        1.14726   0.00063   0.00000   0.00578   0.00574   1.15300
   D49        1.06816   0.00327   0.00000   0.03481   0.03453   1.10269
   D50       -1.03396  -0.00266   0.00000  -0.02301  -0.02311  -1.05706
   D51       -3.10655   0.00059   0.00000   0.00741   0.00723  -3.09932
   D52       -1.11883  -0.00037   0.00000  -0.01462  -0.01451  -1.13333
   D53       -3.13811  -0.00039   0.00000  -0.01485  -0.01474   3.13033
   D54        1.01263  -0.00207   0.00000  -0.00822  -0.00843   1.00419
   D55       -1.00666  -0.00209   0.00000  -0.00845  -0.00866  -1.01533
   D56        3.04470   0.00217   0.00000   0.01707   0.01718   3.06188
   D57        1.02541   0.00215   0.00000   0.01684   0.01695   1.04236
         Item               Value     Threshold  Converged?
 Maximum Force            0.040314     0.000450     NO 
 RMS     Force            0.007986     0.000300     NO 
 Maximum Displacement     0.596229     0.001800     NO 
 RMS     Displacement     0.151773     0.001200     NO 
 Predicted change in Energy=-2.274462D-02
 GradGradGradGradGradGradGradGradGradGradGradGradGradGradGradGradGradGrad

                          Input orientation:                          
 ---------------------------------------------------------------------
 Center     Atomic      Atomic             Coordinates (Angstroms)
 Number     Number       Type             X           Y           Z
 ---------------------------------------------------------------------
      1          6           0        0.892404   -0.107421    0.116197
      2          6           0        2.388633    0.166561    0.058690
      3          7           0        3.143129   -1.069938    0.075320
      4          6           0        4.609845   -1.105988    0.003321
      5          7           0        5.175523   -0.647352   -1.269435
      6          7           0        5.136684   -0.284099    1.061906
      7          6           0        5.022812   -2.576570    0.187375
      8          6           0        6.533428   -2.810540    0.225749
      9          7           0        6.825445   -4.248219    0.271394
     10          1           0        0.336097    0.832846    0.054073
     11          1           0        0.618608   -0.604122    1.052489
     12          1           0        0.573775   -0.746060   -0.714196
     13          1           0        2.661070    0.780994    0.926175
     14          1           0        2.622027    0.744582   -0.850260
     15          1           0        2.647903   -1.916204   -0.141102
     16          1           0        5.330301    0.330170   -1.421876
     17          1           0        5.170766   -1.233255   -2.086886
     18          1           0        4.627443    0.481943    1.456538
     19          1           0        6.008100   -0.492367    1.508245
     20          1           0        4.608388   -3.164957   -0.640768
     21          1           0        4.562510   -2.953215    1.107745
     22          1           0        6.971170   -2.274584    1.083339
     23          1           0        6.985387   -2.391969   -0.677795
     24          1           0        6.480210   -4.647445    1.140779
     25          1           0        7.831324   -4.395164    0.285925
 ---------------------------------------------------------------------
                    Distance matrix (angstroms):
                    1          2          3          4          5
     1  C    0.000000
     2  C    1.522194   0.000000
     3  N    2.448239   1.448610   0.000000
     4  C    3.850876   2.560514   1.468925   0.000000
     5  N    4.533940   3.192668   2.473372   1.466371   0.000000
     6  N    4.351953   2.959954   2.359058   1.440022   2.359791
     7  C    4.812695   3.805290   2.411577   1.538515   2.422292
     8  C    6.256198   5.105915   3.813981   2.579756   2.959538
     9  N    7.236799   6.262654   4.868199   3.854135   4.250016
    10  H    1.094275   2.157975   3.391234   4.693248   5.230937
    11  H    1.094678   2.171308   2.746826   4.157235   5.114555
    12  H    1.094959   2.173462   2.707363   4.115124   4.636175
    13  H    2.138580   1.097397   2.093390   2.865325   3.630888
    14  H    2.156744   1.102166   2.102552   2.846863   2.938286
    15  H    2.533708   2.108328   1.004118   2.127563   3.044993
    16  H    4.717211   3.297310   2.997602   2.147741   1.001371
    17  H    4.942212   3.781963   2.968689   2.167900   1.005748
    18  H    4.011781   2.658142   2.553290   2.152598   3.001105
    19  H    5.315668   3.954231   3.254984   2.143932   2.903913
    20  H    4.871351   4.063935   2.654971   2.157361   2.656163
    21  H    4.748830   3.944523   2.574350   2.152729   3.368052
    22  H    6.525593   5.292329   4.137774   2.847440   3.377540
    23  H    6.555458   5.312122   4.132541   2.785833   2.582506
    24  H    7.272218   6.409881   5.006982   4.163411   4.848926
    25  H    8.158564   7.105200   5.751578   4.612643   4.849590
                    6          7          8          9         10
     6  N    0.000000
     7  C    2.456256   0.000000
     8  C    3.005488   1.529110   0.000000
     9  N    4.380761   2.459869   1.467746   0.000000
    10  H    5.030798   5.797170   7.191011   8.244761   0.000000
    11  H    4.529406   4.902651   6.366858   7.239777   1.772435
    12  H    4.918139   4.894643   6.376758   7.233249   1.771912
    13  H    2.698428   4.170957   5.327745   6.562297   2.483696
    14  H    3.322358   4.227351   5.394047   6.622302   2.459895
    15  H    3.210145   2.486800   4.003964   4.802114   3.597195
    16  H    2.565928   3.336671   3.745162   5.105317   5.231938
    17  H    3.288913   2.645496   3.113351   4.170066   5.676839
    18  H    1.000940   3.334905   3.998508   5.348851   4.528321
    19  H    1.000979   2.656951   2.700869   4.037855   6.003534
    20  H    3.387852   1.097163   2.140617   2.630748   5.892173
    21  H    2.730560   1.095819   2.163976   2.738136   5.771226
    22  H    2.706997   2.165652   1.101966   2.139095   7.398628
    23  H    3.299603   2.152742   1.093553   2.090982   7.426178
    24  H    4.566188   2.705829   2.052884   1.017054   8.304495
    25  H    4.976353   3.347348   2.049192   1.016660   9.141349
                   11         12         13         14         15
    11  H    0.000000
    12  H    1.772944   0.000000
    13  H    2.471063   3.062598   0.000000
    14  H    3.074597   2.536900   1.777237   0.000000
    15  H    2.695228   2.449425   2.900712   2.753789   0.000000
    16  H    5.403280   4.927842   3.583487   2.798791   3.725833
    17  H    5.565395   4.822237   4.408436   3.455018   3.258425
    18  H    4.172956   4.759444   2.058481   3.067897   3.496019
    19  H    5.409882   5.876691   3.628066   4.307909   4.004820
    20  H    5.034217   4.704738   4.670962   4.390218   2.377510
    21  H    4.590823   4.909278   4.194372   4.612262   2.510126
    22  H    6.568596   6.818665   5.285662   5.636419   4.507586
    23  H    6.835653   6.619601   5.598226   5.376486   4.396380
    24  H    7.121420   7.317630   6.640770   6.922699   4.877445
    25  H    8.184308   8.184633   7.343981   7.405719   5.761549
                   16         17         18         19         20
    16  H    0.000000
    17  H    1.706454   0.000000
    18  H    2.966869   3.974035   0.000000
    19  H    3.117946   3.764971   1.690611   0.000000
    20  H    3.653382   2.477701   4.207011   3.704077   0.000000
    21  H    4.215341   3.678846   3.453431   2.881996   1.761884
    22  H    3.969042   3.791589   3.637413   2.069866   3.057458
    23  H    3.271545   2.573131   4.286566   3.056526   2.499801
    24  H    5.715430   4.877413   5.462881   4.197927   2.979160
    25  H    5.612529   4.765131   5.951585   4.477727   3.572042
                   21         22         23         24         25
    21  H    0.000000
    22  H    2.502555   0.000000
    23  H    3.061615   1.765099   0.000000
    24  H    2.559117   2.423801   2.941018   0.000000
    25  H    3.666027   2.423344   2.378478   1.618620   0.000000
 Stoichiometry    C5H16N4
 Framework group  C1[X(C5H16N4)]
 Deg. of freedom    69
 Full point group                 C1      NOp   1
 Largest Abelian subgroup         C1      NOp   1
 Largest concise Abelian subgroup C1      NOp   1
                         Standard orientation:                         
 ---------------------------------------------------------------------
 Center     Atomic      Atomic             Coordinates (Angstroms)
 Number     Number       Type             X           Y           Z
 ---------------------------------------------------------------------
      1          6           0        3.629847   -0.956736    0.022047
      2          6           0        2.560762    0.123508   -0.062832
      3          7           0        1.234988   -0.449099    0.050816
      4          6           0        0.013395    0.366324    0.027681
      5          7           0       -0.152312    1.260316    1.178143
      6          7           0        0.020677    1.160990   -1.173201
      7          6           0       -1.170750   -0.615915    0.033574
      8          6           0       -2.544572    0.047072   -0.072454
      9          7           0       -3.606770   -0.955294    0.073412
     10          1           0        4.625112   -0.503544   -0.016729
     11          1           0        3.543980   -1.662193   -0.810585
     12          1           0        3.549981   -1.521434    0.956752
     13          1           0        2.663631    0.636524   -1.027462
     14          1           0        2.725449    0.867338    0.733638
     15          1           0        1.163863   -1.379370    0.422019
     16          1           0        0.283555    2.161844    1.174813
     17          1           0       -0.459866    0.914426    2.071060
     18          1           0        0.864788    1.427614   -1.640393
     19          1           0       -0.825787    1.416814   -1.642256
     20          1           0       -1.143398   -1.194801    0.965191
     21          1           0       -1.034596   -1.327826   -0.788292
     22          1           0       -2.621845    0.592182   -1.027028
     23          1           0       -2.650409    0.785425    0.727228
     24          1           0       -3.576446   -1.611977   -0.702633
     25          1           0       -4.516191   -0.504932    0.012391
 ---------------------------------------------------------------------
 Rotational constants (GHZ):           3.2329659           0.7154170           0.6751997
 Standard basis: 6-31G(2df,p) (6D, 7F)
 There are   359 symmetry adapted cartesian basis functions of A   symmetry.
 There are   332 symmetry adapted basis functions of A   symmetry.
   332 basis functions,   508 primitive gaussians,   359 cartesian basis functions
    37 alpha electrons       37 beta electrons
       nuclear repulsion energy       501.9923802016 Hartrees.
 NAtoms=   25 NActive=   25 NUniq=   25 SFac= 1.00D+00 NAtFMM=   60 NAOKFM=F Big=F
 Integral buffers will be    131072 words long.
 Raffenetti 2 integral format.
 Two-electron integral symmetry is turned on.
 One-electron integrals computed using PRISM.
 PrsmSu:  requested number of processors reduced to:  13 ShMem   1 Linda.
 NBasis=   332 RedAO= T EigKep=  2.93D-04  NBF=   332
 NBsUse=   332 1.00D-06 EigRej= -1.00D+00 NBFU=   332
 Initial guess from the checkpoint file:  "CCNCpNppNpCCN.chk"
 B after Tr=    -0.000000    0.000000    0.000000
         Rot=    0.998607    0.051955    0.007310   -0.005509 Ang=   6.05 deg.
 ExpMin= 1.61D-01 ExpMax= 4.17D+03 ExpMxC= 6.27D+02 IAcc=2 IRadAn=         4 AccDes= 0.00D+00
 Harris functional with IExCor=  402 and IRadAn=       4 diagonalized for initial guess.
 HarFok:  IExCor=  402 AccDes= 0.00D+00 IRadAn=         4 IDoV= 1 UseB2=F ITyADJ=14
 ICtDFT=  3500011 ScaDFX=  1.000000  1.000000  1.000000  1.000000
 FoFCou: FMM=F IPFlag=           0 FMFlag=      100000 FMFlg1=           0
         NFxFlg=           0 DoJE=T BraDBF=F KetDBF=T FulRan=T
         wScrn=  0.000000 ICntrl=       500 IOpCl=  0 I1Cent=   200000004 NGrid=           0
         NMat0=    1 NMatS0=      1 NMatT0=    0 NMatD0=    1 NMtDS0=    0 NMtDT0=    0
 Petite list used in FoFCou.
 Requested convergence on RMS density matrix=1.00D-08 within 128 cycles.
 Requested convergence on MAX density matrix=1.00D-06.
 Requested convergence on             energy=1.00D-06.
 No special actions if energy rises.
 Integral accuracy reduced to 1.0D-05 until final iterations.
 Initial convergence to 1.0D-05 achieved.  Increase integral accuracy.
 SCF Done:  E(RB3LYP) =  -419.164026238     A.U. after   11 cycles
            NFock= 11  Conv=0.32D-08     -V/T= 2.0080
 PrsmSu:  requested number of processors reduced to:  13 ShMem   1 Linda.
 Calling FoFJK, ICntrl=      2127 FMM=F ISym2X=0 I1Cent= 0 IOpClX= 0 NMat=1 NMatS=1 NMatT=0.
 ***** Axes restored to original set *****
 -------------------------------------------------------------------
 Center     Atomic                   Forces (Hartrees/Bohr)
 Number     Number              X              Y              Z
 -------------------------------------------------------------------
      1        6          -0.001835664    0.001667402    0.001144340
      2        6           0.006964783   -0.011458434   -0.007783939
      3        7           0.003953456    0.002454249    0.012777074
      4        6          -0.008327206    0.005861889   -0.004966088
      5        7           0.008961227   -0.004074112    0.002626453
      6        7           0.002420396    0.005001455    0.004450937
      7        6           0.001673329   -0.004058477    0.000263363
      8        6           0.000243913   -0.002557919    0.001665451
      9        7           0.000199737   -0.002595389   -0.001308803
     10        1          -0.000926218   -0.000680794   -0.000165826
     11        1           0.000299652   -0.000553979   -0.000147426
     12        1           0.000040892    0.000122750   -0.000703472
     13        1          -0.000080711    0.003418667    0.000509654
     14        1          -0.000740728    0.004266938    0.000286686
     15        1           0.001574820    0.000779518   -0.004500082
     16        1          -0.002945686    0.001899805    0.001898301
     17        1          -0.007018352    0.000764595    0.000762746
     18        1          -0.004179751   -0.003149240   -0.002106291
     19        1           0.000583054   -0.001874405   -0.004475724
     20        1           0.000288834   -0.000158639   -0.000467991
     21        1          -0.000343361    0.001261138    0.000084499
     22        1           0.000427270    0.002162276    0.000252610
     23        1          -0.000042620    0.000022203    0.000449958
     24        1          -0.000466541    0.000916798   -0.000105138
     25        1          -0.000724525    0.000561707   -0.000441289
 -------------------------------------------------------------------
 Cartesian Forces:  Max     0.012777074 RMS     0.003541227

 GradGradGradGradGradGradGradGradGradGradGradGradGradGradGradGradGradGrad
 Berny optimization.
 Using GEDIIS/GDIIS optimizer.
 FormGI is forming the generalized inverse of G from B-inverse, IUseBI=4.
 Internal  Forces:  Max     0.009165443 RMS     0.001966955
 Search for a local minimum.
 Step number   2 out of a maximum of  133
 All quantities printed in internal units (Hartrees-Bohrs-Radians)
 Mixed Optimization -- RFO/linear search
 Update second derivatives using D2CorX and points    1    2
 DE= -1.71D-02 DEPred=-2.27D-02 R= 7.51D-01
 TightC=F SS=  1.41D+00  RLast= 4.77D-01 DXNew= 5.0454D-01 1.4321D+00
 Trust test= 7.51D-01 RLast= 4.77D-01 DXMaxT set to 5.05D-01
 ITU=  1  0
 Use linear search instead of GDIIS.
     Eigenvalues ---    0.00243   0.00332   0.00643   0.00752   0.01003
     Eigenvalues ---    0.01050   0.01110   0.01294   0.01318   0.01400
     Eigenvalues ---    0.01587   0.03323   0.04408   0.04464   0.04574
     Eigenvalues ---    0.04756   0.05560   0.05659   0.05681   0.05807
     Eigenvalues ---    0.06179   0.06288   0.08565   0.08699   0.09079
     Eigenvalues ---    0.09336   0.12374   0.12630   0.12680   0.15207
     Eigenvalues ---    0.15400   0.15997   0.16000   0.16000   0.16000
     Eigenvalues ---    0.16000   0.16000   0.16000   0.16000   0.16841
     Eigenvalues ---    0.17967   0.21300   0.21912   0.21965   0.22226
     Eigenvalues ---    0.28623   0.29167   0.31310   0.33805   0.33839
     Eigenvalues ---    0.34185   0.34261   0.34264   0.34371   0.34378
     Eigenvalues ---    0.34496   0.34553   0.35263   0.37902   0.39766
     Eigenvalues ---    0.41092   0.43676   0.44088   0.44217   0.44864
     Eigenvalues ---    0.45121   0.45333   0.45405   0.45710
 RFO step:  Lambda=-7.23340789D-03 EMin= 2.42895668D-03
 Quartic linear search produced a step of  0.05212.
 Iteration  1 RMS(Cart)=  0.09093015 RMS(Int)=  0.00467951
 Iteration  2 RMS(Cart)=  0.00701034 RMS(Int)=  0.00176950
 Iteration  3 RMS(Cart)=  0.00003123 RMS(Int)=  0.00176933
 Iteration  4 RMS(Cart)=  0.00000017 RMS(Int)=  0.00176933
 Variable       Old X    -DE/DX   Delta X   Delta X   Delta X     New X
                                 (Linear)    (Quad)   (Total)
    R1        2.87653   0.00229   0.00127   0.00911   0.01038   2.88691
    R2        2.06788  -0.00010  -0.00005  -0.00038  -0.00043   2.06745
    R3        2.06864   0.00005   0.00009   0.00027   0.00036   2.06900
    R4        2.06917   0.00045   0.00022   0.00163   0.00185   2.07102
    R5        2.73748  -0.00461  -0.00221  -0.01618  -0.01839   2.71909
    R6        2.07378   0.00230   0.00054   0.00746   0.00800   2.08178
    R7        2.08279   0.00184   0.00081   0.00656   0.00737   2.09016
    R8        2.77587  -0.00917   0.00243  -0.02040  -0.01797   2.75790
    R9        1.89751  -0.00046  -0.00126  -0.00281  -0.00406   1.89344
   R10        2.77104  -0.00542   0.00433  -0.00699  -0.00266   2.76838
   R11        2.72125  -0.00201   0.00101  -0.00355  -0.00254   2.71871
   R12        2.90737   0.00463  -0.00010   0.01619   0.01608   2.92346
   R13        1.89232   0.00111  -0.00133   0.00064  -0.00069   1.89163
   R14        1.90059  -0.00103  -0.00078  -0.00339  -0.00417   1.89642
   R15        1.89150  -0.00111  -0.00135  -0.00439  -0.00574   1.88577
   R16        1.89158  -0.00110  -0.00121  -0.00415  -0.00535   1.88622
   R17        2.88960  -0.00012  -0.00036  -0.00091  -0.00127   2.88833
   R18        2.07334   0.00033  -0.00014   0.00078   0.00064   2.07398
   R19        2.07080  -0.00022  -0.00030  -0.00107  -0.00137   2.06943
   R20        2.77364   0.00084   0.00154   0.00439   0.00593   2.77957
   R21        2.08241   0.00142   0.00080   0.00529   0.00610   2.08851
   R22        2.06652  -0.00038  -0.00013  -0.00130  -0.00143   2.06509
   R23        1.92195  -0.00029  -0.00042  -0.00125  -0.00167   1.92029
   R24        1.92121  -0.00080  -0.00072  -0.00287  -0.00358   1.91762
    A1        1.92080   0.00185   0.00075   0.01398   0.01472   1.93552
    A2        1.93888  -0.00047   0.00039  -0.00207  -0.00171   1.93717
    A3        1.94160  -0.00075   0.00002  -0.00646  -0.00644   1.93516
    A4        1.88734  -0.00026  -0.00022   0.00160   0.00134   1.88868
    A5        1.88617  -0.00067  -0.00062  -0.00560  -0.00620   1.87998
    A6        1.88727   0.00028  -0.00036  -0.00161  -0.00199   1.88528
    A7        1.93680  -0.00228  -0.00182  -0.00862  -0.01038   1.92642
    A8        1.89119   0.00030   0.00015  -0.00538  -0.00523   1.88595
    A9        1.91102  -0.00058  -0.00009  -0.00625  -0.00636   1.90466
   A10        1.91722   0.00124   0.00082   0.01052   0.01127   1.92850
   A11        1.92498   0.00305   0.00207   0.03289   0.03494   1.95992
   A12        1.88148  -0.00177  -0.00115  -0.02434  -0.02577   1.85571
   A13        2.14176   0.00047   0.00206  -0.00689  -0.01097   2.13079
   A14        2.04884   0.00018  -0.00164  -0.01879  -0.02734   2.02149
   A15        2.05015  -0.00159  -0.00106  -0.03043  -0.03795   2.01220
   A16        2.00430  -0.00192   0.00960  -0.00989  -0.00034   2.00396
   A17        1.89153   0.00127  -0.00208   0.00209  -0.00037   1.89117
   A18        1.86044  -0.00137  -0.00471  -0.01677  -0.02139   1.83905
   A19        1.89485  -0.00059   0.00172   0.00274   0.00421   1.89906
   A20        1.87470   0.00203  -0.00370   0.00956   0.00598   1.88068
   A21        1.93842   0.00063  -0.00051   0.01290   0.01216   1.95058
   A22        2.09103  -0.00262  -0.00119  -0.03474  -0.04442   2.04660
   A23        2.11932  -0.00243  -0.00033  -0.03231  -0.04108   2.07824
   A24        2.03273   0.00351   0.00081   0.00509  -0.00393   2.02880
   A25        2.14183  -0.00378  -0.00153  -0.02572  -0.02730   2.11453
[...]
 28255,-0.01605754,-0.01704368,-0.03281355,0.07120676,0.15883140,0.0000
 5176,0.00000449,0.00010153,0.00070291,-0.00080860,0.00000768,-0.001237
 44,0.00017717,0.00370784,-0.01693230,-0.01947915,-0.02403682,-0.089450
 70,-0.14296189,-0.28635299,0.00412743,0.00328623,-0.00650664,-0.000215
 64,-0.00064766,0.00025115,-0.00039160,0.00019808,-0.00015302,0.0001097
 4,-0.00001099,0.00002655,-0.00003775,0.00003539,-0.00002247,-0.0000591
 9,-0.00002474,0.00000446,0.00000763,-0.00001754,0.00000080,-0.00013972
 ,0.00017208,0.00001685,0.00032756,-0.00022551,-0.00015359,0.00100584,0
 .00049313,-0.00023649,-0.00077942,0.00456366,0.00350560,0.10323426,0.1
 5490991,0.30988951,-0.00002606,0.00004835,-0.00011967,-0.00056020,0.00
 033242,-0.00039360,-0.00025287,0.00020773,0.00061428,0.00499704,0.0078
 3373,-0.00844695,-0.00043150,-0.00126306,-0.00219330,-0.08482781,-0.05
 219631,0.08446493,0.00004220,-0.00025220,-0.00032217,0.00000080,0.0005
 3389,0.00051866,0.00003368,-0.00038724,-0.00024610,0.00001016,-0.00002
 613,0.00003646,-0.00012509,-0.00003152,0.00005336,0.00001273,0.0000116
 4,0.00004935,0.00003710,0.00018610,-0.00033035,0.00017748,-0.00010031,
 0.00020942,0.00000142,-0.00005535,0.00054890,-0.00014260,-0.00032188,0
 .00045950,0.00117649,-0.00016784,-0.00101385,0.09042728,0.00001532,-0.
 00007302,0.00003498,0.00022198,0.00053831,0.00041958,0.00133134,-0.000
 08587,0.00029783,0.00754345,0.00255866,-0.02525258,-0.00081261,-0.0017
 1529,-0.00312622,-0.07385295,-0.07756480,0.14711220,0.00091029,0.00152
 352,-0.00086532,0.00027986,-0.00039134,-0.00003906,-0.00011563,0.00019
 312,0.00012401,0.00003391,-0.00001634,0.00001244,0.00006694,0.00008386
 ,-0.00001901,-0.00005106,-0.00001516,-0.00005272,0.00003627,-0.0004237
 3,0.00041614,-0.00004094,-0.00034316,-0.00012350,0.00009571,-0.0000714
 8,-0.00005873,-0.00035138,0.00011935,-0.00086645,-0.00016571,0.0012728
 3,-0.00086177,0.06057059,0.07971349,-0.00003259,-0.00007212,0.00006224
 ,-0.00055394,0.00072017,-0.00041879,0.00092540,0.00049859,0.00233371,0
 .01056720,0.01644553,-0.02598651,-0.00209252,-0.00537802,-0.00523161,0
 .10462587,0.10538196,-0.33982905,0.00066117,0.00069980,0.00141429,0.00
 015566,-0.00036006,-0.00014719,-0.00004855,0.00023457,0.00014364,0.000
 05534,-0.00002340,0.00000799,-0.00004620,0.00001594,0.00001447,-0.0000
 0565,0.00001678,-0.00000049,-0.00006822,0.00004168,-0.00018904,0.00016
 332,-0.00027692,0.00027077,0.00003482,-0.00025257,0.00069186,0.0000401
 2,-0.00022005,0.00045157,0.00030326,0.00084385,-0.00163474,-0.11018430
 ,-0.11896909,0.36553693,-0.00006087,-0.00002219,-0.00010500,0.00053252
 ,-0.00086112,0.00021992,-0.00111117,-0.00333817,-0.00269638,-0.0136770
 6,0.00509081,0.00279131,0.00128066,0.00114834,0.00134602,-0.42820011,-
 0.03954642,0.00582911,0.00042534,0.00014192,0.00061724,-0.00006138,0.0
 0056092,-0.00000017,-0.00002018,0.00026624,0.00015007,-0.00003508,0.00
 003007,0.00001405,0.00002377,-0.00000344,-0.00000157,-0.00001351,0.000
 02147,0.00003123,0.00017339,-0.00003854,0.00011396,-0.00009747,0.00018
 389,-0.00008365,-0.00077251,0.00054814,-0.00073076,-0.00044137,-0.0001
 0375,-0.00031369,0.00056352,-0.00015881,0.00014234,-0.01032975,0.00473
 596,-0.00437658,0.45176419,-0.00002533,0.00019935,0.00018121,0.0004425
 6,-0.00035313,-0.00015582,-0.00188095,-0.00285185,-0.00264853,-0.02569
 673,-0.00597024,-0.00233439,-0.00012917,-0.00001790,0.00126284,0.01116
 921,-0.01354484,-0.00612997,-0.00096278,0.00035886,0.00083957,-0.00058
 324,-0.00179970,-0.00216516,0.00024255,0.00120045,0.00087824,0.0000259
 2,-0.00002338,0.00001421,-0.00000180,-0.00000334,-0.00001823,0.0001680
 9,-0.00000498,-0.00004239,-0.00039557,0.00065697,-0.00004867,0.0000665
 3,0.00021572,0.00010390,-0.00093466,0.00050072,-0.00073229,0.00102311,
 0.00004055,0.00068318,-0.00004572,-0.00044253,0.00007042,-0.01447272,-
 0.00486040,0.00114051,0.03019710,0.02727031,-0.00008724,0.00009272,-0.
 00015545,0.00020259,-0.00083488,0.00024138,-0.00250505,-0.00414607,-0.
 00349221,-0.02958545,0.00235129,0.00340211,0.00088343,0.00084245,0.000
 55393,-0.00096230,-0.00740406,-0.06218369,0.00019683,0.00004235,0.0001
 5982,0.00028766,-0.00016939,0.00085258,0.00010312,-0.00011590,-0.00030
 723,-0.00005415,0.00002901,0.00004191,0.00000541,-0.00000523,0.0000117
 7,0.00001262,0.00002990,0.00003971,0.00019778,0.00004890,-0.00000643,-
 0.00009577,0.00012087,-0.00016461,-0.00188678,0.00002796,-0.00030382,-
 0.00091555,0.00009489,-0.00038971,0.00095834,0.00003052,0.00036579,0.0
 3671160,0.00105454,0.00166954,-0.00350741,0.00807349,0.06014546,0.0000
 0923,-0.00000819,0.00003238,0.00017635,-0.00039119,0.00007174,0.000101
 03,0.00062342,0.00020157,0.00121592,0.00336399,0.00635818,-0.00005344,
 -0.00046207,0.00012027,0.00043113,0.00245024,0.00064200,-0.07346864,-0
 .04309851,-0.06462670,-0.01588088,-0.01799656,-0.02885911,0.00301764,-
 0.00054438,0.00101342,0.00000821,-0.00000488,-0.00000873,0.00000238,0.
 00000261,-0.00000021,-0.00000777,0.00000056,-0.00001079,0.00009356,0.0
 0004941,0.00008126,0.00000815,0.00000810,-0.00001500,-0.00045513,0.000
 83112,0.00000056,-0.00007176,-0.00003780,0.00020524,0.00035626,-0.0003
 4195,0.00017438,-0.00000086,-0.00017354,-0.00023181,-0.00012269,0.0002
 4468,-0.00005219,0.08507419,-0.00000713,0.00005296,0.00002373,0.000320
 38,-0.00002234,0.00042846,-0.00159393,0.00099584,0.00063923,-0.0119167
 0,-0.01370143,-0.02614711,0.00029966,0.00204690,-0.00022485,0.00166614
 ,-0.00812806,-0.00077209,-0.04451382,-0.11380378,-0.10024211,0.0014560
 9,0.00088386,0.00229064,0.00037144,0.00102557,0.00061726,-0.00002008,0
 .00000364,-0.00000634,-0.00001272,-0.00001110,0.00000788,0.00005050,0.
 00000655,0.00000997,-0.00029133,0.00026090,-0.00007146,0.00001864,-0.0
 0002601,-0.00002354,0.00146731,0.00016111,0.00010205,0.00013305,0.0003
 5442,0.00003609,0.00019199,-0.00091714,0.00118476,-0.00030009,0.000191
 80,0.00044872,0.00026955,0.00045605,-0.00005341,0.04736142,0.12397156,
 -0.00001264,-0.00004927,-0.00001651,0.00049426,-0.00001154,0.00030893,
 0.00015439,-0.00015159,0.00035985,0.00007937,0.00256842,0.00004079,0.0
 0020826,0.00014152,0.00045510,0.00024633,0.00017691,0.00177602,-0.0656
 7168,-0.10029738,-0.20261612,-0.00097119,-0.00187854,-0.00241942,0.000
 87505,0.00053550,0.00037023,0.00001956,0.00001350,0.00000316,-0.000002
 67,-0.00000356,0.00000075,0.00004104,0.00000736,0.00002579,-0.00008826
 ,0.00021878,0.00000949,0.00000039,-0.00003252,-0.00002956,0.00094606,-
 0.00031521,0.00042021,0.00013088,-0.00022148,0.00019538,-0.00005469,0.
 00015763,0.00052049,-0.00023079,0.00042909,0.00038687,0.00013686,0.000
 04770,-0.00006237,0.07410997,0.11197848,0.21866014,-0.00001389,-0.0000
 5552,0.00000088,0.00024375,-0.00019032,-0.00012735,-0.00051132,0.00147
 937,-0.00018431,0.00256374,0.00307166,-0.00665716,-0.00005196,0.001722
 76,-0.00034087,-0.00039306,-0.00043152,-0.00033627,-0.09343986,-0.0418
 6285,0.09025937,-0.01714240,-0.01274176,0.02919824,0.00223195,-0.00121
 926,-0.00034796,0.00002389,-0.00000951,0.00000110,0.00000112,0.0000073
 6,0.00000369,-0.00001094,0.00000472,-0.00000672,0.00001824,-0.00005123
 ,-0.00000603,0.00004020,0.00003300,-0.00004523,-0.00003034,-0.00004741
 ,-0.00039873,0.00028593,0.00047893,-0.00032936,-0.00005108,-0.00011894
 ,0.00027374,0.00020107,-0.00039952,-0.00002165,-0.00005327,-0.00000459
 ,0.00007939,0.00452675,0.00439432,-0.00949652,0.10609952,0.00001557,0.
 00002616,-0.00003346,0.00008284,-0.00010595,-0.00039407,-0.00103426,0.
 00157903,-0.00086380,-0.01424455,-0.01212144,0.02800717,0.00179820,-0.
 00712917,0.00000265,0.00023979,0.00272073,0.00000034,-0.03991396,-0.08
 139793,0.07420387,0.00202630,0.00037924,-0.00332193,-0.00002572,0.0011
 2853,-0.00072793,-0.00001714,0.00000380,-0.00000092,0.00004829,-0.0000
 1042,-0.00001436,0.00000464,-0.00000551,-0.00000069,0.00000117,0.00002
 624,0.00005555,-0.00023128,0.00027862,-0.00019258,0.00010856,-0.000001
 31,0.00028136,-0.00022848,-0.00079197,0.00211652,0.00008392,-0.0000422
 3,-0.00005401,0.00001349,-0.00065564,-0.00096757,0.00000128,-0.0001049
 0,0.00014042,0.00717818,0.00635606,-0.01380188,0.04357937,0.08942680,0
 .00000020,0.00007236,-0.00000519,-0.00050372,0.00000298,0.00026982,0.0
 0006590,-0.00118280,0.00108146,0.00282080,-0.00098410,-0.00573479,-0.0
 0078014,0.00169390,0.00104675,-0.00038145,0.00010310,0.00133464,0.0880
 2161,0.07769146,-0.21922048,-0.00161994,-0.00052241,0.00184873,-0.0001
 3743,-0.00079001,0.00052128,-0.00002296,-0.00001495,0.00000958,-0.0000
 2656,0.00001647,0.00002727,-0.00001423,0.00000038,-0.00002203,0.000026
 07,-0.00006010,-0.00000454,0.00011057,-0.00025120,0.00017588,0.0000582
 9,0.00044550,-0.00083231,0.00026761,0.00029498,-0.00010364,0.00019652,
 -0.00050248,0.00055919,0.00012880,0.00028980,0.00032596,-0.00002817,-0
 .00010165,0.00000783,0.01038579,0.00994861,-0.02097893,-0.09929882,-0.
 08533103,0.23672041,-0.00000664,0.00006151,-0.00000149,0.00011209,-0.0
 0006048,0.00008813,-0.00012843,0.00051098,0.00018954,-0.00036207,-0.00
 273490,-0.00154348,0.00018007,0.00052343,0.00014902,0.00118732,-0.0002
 6637,0.00113184,-0.01423432,-0.01426527,-0.02856558,-0.08293913,-0.038
 96445,-0.06605457,0.00563965,0.00598549,0.00635979,-0.00002498,0.00000
 906,0.00000097,-0.00000063,-0.00001067,0.00000304,0.00003249,0.0000010
 1,0.00000980,-0.00009872,0.00015808,-0.00000426,-0.00001155,0.00003253
 ,-0.00001928,0.00048282,-0.00002634,0.00020277,-0.00004289,0.00006637,
 -0.00017038,-0.00001802,-0.00015936,0.00023477,-0.00045004,0.00029306,
 0.00029504,0.00019529,0.00157952,-0.00015303,-0.00681578,0.00104413,-0
 .00063266,0.00172633,-0.00034194,0.00067811,0.08901094,-0.00001624,0.0
 0001513,-0.00000220,-0.00005161,-0.00007821,-0.00000753,-0.00010427,0.
 00010662,-0.00015299,-0.00066013,-0.00036073,-0.00033237,-0.00001469,-
 0.00004829,-0.00003266,0.00131347,-0.00095331,0.00032781,0.00006831,0.
 00316405,0.00230781,-0.04021843,-0.09244084,-0.08042458,-0.00752918,-0
 .03415775,-0.02615061,-0.00000252,-0.00000247,0.00000267,-0.00000332,-
 0.00000109,-0.00000033,0.00000860,0.00000586,0.00000343,0.00002162,0.0
 0002514,0.00002555,0.00000689,0.00000652,0.00001697,-0.00004984,0.0000
 7494,0.00003958,0.00000926,0.00000686,-0.00001812,-0.00012046,0.000074
 17,-0.00001724,-0.00013138,-0.00001651,-0.00002096,0.00090662,-0.00086
 246,-0.00010086,0.00144499,-0.00024674,0.00011674,-0.00015136,0.000096
 69,-0.00030197,0.04151639,0.11595467,-0.00001258,0.00005034,0.00001041
 ,-0.00002198,-0.00014681,-0.00008509,-0.00013280,0.00054110,0.00010103
 ,-0.00076552,-0.00195094,-0.00155695,-0.00007696,0.00088248,0.00050632
 ,0.00117216,-0.00083424,0.00113380,-0.00066954,-0.00044421,-0.00230911
 ,-0.06789298,-0.07986451,-0.20224124,0.00187447,-0.00283218,0.00648498
 ,-0.00001661,0.00000247,0.00000081,-0.00000618,-0.00000859,0.00000246,
 0.00002468,0.00000578,0.00000456,-0.00002539,0.00009690,0.00002555,-0.
 00000026,0.00002429,0.00002480,0.00015458,0.00004039,0.00014642,-0.000
 28417,0.00006617,-0.00009015,0.00045063,-0.00017300,0.00018354,-0.0002
 0247,-0.00002421,0.00009437,0.00031320,0.00108423,-0.00010042,-0.00037
 564,-0.00005638,0.00163134,-0.00041074,0.00030438,0.00110234,0.0760690
 8,0.09638153,0.21461731,-0.00001682,0.00000990,-0.00003624,0.00009867,
 0.00000521,-0.00004553,0.00039078,0.00056382,-0.00062150,-0.00016688,-
 0.00194547,0.00189362,0.00052566,-0.00043637,-0.00084674,0.00010978,0.
 00054269,-0.00015460,-0.01669530,-0.01163410,0.02843823,-0.09531773,-0
 .04394945,0.08994918,0.00423540,0.00500613,-0.00674539,-0.00000243,0.0
 0000342,-0.00000011,0.00003138,-0.00000573,-0.00001518,0.00001053,0.00
 000122,0.00000865,-0.00001059,0.00002869,0.00000898,-0.00010665,0.0001
 2674,-0.00011205,0.00004689,-0.00016266,0.00025437,0.00075589,0.000108
 72,-0.00017345,-0.00069389,0.00020259,-0.00013363,-0.00003484,-0.00017
 621,-0.00016199,0.00003754,0.00005413,0.00014943,0.00155527,-0.0003063
 6,-0.00031129,-0.00632720,0.00106726,-0.00081531,0.00574144,0.00400590
 ,-0.01068347,0.10483389,0.00000861,0.00000612,0.00000712,0.00003000,-0
 .00012180,0.00004400,-0.00043050,0.00000973,0.00040540,0.00014576,0.00
 058372,-0.00088506,0.00104651,-0.00108249,0.00067973,0.00009416,-0.000
 44760,0.00025345,0.00119367,0.00233174,-0.00400975,-0.04078599,-0.0824
 6619,0.07393933,-0.01567488,-0.02132080,0.02894029,-0.00001044,0.00000
 319,-0.00000241,-0.00000878,-0.00000167,0.00000249,-0.00000491,-0.0000
 0386,-0.00000167,-0.00000614,-0.00000082,-0.00000874,0.00006521,-0.000
 01405,-0.00000657,-0.00001796,0.00006504,-0.00004971,-0.00020329,-0.00
 002483,-0.00006895,-0.00002947,0.00006150,0.00002866,-0.00015929,0.000
 13702,0.00011318,0.00001681,0.00013699,-0.00026856,-0.00026157,0.00005
 059,0.00035818,0.00153496,0.00011703,0.00023482,0.00606964,0.00668182,
 -0.01236766,0.04507903,0.10072879,0.00001725,-0.00004235,0.00002997,-0
 .00002000,0.00012840,-0.00012010,0.00012517,-0.00045617,0.00008345,0.0
 0088939,0.00129361,-0.00072680,-0.00186416,0.00102915,-0.00019802,0.00
 037054,-0.00064406,0.00030012,0.00018466,-0.00208141,0.00162180,0.0914
 3485,0.07934820,-0.22855490,-0.00106345,0.00171521,0.00243892,0.000017
 65,-0.00000478,0.00000045,-0.00001558,0.00000088,0.00000538,-0.0000032
 1,0.00000242,-0.00000089,-0.00000210,0.00000023,-0.00000301,0.00000435
 ,-0.00003589,0.00008090,-0.00005016,0.00000788,-0.00002800,-0.00016952
 ,-0.00008379,0.00001623,-0.00015265,0.00006481,-0.00006988,-0.00024761
 ,0.00013269,0.00009539,0.00018581,0.00020875,-0.00038295,0.00033291,-0
 .00024880,0.00099693,-0.00090303,0.00028060,0.00160481,0.01092794,0.00
 819607,-0.02221100,-0.09885570,-0.08858388,0.24317148,0.00000672,-0.00
 000683,0.00000580,-0.00004790,0.00005786,-0.00000354,-0.00009506,-0.00
 014445,0.00008637,-0.00005961,0.00050493,0.00034005,-0.00020864,-0.000
 04538,0.00004110,-0.00015118,-0.00012189,-0.00017772,0.00205453,0.0004
 6603,-0.00175792,0.00303760,0.00012020,-0.00785473,-0.08850022,-0.0283
 8080,0.09943082,0.00000691,-0.00000977,0.00000278,-0.00000609,0.000007
 55,0.00000479,-0.00000864,-0.00000038,-0.00000834,0.00000779,-0.000023
 17,-0.00000249,0.00001669,-0.00003149,0.00002604,-0.00003169,0.0000509
 7,-0.00008803,-0.00008132,-0.00003436,0.00006043,0.00006894,-0.0000126
 3,-0.00002586,0.00004981,0.00004108,0.00000896,-0.00000370,-0.00011858
 ,0.00000510,-0.00008667,0.00000225,-0.00018247,-0.00032732,-0.00002683
 ,0.00093031,-0.00016522,0.00061002,0.00075641,0.00047885,0.00218240,-0
 .00082262,0.09980744,0.00000062,0.00002451,-0.00001262,0.00000745,-0.0
 0008182,0.00003470,-0.00002784,0.00019822,-0.00011466,-0.00011082,-0.0
 0047474,0.00010434,0.00034775,-0.00007807,-0.00011534,-0.00017294,0.00
 019500,-0.00019261,-0.00111171,0.00139647,0.00050703,-0.01421122,-0.02
 099975,0.03648994,-0.03048720,-0.09208688,0.11179561,-0.00001553,0.000
 00500,-0.00000051,0.00000832,-0.00000187,0.00000086,-0.00000463,-0.000
 00652,-0.00000433,0.00000970,-0.00000660,0.00000252,-0.00001801,0.0000
 2928,-0.00003350,0.00001672,-0.00000456,0.00000229,0.00012763,0.000056
 86,-0.00006080,-0.00006149,0.00000616,0.00000189,0.00010734,-0.0001011
 1,-0.00004523,-0.00003164,-0.00013934,0.00013017,-0.00000482,-0.000012
 51,-0.00027403,0.00115489,0.00016562,-0.00042016,-0.00098221,0.0019435
 5,-0.00009081,0.00231871,-0.00673328,-0.00082780,0.04196805,0.11486570
 ,0.00000792,0.00000532,0.00000623,-0.00002302,-0.00000698,-0.00000918,
 -0.00008804,-0.00004378,0.00004038,-0.00001901,0.00036480,0.00012182,-
 0.00020248,-0.00014722,0.00010240,-0.00011627,0.00001702,-0.00008298,-
 0.00019330,-0.00008184,0.00025180,-0.00089739,-0.00711981,-0.00360992,
 0.13757751,0.15006414,-0.31171712,-0.00000347,-0.00000209,0.00000013,-
 0.00000215,0.00000217,0.00000417,-0.00000822,-0.00000411,-0.00000781,0
 .00001104,-0.00001769,-0.00000016,0.00000334,-0.00000735,0.00000731,-0
 .00001579,0.00003610,-0.00005281,0.00001575,-0.00004059,0.00007435,0.0
 0006427,-0.00001183,-0.00001063,0.00005719,-0.00001695,-0.00000787,-0.
 00001237,-0.00007265,0.00000590,-0.00002760,0.00010492,-0.00028626,-0.
 00060743,0.00036238,0.00005883,-0.00015427,-0.00043973,0.00221542,-0.0
 0060491,0.00081805,0.00191025,-0.12859085,-0.14176168,0.31484835,-0.00
 000035,0.00005625,-0.00001765,-0.00003736,-0.00016196,0.00003373,-0.00
 011420,0.00042911,-0.00005505,-0.00045848,-0.00135012,0.00002592,0.000
 08880,0.00014011,-0.00004654,0.00012051,0.00027126,0.00019618,0.000495
 29,0.00391512,-0.00053894,-0.00671765,-0.00494932,-0.00365756,-0.41625
 672,0.05732563,0.02143320,-0.00002756,0.00000682,0.00000213,0.00000215
 ,-0.00000602,0.00000366,-0.00000054,-0.00000693,-0.00000049,0.00000867
 ,0.00001186,0.00000382,-0.00001112,0.00002764,-0.00002393,0.00002964,-
 0.00000603,0.00000812,0.00000570,0.00002717,-0.00005583,-0.00003635,0.
 00000238,0.00002471,0.00001436,-0.00003623,-0.00001214,0.00000388,0.00
 003842,0.00001162,0.00038754,-0.00008470,0.00021243,0.00039013,-0.0001
 8469,-0.00006186,0.00098997,-0.00085863,0.00076209,0.00052036,0.000126
 45,-0.00032075,-0.01576203,0.00117289,-0.00617045,0.43636537,0.0000135
 7,-0.00008871,0.00002917,0.00017172,0.00015729,-0.00002482,0.00023988,
 -0.00084982,0.00005647,0.00206983,0.00113578,0.00012217,-0.00019857,0.
 00000952,-0.00003363,-0.00012661,0.00013635,-0.00003279,-0.00056227,-0
 .00774429,0.00026249,0.04186634,-0.00874534,-0.00045255,0.03041109,-0.
 05073492,0.01850523,0.00003618,0.00000104,-0.00000648,-0.00000166,0.00
 000336,-0.00000517,-0.00000171,0.00000333,0.00000234,0.00000005,-0.000
 01422,-0.00000691,0.00001125,-0.00002334,0.00002081,-0.00004341,-0.000
 02340,-0.00000113,0.00000083,-0.00001057,0.00004609,0.00002753,-0.0000
 1619,-0.00001679,0.00002004,0.00000188,-0.00001529,-0.00001502,-0.0000
 5696,-0.00001110,-0.00023323,0.00005132,0.00028719,-0.00017755,0.00006
 191,-0.00033151,-0.00003921,0.00101237,-0.00068652,-0.00050781,0.00130
 411,0.00060003,-0.01705480,0.00184066,-0.00200060,-0.05590649,0.062588
 84,0.00000495,0.00005182,-0.00001801,-0.00002296,-0.00013955,0.0000249
 5,-0.00022990,0.00043251,-0.00011745,-0.00042448,-0.00060905,0.0008981
 1,0.00010762,-0.00001700,-0.00013555,-0.00005313,0.00048081,0.00005255
 ,-0.00060590,0.00199153,-0.00022824,-0.00081754,-0.00634182,-0.0028563
 1,-0.02470958,0.02474712,-0.02752900,-0.00003311,0.00001229,0.00000220
 ,0.00000418,-0.00000662,0.00000296,-0.00000590,-0.00001212,-0.00000191
 ,0.00001922,0.00000276,0.00000434,-0.00001964,0.00004258,-0.00004086,0
 .00004735,-0.00001477,0.00001095,-0.00002380,0.00000379,0.00000241,-0.
 00009351,-0.00000263,0.00003627,0.00007871,-0.00004770,-0.00005433,-0.
 00003539,-0.00013849,0.00005115,0.00047810,0.00002529,0.00024770,-0.00
 029822,-0.00005098,0.00020711,0.00095916,0.00058398,0.00030852,-0.0003
 8537,0.00042824,-0.00006052,0.03781560,-0.00511528,-0.00386260,-0.0117
 5644,-0.01630669,0.03305556\\0.00000154,-0.00000137,0.00000181,0.00002
 275,-0.00003224,0.00000619,-0.00001304,0.00000562,-0.00000470,-0.00002
 236,-0.00002092,-0.00003167,0.00002282,0.00001054,0.00000685,0.0000022
 5,0.00002791,0.00000613,-0.00000304,0.00000596,-0.00000045,0.00000833,
 -0.00000178,-0.00000058,-0.00000068,-0.00001039,0.00000076,-0.00000150
 ,-0.00000216,-0.00000167,-0.00000339,0.00000343,0.00000125,0.00000029,
 -0.00000148,-0.00000040,-0.00000096,0.00000194,0.00000341,0.00000225,0
 .00000818,-0.00000724,-0.00000133,0.00000884,0.00001563,-0.00000491,-0
 .00000957,-0.00000347,-0.00000590,0.00000322,0.00000495,-0.00000673,-0
 .00000944,0.00000533,0.00001311,-0.00000130,-0.00000551,-0.00000310,0.
 00000642,-0.00000128,0.00000308,-0.00000111,-0.00000215,-0.00000294,0.
 00000886,0.00000337,-0.00000457,-0.00000126,0.00000495,0.00000111,0.00
 000092,-0.00000055,-0.00000308,0.00000117,-0.00000095\\\@


 CURIOUSER AND CURIOUSER

                  -- ALICE, IN WONDERLAND
 Job cpu time:       0 days  2 hours 26 minutes 54.3 seconds.
 Elapsed time:       0 days  0 hours 36 minutes 46.0 seconds.
 File lengths (MBytes):  RWF=    206 Int=      0 D2E=      0 Chk=     10 Scr=      1
 Normal termination of Gaussian 16 at Mon May 31 16:52:26 2021.
### All Done ###
