### Starting Gaussian ###
 Entering Gaussian System, Link 0=g16
 Initial command:
 /cluster/software/gaussian/gaussian-16-A.03/avx2/g16/l1.exe "/local/scratch/cz9n3/Gau-30282.inp" -scrdir="/local/scratch/cz9n3/"
 Entering Link 1 = /cluster/software/gaussian/gaussian-16-A.03/avx2/g16/l1.exe PID=     30283.
  
 Copyright (c) 1988,1990,1992,1993,1995,1998,2003,2009,2016,
            Gaussian, Inc.  All Rights Reserved.
  
 This is part of the Gaussian(R) 16 program.  It is based on
 the Gaussian(R) 09 system (copyright 2009, Gaussian, Inc.),
 the Gaussian(R) 03 system (copyright 2003, Gaussian, Inc.),
 the Gaussian(R) 98 system (copyright 1998, Gaussian, Inc.),
 the Gaussian(R) 94 system (copyright 1995, Gaussian, Inc.),
 the Gaussian 92(TM) system (copyright 1992, Gaussian, Inc.),
 the Gaussian 90(TM) system (copyright 1990, Gaussian, Inc.),
 the Gaussian 88(TM) system (copyright 1988, Gaussian, Inc.),
 the Gaussian 86(TM) system (copyright 1986, Carnegie Mellon
 University), and the Gaussian 82(TM) system (copyright 1983,
 Carnegie Mellon University). Gaussian is a federally registered
 trademark of Gaussian, Inc.
  
 This software contains proprietary and confidential information,
 including trade secrets, belonging to Gaussian, Inc.
  
 This software is provided under written license and may be
 used, copied, transmitted, or stored only in accord with that
 written license.
  
 The following legend is applicable only to US Government
 contracts under FAR:
  
                    RESTRICTED RIGHTS LEGEND
  
 Use, reproduction and disclosure by the US Government is
 subject to restrictions as set forth in subparagraphs (a)
 and (c) of the Commercial Computer Software - Restricted
 Rights clause in FAR 52.227-19.
  
 Gaussian, Inc.
 340 Quinnipiac St., Bldg. 40, Wallingford CT 06492
  
  
 ---------------------------------------------------------------
 Warning -- This program may not be used in any manner that
 competes with the business of Gaussian, Inc. or will provide
 assistance to any competitor of Gaussian, Inc.  The licensee
 of this program is prohibited from giving any competitor of
 Gaussian, Inc. access to this program.  By using this program,
 the user acknowledges that Gaussian, Inc. is engaged in the
 business of creating and licensing software in the field of
 computational chemistry and represents and warrants to the
 licensee that it is not a competitor of Gaussian, Inc. and that
 it will not use this program in any manner prohibited above.
 ---------------------------------------------------------------
  

 Cite this work as:
 Gaussian 16, Revision A.03,
 M. J. Frisch, G. W. Trucks, H. B. Schlegel, G. E. Scuseria, 
 M. A. Robb, J. R. Cheeseman, G. Scalmani, V. Barone, 
 G. A. Petersson, H. Nakatsuji, X. Li, M. Caricato, A. V. Marenich, 
 J. Bloino, B. G. Janesko, R. Gomperts, B. Mennucci, H. P. Hratchian, 
 J. V. Ortiz, A. F. Izmaylov, J. L. Sonnenberg, D. Williams-Young, 
 F. Ding, F. Lipparini, F. Egidi, J. Goings, B. Peng, A. Petrone, 
 T. Henderson, D. Ranasinghe, V. G. Zakrzewski, J. Gao, N. Rega, 
 G. Zheng, W. Liang, M. Hada, M. Ehara, K. Toyota, R. Fukuda, 
 J. Hasegawa, M. Ishida, T. Nakajima, Y. Honda, O. Kitao, H. Nakai, 
 T. Vreven, K. Throssell, J. A. Montgomery, Jr., J. E. Peralta, 
 F. Ogliaro, M. J. Bearpark, J. J. Heyd, E. N. Brothers, K. N. Kudin, 
 V. N. Staroverov, T. A. Keith, R. Kobayashi, J. Normand, 
 K. Raghavachari, A. P. Rendell, J. C. Burant, S. S. Iyengar, 
 J. Tomasi, M. Cossi, J. M. Millam, M. Klene, C. Adamo, R. Cammi, 
 J. W. Ochterski, R. L. Martin, K. Morokuma, O. Farkas, 
 J. B. Foresman, and D. J. Fox, Gaussian, Inc., Wallingford CT, 2016.
 
 ******************************************
 Gaussian 16:  ES64L-G16RevA.03 25-Dec-2016
                31-May-2021 
 ******************************************
 %chk=CCNCCpCNNCCpdNN.chk
 %NProcShared=20
 Will use up to   20 processors via shared memory.
 -----------------------------
 # opt freq b3lyp/6-31g(2df,p)
 -----------------------------
 1/18=20,19=15,26=3,38=1/1,3;
 2/9=110,12=2,17=6,18=5,40=1/2;
 3/5=1,6=6,7=104,11=2,25=1,30=1,71=1,74=-5/1,2,3;
 4//1;
 5/5=2,38=5/2;
 6/7=2,8=2,9=2,10=2,28=1/1;
 7//1,2,3,16;
 1/18=20,19=15,26=3/3(2);
 2/9=110/2;
 99//99;
 2/9=110/2;
 3/5=1,6=6,7=104,11=2,25=1,30=1,71=1,74=-5/1,2,3;
 4/5=5,16=3,69=1/1;
 5/5=2,38=5/2;
 7//1,2,3,16;
 1/18=20,19=15,26=3/3(-5);
 2/9=110/2;
 6/7=2,8=2,9=2,10=2,19=2,28=1/1;
 99/9=1/99;
 -------------------
 Title Card Required
 -------------------
 Symbolic Z-matrix:
 Charge =  0 Multiplicity = 1
 C                     0.98679  -0.02715   0.02025 
 C                     2.51337   0.05087   0.09185 
 N                     3.02258  -0.92794  -0.84212 
 C                     4.46167  -1.1492   -0.88646 
 C                     4.90685  -2.31106  -1.83537 
 C                     3.91903  -3.24222  -2.58107 
 N                     2.52621  -2.87176  -2.41218 
 N                     1.60141  -3.79485  -2.96708 
 C                     0.27016  -3.29022  -2.58694 
 C                    -0.76813  -4.13792  -3.28247 
 N                     6.20069  -2.44771  -1.96631 
 N                     6.67843  -3.33022  -2.86782 
 H                     0.53256   0.74522   0.64627 
 H                     0.61949  -1.00304   0.36169 
 H                     0.62164   0.11755  -1.00509 
 H                     2.84502  -0.14952   1.11401 
 H                     2.84005   1.05061  -0.20831 
 H                     2.7088   -0.64484  -1.76263 
 H                     4.85794  -1.36556   0.11148 
 H                     4.94507  -0.23608  -1.25659 
 H                     4.09496  -4.2622   -2.21818 
 H                     4.16091  -3.19464  -3.64912 
 H                     2.39826  -1.9643   -2.85372 
 H                     1.7084   -4.72838  -2.55875 
 H                     0.14059  -2.24215  -2.8933 
 H                     0.13341  -3.33322  -1.49783 
 H                    -0.65085  -4.06592  -4.36877 
 H                    -1.77339  -3.79773  -3.02089 
 H                    -0.66739  -5.18707  -2.98918 
 H                     7.66228  -3.56949  -2.75816 
 H                     6.11522  -4.12511  -3.16074 
 

 GradGradGradGradGradGradGradGradGradGradGradGradGradGradGradGradGradGrad
 Berny optimization.
 Initialization pass.
                           ----------------------------
                           !    Initial Parameters    !
                           ! (Angstroms and Degrees)  !
 --------------------------                            --------------------------
 ! Name  Definition              Value          Derivative Info.                !
 --------------------------------------------------------------------------------
 ! R1    R(1,2)                  1.5302         estimate D2E/DX2                !
 ! R2    R(1,13)                 1.0931         estimate D2E/DX2                !
 ! R3    R(1,14)                 1.0972         estimate D2E/DX2                !
 ! R4    R(1,15)                 1.098          estimate D2E/DX2                !
 ! R5    R(2,3)                  1.4456         estimate D2E/DX2                !
 ! R6    R(2,16)                 1.0931         estimate D2E/DX2                !
 ! R7    R(2,17)                 1.0938         estimate D2E/DX2                !
 ! R8    R(3,4)                  1.4567         estimate D2E/DX2                !
 ! R9    R(3,18)                 1.0129         estimate D2E/DX2                !
 ! R10   R(4,5)                  1.5648         estimate D2E/DX2                !
 ! R11   R(4,19)                 1.0953         estimate D2E/DX2                !
 ! R12   R(4,20)                 1.0975         estimate D2E/DX2                !
 ! R13   R(5,6)                  1.5488         estimate D2E/DX2                !
 ! R14   R(5,11)                 1.3076         estimate D2E/DX2                !
 ! R15   R(6,7)                  1.4511         estimate D2E/DX2                !
 ! R16   R(6,21)                 1.0968         estimate D2E/DX2                !
 ! R17   R(6,22)                 1.0961         estimate D2E/DX2                !
 ! R18   R(7,8)                  1.4196         estimate D2E/DX2                !
 ! R19   R(7,23)                 1.0173         estimate D2E/DX2                !
 ! R20   R(8,9)                  1.4736         estimate D2E/DX2                !
 ! R21   R(8,24)                 1.0245         estimate D2E/DX2                !
 ! R22   R(9,10)                 1.5101         estimate D2E/DX2                !
 ! R23   R(9,25)                 1.0996         estimate D2E/DX2                !
 ! R24   R(9,26)                 1.0985         estimate D2E/DX2                !
 ! R25   R(10,27)                1.095          estimate D2E/DX2                !
 ! R26   R(10,28)                1.093          estimate D2E/DX2                !
 ! R27   R(10,29)                1.094          estimate D2E/DX2                !
 ! R28   R(11,12)                1.349          estimate D2E/DX2                !
 ! R29   R(12,30)                1.0184         estimate D2E/DX2                !
 ! R30   R(12,31)                1.0173         estimate D2E/DX2                !
 ! A1    A(2,1,13)             110.5936         estimate D2E/DX2                !
 ! A2    A(2,1,14)             111.3919         estimate D2E/DX2                !
 ! A3    A(2,1,15)             111.6378         estimate D2E/DX2                !
 ! A4    A(13,1,14)            108.1284         estimate D2E/DX2                !
 ! A5    A(13,1,15)            107.6682         estimate D2E/DX2                !
 ! A6    A(14,1,15)            107.2467         estimate D2E/DX2                !
 ! A7    A(1,2,3)              106.658          estimate D2E/DX2                !
 ! A8    A(1,2,16)             109.6984         estimate D2E/DX2                !
 ! A9    A(1,2,17)             109.3735         estimate D2E/DX2                !
 ! A10   A(3,2,16)             111.9096         estimate D2E/DX2                !
 ! A11   A(3,2,17)             109.6572         estimate D2E/DX2                !
 ! A12   A(16,2,17)            109.4846         estimate D2E/DX2                !
 ! A13   A(2,3,4)              118.068          estimate D2E/DX2                !
 ! A14   A(2,3,18)             106.7856         estimate D2E/DX2                !
 ! A15   A(4,3,18)             108.7137         estimate D2E/DX2                !
 ! A16   A(3,4,5)              114.3498         estimate D2E/DX2                !
 ! A17   A(3,4,19)             111.081          estimate D2E/DX2                !
 ! A18   A(3,4,20)             108.6045         estimate D2E/DX2                !
 ! A19   A(5,4,19)             107.6323         estimate D2E/DX2                !
 ! A20   A(5,4,20)             106.7352         estimate D2E/DX2                !
 ! A21   A(19,4,20)            108.1959         estimate D2E/DX2                !
 ! A22   A(4,5,6)              123.8423         estimate D2E/DX2                !
 ! A23   A(4,5,11)             114.8235         estimate D2E/DX2                !
 ! A24   A(6,5,11)             121.3339         estimate D2E/DX2                !
 ! A25   A(5,6,7)              113.7435         estimate D2E/DX2                !
 ! A26   A(5,6,21)             107.3068         estimate D2E/DX2                !
 ! A27   A(5,6,22)             107.5951         estimate D2E/DX2                !
 ! A28   A(7,6,21)             110.6624         estimate D2E/DX2                !
 ! A29   A(7,6,22)             108.3081         estimate D2E/DX2                !
 ! A30   A(21,6,22)            109.1083         estimate D2E/DX2                !
 ! A31   A(6,7,8)              114.4429         estimate D2E/DX2                !
 ! A32   A(6,7,23)             107.3345         estimate D2E/DX2                !
 ! A33   A(8,7,23)             109.1753         estimate D2E/DX2                !
 ! A34   A(7,8,9)              105.368          estimate D2E/DX2                !
 ! A35   A(7,8,24)             111.6338         estimate D2E/DX2                !
 ! A36   A(9,8,24)             107.6719         estimate D2E/DX2                !
 ! A37   A(8,9,10)             108.0655         estimate D2E/DX2                !
 ! A38   A(8,9,25)             111.1611         estimate D2E/DX2                !
 ! A39   A(8,9,26)             110.7829         estimate D2E/DX2                !
 ! A40   A(10,9,25)            109.0085         estimate D2E/DX2                !
 ! A41   A(10,9,26)            110.431          estimate D2E/DX2                !
 ! A42   A(25,9,26)            107.3899         estimate D2E/DX2                !
 ! A43   A(9,10,27)            110.266          estimate D2E/DX2                !
 ! A44   A(9,10,28)            110.3293         estimate D2E/DX2                !
 ! A45   A(9,10,29)            110.5816         estimate D2E/DX2                !
 ! A46   A(27,10,28)           108.3887         estimate D2E/DX2                !
 ! A47   A(27,10,29)           108.6117         estimate D2E/DX2                !
 ! A48   A(28,10,29)           108.6027         estimate D2E/DX2                !
 ! A49   A(5,11,12)            119.0585         estimate D2E/DX2                !
 ! A50   A(11,12,30)           115.0781         estimate D2E/DX2                !
 ! A51   A(11,12,31)           120.5002         estimate D2E/DX2                !
 ! A52   A(30,12,31)           112.4739         estimate D2E/DX2                !
 ! D1    D(13,1,2,3)          -175.4939         estimate D2E/DX2                !
 ! D2    D(13,1,2,16)           63.1186         estimate D2E/DX2                !
 ! D3    D(13,1,2,17)          -56.977          estimate D2E/DX2                !
 ! D4    D(14,1,2,3)            64.2296         estimate D2E/DX2                !
 ! D5    D(14,1,2,16)          -57.1579         estimate D2E/DX2                !
 ! D6    D(14,1,2,17)         -177.2535         estimate D2E/DX2                !
 ! D7    D(15,1,2,3)           -55.6355         estimate D2E/DX2                !
 ! D8    D(15,1,2,16)         -177.023          estimate D2E/DX2                !
 ! D9    D(15,1,2,17)           62.8814         estimate D2E/DX2                !
 ! D10   D(1,2,3,4)           -174.5328         estimate D2E/DX2                !
 ! D11   D(1,2,3,18)            62.7406         estimate D2E/DX2                !
 ! D12   D(16,2,3,4)           -54.5615         estimate D2E/DX2                !
 ! D13   D(16,2,3,18)         -177.288          estimate D2E/DX2                !
 ! D14   D(17,2,3,4)            67.1361         estimate D2E/DX2                !
 ! D15   D(17,2,3,18)          -55.5905         estimate D2E/DX2                !
 ! D16   D(2,3,4,5)            174.9538         estimate D2E/DX2                !
 ! D17   D(2,3,4,19)            52.8949         estimate D2E/DX2                !
 ! D18   D(2,3,4,20)           -65.979          estimate D2E/DX2                !
 ! D19   D(18,3,4,5)           -63.2984         estimate D2E/DX2                !
 ! D20   D(18,3,4,19)          174.6428         estimate D2E/DX2                !
 ! D21   D(18,3,4,20)           55.7689         estimate D2E/DX2                !
 ! D22   D(3,4,5,6)             -5.0751         estimate D2E/DX2                !
 ! D23   D(3,4,5,11)           174.7122         estimate D2E/DX2                !
 ! D24   D(19,4,5,6)           118.8504         estimate D2E/DX2                !
 ! D25   D(19,4,5,11)          -61.3623         estimate D2E/DX2                !
 ! D26   D(20,4,5,6)          -125.191          estimate D2E/DX2                !
 ! D27   D(20,4,5,11)           54.5963         estimate D2E/DX2                !
 ! D28   D(4,5,6,7)              4.9417         estimate D2E/DX2                !
 ! D29   D(4,5,6,21)          -117.7988         estimate D2E/DX2                !
 ! D30   D(4,5,6,22)           124.9095         estimate D2E/DX2                !
 ! D31   D(11,5,6,7)          -174.8323         estimate D2E/DX2                !
 ! D32   D(11,5,6,21)           62.4272         estimate D2E/DX2                !
 ! D33   D(11,5,6,22)          -54.8645         estimate D2E/DX2                !
 ! D34   D(4,5,11,12)         -173.2449         estimate D2E/DX2                !
 ! D35   D(6,5,11,12)            6.5483         estimate D2E/DX2                !
 ! D36   D(5,6,7,8)           -173.5202         estimate D2E/DX2                !
 ! D37   D(5,6,7,23)            65.1589         estimate D2E/DX2                !
 ! D38   D(21,6,7,8)           -52.6413         estimate D2E/DX2                !
 ! D39   D(21,6,7,23)         -173.9622         estimate D2E/DX2                !
 ! D40   D(22,6,7,8)            66.9159         estimate D2E/DX2                !
 ! D41   D(22,6,7,23)          -54.405          estimate D2E/DX2                !
 ! D42   D(6,7,8,9)            175.3447         estimate D2E/DX2                !
 ! D43   D(6,7,8,24)            58.7493         estimate D2E/DX2                !
 ! D44   D(23,7,8,9)           -64.3526         estimate D2E/DX2                !
 ! D45   D(23,7,8,24)          179.0521         estimate D2E/DX2                !
 ! D46   D(7,8,9,10)           173.4827         estimate D2E/DX2                !
 ! D47   D(7,8,9,25)            53.9031         estimate D2E/DX2                !
 ! D48   D(7,8,9,26)           -65.4176         estimate D2E/DX2                !
 ! D49   D(24,8,9,10)          -67.2525         estimate D2E/DX2                !
 ! D50   D(24,8,9,25)          173.1679         estimate D2E/DX2                !
 ! D51   D(24,8,9,26)           53.8472         estimate D2E/DX2                !
 ! D52   D(8,9,10,27)          -60.6167         estimate D2E/DX2                !
 ! D53   D(8,9,10,28)          179.6861         estimate D2E/DX2                !
 ! D54   D(8,9,10,29)           59.5198         estimate D2E/DX2                !
 ! D55   D(25,9,10,27)          60.3124         estimate D2E/DX2                !
 ! D56   D(25,9,10,28)         -59.3848         estimate D2E/DX2                !
 ! D57   D(25,9,10,29)        -179.5511         estimate D2E/DX2                !
 ! D58   D(26,9,10,27)         178.0652         estimate D2E/DX2                !
 ! D59   D(26,9,10,28)          58.368          estimate D2E/DX2                !
 ! D60   D(26,9,10,29)         -61.7982         estimate D2E/DX2                !
 ! D61   D(5,11,12,30)        -164.7272         estimate D2E/DX2                !
 ! D62   D(5,11,12,31)         -24.777          estimate D2E/DX2                !
 ! D63   D(11,12,30,31)        143.1313         estimate D2E/DX2                !
 --------------------------------------------------------------------------------
 Trust Radius=3.00D-01 FncErr=1.00D-07 GrdErr=1.00D-06 EigMax=2.50D+02 EigMin=1.00D-04
 Number of steps in this run=    155 maximum allowed number of steps=    186.
 GradGradGradGradGradGradGradGradGradGradGradGradGradGradGradGradGradGrad

                          Input orientation:                          
 ---------------------------------------------------------------------
 Center     Atomic      Atomic             Coordinates (Angstroms)
 Number     Number       Type             X           Y           Z
 ---------------------------------------------------------------------
      1          6           0        0.986790   -0.027150    0.020250
      2          6           0        2.513370    0.050870    0.091850
      3          7           0        3.022580   -0.927940   -0.842120
      4          6           0        4.461670   -1.149200   -0.886460
      5          6           0        4.906850   -2.311060   -1.835370
      6          6           0        3.919030   -3.242220   -2.581070
      7          7           0        2.526210   -2.871760   -2.412180
      8          7           0        1.601410   -3.794850   -2.967080
      9          6           0        0.270160   -3.290220   -2.586940
     10          6           0       -0.768130   -4.137920   -3.282470
     11          7           0        6.200690   -2.447710   -1.966310
     12          7           0        6.678430   -3.330220   -2.867820
     13          1           0        0.532560    0.745220    0.646270
     14          1           0        0.619490   -1.003040    0.361690
     15          1           0        0.621640    0.117550   -1.005090
     16          1           0        2.845020   -0.149520    1.114010
     17          1           0        2.840050    1.050610   -0.208310
     18          1           0        2.708800   -0.644840   -1.762630
     19          1           0        4.857940   -1.365560    0.111480
     20          1           0        4.945070   -0.236080   -1.256590
     21          1           0        4.094960   -4.262200   -2.218180
     22          1           0        4.160910   -3.194640   -3.649120
     23          1           0        2.398260   -1.964300   -2.853720
     24          1           0        1.708400   -4.728380   -2.558750
     25          1           0        0.140590   -2.242150   -2.893300
     26          1           0        0.133410   -3.333220   -1.497830
     27          1           0       -0.650850   -4.065920   -4.368770
     28          1           0       -1.773390   -3.797730   -3.020890
     29          1           0       -0.667390   -5.187070   -2.989180
     30          1           0        7.662280   -3.569490   -2.758160
     31          1           0        6.115220   -4.125110   -3.160740
 ---------------------------------------------------------------------
                    Distance matrix (angstroms):
                    1          2          3          4          5
     1  C    0.000000
     2  C    1.530248   0.000000
     3  N    2.387372   1.445567   0.000000
     4  C    3.762434   2.488600   1.456675   0.000000
     5  C    4.901677   3.875776   2.539693   1.564779   0.000000
     6  C    5.069672   4.468201   3.030423   2.747161   1.548843
     7  N    4.047016   3.848649   2.547530   3.006832   2.512875
     8  N    4.847418   4.997828   3.841139   4.416959   3.795831
     9  C    4.237762   4.834334   4.024994   5.004434   4.798177
    10  C    5.557529   6.300813   5.534326   6.482601   6.134893
    11  N    6.081964   4.906654   3.697822   2.424128   1.307609
    12  N    7.186514   6.126919   4.820752   3.687365   2.289789
    13  H    1.093061   2.170970   3.348876   4.623418   5.885049
    14  H    1.097202   2.184107   2.688799   4.042473   4.991938
    15  H    1.097996   2.187776   2.623761   4.045313   4.995051
    16  H    2.159700   1.093142   2.112797   2.759492   4.197885
    17  H    2.156010   1.093753   2.085592   2.815795   4.268467
    18  H    2.554510   1.990302   1.012888   2.023513   2.759167
    19  H    4.097007   2.739282   2.114098   1.095320   2.164853
    20  H    4.164367   2.795317   2.084808   1.097479   2.154528
    21  H    5.710249   5.142007   3.763088   3.405690   2.147710
    22  H    5.794161   5.219442   3.783249   3.450590   2.151007
    23  H    3.742259   3.570790   2.347414   2.965158   2.729524
    24  H    5.410501   5.524028   4.372326   4.815348   4.073917
    25  H    3.756468   4.449623   3.773639   4.888116   4.882745
    26  H    3.736700   4.432083   3.816102   4.886466   4.893309
    27  H    6.185226   6.845245   5.981494   6.838976   6.354973
    28  H    5.575339   6.548067   5.998672   7.102568   6.945592
    29  H    6.198206   6.859008   6.030417   6.858067   6.377685
    30  H    8.051702   6.909474   5.672373   4.427750   3.166636
    31  H    7.294708   6.402458   5.016205   4.094218   2.550988
                    6          7          8          9         10
     6  C    0.000000
     7  N    1.451107   0.000000
     8  N    2.413662   1.419600   0.000000
     9  C    3.649190   2.301176   1.473562   0.000000
    10  C    4.823247   3.635002   2.414930   1.510100   0.000000
    11  N    2.493020   3.725644   4.895886   6.022142   7.290647
    12  N    2.775655   4.202228   5.099202   6.414547   7.501704
    13  H    6.146835   5.139193   5.900083   5.177574   6.400926
    14  H    4.955878   3.849942   4.454108   3.748019   5.003285
    15  H    4.964328   3.813563   4.485112   3.773418   5.022643
    16  H    4.936791   4.466122   5.611621   5.494628   6.949189
    17  H    5.022208   4.510047   5.711701   5.577187   7.027821
    18  H    2.980081   2.326892   3.549588   3.691136   5.157573
    19  H    3.413683   3.751595   5.097447   5.659816   7.131447
    20  H    3.441494   3.759399   5.174039   5.740417   7.208967
    21  H    1.096813   2.105216   2.645195   3.963562   4.979739
    22  H    1.096130   2.075215   2.715966   4.034265   5.031863
    23  H    2.005033   1.017257   1.999683   2.521516   3.864515
    24  H    2.663842   2.034044   1.024528   2.034117   2.646812
    25  H    3.920999   2.513776   2.133147   1.099589   2.138029
    26  H    3.938605   2.602782   2.127633   1.098504   2.155286
    27  H    4.975757   3.917649   2.666625   2.150555   1.094982
    28  H    5.736347   4.440102   3.375230   2.149878   1.093024
    29  H    4.998424   3.986561   2.661995   2.153796   1.094022
    30  H    3.761700   5.194780   6.068656   7.399375   8.465803
    31  H    2.436958   3.874561   4.530017   5.932201   6.884438
                   11         12         13         14         15
    11  N    0.000000
    12  N    1.348992   0.000000
    13  H    7.010569   8.168828   0.000000
    14  H    6.217431   7.249569   1.773402   0.000000
    15  H    6.215328   7.213985   1.768868   1.767432   0.000000
    16  H    5.102016   6.377057   2.523254   2.499493   3.083071
    17  H    5.159720   6.402954   2.479532   3.077867   2.535114
    18  H    3.935114   4.918401   3.531443   3.001043   2.347625
    19  H    2.700229   4.006283   4.842551   4.261277   4.625212
    20  H    2.640377   3.895421   4.904495   4.681634   4.345153
    21  H    2.791041   2.822222   6.780120   5.418186   5.719943
    22  H    2.747809   2.639454   6.865697   5.781986   5.521588
    23  H    3.934419   4.492860   4.803360   3.798277   3.302713
    24  H    5.072781   5.172192   6.450973   4.857247   5.203647
    25  H    6.134034   6.627812   4.648287   3.515636   3.060217
    26  H    6.149430   6.686865   4.624950   3.020567   3.519798
    27  H    7.438684   7.517476   7.049692   5.776872   5.516792
    28  H    8.156019   8.466124   6.277250   4.997801   5.012887
    29  H    7.464642   7.577842   7.060343   5.512758   5.808374
    30  H    2.005408   1.018448   9.002209   8.119176   8.138681
    31  H    2.060980   1.017280   8.329438   7.235875   7.268178
                   16         17         18         19         20
    16  H    0.000000
    17  H    1.785740   0.000000
    18  H    2.922149   2.303842   0.000000
    19  H    2.556495   3.164178   2.941178   0.000000
    20  H    3.168193   2.680592   2.328962   1.776213   0.000000
    21  H    5.438748   5.817244   3.900546   3.794730   4.225753
    22  H    5.804458   5.621921   3.488402   4.239516   3.884866
    23  H    4.385875   4.035227   1.740083   3.898837   3.467537
    24  H    5.978882   6.340499   4.279008   5.325250   5.687918
    25  H    5.267976   5.033739   3.228857   5.661316   5.457670
    26  H    4.930566   5.311001   3.732310   5.364956   5.727351
    27  H    7.590795   7.461547   5.457381   7.596799   7.461076
    28  H    7.192812   7.259534   5.622629   7.726689   7.806139
    29  H    7.385804   7.677501   5.790936   7.399142   7.682049
    30  H    7.063702   7.148494   5.837947   4.577823   4.555169
    31  H    6.691264   6.799387   5.066625   4.461311   4.485487
                   21         22         23         24         25
    21  H    0.000000
    22  H    1.786511   0.000000
    23  H    2.926268   2.292015   0.000000
    24  H    2.455398   3.091289   2.864097   0.000000
    25  H    4.491484   4.200175   2.275047   2.958258   0.000000
    26  H    4.132286   4.568152   2.973537   2.356399   1.771390
    27  H    5.214046   4.942677   4.001157   3.046488   2.475788
    28  H    5.941179   5.997859   4.559833   3.633531   2.469702
    29  H    4.912210   5.264768   4.450034   2.457650   3.055254
    30  H    3.673853   3.632343   5.504151   6.068894   7.639104
    31  H    2.233532   2.218922   4.310354   4.488473   6.270029
                   26         27         28         29         30
    26  H    0.000000
    27  H    3.064997   0.000000
    28  H    2.484224   1.774487   0.000000
    29  H    2.510411   1.777785   1.776093   0.000000
    30  H    7.637286   8.482254   9.442086   8.488424   0.000000
    31  H    6.258946   6.873321   7.896639   6.867386   1.692389
                   31
    31  H    0.000000
 Stoichiometry    C7H19N5
 Framework group  C1[X(C7H19N5)]
 Deg. of freedom    87
 Full point group                 C1      NOp   1
 Largest Abelian subgroup         C1      NOp   1
 Largest concise Abelian subgroup C1      NOp   1
                         Standard orientation:                         
 ---------------------------------------------------------------------
 Center     Atomic      Atomic             Coordinates (Angstroms)
 Number     Number       Type             X           Y           Z
 ---------------------------------------------------------------------
      1          6           0       -1.600517    3.138724    0.034319
      2          6           0       -0.071936    3.072044    0.059885
      3          7           0        0.283957    1.675886   -0.057363
      4          6           0        1.690031    1.314603    0.062363
      5          6           0        1.963942   -0.225933    0.046426
      6          6           0        0.848380   -1.300245    0.029412
      7          7           0       -0.489930   -0.751097   -0.084938
      8          7           0       -1.530520   -1.708180    0.043230
      9          6           0       -2.782032   -0.930936    0.011690
     10          6           0       -3.936736   -1.903639   -0.018491
     11          7           0        3.228506   -0.558670    0.044022
     12          7           0        3.564285   -1.856327   -0.108023
     13          1           0       -1.940169    4.177663    0.039300
     14          1           0       -2.037785    2.632427    0.903981
     15          1           0       -2.011794    2.657964   -0.863075
     16          1           0        0.300552    3.511300    0.989006
     17          1           0        0.329753    3.626992   -0.792743
     18          1           0       -0.056716    1.361820   -0.958056
     19          1           0        2.123731    1.719192    0.983199
     20          1           0        2.234926    1.741289   -0.789393
     21          1           0        0.947958   -1.888634    0.949674
     22          1           0        1.028387   -1.951198   -0.833929
     23          1           0       -0.557341   -0.304252   -0.996310
     24          1           0       -1.488437   -2.193485    0.944544
     25          1           0       -2.829436   -0.290945   -0.881204
     26          1           0       -2.855867   -0.275213    0.889919
     27          1           0       -3.879309   -2.532885   -0.912772
     28          1           0       -4.887227   -1.364260   -0.036861
     29          1           0       -3.918874   -2.549314    0.864497
     30          1           0        4.525671   -2.085156    0.138167
     31          1           0        2.911100   -2.592306    0.149936
 ---------------------------------------------------------------------
 Rotational constants (GHZ):           0.8647054           0.5623662           0.3468088
 Standard basis: 6-31G(2df,p) (6D, 7F)
 There are   467 symmetry adapted cartesian basis functions of A   symmetry.
 There are   431 symmetry adapted basis functions of A   symmetry.
   431 basis functions,   661 primitive gaussians,   467 cartesian basis functions
    48 alpha electrons       48 beta electrons
       nuclear repulsion energy       749.8584793510 Hartrees.
 NAtoms=   31 NActive=   31 NUniq=   31 SFac= 1.00D+00 NAtFMM=   60 NAOKFM=F Big=F
 Integral buffers will be    131072 words long.
 Raffenetti 2 integral format.
 Two-electron integral symmetry is turned on.
 One-electron integrals computed using PRISM.
 PrsmSu:  requested number of processors reduced to:  13 ShMem   1 Linda.
 NBasis=   431 RedAO= T EigKep=  2.50D-04  NBF=   431
 NBsUse=   431 1.00D-06 EigRej= -1.00D+00 NBFU=   431
 ExpMin= 1.61D-01 ExpMax= 4.17D+03 ExpMxC= 6.27D+02 IAcc=3 IRadAn=         5 AccDes= 0.00D+00
 Harris functional with IExCor=  402 and IRadAn=       5 diagonalized for initial guess.
 HarFok:  IExCor=  402 AccDes= 0.00D+00 IRadAn=         5 IDoV= 1 UseB2=F ITyADJ=14
 ICtDFT=  3500011 ScaDFX=  1.000000  1.000000  1.000000  1.000000
 FoFCou: FMM=F IPFlag=           0 FMFlag=      100000 FMFlg1=           0
         NFxFlg=           0 DoJE=T BraDBF=F KetDBF=T FulRan=T
         wScrn=  0.000000 ICntrl=       500 IOpCl=  0 I1Cent=   200000004 NGrid=           0
         NMat0=    1 NMatS0=      1 NMatT0=    0 NMatD0=    1 NMtDS0=    0 NMtDT0=    0
 Petite list used in FoFCou.
 Requested convergence on RMS density matrix=1.00D-08 within 128 cycles.
 Requested convergence on MAX density matrix=1.00D-06.
 Requested convergence on             energy=1.00D-06.
 No special actions if energy rises.
 Integral accuracy reduced to 1.0D-05 until final iterations.
 Initial convergence to 1.0D-05 achieved.  Increase integral accuracy.
 SCF Done:  E(RB3LYP) =  -551.844447885     A.U. after   13 cycles
            NFock= 13  Conv=0.57D-08     -V/T= 2.0078

 **********************************************************************

            Population analysis using the SCF density.

 **********************************************************************

 Orbital symmetries:
       Occupied  (A) (A) (A) (A) (A) (A) (A) (A) (A) (A) (A) (A)
                 (A) (A) (A) (A) (A) (A) (A) (A) (A) (A) (A) (A)
                 (A) (A) (A) (A) (A) (A) (A) (A) (A) (A) (A) (A)
                 (A) (A) (A) (A) (A) (A) (A) (A) (A) (A) (A) (A)
       Virtual   (A) (A) (A) (A) (A) (A) (A) (A) (A) (A) (A) (A)
                 (A) (A) (A) (A) (A) (A) (A) (A) (A) (A) (A) (A)
                 (A) (A) (A) (A) (A) (A) (A) (A) (A) (A) (A) (A)
                 (A) (A) (A) (A) (A) (A) (A) (A) (A) (A) (A) (A)
                 (A) (A) (A) (A) (A) (A) (A) (A) (A) (A) (A) (A)
                 (A) (A) (A) (A) (A) (A) (A) (A) (A) (A) (A) (A)
                 (A) (A) (A) (A) (A) (A) (A) (A) (A) (A) (A) (A)
                 (A) (A) (A) (A) (A) (A) (A) (A) (A) (A) (A) (A)
                 (A) (A) (A) (A) (A) (A) (A) (A) (A) (A) (A) (A)
                 (A) (A) (A) (A) (A) (A) (A) (A) (A) (A) (A) (A)
                 (A) (A) (A) (A) (A) (A) (A) (A) (A) (A) (A) (A)
                 (A) (A) (A) (A) (A) (A) (A) (A) (A) (A) (A) (A)
                 (A) (A) (A) (A) (A) (A) (A) (A) (A) (A) (A) (A)
                 (A) (A) (A) (A) (A) (A) (A) (A) (A) (A) (A) (A)
                 (A) (A) (A) (A) (A) (A) (A) (A) (A) (A) (A) (A)
                 (A) (A) (A) (A) (A) (A) (A) (A) (A) (A) (A) (A)
                 (A) (A) (A) (A) (A) (A) (A) (A) (A) (A) (A) (A)
                 (A) (A) (A) (A) (A) (A) (A) (A) (A) (A) (A) (A)
                 (A) (A) (A) (A) (A) (A) (A) (A) (A) (A) (A) (A)
                 (A) (A) (A) (A) (A) (A) (A) (A) (A) (A) (A) (A)
                 (A) (A) (A) (A) (A) (A) (A) (A) (A) (A) (A) (A)
                 (A) (A) (A) (A) (A) (A) (A) (A) (A) (A) (A) (A)
                 (A) (A) (A) (A) (A) (A) (A) (A) (A) (A) (A) (A)
                 (A) (A) (A) (A) (A) (A) (A) (A) (A) (A) (A) (A)
                 (A) (A) (A) (A) (A) (A) (A) (A) (A) (A) (A) (A)
                 (A) (A) (A) (A) (A) (A) (A) (A) (A) (A) (A) (A)
                 (A) (A) (A) (A) (A) (A) (A) (A) (A) (A) (A) (A)
                 (A) (A) (A) (A) (A) (A) (A) (A) (A) (A) (A) (A)
                 (A) (A) (A) (A) (A) (A) (A) (A) (A) (A) (A) (A)
                 (A) (A) (A) (A) (A) (A) (A) (A) (A) (A) (A) (A)
                 (A) (A) (A) (A) (A) (A) (A) (A) (A) (A) (A) (A)
                 (A) (A) (A) (A) (A) (A) (A) (A) (A) (A) (A)
 The electronic state is 1-A.
 Alpha  occ. eigenvalues --  -14.35087 -14.34182 -14.32892 -14.32143 -14.29460
 Alpha  occ. eigenvalues --  -10.21091 -10.20724 -10.20127 -10.19802 -10.19614
 Alpha  occ. eigenvalues --  -10.16939 -10.16733  -0.97980  -0.96203  -0.89606
 Alpha  occ. eigenvalues --   -0.81996  -0.78987  -0.73619  -0.72246  -0.66512
 Alpha  occ. eigenvalues --   -0.64919  -0.60544  -0.59510  -0.55778  -0.51514
 Alpha  occ. eigenvalues --   -0.49783  -0.47952  -0.47601  -0.46147  -0.44083
 Alpha  occ. eigenvalues --   -0.43882  -0.43135  -0.41876  -0.41014  -0.39693
 Alpha  occ. eigenvalues --   -0.36871  -0.36616  -0.35964  -0.35571  -0.34970
 Alpha  occ. eigenvalues --   -0.34684  -0.33996  -0.33816  -0.29315  -0.25475
 Alpha  occ. eigenvalues --   -0.21378  -0.19946  -0.15416
 Alpha virt. eigenvalues --    0.01957   0.05845   0.07962   0.08766   0.10018
 Alpha virt. eigenvalues --    0.11205   0.12772   0.13697   0.14657   0.15406
 Alpha virt. eigenvalues --    0.15910   0.16082   0.17494   0.17836   0.18064
 Alpha virt. eigenvalues --    0.18802   0.19155   0.19428   0.20339   0.21065
 Alpha virt. eigenvalues --    0.22268   0.22779   0.23173   0.23448   0.25198
 Alpha virt. eigenvalues --    0.26526   0.27756   0.29421   0.30297   0.34569
 Alpha virt. eigenvalues --    0.35546   0.43882   0.45657   0.46261   0.47989
 Alpha virt. eigenvalues --    0.49334   0.50637   0.51856   0.52294   0.52422
 Alpha virt. eigenvalues --    0.53289   0.54651   0.55061   0.56066   0.56713
 Alpha virt. eigenvalues --    0.58554   0.58988   0.60229   0.61353   0.61569
 Alpha virt. eigenvalues --    0.62432   0.62821   0.65305   0.66487   0.66971
 Alpha virt. eigenvalues --    0.69269   0.69592   0.70506   0.70928   0.71792
 Alpha virt. eigenvalues --    0.73030   0.73577   0.73698   0.73988   0.74881
 Alpha virt. eigenvalues --    0.75133   0.75613   0.76421   0.77269   0.77651
 Alpha virt. eigenvalues --    0.77722   0.79211   0.80479   0.81353   0.82168
 Alpha virt. eigenvalues --    0.82949   0.83511   0.83531   0.84385   0.84880
 Alpha virt. eigenvalues --    0.85856   0.86871   0.87661   0.89207   0.90629
 Alpha virt. eigenvalues --    0.91552   0.92757   0.94233   0.94937   0.96835
 Alpha virt. eigenvalues --    0.97510   1.01488   1.02801   1.03651   1.11087
 Alpha virt. eigenvalues --    1.12157   1.13997   1.14963   1.17392   1.18643
 Alpha virt. eigenvalues --    1.20633   1.20970   1.23188   1.23678   1.25908
 Alpha virt. eigenvalues --    1.26170   1.28453   1.29021   1.31264   1.32266
 Alpha virt. eigenvalues --    1.34248   1.35186   1.35602   1.37153   1.38610
 Alpha virt. eigenvalues --    1.40918   1.43052   1.44295   1.45851   1.47954
 Alpha virt. eigenvalues --    1.49145   1.50185   1.52478   1.54368   1.55232
 Alpha virt. eigenvalues --    1.57825   1.58886   1.60086   1.63813   1.63975
 Alpha virt. eigenvalues --    1.65069   1.66666   1.66863   1.68412   1.70664
 Alpha virt. eigenvalues --    1.72444   1.73840   1.77461   1.79724   1.81355
 Alpha virt. eigenvalues --    1.82906   1.83301   1.86424   1.88817   1.89831
 Alpha virt. eigenvalues --    1.91332   1.91881   1.92660   1.95537   1.95659
 Alpha virt. eigenvalues --    1.96530   1.97878   1.99631   2.02034   2.04148
 Alpha virt. eigenvalues --    2.08669   2.09651   2.12962   2.16247   2.17571
 Alpha virt. eigenvalues --    2.18420   2.20334   2.25431   2.26437   2.28072
 Alpha virt. eigenvalues --    2.29136   2.31588   2.32021   2.34152   2.36124
 Alpha virt. eigenvalues --    2.38035   2.39586   2.41159   2.43190   2.44399
 Alpha virt. eigenvalues --    2.45468   2.47406   2.49103   2.53710   2.54412
 Alpha virt. eigenvalues --    2.57350   2.58985   2.60621   2.64643   2.67320
 Alpha virt. eigenvalues --    2.71169   2.71847   2.74871   2.75372   2.76366
 Alpha virt. eigenvalues --    2.77732   2.78917   2.80511   2.82107   2.82902
 Alpha virt. eigenvalues --    2.84990   2.85676   2.86110   2.86737   2.88525
 Alpha virt. eigenvalues --    2.89068   2.90448   2.91267   2.91895   2.92986
 Alpha virt. eigenvalues --    2.93487   2.95652   2.97620   2.99035   2.99548
 Alpha virt. eigenvalues --    2.99912   3.01280   3.03148   3.04014   3.04553
 Alpha virt. eigenvalues --    3.06443   3.10070   3.10832   3.11506   3.12236
 Alpha virt. eigenvalues --    3.17826   3.18572   3.20382   3.23495   3.25410
 Alpha virt. eigenvalues --    3.26495   3.29052   3.32449   3.34256   3.36118
 Alpha virt. eigenvalues --    3.37586   3.38324   3.38452   3.41604   3.42857
 Alpha virt. eigenvalues --    3.43808   3.45205   3.47592   3.48419   3.51541
 Alpha virt. eigenvalues --    3.52788   3.53602   3.56529   3.57076   3.59048
 Alpha virt. eigenvalues --    3.59645   3.62696   3.63723   3.65192   3.67111
 Alpha virt. eigenvalues --    3.68285   3.68847   3.73060   3.74650   3.75487
 Alpha virt. eigenvalues --    3.76380   3.77244   3.79020   3.81298   3.83387
 Alpha virt. eigenvalues --    3.85783   3.89447   3.91105   3.91835   3.94383
 Alpha virt. eigenvalues --    3.95712   3.98283   3.98806   4.00401   4.04184
 Alpha virt. eigenvalues --    4.07826   4.09513   4.13470   4.14057   4.15445
 Alpha virt. eigenvalues --    4.16774   4.18726   4.20397   4.23423   4.24554
 Alpha virt. eigenvalues --    4.24893   4.27045   4.29405   4.31663   4.33294
 Alpha virt. eigenvalues --    4.35617   4.38184   4.39307   4.40641   4.41328
 Alpha virt. eigenvalues --    4.42340   4.43461   4.44647   4.46265   4.47443
 Alpha virt. eigenvalues --    4.48459   4.49311   4.50776   4.51052   4.53279
 Alpha virt. eigenvalues --    4.54040   4.54606   4.54939   4.55640   4.57170
 Alpha virt. eigenvalues --    4.58864   4.61092   4.61297   4.62960   4.63337
 Alpha virt. eigenvalues --    4.65348   4.66164   4.66622   4.67398   4.68445
 Alpha virt. eigenvalues --    4.69429   4.70647   4.71835   4.72370   4.72935
 Alpha virt. eigenvalues --    4.74354   4.75841   4.77022   4.78662   4.80225
 Alpha virt. eigenvalues --    4.81765   4.83503   4.84718   4.85837   4.89077
 Alpha virt. eigenvalues --    4.90100   4.90885   4.91967   4.93217   4.95209
 Alpha virt. eigenvalues --    4.96603   4.98088   5.00882   5.03076   5.05076
 Alpha virt. eigenvalues --    5.06203   5.10002   5.11978   5.14118   5.14564
 Alpha virt. eigenvalues --    5.18518   5.21091   5.24157   5.27891   5.30595
 Alpha virt. eigenvalues --    5.34075   5.36780   5.39483   5.41326   5.42572
 Alpha virt. eigenvalues --    5.45553   5.51891   5.53561   5.58121   5.59868
 Alpha virt. eigenvalues --    5.64052   5.64250   5.69221   5.77353   5.80026
 Alpha virt. eigenvalues --    6.08660   7.66747   9.76774  10.63963  11.00934
 Alpha virt. eigenvalues --   11.23970  11.29673  11.38786  11.40503  11.48930
 Alpha virt. eigenvalues --   11.55942  11.71351  11.83001  12.10821  12.54454
 Alpha virt. eigenvalues --   14.30720  15.60290  19.20703
          Condensed to atoms (all electrons):
               1          2          3          4          5          6
     1  C    4.957457   0.417396  -0.043729   0.003694  -0.000190  -0.000000
     2  C    0.417396   4.801094   0.360908  -0.053865   0.003773   0.000073
     3  N   -0.043729   0.360908   6.400293   0.370554  -0.034475   0.005367
     4  C    0.003694  -0.053865   0.370554   4.933349   0.390132  -0.054437
     5  C   -0.000190   0.003773  -0.034475   0.390132   4.653056   0.416098
     6  C   -0.000000   0.000073   0.005367  -0.054437   0.416098   4.969793
     7  N    0.000363   0.001235  -0.019116   0.001001  -0.027927   0.372887
     8  N    0.000017  -0.000101   0.001413   0.000057   0.000729  -0.041843
     9  C   -0.000257  -0.000010   0.000521   0.000012  -0.000272   0.003674
    10  C    0.000010  -0.000000   0.000011   0.000000   0.000002  -0.000327
    11  N    0.000000  -0.000040   0.000276  -0.031715   0.604132  -0.045307
    12  N   -0.000000   0.000001  -0.000038   0.003496  -0.121824  -0.011586
    13  H    0.358982  -0.024475   0.003892  -0.000188   0.000001   0.000000
    14  H    0.375784  -0.025444   0.004479   0.000154  -0.000004   0.000008
    15  H    0.377622  -0.028539  -0.005398   0.000089   0.000011  -0.000006
    16  H   -0.027320   0.370249  -0.026225  -0.003475   0.000252  -0.000015
    17  H   -0.046539   0.340676  -0.032638  -0.001692  -0.000398   0.000029
    18  H   -0.001019  -0.043127   0.326457  -0.056428   0.004199  -0.001524
    19  H    0.000165  -0.005001  -0.019060   0.346763  -0.013652   0.002166
    20  H   -0.000099  -0.006493  -0.038984   0.349057  -0.037847   0.003843
    21  H   -0.000001  -0.000001  -0.000279   0.002256  -0.017862   0.336102
    22  H    0.000001   0.000018  -0.000043   0.002852  -0.038333   0.335632
    23  H   -0.000151  -0.000378  -0.003889  -0.001319   0.002755  -0.054203
    24  H   -0.000000   0.000000  -0.000100   0.000010  -0.000179  -0.005478
    25  H    0.000119  -0.000049  -0.000061  -0.000010  -0.000018   0.000280
    26  H   -0.000023   0.000001   0.000217   0.000004   0.000093   0.000417
    27  H   -0.000000   0.000000  -0.000000   0.000000   0.000000   0.000013
    28  H    0.000000   0.000000  -0.000000   0.000000  -0.000000   0.000004
    29  H   -0.000000  -0.000000   0.000000  -0.000000  -0.000000   0.000001
    30  H    0.000000  -0.000000  -0.000000  -0.000182   0.002729  -0.000003
    31  H    0.000000   0.000000   0.000018  -0.000120   0.003973   0.002431
               7          8          9         10         11         12
     1  C    0.000363   0.000017  -0.000257   0.000010   0.000000  -0.000000
     2  C    0.001235  -0.000101  -0.000010  -0.000000  -0.000040   0.000001
     3  N   -0.019116   0.001413   0.000521   0.000011   0.000276  -0.000038
     4  C    0.001001   0.000057   0.000012   0.000000  -0.031715   0.003496
     5  C   -0.027927   0.000729  -0.000272   0.000002   0.604132  -0.121824
     6  C    0.372887  -0.041843   0.003674  -0.000327  -0.045307  -0.011586
     7  N    6.569325   0.208271  -0.053905   0.003977   0.001496   0.000154
     8  N    0.208271   6.544382   0.366647  -0.041809  -0.000063   0.000002
     9  C   -0.053905   0.366647   4.776342   0.380859   0.000002   0.000000
    10  C    0.003977  -0.041809   0.380859   4.992256  -0.000000   0.000000
    11  N    0.001496  -0.000063   0.000002  -0.000000   6.400684   0.380085
    12  N    0.000154   0.000002   0.000000   0.000000   0.380085   6.479171
    13  H    0.000004  -0.000000   0.000006  -0.000000  -0.000000   0.000000
    14  H    0.000285  -0.000044   0.000117   0.000005   0.000000   0.000000
    15  H   -0.000153  -0.000005   0.000052  -0.000004  -0.000000   0.000000
    16  H   -0.000047   0.000001  -0.000001  -0.000000  -0.000002   0.000000
    17  H   -0.000056   0.000002   0.000000   0.000000   0.000005   0.000000
    18  H   -0.005757   0.000541  -0.000188  -0.000003  -0.000075  -0.000003
    19  H   -0.000232   0.000003  -0.000001  -0.000000  -0.002810   0.000105
    20  H   -0.000122   0.000010   0.000001   0.000000  -0.003250  -0.000126
    21  H   -0.021168  -0.003696   0.000167  -0.000022  -0.005163   0.003340
    22  H   -0.034253   0.005211   0.000124   0.000066  -0.003515   0.008637
    23  H    0.308490  -0.024935  -0.005633  -0.000590  -0.000098  -0.000022
    24  H   -0.045353   0.332843  -0.042110   0.000449  -0.000001  -0.000001
    25  H   -0.009044  -0.025454   0.373052  -0.033514  -0.000000  -0.000000
    26  H    0.020124  -0.045942   0.363014  -0.039520   0.000000   0.000000
    27  H    0.000331   0.004937  -0.026573   0.373215   0.000000   0.000000
    28  H   -0.000056   0.003392  -0.024329   0.369153   0.000000   0.000000
    29  H    0.000167  -0.004254  -0.028266   0.377706   0.000000   0.000000
    30  H   -0.000007  -0.000000  -0.000000   0.000000  -0.038566   0.355997
    31  H   -0.000392   0.000039  -0.000001   0.000000  -0.054498   0.328647
              13         14         15         16         17         18
     1  C    0.358982   0.375784   0.377622  -0.027320  -0.046539  -0.001019
     2  C   -0.024475  -0.025444  -0.028539   0.370249   0.340676  -0.043127
     3  N    0.003892   0.004479  -0.005398  -0.026225  -0.032638   0.326457
     4  C   -0.000188   0.000154   0.000089  -0.003475  -0.001692  -0.056428
     5  C    0.000001  -0.000004   0.000011   0.000252  -0.000398   0.004199
     6  C    0.000000   0.000008  -0.000006  -0.000015   0.000029  -0.001524
     7  N    0.000004   0.000285  -0.000153  -0.000047  -0.000056  -0.005757
     8  N   -0.000000  -0.000044  -0.000005   0.000001   0.000002   0.000541
     9  C    0.000006   0.000117   0.000052  -0.000001   0.000000  -0.000188
    10  C   -0.000000   0.000005  -0.000004  -0.000000   0.000000  -0.000003
    11  N   -0.000000   0.000000  -0.000000  -0.000002   0.000005  -0.000075
    12  N    0.000000   0.000000   0.000000   0.000000   0.000000  -0.000003
    13  H    0.619510  -0.029238  -0.031774  -0.001824   0.002256  -0.000512
    14  H   -0.029238   0.579170  -0.034133  -0.005635   0.006024  -0.000843
    15  H   -0.031774  -0.034133   0.611090   0.005066  -0.004553   0.006096
    16  H   -0.001824  -0.005635   0.005066   0.625402  -0.051191   0.007443
    17  H    0.002256   0.006024  -0.004553  -0.051191   0.720726  -0.011591
    18  H   -0.000512  -0.000843   0.006096   0.007443  -0.011591   0.579409
    19  H   -0.000005  -0.000015   0.000010   0.006051  -0.001254   0.007028
    20  H    0.000027   0.000031  -0.000015  -0.001452   0.010769  -0.010399
    21  H   -0.000000  -0.000000  -0.000000  -0.000000  -0.000000   0.000055
    22  H    0.000000   0.000000   0.000000  -0.000000  -0.000002  -0.000296
    23  H    0.000000  -0.000060   0.000163   0.000015   0.000044   0.005578
    24  H   -0.000000  -0.000004   0.000000  -0.000000  -0.000000   0.000017
    25  H   -0.000005  -0.000081   0.001175   0.000001   0.000002   0.000245
    26  H    0.000002   0.001596  -0.000045  -0.000002  -0.000000  -0.000137
    27  H    0.000000   0.000000  -0.000000   0.000000  -0.000000  -0.000000
    28  H   -0.000000   0.000001  -0.000000   0.000000  -0.000000  -0.000000
    29  H    0.000000  -0.000000   0.000000  -0.000000   0.000000  -0.000000
    30  H   -0.000000   0.000000  -0.000000   0.000000   0.000000   0.000000
    31  H   -0.000000   0.000000  -0.000000  -0.000000  -0.000000   0.000001
              19         20         21         22         23         24
     1  C    0.000165  -0.000099  -0.000001   0.000001  -0.000151  -0.000000
     2  C   -0.005001  -0.006493  -0.000001   0.000018  -0.000378   0.000000
     3  N   -0.019060  -0.038984  -0.000279  -0.000043  -0.003889  -0.000100
     4  C    0.346763   0.349057   0.002256   0.002852  -0.001319   0.000010
     5  C   -0.013652  -0.037847  -0.017862  -0.038333   0.002755  -0.000179
     6  C    0.002166   0.003843   0.336102   0.335632  -0.054203  -0.005478
     7  N   -0.000232  -0.000122  -0.021168  -0.034253   0.308490  -0.045353
     8  N    0.000003   0.000010  -0.003696   0.005211  -0.024935   0.332843
     9  C   -0.000001   0.000001   0.000167   0.000124  -0.005633  -0.042110
    10  C   -0.000000   0.000000  -0.000022   0.000066  -0.000590   0.000449
    11  N   -0.002810  -0.003250  -0.005163  -0.003515  -0.000098  -0.000001
    12  N    0.000105  -0.000126   0.003340   0.008637  -0.000022  -0.000001
    13  H   -0.000005   0.000027  -0.000000   0.000000   0.000000  -0.000000
    14  H   -0.000015   0.000031  -0.000000   0.000000  -0.000060  -0.000004
    15  H    0.000010  -0.000015  -0.000000   0.000000   0.000163   0.000000
    16  H    0.006051  -0.001452  -0.000000  -0.000000   0.000015  -0.000000
    17  H   -0.001254   0.010769  -0.000000  -0.000002   0.000044  -0.000000
    18  H    0.007028  -0.010399   0.000055  -0.000296   0.005578   0.000017
    19  H    0.601774  -0.044752  -0.000020  -0.000147   0.000040  -0.000001
    20  H   -0.044752   0.685676  -0.000123  -0.000158  -0.000040  -0.000000
    21  H   -0.000020  -0.000123   0.636381  -0.060675   0.007479   0.006580
    22  H   -0.000147  -0.000158  -0.060675   0.701861  -0.014757  -0.001139
    23  H    0.000040  -0.000040   0.007479  -0.014757   0.552945   0.006749
    24  H   -0.000001  -0.000000   0.006580  -0.001139   0.006749   0.523560
    25  H   -0.000000   0.000000   0.000021  -0.000092   0.007673   0.006259
    26  H   -0.000000   0.000000  -0.000101   0.000083  -0.001921  -0.009663
    27  H    0.000000  -0.000000  -0.000001   0.000007  -0.000036  -0.000738
    28  H   -0.000000  -0.000000  -0.000000   0.000000  -0.000014  -0.000471
    29  H   -0.000000   0.000000  -0.000004  -0.000001   0.000024   0.004827
    30  H    0.000022  -0.000012   0.000172  -0.000124  -0.000000  -0.000000
    31  H    0.000045  -0.000009   0.005472  -0.002154   0.000003  -0.000008
              25         26         27         28         29         30
     1  C    0.000119  -0.000023  -0.000000   0.000000  -0.000000   0.000000
     2  C   -0.000049   0.000001   0.000000   0.000000  -0.000000  -0.000000
     3  N   -0.000061   0.000217  -0.000000  -0.000000   0.000000  -0.000000
     4  C   -0.000010   0.000004   0.000000   0.000000  -0.000000  -0.000182
     5  C   -0.000018   0.000093   0.000000  -0.000000  -0.000000   0.002729
     6  C    0.000280   0.000417   0.000013   0.000004   0.000001  -0.000003
     7  N   -0.009044   0.020124   0.000331  -0.000056   0.000167  -0.000007
     8  N   -0.025454  -0.045942   0.004937   0.003392  -0.004254  -0.000000
     9  C    0.373052   0.363014  -0.026573  -0.024329  -0.028266  -0.000000
    10  C   -0.033514  -0.039520   0.373215   0.369153   0.377706   0.000000
    11  N   -0.000000   0.000000   0.000000   0.000000   0.000000  -0.038566
    12  N   -0.000000   0.000000   0.000000   0.000000   0.000000   0.355997
    13  H   -0.000005   0.000002   0.000000  -0.000000   0.000000  -0.000000
    14  H   -0.000081   0.001596   0.000000   0.000001  -0.000000   0.000000
    15  H    0.001175  -0.000045  -0.000000  -0.000000   0.000000  -0.000000
    16  H    0.000001  -0.000002   0.000000   0.000000  -0.000000   0.000000
    17  H    0.000002  -0.000000  -0.000000  -0.000000   0.000000   0.000000
    18  H    0.000245  -0.000137  -0.000000  -0.000000  -0.000000   0.000000
    19  H   -0.000000  -0.000000   0.000000  -0.000000  -0.000000   0.000022
    20  H    0.000000   0.000000  -0.000000  -0.000000   0.000000  -0.000012
    21  H    0.000021  -0.000101  -0.000001  -0.000000  -0.000004   0.000172
    22  H   -0.000092   0.000083   0.000007   0.000000  -0.000001  -0.000124
    23  H    0.007673  -0.001921  -0.000036  -0.000014   0.000024  -0.000000
    24  H    0.006259  -0.009663  -0.000738  -0.000471   0.004827  -0.000000
    25  H    0.639618  -0.052619  -0.006325  -0.002923   0.005660  -0.000000
    26  H   -0.052619   0.668315   0.006381   0.001274  -0.005382   0.000000
    27  H   -0.006325   0.006381   0.587947  -0.029512  -0.032988   0.000000
    28  H   -0.002923   0.001274  -0.029512   0.605557  -0.031098   0.000000
    29  H    0.005660  -0.005382  -0.032988  -0.031098   0.605808  -0.000000
    30  H   -0.000000   0.000000   0.000000   0.000000  -0.000000   0.459372
    31  H   -0.000000   0.000000   0.000000  -0.000000  -0.000000  -0.037649
              31
     1  C    0.000000
     2  C    0.000000
     3  N    0.000018
     4  C   -0.000120
     5  C    0.003973
     6  C    0.002431
     7  N   -0.000392
     8  N    0.000039
     9  C   -0.000001
    10  C    0.000000
    11  N   -0.054498
    12  N    0.328647
    13  H   -0.000000
    14  H    0.000000
    15  H   -0.000000
    16  H   -0.000000
    17  H   -0.000000
    18  H    0.000001
    19  H    0.000045
    20  H   -0.000009
    21  H    0.005472
    22  H   -0.002154
    23  H    0.000003
    24  H   -0.000008
    25  H   -0.000000
    26  H    0.000000
    27  H    0.000000
    28  H   -0.000000
    29  H   -0.000000
    30  H   -0.037649
    31  H    0.516373
 Mulliken charges:
               1
     1  C   -0.372284
     2  C   -0.107902
     3  N   -0.250373
     4  C   -0.200048
     5  C    0.211044
     6  C   -0.234091
     7  N   -0.270522
     8  N   -0.280350
     9  C   -0.083043
    10  C   -0.381921
    11  N   -0.201579
    12  N   -0.426036
    13  H    0.103339
    14  H    0.127848
    15  H    0.103252
    16  H    0.102710
    17  H    0.069380
    18  H    0.194835
    19  H    0.122777
    20  H    0.094468
    21  H    0.111090
    22  H    0.101197
    23  H    0.216092
    24  H    0.223952
    25  H    0.096088
    26  H    0.093835
    27  H    0.123342
    28  H    0.109022
    29  H    0.107800
    30  H    0.258250
    31  H    0.237828
 Sum of Mulliken charges =  -0.00000
 Mulliken charges with hydrogens summed into heavy atoms:
               1
     1  C   -0.037845
     2  C    0.064188
     3  N   -0.055538
     4  C    0.017197
     5  C    0.211044
     6  C   -0.021804
     7  N   -0.054430
     8  N   -0.056399
     9  C    0.106880
    10  C   -0.041757
    11  N   -0.201579
    12  N    0.070043
 Electronic spatial extent (au):  <R**2>=           3217.1224
 Charge=             -0.0000 electrons
 Dipole moment (field-independent basis, Debye):
    X=             -0.5785    Y=             -1.0274    Z=              0.3776  Tot=              1.2380
 Quadrupole moment (field-independent basis, Debye-Ang):
   XX=            -75.8128   YY=            -70.6519   ZZ=            -73.8320
   XY=             -6.1332   XZ=              2.4557   YZ=             -4.7975
 Traceless Quadrupole moment (field-independent basis, Debye-Ang):
   XX=             -2.3806   YY=              2.7803   ZZ=             -0.3997
   XY=             -6.1332   XZ=              2.4557   YZ=             -4.7975
 Octapole moment (field-independent basis, Debye-Ang**2):
  XXX=             12.6404  YYY=            -15.1823  ZZZ=              0.0634  XYY=             25.3636
  XXY=            -28.4752  XXZ=             12.2321  XZZ=             -2.9068  YZZ=             -1.3368
  YYZ=             14.6611  XYZ=             -1.2777
 Hexadecapole moment (field-independent basis, Debye-Ang**3):
 XXXX=          -2360.0924 YYYY=          -1656.7146 ZZZZ=           -123.9395 XXXY=           -151.1296
 XXXZ=             42.2636 YYYX=            -73.6539 YYYZ=            -16.9130 ZZZX=              2.2550
 ZZZY=             -4.5622 XXYY=           -630.5719 XXZZ=           -440.7726 YYZZ=           -295.3517
 XXYZ=            -27.9012 YYXZ=              6.5691 ZZXY=              8.0999
 N-N= 7.498584793510D+02 E-N=-2.782844108524D+03  KE= 5.475608279080D+02
 PrsmSu:  requested number of processors reduced to:  13 ShMem   1 Linda.
 Calling FoFJK, ICntrl=      2127 FMM=F ISym2X=0 I1Cent= 0 IOpClX= 0 NMat=1 NMatS=1 NMatT=0.
 ***** Axes restored to original set *****
 -------------------------------------------------------------------
 Center     Atomic                   Forces (Hartrees/Bohr)
 Number     Number              X              Y              Z
 -------------------------------------------------------------------
      1        6          -0.004306911    0.002524577    0.006376295
      2        6          -0.007745981   -0.001820838   -0.011343749
      3        7           0.009178419   -0.006989882    0.011592815
      4        6           0.000186146   -0.005197178   -0.014729922
      5        6           0.013769173   -0.000247051    0.002718045
      6        6           0.003522889    0.019073236   -0.000465013
      7        7           0.019159854   -0.007100158    0.027546103
      8        7          -0.018776027    0.005695297   -0.027742277
      9        6           0.001033038   -0.014233195    0.000878423
     10        6          -0.007438969    0.000356600   -0.003886498
     11        7          -0.033791174    0.011172948    0.005870261
     12        7           0.010606339   -0.013533630   -0.013401679
     13        1          -0.001859073    0.001436072    0.000203449
     14        1           0.002835929    0.001543444   -0.000997739
     15        1           0.001728120    0.000894392    0.000912911
     16        1           0.004006792   -0.001444095   -0.000545912
     17        1           0.002108911    0.011122323    0.007532640
     18        1           0.000193972    0.001231664    0.003132483
     19        1          -0.003861666    0.002091850    0.001484765
     20        1           0.011185649    0.001118083    0.002694394
     21        1          -0.003237349   -0.003079585   -0.000898154
     22        1           0.009595327   -0.008614796   -0.006289744
     23        1          -0.006885877   -0.010859549   -0.006732921
     24        1           0.006056541    0.010480006    0.005508425
     25        1           0.006521009   -0.001948886   -0.000696070
     26        1          -0.000495725    0.004150159    0.002039267
     27        1          -0.000231269   -0.001715247    0.000827846
     28        1          -0.001869086   -0.001999641    0.000262158
     29        1          -0.001834409   -0.001579175   -0.000694113
     30        1          -0.009451567    0.005081045    0.004942988
     31        1           0.000096973    0.002391215    0.003900524
 -------------------------------------------------------------------
 Cartesian Forces:  Max     0.033791174 RMS     0.008661465

 GradGradGradGradGradGradGradGradGradGradGradGradGradGradGradGradGradGrad
 Berny optimization.
 FormGI is forming the generalized inverse of G from B-inverse, IUseBI=4.
 Internal  Forces:  Max     0.080693844 RMS     0.012890386
 Search for a local minimum.
 Step number   1 out of a maximum of  155
 All quantities printed in internal units (Hartrees-Bohrs-Radians)
 Mixed Optimization -- RFO/linear search
 Second derivative matrix not updated -- first step.
 ITU=  0
     Eigenvalues ---    0.00230   0.00230   0.00366   0.00576   0.00632
     Eigenvalues ---    0.00719   0.00942   0.01016   0.01036   0.01089
     Eigenvalues ---    0.01970   0.02546   0.02681   0.02914   0.03275
     Eigenvalues ---    0.03915   0.04719   0.04724   0.04866   0.04927
     Eigenvalues ---    0.05449   0.05521   0.05708   0.05722   0.05790
     Eigenvalues ---    0.05832   0.06425   0.06486   0.08540   0.08688
     Eigenvalues ---    0.10067   0.10176   0.10668   0.11822   0.11979
     Eigenvalues ---    0.12201   0.12373   0.13337   0.13407   0.14580
     Eigenvalues ---    0.16000   0.16000   0.16000   0.16000   0.16000
     Eigenvalues ---    0.16000   0.16000   0.21864   0.21918   0.22075
     Eigenvalues ---    0.22101   0.23455   0.23501   0.23518   0.25000
     Eigenvalues ---    0.25000   0.25000   0.26432   0.27750   0.29400
     Eigenvalues ---    0.31340   0.33728   0.33848   0.33905   0.33962
     Eigenvalues ---    0.33993   0.34037   0.34114   0.34205   0.34243
     Eigenvalues ---    0.34352   0.34382   0.34452   0.34461   0.34466
     Eigenvalues ---    0.35317   0.37384   0.38100   0.38832   0.42521
     Eigenvalues ---    0.43623   0.44587   0.44775   0.44779   0.45492
     Eigenvalues ---    0.55236   0.65124
 RFO step:  Lambda=-8.02969554D-02 EMin= 2.30000000D-03
 Linear search not attempted -- first point.
 Maximum step size (   0.300) exceeded in Quadratic search.
    -- Step size scaled by   0.625
 Iteration  1 RMS(Cart)=  0.35512450 RMS(Int)=  0.01412411
 Iteration  2 RMS(Cart)=  0.25034098 RMS(Int)=  0.00450482
 Iteration  3 RMS(Cart)=  0.01168014 RMS(Int)=  0.00045701
 Iteration  4 RMS(Cart)=  0.00001152 RMS(Int)=  0.00045697
 Iteration  5 RMS(Cart)=  0.00000001 RMS(Int)=  0.00045697
 Variable       Old X    -DE/DX   Delta X   Delta X   Delta X     New X
                                 (Linear)    (Quad)   (Total)
    R1        2.89175   0.00097   0.00000   0.00161   0.00161   2.89336
    R2        2.06559   0.00190   0.00000   0.00280   0.00280   2.06838
    R3        2.07341  -0.00263   0.00000  -0.00392  -0.00392   2.06950
    R4        2.07491  -0.00131   0.00000  -0.00195  -0.00195   2.07296
    R5        2.73173   0.01217   0.00000   0.01623   0.01623   2.74795
    R6        2.06574   0.00097   0.00000   0.00143   0.00143   2.06716
    R7        2.06689   0.00873   0.00000   0.01286   0.01286   2.07975
    R8        2.75272  -0.00426   0.00000  -0.00587  -0.00587   2.74685
    R9        1.91408  -0.00256   0.00000  -0.00299  -0.00299   1.91109
   R10        2.95700   0.00478   0.00000   0.00866   0.00866   2.96567
   R11        2.06985  -0.00046   0.00000  -0.00068  -0.00068   2.06918
   R12        2.07393   0.00495   0.00000   0.00736   0.00736   2.08130
   R13        2.92689   0.00855   0.00000   0.01494   0.01494   2.94182
   R14        2.47102  -0.03286   0.00000  -0.02807  -0.02807   2.44295
   R15        2.74220  -0.00053   0.00000  -0.00072  -0.00072   2.74148
   R16        2.07268   0.00205   0.00000   0.00304   0.00304   2.07572
   R17        2.07139   0.00787   0.00000   0.01167   0.01167   2.08306
   R18        2.68266   0.02080   0.00000   0.02571   0.02571   2.70836
   R19        1.92234  -0.00590   0.00000  -0.00698  -0.00698   1.91536
   R20        2.78463  -0.00224   0.00000  -0.00323  -0.00323   2.78140
   R21        1.93608  -0.00672   0.00000  -0.00813  -0.00813   1.92795
   R22        2.85368   0.01220   0.00000   0.01936   0.01936   2.87304
   R23        2.07792  -0.00243   0.00000  -0.00364  -0.00364   2.07428
   R24        2.07587   0.00192   0.00000   0.00287   0.00287   2.07874
   R25        2.06922  -0.00096   0.00000  -0.00142  -0.00142   2.06780
   R26        2.06552   0.00116   0.00000   0.00171   0.00171   2.06722
   R27        2.06740   0.00116   0.00000   0.00171   0.00171   2.06911
   R28        2.54923   0.00746   0.00000   0.00736   0.00736   2.55659
   R29        1.92459  -0.00979   0.00000  -0.01163  -0.01163   1.91296
   R30        1.92238  -0.00304   0.00000  -0.00360  -0.00360   1.91878
    A1        1.93022   0.00261   0.00000   0.00729   0.00730   1.93753
    A2        1.94416  -0.00276   0.00000  -0.00708  -0.00709   1.93706
    A3        1.94845  -0.00210   0.00000  -0.00604  -0.00605   1.94240
    A4        1.88720   0.00075   0.00000   0.00303   0.00304   1.89024
    A5        1.87917  -0.00040   0.00000  -0.00121  -0.00120   1.87796
    A6        1.87181   0.00202   0.00000   0.00434   0.00431   1.87611
    A7        1.86153   0.01329   0.00000   0.03087   0.03072   1.89225
    A8        1.91460  -0.00071   0.00000  -0.00134  -0.00116   1.91344
    A9        1.90893  -0.00525   0.00000  -0.00858  -0.00910   1.89982
   A10        1.95319  -0.00945   0.00000  -0.02811  -0.02802   1.92517
   A11        1.91388   0.00349   0.00000   0.02079   0.02065   1.93453
   A12        1.91087  -0.00111   0.00000  -0.01247  -0.01244   1.89843
   A13        2.06068  -0.02001   0.00000  -0.04074  -0.04079   2.01989
   A14        1.86376   0.00519   0.00000   0.00702   0.00697   1.87073
   A15        1.89741   0.00588   0.00000   0.00973   0.00963   1.90704
   A16        1.99578   0.05359   0.00000   0.11634   0.11603   2.11181
   A17        1.93873  -0.02020   0.00000  -0.04773  -0.04734   1.89139
   A18        1.89551  -0.00606   0.00000   0.00085  -0.00015   1.89536
   A19        1.87854  -0.01446   0.00000  -0.02933  -0.02871   1.84983
   A20        1.86288  -0.01729   0.00000  -0.03105  -0.03290   1.82998
   A21        1.88837   0.00258   0.00000  -0.01418  -0.01529   1.87309
   A22        2.16146   0.08069   0.00000   0.15265   0.15262   2.31408
   A23        2.00405  -0.04171   0.00000  -0.07888  -0.07890   1.92514
   A24        2.11768  -0.03898   0.00000  -0.07373  -0.07375   2.04393
   A25        1.98520   0.05584   0.00000   0.12191   0.12142   2.10661
   A26        1.87286  -0.01402   0.00000  -0.02830  -0.02757   1.84529
   A27        1.87789  -0.01761   0.00000  -0.03085  -0.03313   1.84476
   A28        1.93142  -0.02110   0.00000  -0.05038  -0.04996   1.88146
   A29        1.89033  -0.00586   0.00000   0.00344   0.00216   1.89250
   A30        1.90430   0.00150   0.00000  -0.01977  -0.02096   1.88334
   A31        1.99740  -0.02065   0.00000  -0.04525  -0.04566   1.95175
   A32        1.87334   0.01092   0.00000   0.01971   0.01856   1.89190
   A33        1.90547  -0.00488   0.00000  -0.03047  -0.03065   1.87481
   A34        1.83902   0.02369   0.00000   0.04380   0.04402   1.88304
   A35        1.94838  -0.01552   0.00000  -0.04834  -0.04823   1.90015
   A36        1.87923  -0.00395   0.00000  -0.00762  -0.00706   1.87217
   A37        1.88610   0.00984   0.00000   0.02195   0.02192   1.90802
   A38        1.94013  -0.00871   0.00000  -0.02743  -0.02748   1.91265
   A39        1.93353  -0.00072   0.00000   0.00246   0.00229   1.93582
   A40        1.90256   0.00132   0.00000   0.00642   0.00659   1.90915
   A41        1.92739  -0.00238   0.00000  -0.00044  -0.00055   1.92684
   A42        1.87431   0.00046   0.00000  -0.00327  -0.00336   1.87095
   A43        1.92450   0.00091   0.00000   0.00269   0.00268   1.92718
   A44        1.92561   0.00229   0.00000   0.00624   0.00622   1.93183
   A45        1.93001   0.00214   0.00000   0.00497   0.00496   1.93498
   A46        1.89174  -0.00087   0.00000  -0.00110  -0.00112   1.89062
   A47        1.89563  -0.00194   0.00000  -0.00558  -0.00558   1.89005
   A48        1.89547  -0.00271   0.00000  -0.00767  -0.00768   1.88780
   A49        2.07796   0.00325   0.00000   0.00615   0.00615   2.08411
   A50        2.00849  -0.00799   0.00000  -0.02347  -0.02360   1.98489
   A51        2.10313   0.00038   0.00000  -0.00261  -0.00274   2.10039
   A52        1.96304   0.00414   0.00000   0.00810   0.00793   1.97097
    D1       -3.06295  -0.00403   0.00000  -0.01749  -0.01744  -3.08039
    D2        1.10163  -0.00024   0.00000  -0.00144  -0.00145   1.10018
    D3       -0.99444   0.00480   0.00000   0.01998   0.01994  -0.97449
    D4        1.12102  -0.00490   0.00000  -0.02152  -0.02146   1.09956
    D5       -0.99759  -0.00111   0.00000  -0.00547  -0.00547  -1.00306
    D6       -3.09366   0.00393   0.00000   0.01595   0.01592  -3.07773
    D7       -0.97102  -0.00417   0.00000  -0.01810  -0.01807  -0.98909
    D8       -3.08963  -0.00038   0.00000  -0.00206  -0.00208  -3.09171
    D9        1.09749   0.00466   0.00000   0.01936   0.01931   1.11680
   D10       -3.04617  -0.00124   0.00000  -0.00364  -0.00329  -3.04946
   D11        1.09503   0.00067   0.00000   0.00615   0.00644   1.10147
   D12       -0.95228   0.00090   0.00000  -0.00184  -0.00187  -0.95415
   D13       -3.09426   0.00281   0.00000   0.00794   0.00785  -3.08641
   D14        1.17175  -0.00440   0.00000  -0.02203  -0.02225   1.14949
   D15       -0.97024  -0.00249   0.00000  -0.01224  -0.01253  -0.98276
   D16        3.05352  -0.00065   0.00000  -0.00888  -0.00986   3.04366
   D17        0.92319  -0.00542   0.00000  -0.01896  -0.01847   0.90472
   D18       -1.15155   0.00726   0.00000   0.02639   0.02688  -1.12467
   D19       -1.10476  -0.00332   0.00000  -0.02095  -0.02193  -1.12669
   D20        3.04809  -0.00809   0.00000  -0.03103  -0.03054   3.01755
   D21        0.97335   0.00459   0.00000   0.01432   0.01481   0.98816
   D22       -0.08858   0.00179   0.00000  -0.00173  -0.00202  -0.09060
   D23        3.04930   0.00360   0.00000   0.01163   0.01163   3.06093
   D24        2.07433   0.00149   0.00000  -0.00584  -0.00629   2.06804
   D25       -1.07097   0.00330   0.00000   0.00752   0.00735  -1.06362
   D26       -2.18500  -0.01124   0.00000  -0.05213  -0.05181  -2.23681
   D27        0.95288  -0.00943   0.00000  -0.03876  -0.03817   0.91472
   D28        0.08625  -0.00382   0.00000  -0.01093  -0.01067   0.07557
   D29       -2.05598  -0.00329   0.00000  -0.00598  -0.00558  -2.06156
   D30        2.18008   0.01126   0.00000   0.04763   0.04725   2.22733
   D31       -3.05140  -0.00576   0.00000  -0.02516  -0.02508  -3.07648
   D32        1.08956  -0.00524   0.00000  -0.02021  -0.01999   1.06957
   D33       -0.95757   0.00932   0.00000   0.03340   0.03284  -0.92473
   D34       -3.02369  -0.00595   0.00000  -0.03489  -0.03404  -3.05773
   D35        0.11429  -0.00391   0.00000  -0.02136  -0.02221   0.09208
   D36       -3.02850  -0.00508   0.00000  -0.02032  -0.01928  -3.04778
   D37        1.13724   0.00650   0.00000   0.03326   0.03461   1.17184
   D38       -0.91876   0.00036   0.00000  -0.00863  -0.00936  -0.92812
   D39       -3.03621   0.01194   0.00000   0.04496   0.04453  -2.99168
   D40        1.16790  -0.01398   0.00000  -0.06060  -0.06137   1.10654
   D41       -0.94955  -0.00240   0.00000  -0.00701  -0.00748  -0.95702
   D42        3.06034   0.00163   0.00000   0.00514   0.00428   3.06462
   D43        1.02537   0.00041   0.00000   0.01321   0.01289   1.03826
   D44       -1.12316  -0.00169   0.00000  -0.02200  -0.02168  -1.14484
   D45        3.12505  -0.00291   0.00000  -0.01393  -0.01307   3.11198
   D46        3.02784   0.00479   0.00000   0.02288   0.02272   3.05056
   D47        0.94079   0.00214   0.00000   0.01749   0.01757   0.95836
   D48       -1.14175   0.00772   0.00000   0.03789   0.03783  -1.10392
   D49       -1.17378  -0.00287   0.00000  -0.01421  -0.01428  -1.18805
   D50        3.02235  -0.00551   0.00000  -0.01960  -0.01942   3.00293
   D51        0.93981   0.00007   0.00000   0.00080   0.00084   0.94065
   D52       -1.05796   0.00309   0.00000   0.01330   0.01330  -1.04467
   D53        3.13611   0.00213   0.00000   0.00898   0.00897  -3.13810
   D54        1.03882   0.00265   0.00000   0.01129   0.01128   1.05009
   D55        1.05265  -0.00078   0.00000  -0.00300  -0.00296   1.04969
   D56       -1.03646  -0.00174   0.00000  -0.00732  -0.00729  -1.04375
   D57       -3.13376  -0.00123   0.00000  -0.00501  -0.00498  -3.13874
   D58        3.10782  -0.00082   0.00000  -0.00338  -0.00340   3.10443
   D59        1.01871  -0.00178   0.00000  -0.00770  -0.00773   1.01099
   D60       -1.07858  -0.00127   0.00000  -0.00539  -0.00542  -1.08400
   D61       -2.87503   0.00179   0.00000   0.01165   0.01155  -2.86348
   D62       -0.43244  -0.00180   0.00000  -0.01172  -0.01162  -0.44406
   D63        2.49811  -0.00433   0.00000  -0.02451  -0.02451   2.47360
         Item               Value     Threshold  Converged?
 Maximum Force            0.080694     0.000450     NO 
 RMS     Force            0.012890     0.000300     NO 
 Maximum Displacement     1.761055     0.001800     NO 
 RMS     Displacement     0.597000     0.001200     NO 
 Predicted change in Energy=-3.924355D-02
 GradGradGradGradGradGradGradGradGradGradGradGradGradGradGradGradGradGrad

                          Input orientation:                          
 ---------------------------------------------------------------------
 Center     Atomic      Atomic             Coordinates (Angstroms)
 Number     Number       Type             X           Y           Z
 ---------------------------------------------------------------------
      1          6           0        1.413248    0.761096    0.641834
      2          6           0        2.901294    0.474213    0.423442
      3          7           0        3.025740   -0.559734   -0.591464
      4          6           0        4.374493   -1.041784   -0.839175
      5          6           0        4.636846   -2.244975   -1.812007
      6          6           0        3.682926   -3.202949   -2.583877
      7          7           0        2.245937   -3.007811   -2.543957
      8          7           0        1.545984   -4.063540   -3.214462
      9          6           0        0.103244   -3.837556   -3.030645
     10          6           0       -0.673753   -4.865870   -3.837054
     11          7           0        5.907172   -2.437446   -1.954991
     12          7           0        6.343184   -3.369517   -2.833311
     13          1           0        1.271831    1.579166    1.355126
     14          1           0        0.895528   -0.123947    1.026509
     15          1           0        0.921453    1.049460   -0.295349
     16          1           0        3.352977    0.140862    1.362307
     17          1           0        3.398607    1.401462    0.100769
     18          1           0        2.642803   -0.184399   -1.448914
     19          1           0        4.820776   -1.326170    0.119417
     20          1           0        4.974304   -0.213012   -1.247084
     21          1           0        3.895959   -4.209302   -2.198647
     22          1           0        4.010542   -3.166301   -3.635734
     23          1           0        2.026871   -2.143999   -3.026814
     24          1           0        1.773735   -4.949455   -2.762637
     25          1           0       -0.158394   -2.829426   -3.377176
     26          1           0       -0.171211   -3.897325   -1.967091
     27          1           0       -0.429063   -4.781446   -4.900230
     28          1           0       -1.750897   -4.715826   -3.719063
     29          1           0       -0.432719   -5.882177   -3.508595
     30          1           0        7.311797   -3.632261   -2.701037
     31          1           0        5.750814   -4.155281   -3.083620
 ---------------------------------------------------------------------
                    Distance matrix (angstroms):
                    1          2          3          4          5
     1  C    0.000000
     2  C    1.531103   0.000000
     3  N    2.421930   1.454155   0.000000
     4  C    3.769978   2.462269   1.453571   0.000000
     5  C    5.044738   3.924712   2.631621   1.569363   0.000000
     6  C    5.591986   4.814191   3.374639   2.862321   1.556747
     7  N    5.004728   4.621628   3.226981   3.361889   2.614215
     8  N    6.177844   5.971802   4.620223   4.772155   3.850648
     9  C    6.029164   6.192830   5.023416   5.555398   4.957312
    10  C    7.488576   7.710335   6.539336   7.006833   6.258784
    11  N    6.096682   4.813524   3.699684   2.354150   1.292756
    12  N    7.310463   6.101419   4.891441   3.642892   2.284567
    13  H    1.094542   2.178096   3.382351   4.616367   5.998176
    14  H    1.095130   2.178206   2.710267   4.052949   5.152999
    15  H    1.096964   2.183423   2.665560   4.073394   5.192080
    16  H    2.160167   1.093896   2.101223   2.699753   4.173345
    17  H    2.155103   1.100558   2.112938   2.793797   4.299820
    18  H    2.603266   2.001575   1.011305   2.026239   2.890332
    19  H    4.029993   2.649193   2.077241   1.094962   2.146726
    20  H    4.147049   2.749602   2.084935   1.101375   2.135858
    21  H    6.239956   5.458940   4.081626   3.479990   2.134710
    22  H    6.361444   5.564233   4.126937   3.530832   2.137072
    23  H    4.719649   4.418587   3.072225   3.392930   2.880612
    24  H    6.658135   6.390513   5.054815   5.072823   4.051581
    25  H    5.613765   5.892403   4.801084   5.494013   5.077959
    26  H    5.569371   5.853655   4.822070   5.485411   5.086425
    27  H    8.051606   8.188694   6.951545   7.317882   6.452460
    28  H    7.682833   8.108004   7.061957   7.701477   7.109517
    29  H    8.047779   8.184146   6.985628   7.325605   6.465921
    30  H    8.078939   6.788081   5.679877   4.336456   3.141703
    31  H    7.540839   6.469271   5.154108   4.077457   2.550920
                    6          7          8          9         10
     6  C    0.000000
     7  N    1.450728   0.000000
     8  N    2.388468   1.433204   0.000000
     9  C    3.662848   2.348717   1.471855   0.000000
    10  C    4.828707   3.694465   2.441021   1.520345   0.000000
    11  N    2.434905   3.751912   4.821868   6.066541   7.262781
    12  N    2.677113   4.123347   4.862106   6.260580   7.244583
    13  H    6.648139   6.098532   7.266115   7.066927   8.501913
    14  H    5.503156   4.784193   5.824889   5.556897   6.971565
    15  H    5.562920   4.824101   5.920645   5.659879   7.076686
    16  H    5.182886   5.137955   6.472174   6.759186   8.265305
[...]
 00000582,0.00000980,-0.00000169,0.00001464,-0.00002275,-0.00001483,-0.
 00002520,-0.00000067,0.00000653,-0.00000424,0.00003751,-0.00000624,0.0
 0000855,0.00002413,-0.00007367,-0.00007990,-0.00005487,0.00000950,-0.0
 0001352,0.00003402,-0.00000357,0.00001389,0.00002870,0.00014803,-0.000
 04678,0.00021843,-0.00059545,-0.00010014,0.00076560,0.00005010,-0.0002
 5747,-0.00070620,-0.00322909,0.00041254,-0.00209555,-0.09902101,-0.092
 15620,0.21549986,-0.00010059,-0.00004755,-0.00005236,-0.00008570,0.000
 00125,0.00005145,0.00019995,-0.00025023,-0.00005157,-0.00015317,0.0001
 7326,0.00002619,0.00006631,0.00011191,0.00028355,-0.00011637,-0.000640
 10,0.00016421,0.00422436,0.00360989,0.00261308,-0.02263677,0.02373128,
 -0.00130896,-0.10145462,0.07436381,0.05995714,0.01046654,-0.01678296,-
 0.01182872,-0.00017411,-0.00021361,-0.00020544,0.00002609,0.00002784,0
 .00009548,0.00003604,0.00000611,0.00002078,0.00006442,-0.00000593,-0.0
 0000705,0.00001256,0.00000069,0.00000444,-0.00001059,-0.00000227,-0.00
 000711,0.00003573,-0.00001181,-0.00001356,-0.00008418,-0.00004053,-0.0
 0002380,0.00002849,0.00000026,0.00003864,0.00004067,-0.00006478,-0.000
 00260,0.00028586,-0.00007069,-0.00017329,-0.00004910,0.00009969,-0.000
 05670,-0.00050223,-0.00187489,-0.00050215,0.00084766,-0.00141406,-0.00
 011554,-0.00725183,0.01145140,0.01049420,0.11689942,0.00009028,0.00004
 608,0.00006117,0.00008949,-0.00000514,-0.00008032,-0.00020116,0.000175
 33,0.00005661,0.00009967,-0.00015181,-0.00001741,-0.00007594,-0.000049
 18,-0.00024569,-0.00035248,0.00000972,0.00063771,-0.00323866,0.0029024
 7,0.00066224,0.01728465,-0.01705127,-0.00050961,0.07304614,-0.15902147
 ,-0.08071869,0.00998319,-0.01641704,-0.01309987,0.00012606,0.00016647,
 0.00015000,-0.00000422,-0.00000646,-0.00006980,-0.00002551,0.00000246,
 -0.00001082,-0.00005278,0.00002394,-0.00000552,-0.00001965,-0.00001160
 ,-0.00000278,0.00001659,-0.00000165,0.00001876,-0.00003745,0.00001377,
 0.00001877,0.00004863,0.00002456,0.00001448,-0.00002359,0.00000222,-0.
 00005002,-0.00002711,0.00006396,-0.00000643,-0.00035606,-0.00007452,0.
 00000581,0.00001809,-0.00004890,-0.00024050,0.00205702,0.00046479,0.00
 051952,0.00017654,0.00021099,-0.00026860,-0.00592633,0.00908226,0.0058
 4815,-0.08992452,0.18071935,0.00006737,0.00003447,0.00002284,-0.000029
 43,0.00003134,0.00007582,-0.00030655,-0.00008273,-0.00014817,0.0001336
 2,-0.00015329,-0.00000361,-0.00004387,-0.00018520,0.00009502,0.0000848
 5,-0.00011681,-0.00065139,0.00275223,0.00473249,0.00287127,-0.01940248
 ,0.01780946,0.00869575,0.05759165,-0.08101936,-0.11311256,0.00625805,-
 0.00809636,-0.00617125,-0.00000376,0.00002382,-0.00008965,0.00002027,-
 0.00000647,0.00012319,-0.00001722,-0.00001318,-0.00002257,-0.00004748,
 0.00000340,0.00002741,0.00000063,0.00000889,0.00000271,0.00001021,0.00
 001377,-0.00001122,-0.00002245,-0.00001548,-0.00004252,0.00006209,0.00
 002728,0.00001128,-0.00001486,0.00001268,-0.00001368,-0.00004730,0.000
 03137,-0.00000832,0.00008327,-0.00009371,0.00003077,0.00003403,-0.0001
 0139,0.00021829,0.00193572,-0.00170938,0.00042852,-0.00021468,-0.00036
 423,0.00198533,0.01226408,-0.01770796,-0.01312893,-0.05831042,0.087960
 31,0.11757654,0.00000840,0.00000189,0.00000381,0.00000795,-0.00000282,
 -0.00000868,-0.00001356,0.00003590,0.00000863,0.00001572,-0.00001996,-
 0.00000099,-0.00000741,-0.00001641,-0.00003309,-0.00005509,0.00008883,
 0.00004137,-0.00015927,-0.00016225,0.00015041,0.00153659,0.00017164,0.
 00096442,0.01131878,-0.01689971,-0.01247848,-0.11142121,0.09289174,0.0
 6842245,0.00002668,0.00003797,0.00003544,-0.00000002,-0.00000910,-0.00
 002590,-0.00000465,-0.00000090,-0.00000174,-0.00000570,0.00000341,0.00
 000325,-0.00000070,0.00000053,-0.00000145,0.00000002,0.00000004,-0.000
 00061,-0.00000031,0.00000281,0.00000323,0.00000881,0.00000497,0.000003
 00,-0.00000536,-0.00000077,-0.00001008,-0.00000183,0.00001252,0.000001
 46,-0.00004294,0.00000505,0.00000602,-0.00000143,-0.00001961,-0.000016
 40,0.00001072,0.00023990,0.00009903,-0.00010729,0.00010698,-0.00003426
 ,0.00118057,0.00080057,0.00026970,-0.00240540,-0.00312823,-0.00234284,
 0.11837746,0.00003035,0.00001788,0.00001272,0.00000168,0.00002065,0.00
 002625,-0.00009439,-0.00001024,-0.00003905,0.00005613,-0.00004588,-0.0
 0000424,-0.00000736,0.00001126,0.00004153,0.00010631,0.00002864,-0.000
 14038,-0.00034298,0.00032427,0.00027934,0.00054921,0.00191933,0.001039
 70,0.01222182,-0.01917316,-0.01258082,0.09105771,-0.17745389,-0.094969
 50,0.00000065,-0.00002983,-0.00006000,0.00000620,0.00000597,0.00008792
 ,-0.00000777,-0.00000625,-0.00001006,-0.00002012,0.00000276,0.00000384
 ,-0.00000441,-0.00000179,0.00000144,0.00000537,0.00000278,0.00000259,-
 0.00001525,-0.00000909,-0.00001304,0.00002345,0.00001127,0.00000382,0.
 00000132,0.00000845,0.00000694,-0.00002159,0.00000511,-0.00000437,-0.0
 0006818,0.00002217,-0.00000041,-0.00001176,-0.00005200,0.00002344,0.00
 035581,0.00010191,0.00028342,-0.00006721,-0.00007980,-0.00007418,0.000
 54767,0.00062858,0.00064678,-0.00400274,-0.00239678,-0.00166441,-0.098
 51573,0.19460345,0.00001380,0.00000729,0.00000968,0.00001585,-0.000000
 04,-0.00001198,-0.00002497,0.00004099,0.00000442,0.00001458,-0.0000270
 1,-0.00000045,-0.00001644,0.00000281,-0.00002466,-0.00003448,-0.000018
 40,0.00003249,-0.00052870,0.00026829,0.00008409,0.00116246,0.00046812,
 0.00068257,0.00548271,-0.00825446,-0.00649850,0.06735309,-0.09498341,-
 0.11753736,0.00001430,0.00001555,0.00001454,-0.00000658,0.00000024,-0.
 00001276,-0.00000430,0.00000056,-0.00000252,-0.00000780,0.00000051,-0.
 00000252,-0.00000330,-0.00000101,-0.00000026,0.00000280,-0.00000056,0.
 00000239,-0.00000732,0.00000117,0.00000323,0.00001286,0.00000843,0.000
 00608,-0.00000214,-0.00000001,-0.00000666,-0.00000591,0.00000690,-0.00
 000079,-0.00005616,0.00001446,-0.00000578,0.00002041,-0.00000614,-0.00
 004121,0.00016940,0.00019228,0.00013068,0.00020818,-0.00036202,-0.0002
 7852,-0.00045578,0.00059725,0.00068830,-0.00191111,-0.00132665,0.00039
 419,-0.07379515,0.10656136,0.12378509,-0.00000388,0.00000019,-0.000014
 15,-0.00004121,0.00004632,0.00008011,-0.00001783,-0.00012286,-0.000064
 11,-0.00000538,0.00004184,-0.00001090,0.00004519,0.00011912,0.00015004
 ,0.00046591,0.00003009,-0.00042617,-0.00076271,0.00004521,-0.00159001,
 -0.00238017,-0.00494383,-0.00013628,-0.01394948,0.01217644,-0.01113344
 ,-0.16684229,0.07707936,-0.10745106,-0.00008419,-0.00015950,-0.0001371
 5,0.00000657,0.00002109,0.00013749,0.00000802,-0.00000990,-0.00000397,
 -0.00000109,0.00000870,0.00000102,-0.00000278,-0.00000681,0.00000492,0
 .00000298,0.00000116,0.00000429,-0.00000163,-0.00002211,-0.00002552,-0
 .00001852,-0.00000903,-0.00001321,0.00002529,0.00001053,0.00005836,-0.
 00001057,-0.00004119,-0.00000047,-0.00003427,0.00001156,0.00004091,-0.
 00005948,-0.00000480,0.00016428,-0.00011811,0.00011933,0.00001821,0.00
 007479,0.00012320,-0.00015636,0.00026831,0.00036821,0.00069706,0.00085
 151,-0.00027263,0.00005859,-0.01034769,0.00568229,-0.00952387,0.181326
 74,-0.00000870,-0.00000444,-0.00000765,-0.00001458,0.00001031,0.000022
 00,0.00001120,-0.00002949,-0.00001089,-0.00001214,0.00003074,-0.000008
 87,-0.00003789,0.00002543,0.00009190,0.00023696,-0.00002843,-0.0004266
 0,-0.00191880,0.00023500,-0.00121723,-0.00247763,-0.00365567,-0.000378
 48,-0.01607704,0.01204626,-0.01506012,0.07864744,-0.09622955,0.0689427
 8,-0.00003961,-0.00006324,-0.00003836,0.00000131,0.00000058,0.00003064
 ,0.00000430,-0.00000203,0.00000182,0.00000437,0.00000279,-0.00000082,0
 .00000007,-0.00000190,0.00000048,-0.00000023,0.00000039,0.00000073,0.0
 0000341,-0.00000515,-0.00000540,-0.00001192,-0.00000772,-0.00000664,0.
 00001235,0.00000427,0.00003076,-0.00000042,-0.00001802,0.00000497,-0.0
 0004462,0.00001571,0.00001689,-0.00003627,-0.00001018,0.00012726,0.000
 06529,0.00012994,0.00016193,0.00011533,-0.00033256,-0.00033775,0.00065
 669,0.00086641,0.00051924,0.00093285,0.00066381,0.00023335,0.01363964,
 -0.00937682,0.01468235,-0.08322337,0.10232232,-0.00000864,-0.00000705,
 -0.00001229,-0.00003006,0.00003671,0.00005315,0.00000371,-0.00007979,-
 0.00004674,-0.00000893,0.00003450,0.00000108,-0.00001517,0.00009539,0.
 00014206,0.00010849,-0.00015248,-0.00037122,-0.00079017,0.00052258,0.0
 0004616,-0.00097014,-0.00270492,0.00032725,-0.00581159,0.00626307,-0.0
 0735507,-0.10786868,0.06791510,-0.14135169,-0.00007230,-0.00011983,-0.
 00008727,0.00000393,0.00001118,0.00006308,0.00000608,-0.00000680,-0.00
 000351,0.00000023,0.00000837,0.00000256,0.00000007,-0.00000279,0.00000
 352,0.00000108,-0.00000033,0.00000176,0.00000213,-0.00001609,-0.000015
 96,-0.00001101,-0.00000156,-0.00000378,0.00001530,0.00000686,0.0000289
 6,-0.00000430,-0.00002467,-0.00000112,-0.00002697,0.00001885,0.0000111
 0,-0.00001788,-0.00000443,0.00006564,0.00001380,0.00008626,0.00010337,
 0.00052251,-0.00012936,0.00061866,0.00011817,-0.00025998,0.00059910,0.
 00046564,-0.00014345,-0.00010674,0.01211748,-0.00700728,0.01124972,0.1
 1934874,-0.07463263,0.15092736,0.00000742,0.00000088,-0.00000117,-0.00
 000768,0.00000104,0.00002569,-0.00001143,0.00000510,-0.00003875,-0.000
 01421,-0.00002907,0.00001710,0.00004995,0.00003852,-0.00006612,0.00001
 664,0.00008425,0.00018053,0.00018281,0.00038429,-0.00050189,0.00123803
 ,-0.00023906,0.00164819,-0.01197404,-0.00967134,0.01703114,-0.10751951
 ,-0.05343152,0.09514203,0.00001353,0.00000407,-0.00000542,-0.00001267,
 0.00001323,-0.00000831,-0.00000122,-0.00000361,-0.00000455,-0.00000531
 ,-0.00000171,0.00000600,0.00000129,0.00000524,-0.00000067,0.00000032,0
 .00000287,-0.00000864,-0.00000273,-0.00000206,-0.00000748,0.00001901,0
 .00001892,0.00001266,-0.00000231,0.00000184,-0.00000976,-0.00000371,-0
 .00000330,-0.00000771,-0.00002942,0.00000495,-0.00001494,0.00013600,0.
 00003835,-0.00013189,0.00010968,0.00005365,0.00016759,-0.00061307,0.00
 005417,-0.00122319,-0.00199349,-0.00301783,-0.00222852,0.00090107,0.00
 066437,-0.00052882,-0.00790060,-0.00744959,0.01191621,0.01159196,0.009
 56947,-0.01710333,0.11581115,-0.00000154,-0.00000655,-0.00001066,-0.00
 003026,0.00001887,0.00005691,-0.00000916,-0.00004121,-0.00006886,-0.00
 001029,-0.00001002,0.00001390,0.00006072,0.00007106,-0.00001176,0.0000
 9983,-0.00001237,0.00020849,0.00009582,0.00002141,-0.00047101,0.001738
 40,0.00087545,0.00053599,-0.01235182,-0.01196516,0.01927797,-0.0531801
 2,-0.09513645,0.08360416,-0.00000911,-0.00003920,-0.00004796,-0.000007
 56,0.00001690,0.00003247,0.00000125,-0.00000799,-0.00000784,-0.0000045
 8,-0.00000033,0.00001392,0.00000611,0.00000839,0.00000076,-0.00000185,
 0.00000441,-0.00001209,0.00000138,-0.00001003,-0.00001785,0.00001962,0
 .00002038,0.00001350,0.00000410,0.00000837,0.00000426,-0.00000537,-0.0
 0001214,-0.00000772,-0.00003488,0.00002451,-0.00004039,0.00006572,0.00
 002280,-0.00013814,0.00001320,0.00000928,0.00023173,-0.00058342,0.0005
 1435,-0.00073413,-0.00326769,-0.00249847,-0.00248021,0.00082971,0.0006
 6894,0.00037352,0.01073345,0.01090123,-0.01788418,-0.00709582,-0.00659
 541,0.01028075,0.06291432,0.10315077,-0.00000354,-0.00000025,0.0000013
 3,0.00000972,-0.00001205,-0.00002941,0.00001551,0.00002603,0.00002865,
 -0.00000566,-0.00000431,-0.00000606,-0.00002160,0.00000143,-0.00003763
 ,-0.00008806,-0.00003363,-0.00006307,0.00020306,0.00007604,0.00027951,
 0.00030046,-0.00072100,0.00139200,-0.00659813,-0.00530102,0.00948114,0
 .09517428,0.08422708,-0.19620508,0.00002669,0.00001198,0.00001116,0.00
 000598,-0.00000218,0.00000774,-0.00000017,0.00000477,0.00000490,0.0000
 0446,-0.00000103,-0.00000466,-0.00000144,-0.00000230,-0.00000035,-0.00
 000092,-0.00000296,0.00000227,0.00000277,0.00000612,0.00000842,-0.0000
 0382,-0.00000368,-0.00000268,-0.00000693,-0.00000323,-0.00000632,0.000
 00498,0.00000637,0.00000103,0.00001002,0.00000330,-0.00000535,0.000094
 16,-0.00000892,-0.00001706,-0.00003938,-0.00003150,-0.00003112,0.00065
 743,0.00042158,0.00006088,-0.00245428,-0.00163068,0.00027053,0.0004037
 8,0.00080128,0.00099341,0.00661199,0.00758692,-0.01267284,0.00998273,0
 .00727991,-0.01485877,-0.10426660,-0.09270045,0.21140521,0.00000370,-0
 .00001282,-0.00003299,0.00004071,-0.00004870,0.00005668,0.00013539,-0.
 00016627,-0.00036401,0.00052926,-0.00111726,0.00082172,0.00203183,0.00
 154540,0.00017377,-0.00002782,0.00022426,-0.00023592,0.00006870,0.0000
 2777,0.00008981,0.00003731,0.00001795,-0.00001296,0.00001057,-0.000014
 78,0.00000862,-0.00000398,0.00000490,-0.00000072,-0.00654386,0.0038694
 4,-0.00031822,-0.42920823,-0.05458540,0.07048544,0.00001090,-0.0000071
 8,0.00000016,-0.00000149,0.00000146,0.00000093,-0.00000288,0.00000527,
 -0.00000033,0.00000688,0.00000950,-0.00001332,-0.00000267,-0.00000999,
 -0.00000809,-0.00002012,0.00001629,-0.00000693,-0.00006028,0.00021571,
 0.00022853,-0.00001458,0.00001069,0.00005967,-0.00033149,0.00015418,0.
 00012717,0.00031595,0.00004335,0.00001885,-0.00000819,-0.00002635,0.00
 002368,-0.00000368,0.00000393,-0.00000653,0.00000274,0.00000316,-0.000
 00173,-0.00000075,0.00000092,-0.00000071,0.00000016,-0.00000235,0.0000
 0053,-0.00000388,-0.00000142,-0.00000105,0.00000130,0.00000019,-0.0000
 0200,0.44209540,-0.00000920,-0.00001159,-0.00008092,0.00002049,0.00009
 294,0.00022663,0.00015186,-0.00011870,-0.00019573,-0.00013470,0.002036
 16,-0.00036494,0.00107739,0.00007669,-0.00568801,-0.00150160,-0.001143
 65,-0.00047107,-0.00001098,0.00060037,0.00030023,0.00013775,-0.0000325
 2,0.00004785,0.00000468,0.00004482,-0.00005643,0.00001323,-0.00002262,
 0.00000781,0.02240723,-0.00269330,0.00157326,-0.02870375,-0.05064721,-
 0.02011034,0.00003494,-0.00003380,-0.00001059,0.00000025,0.00000333,0.
 00001286,0.00000743,-0.00001364,0.00002017,-0.00001678,-0.00002606,-0.
 00000812,-0.00002364,-0.00004016,-0.00006264,0.00000343,0.00008116,0.0
 0005509,0.00015267,-0.00050252,-0.00068418,-0.00003606,-0.00007018,-0.
 00007499,-0.00005171,0.00088505,-0.00004719,-0.00013064,-0.00030771,0.
 00066539,-0.00021357,-0.00009010,0.00003588,0.00001944,0.00000176,-0.0
 0000291,-0.00001151,-0.00000826,-0.00000648,0.00001257,-0.00000803,0.0
 0001313,-0.00000264,0.00001007,-0.00000191,0.00001739,0.00000432,0.000
 00980,-0.00000164,0.00000418,0.00000119,0.04410615,0.05509623,-0.00000
 585,-0.00000773,0.00004000,0.00003873,-0.00007292,-0.00011816,-0.00021
 372,0.00011572,0.00012579,0.00091826,0.00073410,-0.00073212,0.00100722
 ,-0.00601247,-0.00403739,0.00029351,-0.00090547,0.00054135,0.00001032,
 -0.00005651,0.00027329,-0.00006214,0.00009664,-0.00004548,0.00005881,-
 0.00008174,0.00007283,-0.00001767,0.00003631,-0.00000896,0.04471585,0.
 00164379,-0.02446820,0.02440601,-0.01772922,-0.02535954,-0.00001594,0.
 00001994,0.00000917,0.00000258,-0.00000433,-0.00000719,0.00000265,0.00
 000501,-0.00000994,-0.00000499,0.00000483,0.00002012,0.00000542,0.0000
 2308,0.00003548,0.00003096,-0.00005715,0.00000726,0.00004210,-0.000089
 90,-0.00010907,-0.00008577,-0.00003112,0.00002636,-0.00055811,-0.00012
 649,-0.00001046,0.00062054,0.00017056,-0.00010290,-0.00004451,-0.00004
 757,-0.00002880,-0.00004812,0.00000747,-0.00001112,0.00001592,0.000004
 21,0.00001552,-0.00003065,0.00002207,-0.00000938,0.00000763,-0.0000113
 0,0.00000422,-0.00002923,-0.00000586,-0.00001552,-0.00000095,-0.000009
 62,0.00000085,-0.06832483,0.01803378,0.05535237,0.00001852,0.00003525,
 0.00010873,-0.00005941,0.00003537,-0.00019481,-0.00037335,0.00028891,0
 .00050979,-0.00018077,-0.00178843,-0.00031090,-0.00106603,0.00407506,0
 .00445096,-0.00185861,0.00393916,0.00018596,0.00054229,-0.00058637,-0.
 00076629,0.00002470,-0.00012700,-0.00011806,-0.00011857,0.00010924,0.0
 0000916,0.00000446,-0.00001637,0.00001382,0.00736882,0.00532750,-0.011
 38221,-0.08049282,-0.09038409,0.02269475,-0.00004367,0.00002980,-0.000
 00021,-0.00001778,-0.00000524,-0.00001243,-0.00000375,0.00000524,-0.00
 001044,0.00001546,0.00001478,0.00002389,-0.00000019,0.00001892,0.00003
 130,0.00007342,-0.00003166,-0.00005913,-0.00022564,0.00036375,0.000492
 98,-0.00002039,-0.00006928,-0.00006003,0.00065809,-0.00218955,0.000294
 24,-0.00269144,-0.00029309,-0.00011907,0.00051948,0.00026944,0.0001052
 7,0.00008116,-0.00000253,0.00004099,0.00000273,0.00002504,-0.00001435,
 0.00003872,-0.00003534,-0.00002379,-0.00001140,-0.00001454,-0.00000315
 ,0.00001791,0.00000396,0.00001285,0.00001122,0.00000966,-0.00001548,-0
 .00905691,-0.03731847,-0.00273403,0.08684373,-0.00001029,-0.00000806,-
 0.00001958,-0.00007822,0.00005187,0.00010021,0.00009182,-0.00001704,0.
 00012239,-0.00062101,0.00160472,-0.00112152,-0.00347447,-0.00021910,0.
 00158522,-0.00012930,0.00267066,0.00048945,0.00056215,0.00027549,0.000
 86577,0.00024381,0.00007622,-0.00004631,0.00004784,0.00004125,-0.00010
 202,0.00000525,-0.00000906,0.00002420,0.00256318,-0.01472713,-0.006840
 27,-0.12512129,-0.37195540,-0.04137828,0.00001468,-0.00001212,-0.00000
 655,0.00000955,0.00000315,0.00000753,0.00000272,-0.00000444,0.00000670
 ,-0.00000900,-0.00000854,-0.00000590,0.00000489,-0.00000994,-0.0000212
 2,-0.00010636,-0.00003529,0.00003472,0.00028508,-0.00024787,-0.0003281
 1,0.00005284,0.00010427,0.00020160,0.00066101,-0.00114040,-0.00078400,
 0.00100781,-0.00055496,0.00145592,-0.00004403,-0.00015724,0.00009532,0
 .00001428,0.00001645,0.00000361,-0.00001136,-0.00002136,0.00002549,-0.
 00000585,0.00000275,0.00002069,0.00000030,0.00000973,-0.00000275,0.000
 00984,0.00000235,0.00000401,-0.00000880,-0.00000595,0.00000519,0.00573
 201,-0.00316703,0.00433189,0.11831091,0.38744202,-0.00000345,0.0000099
 1,0.00008111,-0.00005223,0.00007559,-0.00014977,-0.00021731,0.00047729
 ,0.00063108,0.00003477,0.00058112,-0.00212195,-0.00644619,-0.00192530,
 0.00494379,0.00293249,-0.00163425,0.00100072,-0.00054537,0.00081650,-0
 .00029604,-0.00003025,0.00006109,-0.00001498,0.00001238,-0.00010589,0.
 00016180,-0.00002757,0.00005165,-0.00002276,-0.00599678,-0.04434778,-0
 .01968336,0.02645451,-0.00478665,-0.02908986,-0.00002821,0.00002370,0.
 00000156,0.00000181,-0.00000696,-0.00000590,0.00000382,0.00000551,-0.0
 0000808,0.00000119,-0.00000987,0.00000891,0.00000277,0.00003631,0.0000
 4545,-0.00005579,-0.00001955,0.00001273,0.00021764,-0.00008584,-0.0002
 0201,0.00014654,0.00026885,0.00046344,0.00067361,0.00169668,-0.0000403
 2,-0.00076093,0.00078088,-0.00028625,-0.00032378,-0.00010336,-0.000015
 45,-0.00004340,-0.00001420,-0.00002622,0.00000170,0.00003941,-0.000001
 21,-0.00001755,0.00001925,-0.00003234,0.00000038,-0.00002895,0.0000051
 2,-0.00003085,-0.00000971,-0.00001486,0.00001160,-0.00000544,-0.000008
 65,-0.00276522,0.00686337,-0.00145037,-0.01315032,0.04127661,0.0461146
 8\\-0.00000262,0.00000136,0.00000143,-0.00000043,0.00000061,-0.0000008
 0,0.00000815,0.00000341,0.00000624,-0.00001134,0.00001198,-0.00001281,
 0.00000206,-0.00000918,0.00001584,-0.00001156,0.00000279,0.00000385,0.
 00002133,-0.00000736,-0.00000740,-0.00002430,0.00000811,-0.00000662,0.
 00001782,-0.00000674,0.00002157,-0.00000720,-0.00000756,-0.00000804,0.
 00000131,0.00000008,-0.00001516,0.00000497,0.00000037,0.00000838,-0.00
 000027,0.00000076,-0.00000011,0.00000089,-0.00000045,0.00000032,0.0000
 0004,-0.00000028,0.00000018,-0.00000001,-0.00000033,0.00000048,-0.0000
 0033,0.00000035,0.00000038,0.00000176,0.00000260,0.00000068,0.00000106
 ,-0.00000156,0.00000287,0.00000233,-0.00000276,-0.00000232,-0.00000078
 ,-0.00000248,0.00000139,0.00000091,0.00000451,0.00000090,-0.00000145,-
 0.00000137,-0.00000312,0.00000042,-0.00000236,-0.00000364,-0.00000221,
 -0.00000156,-0.00000312,-0.00000043,0.00000367,-0.00000278,0.00000041,
 0.00000081,0.00000052,-0.00000032,-0.00000074,0.00000164,0.00000092,-0
 .00000022,0.00000133,-0.00000182,0.00000132,-0.00000001,0.00000070,0.0
 0000222,-0.00000205\\\@


 CHRISTMAS IS ON TOP OF A STEEP HILL.
 THE CLOSER YOU GET, THE STEEPER THE HILL IS.
          -- LINUS, OF PEANUTS
 Job cpu time:       0 days  4 hours 43 minutes  3.2 seconds.
 Elapsed time:       0 days  1 hours 10 minutes 49.8 seconds.
 File lengths (MBytes):  RWF=    416 Int=      0 D2E=      0 Chk=     16 Scr=      1
 Normal termination of Gaussian 16 at Tue Jun  1 03:14:52 2021.
### All Done ###
