### Starting Gaussian ###
 Entering Gaussian System, Link 0=g16
 Initial command:
 /cluster/software/gaussian/gaussian-16-A.03/avx2/g16/l1.exe "/local/scratch/cz9n3/Gau-18070.inp" -scrdir="/local/scratch/cz9n3/"
 Entering Link 1 = /cluster/software/gaussian/gaussian-16-A.03/avx2/g16/l1.exe PID=     18071.
  
 Copyright (c) 1988,1990,1992,1993,1995,1998,2003,2009,2016,
            Gaussian, Inc.  All Rights Reserved.
  
 This is part of the Gaussian(R) 16 program.  It is based on
 the Gaussian(R) 09 system (copyright 2009, Gaussian, Inc.),
 the Gaussian(R) 03 system (copyright 2003, Gaussian, Inc.),
 the Gaussian(R) 98 system (copyright 1998, Gaussian, Inc.),
 the Gaussian(R) 94 system (copyright 1995, Gaussian, Inc.),
 the Gaussian 92(TM) system (copyright 1992, Gaussian, Inc.),
 the Gaussian 90(TM) system (copyright 1990, Gaussian, Inc.),
 the Gaussian 88(TM) system (copyright 1988, Gaussian, Inc.),
 the Gaussian 86(TM) system (copyright 1986, Carnegie Mellon
 University), and the Gaussian 82(TM) system (copyright 1983,
 Carnegie Mellon University). Gaussian is a federally registered
 trademark of Gaussian, Inc.
  
 This software contains proprietary and confidential information,
 including trade secrets, belonging to Gaussian, Inc.
  
 This software is provided under written license and may be
 used, copied, transmitted, or stored only in accord with that
 written license.
  
 The following legend is applicable only to US Government
 contracts under FAR:
  
                    RESTRICTED RIGHTS LEGEND
  
 Use, reproduction and disclosure by the US Government is
 subject to restrictions as set forth in subparagraphs (a)
 and (c) of the Commercial Computer Software - Restricted
 Rights clause in FAR 52.227-19.
  
 Gaussian, Inc.
 340 Quinnipiac St., Bldg. 40, Wallingford CT 06492
  
  
 ---------------------------------------------------------------
 Warning -- This program may not be used in any manner that
 competes with the business of Gaussian, Inc. or will provide
 assistance to any competitor of Gaussian, Inc.  The licensee
 of this program is prohibited from giving any competitor of
 Gaussian, Inc. access to this program.  By using this program,
 the user acknowledges that Gaussian, Inc. is engaged in the
 business of creating and licensing software in the field of
 computational chemistry and represents and warrants to the
 licensee that it is not a competitor of Gaussian, Inc. and that
 it will not use this program in any manner prohibited above.
 ---------------------------------------------------------------
  

 Cite this work as:
 Gaussian 16, Revision A.03,
 M. J. Frisch, G. W. Trucks, H. B. Schlegel, G. E. Scuseria, 
 M. A. Robb, J. R. Cheeseman, G. Scalmani, V. Barone, 
 G. A. Petersson, H. Nakatsuji, X. Li, M. Caricato, A. V. Marenich, 
 J. Bloino, B. G. Janesko, R. Gomperts, B. Mennucci, H. P. Hratchian, 
 J. V. Ortiz, A. F. Izmaylov, J. L. Sonnenberg, D. Williams-Young, 
 F. Ding, F. Lipparini, F. Egidi, J. Goings, B. Peng, A. Petrone, 
 T. Henderson, D. Ranasinghe, V. G. Zakrzewski, J. Gao, N. Rega, 
 G. Zheng, W. Liang, M. Hada, M. Ehara, K. Toyota, R. Fukuda, 
 J. Hasegawa, M. Ishida, T. Nakajima, Y. Honda, O. Kitao, H. Nakai, 
 T. Vreven, K. Throssell, J. A. Montgomery, Jr., J. E. Peralta, 
 F. Ogliaro, M. J. Bearpark, J. J. Heyd, E. N. Brothers, K. N. Kudin, 
 V. N. Staroverov, T. A. Keith, R. Kobayashi, J. Normand, 
 K. Raghavachari, A. P. Rendell, J. C. Burant, S. S. Iyengar, 
 J. Tomasi, M. Cossi, J. M. Millam, M. Klene, C. Adamo, R. Cammi, 
 J. W. Ochterski, R. L. Martin, K. Morokuma, O. Farkas, 
 J. B. Foresman, and D. J. Fox, Gaussian, Inc., Wallingford CT, 2016.
 
 ******************************************
 Gaussian 16:  ES64L-G16RevA.03 25-Dec-2016
                 1-Jun-2021 
 ******************************************
 %chk=CCNCCpdNpNpCpN.chk
 %NProcShared=20
 Will use up to   20 processors via shared memory.
 -----------------------------
 # opt freq b3lyp/6-31g(2df,p)
 -----------------------------
 1/18=20,19=15,26=3,38=1/1,3;
 2/9=110,12=2,17=6,18=5,40=1/2;
 3/5=1,6=6,7=104,11=2,25=1,30=1,71=1,74=-5/1,2,3;
 4//1;
 5/5=2,38=5/2;
 6/7=2,8=2,9=2,10=2,28=1/1;
 7//1,2,3,16;
 1/18=20,19=15,26=3/3(2);
 2/9=110/2;
 99//99;
 2/9=110/2;
 3/5=1,6=6,7=104,11=2,25=1,30=1,71=1,74=-5/1,2,3;
 4/5=5,16=3,69=1/1;
 5/5=2,38=5/2;
 7//1,2,3,16;
 1/18=20,19=15,26=3/3(-5);
 2/9=110/2;
 6/7=2,8=2,9=2,10=2,19=2,28=1/1;
 99/9=1/99;
 -------------------
 Title Card Required
 -------------------
 Symbolic Z-matrix:
 Charge =  0 Multiplicity = 1
 C                     0.93623  -0.06481  -0.04641 
 C                     2.45465  -0.07638  -0.02693 
 N                     2.92976  -0.8086    1.15402 
 C                     4.40292  -0.79188   1.17289 
 C                     4.97099  -1.5177    2.41112 
 N                     4.15327  -2.02558   3.30014 
 N                     6.35396  -1.61063   2.55897 
 C                     7.34024  -1.07535   1.63703 
 N                     6.81883  -2.33609   3.69312 
 H                     0.57295   0.46659  -0.93204 
 H                     0.53674   0.44017   0.83915 
 H                     0.53454  -1.08293  -0.0752 
 H                     2.81929   0.95798  -0.01656 
 H                     2.82196  -0.55334  -0.94399 
 H                     2.61763  -1.77804   1.07174 
 H                     4.77018   0.24034   1.20108 
 H                     4.79146  -1.29509   0.2801 
 H                     3.19776  -1.78926   2.99516 
 H                     6.89262  -0.5628    0.78224 
 H                     7.96739  -1.8817    1.24548 
 H                     7.97762  -0.34984   2.15236 
 H                     5.97943  -2.63856   4.21345 
 H                     7.29297  -1.69839   4.33429 
 

 GradGradGradGradGradGradGradGradGradGradGradGradGradGradGradGradGradGrad
 Berny optimization.
 Initialization pass.
                           ----------------------------
                           !    Initial Parameters    !
                           ! (Angstroms and Degrees)  !
 --------------------------                            --------------------------
 ! Name  Definition              Value          Derivative Info.                !
 --------------------------------------------------------------------------------
 ! R1    R(1,2)                  1.5186         estimate D2E/DX2                !
 ! R2    R(1,10)                 1.0949         estimate D2E/DX2                !
 ! R3    R(1,11)                 1.0949         estimate D2E/DX2                !
 ! R4    R(1,12)                 1.0949         estimate D2E/DX2                !
 ! R5    R(2,3)                  1.4685         estimate D2E/DX2                !
 ! R6    R(2,13)                 1.0968         estimate D2E/DX2                !
 ! R7    R(2,14)                 1.097          estimate D2E/DX2                !
 ! R8    R(3,4)                  1.4734         estimate D2E/DX2                !
 ! R9    R(3,15)                 1.0218         estimate D2E/DX2                !
 ! R10   R(4,5)                  1.5436         estimate D2E/DX2                !
 ! R11   R(4,16)                 1.096          estimate D2E/DX2                !
 ! R12   R(4,17)                 1.096          estimate D2E/DX2                !
 ! R13   R(5,6)                  1.3103         estimate D2E/DX2                !
 ! R14   R(5,7)                  1.394          estimate D2E/DX2                !
 ! R15   R(6,18)                 1.0305         estimate D2E/DX2                !
 ! R16   R(7,8)                  1.4523         estimate D2E/DX2                !
 ! R17   R(7,9)                  1.4243         estimate D2E/DX2                !
 ! R18   R(8,19)                 1.0926         estimate D2E/DX2                !
 ! R19   R(8,20)                 1.094          estimate D2E/DX2                !
 ! R20   R(8,21)                 1.0946         estimate D2E/DX2                !
 ! R21   R(9,22)                 1.0329         estimate D2E/DX2                !
 ! R22   R(9,23)                 1.0211         estimate D2E/DX2                !
 ! A1    A(2,1,10)             110.2334         estimate D2E/DX2                !
 ! A2    A(2,1,11)             110.9751         estimate D2E/DX2                !
 ! A3    A(2,1,12)             111.1059         estimate D2E/DX2                !
 ! A4    A(10,1,11)            108.0186         estimate D2E/DX2                !
 ! A5    A(10,1,12)            107.9588         estimate D2E/DX2                !
 ! A6    A(11,1,12)            108.4383         estimate D2E/DX2                !
 ! A7    A(1,2,3)              109.7314         estimate D2E/DX2                !
 ! A8    A(1,2,13)             108.9872         estimate D2E/DX2                !
 ! A9    A(1,2,14)             109.11           estimate D2E/DX2                !
 ! A10   A(3,2,13)             110.7974         estimate D2E/DX2                !
 ! A11   A(3,2,14)             110.3134         estimate D2E/DX2                !
 ! A12   A(13,2,14)            107.8557         estimate D2E/DX2                !
 ! A13   A(2,3,4)              109.1551         estimate D2E/DX2                !
 ! A14   A(2,3,15)             108.0284         estimate D2E/DX2                !
 ! A15   A(4,3,15)             108.4957         estimate D2E/DX2                !
 ! A16   A(3,4,5)              111.8944         estimate D2E/DX2                !
 ! A17   A(3,4,16)             110.247          estimate D2E/DX2                !
 ! A18   A(3,4,17)             109.8042         estimate D2E/DX2                !
 ! A19   A(5,4,16)             107.3918         estimate D2E/DX2                !
 ! A20   A(5,4,17)             107.8832         estimate D2E/DX2                !
 ! A21   A(16,4,17)            109.5468         estimate D2E/DX2                !
 ! A22   A(4,5,6)              119.7909         estimate D2E/DX2                !
 ! A23   A(4,5,7)              118.7863         estimate D2E/DX2                !
 ! A24   A(6,5,7)              121.4221         estimate D2E/DX2                !
 ! A25   A(5,6,18)             106.7964         estimate D2E/DX2                !
 ! A26   A(5,7,8)              125.5809         estimate D2E/DX2                !
 ! A27   A(5,7,9)              116.2457         estimate D2E/DX2                !
 ! A28   A(8,7,9)              118.1354         estimate D2E/DX2                !
 ! A29   A(7,8,19)             113.0368         estimate D2E/DX2                !
 ! A30   A(7,8,20)             110.1725         estimate D2E/DX2                !
 ! A31   A(7,8,21)             109.9295         estimate D2E/DX2                !
 ! A32   A(19,8,20)            107.4949         estimate D2E/DX2                !
 ! A33   A(19,8,21)            107.2145         estimate D2E/DX2                !
 ! A34   A(20,8,21)            108.8579         estimate D2E/DX2                !
 ! A35   A(7,9,22)             106.5619         estimate D2E/DX2                !
 ! A36   A(7,9,23)             109.4794         estimate D2E/DX2                !
 ! A37   A(22,9,23)            104.1188         estimate D2E/DX2                !
 ! D1    D(10,1,2,3)          -179.1605         estimate D2E/DX2                !
 ! D2    D(10,1,2,13)           59.351          estimate D2E/DX2                !
 ! D3    D(10,1,2,14)          -58.1904         estimate D2E/DX2                !
 ! D4    D(11,1,2,3)            61.2114         estimate D2E/DX2                !
 ! D5    D(11,1,2,13)          -60.2771         estimate D2E/DX2                !
 ! D6    D(11,1,2,14)         -177.8185         estimate D2E/DX2                !
 ! D7    D(12,1,2,3)           -59.523          estimate D2E/DX2                !
 ! D8    D(12,1,2,13)          178.9885         estimate D2E/DX2                !
 ! D9    D(12,1,2,14)           61.4471         estimate D2E/DX2                !
 ! D10   D(1,2,3,4)           -179.0229         estimate D2E/DX2                !
 ! D11   D(1,2,3,15)            63.1879         estimate D2E/DX2                !
 ! D12   D(13,2,3,4)           -58.6271         estimate D2E/DX2                !
 ! D13   D(13,2,3,15)         -176.4163         estimate D2E/DX2                !
 ! D14   D(14,2,3,4)            60.7359         estimate D2E/DX2                !
 ! D15   D(14,2,3,15)          -57.0533         estimate D2E/DX2                !
 ! D16   D(2,3,4,5)            178.6259         estimate D2E/DX2                !
 ! D17   D(2,3,4,16)            59.1805         estimate D2E/DX2                !
 ! D18   D(2,3,4,17)           -61.6072         estimate D2E/DX2                !
 ! D19   D(15,3,4,5)           -63.8793         estimate D2E/DX2                !
 ! D20   D(15,3,4,16)          176.6752         estimate D2E/DX2                !
 ! D21   D(15,3,4,17)           55.8876         estimate D2E/DX2                !
 ! D22   D(3,4,5,6)             -1.5801         estimate D2E/DX2                !
 ! D23   D(3,4,5,7)            178.742          estimate D2E/DX2                !
 ! D24   D(16,4,5,6)           119.5322         estimate D2E/DX2                !
 ! D25   D(16,4,5,7)           -60.1457         estimate D2E/DX2                !
 ! D26   D(17,4,5,6)          -122.4678         estimate D2E/DX2                !
 ! D27   D(17,4,5,7)            57.8544         estimate D2E/DX2                !
 ! D28   D(4,5,6,18)            -2.4479         estimate D2E/DX2                !
 ! D29   D(7,5,6,18)           177.2213         estimate D2E/DX2                !
 ! D30   D(4,5,7,8)              0.0659         estimate D2E/DX2                !
 ! D31   D(4,5,7,9)           -177.6402         estimate D2E/DX2                !
 ! D32   D(6,5,7,8)           -179.6065         estimate D2E/DX2                !
 ! D33   D(6,5,7,9)              2.6874         estimate D2E/DX2                !
 ! D34   D(5,7,8,19)             0.4914         estimate D2E/DX2                !
 ! D35   D(5,7,8,20)          -119.7897         estimate D2E/DX2                !
 ! D36   D(5,7,8,21)           120.2444         estimate D2E/DX2                !
 ! D37   D(9,7,8,19)           178.1583         estimate D2E/DX2                !
 ! D38   D(9,7,8,20)            57.8771         estimate D2E/DX2                !
 ! D39   D(9,7,8,21)           -62.0888         estimate D2E/DX2                !
 ! D40   D(5,7,9,22)            -1.5437         estimate D2E/DX2                !
 ! D41   D(5,7,9,23)          -113.5762         estimate D2E/DX2                !
 ! D42   D(8,7,9,22)          -179.4282         estimate D2E/DX2                !
 ! D43   D(8,7,9,23)            68.5393         estimate D2E/DX2                !
 --------------------------------------------------------------------------------
 Trust Radius=3.00D-01 FncErr=1.00D-07 GrdErr=1.00D-06 EigMax=2.50D+02 EigMin=1.00D-04
 Number of steps in this run=    112 maximum allowed number of steps=    138.
 GradGradGradGradGradGradGradGradGradGradGradGradGradGradGradGradGradGrad

                          Input orientation:                          
 ---------------------------------------------------------------------
 Center     Atomic      Atomic             Coordinates (Angstroms)
 Number     Number       Type             X           Y           Z
 ---------------------------------------------------------------------
      1          6           0        0.936230   -0.064810   -0.046410
      2          6           0        2.454650   -0.076380   -0.026930
      3          7           0        2.929760   -0.808600    1.154020
      4          6           0        4.402920   -0.791880    1.172890
      5          6           0        4.970990   -1.517700    2.411120
      6          7           0        4.153270   -2.025580    3.300140
      7          7           0        6.353960   -1.610630    2.558970
      8          6           0        7.340240   -1.075350    1.637030
      9          7           0        6.818830   -2.336090    3.693120
     10          1           0        0.572950    0.466590   -0.932040
     11          1           0        0.536740    0.440170    0.839150
     12          1           0        0.534540   -1.082930   -0.075200
     13          1           0        2.819290    0.957980   -0.016560
     14          1           0        2.821960   -0.553340   -0.943990
     15          1           0        2.617630   -1.778040    1.071740
     16          1           0        4.770180    0.240340    1.201080
     17          1           0        4.791460   -1.295090    0.280100
     18          1           0        3.197760   -1.789260    2.995160
     19          1           0        6.892620   -0.562800    0.782240
     20          1           0        7.967390   -1.881700    1.245480
     21          1           0        7.977620   -0.349840    2.152360
     22          1           0        5.979430   -2.638560    4.213450
     23          1           0        7.292970   -1.698390    4.334290
 ---------------------------------------------------------------------
                    Distance matrix (angstroms):
                    1          2          3          4          5
     1  C    0.000000
     2  C    1.518589   0.000000
     3  N    2.443035   1.468509   0.000000
     4  C    3.746100   2.397345   1.473376   0.000000
     5  C    4.942634   3.788596   2.499949   1.543610   0.000000
     6  N    5.039183   4.213560   2.753879   2.471747   1.310330
     7  N    6.207202   4.923964   3.787121   2.529452   1.393952
     8  C    6.698246   5.256966   4.444861   2.987245   2.531449
     9  N    7.331288   6.163694   4.889286   3.817429   2.393282
    10  H    1.094851   2.157507   3.395925   4.547873   5.869998
    11  H    1.094903   2.166863   2.717557   4.071447   5.095774
    12  H    1.094875   2.168478   2.706163   4.075144   5.104204
    13  H    2.143106   1.096800   2.122090   2.642856   4.080739
    14  H    2.144828   1.096999   2.116229   2.652832   4.099400
    15  H    2.648117   2.032064   1.021768   2.042059   2.720298
    16  H    4.043330   2.640076   2.118876   1.095971   2.143648
    17  H    4.059926   2.653338   2.113371   1.096019   2.150124
    18  H    4.164060   3.552351   2.103168   2.401634   1.886582
    19  H    6.034338   4.537283   3.987844   2.530552   2.694020
    20  H    7.376129   5.938730   5.151468   3.728059   3.235680
    21  H    7.382209   5.943676   5.166046   3.732726   3.235843
    22  H    7.085511   6.080268   4.691413   3.891094   2.349824
    23  H    7.890961   6.712712   5.472060   4.378196   3.020401
                    6          7          8          9         10
     6  N    0.000000
     7  N    2.358930   0.000000
     8  C    3.718286   1.452324   0.000000
     9  N    2.712206   1.424322   2.467557   0.000000
    10  H    6.077907   7.065555   7.400940   8.261848   0.000000
    11  H    5.021522   6.403406   7.015770   7.437568   1.771757
    12  H    5.037531   6.409600   7.017788   7.433905   1.771062
    13  H    4.656354   5.071982   5.225685   6.372515   2.474997
    14  H    4.685351   5.085628   5.229628   6.376202   2.469503
    15  H    2.717578   4.024927   4.807949   4.983285   3.637886
    16  H    3.149766   2.788963   2.919983   4.128586   4.713611
    17  H    3.171994   2.781047   2.895829   4.103976   4.729548
    18  H    1.030466   3.191202   4.417502   3.728045   5.234633
    19  H    3.997947   2.131870   1.092583   3.409285   6.628471
    20  H    4.334725   2.098068   1.093997   2.741642   8.058151
    21  H    4.330261   2.095518   1.094615   2.768018   8.062829
    22  H    2.131840   1.983486   3.306565   1.032872   8.083814
    23  H    3.321782   2.010274   2.768686   1.021063   8.807953
                   11         12         13         14         15
    11  H    0.000000
    12  H    1.776478   0.000000
    13  H    2.492068   3.064121   0.000000
    14  H    3.064128   2.503508   1.773195   0.000000
    15  H    3.050354   2.477481   2.951418   2.367448   0.000000
    16  H    4.253580   4.617421   2.409072   3.004466   2.953652
    17  H    4.628856   4.276987   3.008951   2.434650   2.363360
    18  H    4.086535   4.125379   4.094023   4.145555   2.009035
    19  H    6.434780   6.436685   4.420732   4.421564   4.453780
    20  H    7.795559   7.591409   6.013274   5.747501   5.353584
    21  H    7.597061   7.803774   5.746562   6.017443   5.651282
    22  H    7.105445   7.103473   6.388628   6.396636   4.681083
    23  H    7.901651   8.093131   6.782331   7.011513   5.701700
                   16         17         18         19         20
    16  H    0.000000
    17  H    1.790587   0.000000
    18  H    3.132172   3.186791   0.000000
    19  H    2.307642   2.281067   4.478081   0.000000
    20  H    3.837600   3.370846   5.081269   1.763298   0.000000
    21  H    3.397193   3.814508   5.062539   1.760627   1.780205
    22  H    4.338747   4.322896   3.153289   4.112894   3.651530
    23  H    4.465439   4.780864   4.309556   3.750587   3.166890
                   21         22         23
    21  H    0.000000
    22  H    3.671389   0.000000
    23  H    2.654835   1.619849   0.000000
 Stoichiometry    C5H14N4
 Framework group  C1[X(C5H14N4)]
 Deg. of freedom    63
 Full point group                 C1      NOp   1
 Largest Abelian subgroup         C1      NOp   1
 Largest concise Abelian subgroup C1      NOp   1
                         Standard orientation:                         
 ---------------------------------------------------------------------
 Center     Atomic      Atomic             Coordinates (Angstroms)
 Number     Number       Type             X           Y           Z
 ---------------------------------------------------------------------
      1          6           0       -4.071014   -0.162328    0.041317
      2          6           0       -2.776731    0.631919    0.030492
      3          7           0       -1.631622   -0.286694   -0.006840
      4          6           0       -0.383363    0.495931    0.006745
      5          6           0        0.865177   -0.411740    0.003262
      6          7           0        0.723204   -1.714238    0.020821
      7          7           0        2.126422    0.181670   -0.011826
      8          6           0        2.388130    1.610172   -0.023598
      9          7           0        3.239322   -0.705521   -0.066936
     10          1           0       -4.930949    0.515202    0.054084
     11          1           0       -4.130795   -0.802198    0.927773
     12          1           0       -4.152838   -0.794932   -0.848553
     13          1           0       -2.739076    1.265050    0.925309
     14          1           0       -2.766222    1.289497   -0.847510
     15          1           0       -1.675644   -0.811509   -0.882420
     16          1           0       -0.334640    1.116599    0.908716
     17          1           0       -0.336661    1.135950   -0.881766
     18          1           0       -0.288302   -1.902790    0.077063
     19          1           0        1.476334    2.212004   -0.010890
     20          1           0        2.950033    1.883382   -0.921624
     21          1           0        2.973053    1.889616    0.858422
     22          1           0        2.852955   -1.663371   -0.058614
     23          1           0        3.768279   -0.642739    0.804173
 ---------------------------------------------------------------------
 Rotational constants (GHZ):           4.0208846           0.6712293           0.5857927
 Standard basis: 6-31G(2df,p) (6D, 7F)
 There are   349 symmetry adapted cartesian basis functions of A   symmetry.
 There are   322 symmetry adapted basis functions of A   symmetry.
   322 basis functions,   494 primitive gaussians,   349 cartesian basis functions
    36 alpha electrons       36 beta electrons
       nuclear repulsion energy       469.8856377026 Hartrees.
 NAtoms=   23 NActive=   23 NUniq=   23 SFac= 1.00D+00 NAtFMM=   60 NAOKFM=F Big=F
 Integral buffers will be    131072 words long.
 Raffenetti 2 integral format.
 Two-electron integral symmetry is turned on.
 One-electron integrals computed using PRISM.
 PrsmSu:  requested number of processors reduced to:  13 ShMem   1 Linda.
 NBasis=   322 RedAO= T EigKep=  2.47D-04  NBF=   322
 NBsUse=   322 1.00D-06 EigRej= -1.00D+00 NBFU=   322
 ExpMin= 1.61D-01 ExpMax= 4.17D+03 ExpMxC= 6.27D+02 IAcc=3 IRadAn=         5 AccDes= 0.00D+00
 Harris functional with IExCor=  402 and IRadAn=       5 diagonalized for initial guess.
 HarFok:  IExCor=  402 AccDes= 0.00D+00 IRadAn=         5 IDoV= 1 UseB2=F ITyADJ=14
 ICtDFT=  3500011 ScaDFX=  1.000000  1.000000  1.000000  1.000000
 FoFCou: FMM=F IPFlag=           0 FMFlag=      100000 FMFlg1=           0
         NFxFlg=           0 DoJE=T BraDBF=F KetDBF=T FulRan=T
         wScrn=  0.000000 ICntrl=       500 IOpCl=  0 I1Cent=   200000004 NGrid=           0
         NMat0=    1 NMatS0=      1 NMatT0=    0 NMatD0=    1 NMtDS0=    0 NMtDT0=    0
 Petite list used in FoFCou.
 Requested convergence on RMS density matrix=1.00D-08 within 128 cycles.
 Requested convergence on MAX density matrix=1.00D-06.
 Requested convergence on             energy=1.00D-06.
 No special actions if energy rises.
 Integral accuracy reduced to 1.0D-05 until final iterations.
 Initial convergence to 1.0D-05 achieved.  Increase integral accuracy.
 SCF Done:  E(RB3LYP) =  -417.938043365     A.U. after   13 cycles
            NFock= 13  Conv=0.81D-08     -V/T= 2.0084

 **********************************************************************

            Population analysis using the SCF density.

 **********************************************************************

 Orbital symmetries:
       Occupied  (A) (A) (A) (A) (A) (A) (A) (A) (A) (A) (A) (A)
                 (A) (A) (A) (A) (A) (A) (A) (A) (A) (A) (A) (A)
                 (A) (A) (A) (A) (A) (A) (A) (A) (A) (A) (A) (A)
       Virtual   (A) (A) (A) (A) (A) (A) (A) (A) (A) (A) (A) (A)
                 (A) (A) (A) (A) (A) (A) (A) (A) (A) (A) (A) (A)
                 (A) (A) (A) (A) (A) (A) (A) (A) (A) (A) (A) (A)
                 (A) (A) (A) (A) (A) (A) (A) (A) (A) (A) (A) (A)
                 (A) (A) (A) (A) (A) (A) (A) (A) (A) (A) (A) (A)
                 (A) (A) (A) (A) (A) (A) (A) (A) (A) (A) (A) (A)
                 (A) (A) (A) (A) (A) (A) (A) (A) (A) (A) (A) (A)
                 (A) (A) (A) (A) (A) (A) (A) (A) (A) (A) (A) (A)
                 (A) (A) (A) (A) (A) (A) (A) (A) (A) (A) (A) (A)
                 (A) (A) (A) (A) (A) (A) (A) (A) (A) (A) (A) (A)
                 (A) (A) (A) (A) (A) (A) (A) (A) (A) (A) (A) (A)
                 (A) (A) (A) (A) (A) (A) (A) (A) (A) (A) (A) (A)
                 (A) (A) (A) (A) (A) (A) (A) (A) (A) (A) (A) (A)
                 (A) (A) (A) (A) (A) (A) (A) (A) (A) (A) (A) (A)
                 (A) (A) (A) (A) (A) (A) (A) (A) (A) (A) (A) (A)
                 (A) (A) (A) (A) (A) (A) (A) (A) (A) (A) (A) (A)
                 (A) (A) (A) (A) (A) (A) (A) (A) (A) (A) (A) (A)
                 (A) (A) (A) (A) (A) (A) (A) (A) (A) (A) (A) (A)
                 (A) (A) (A) (A) (A) (A) (A) (A) (A) (A) (A) (A)
                 (A) (A) (A) (A) (A) (A) (A) (A) (A) (A) (A) (A)
                 (A) (A) (A) (A) (A) (A) (A) (A) (A) (A) (A) (A)
                 (A) (A) (A) (A) (A) (A) (A) (A) (A) (A) (A) (A)
                 (A) (A) (A) (A) (A) (A) (A) (A) (A) (A) (A) (A)
                 (A) (A) (A) (A) (A) (A) (A) (A) (A) (A)
 The electronic state is 1-A.
 Alpha  occ. eigenvalues --  -14.37017 -14.33586 -14.32553 -14.27068 -10.24324
 Alpha  occ. eigenvalues --  -10.22287 -10.22016 -10.21142 -10.17748  -0.98550
 Alpha  occ. eigenvalues --   -0.91579  -0.85158  -0.80153  -0.75017  -0.69755
 Alpha  occ. eigenvalues --   -0.66793  -0.61151  -0.55835  -0.50868  -0.49452
 Alpha  occ. eigenvalues --   -0.47132  -0.46144  -0.45185  -0.44131  -0.43259
 Alpha  occ. eigenvalues --   -0.41623  -0.39879  -0.39441  -0.36865  -0.35924
 Alpha  occ. eigenvalues --   -0.35367  -0.33268  -0.26944  -0.24621  -0.23708
 Alpha  occ. eigenvalues --   -0.18571
 Alpha virt. eigenvalues --    0.04648   0.07313   0.08556   0.10952   0.11714
 Alpha virt. eigenvalues --    0.12002   0.13497   0.14161   0.15448   0.16269
 Alpha virt. eigenvalues --    0.16521   0.17191   0.18381   0.19151   0.19507
 Alpha virt. eigenvalues --    0.20048   0.22278   0.22476   0.23493   0.24867
 Alpha virt. eigenvalues --    0.29410   0.34071   0.38940   0.41472   0.45543
 Alpha virt. eigenvalues --    0.46110   0.47927   0.48508   0.51332   0.51405
 Alpha virt. eigenvalues --    0.53236   0.53442   0.57134   0.57717   0.57938
 Alpha virt. eigenvalues --    0.59211   0.59956   0.60579   0.61155   0.65364
 Alpha virt. eigenvalues --    0.66791   0.67765   0.69769   0.70463   0.71439
 Alpha virt. eigenvalues --    0.72403   0.72936   0.73067   0.74006   0.75011
 Alpha virt. eigenvalues --    0.75831   0.76337   0.77156   0.78170   0.78861
 Alpha virt. eigenvalues --    0.80546   0.81915   0.82402   0.82989   0.84422
 Alpha virt. eigenvalues --    0.84783   0.88009   0.88842   0.89610   0.91805
 Alpha virt. eigenvalues --    0.93003   0.94472   0.96854   0.99372   1.02100
 Alpha virt. eigenvalues --    1.05243   1.06899   1.12453   1.15666   1.18902
 Alpha virt. eigenvalues --    1.19608   1.20377   1.23641   1.25151   1.27782
 Alpha virt. eigenvalues --    1.28899   1.30126   1.32604   1.33510   1.35607
 Alpha virt. eigenvalues --    1.38026   1.38543   1.41633   1.41862   1.45296
 Alpha virt. eigenvalues --    1.48958   1.51842   1.53253   1.53760   1.55901
 Alpha virt. eigenvalues --    1.58694   1.61516   1.64860   1.66424   1.67185
 Alpha virt. eigenvalues --    1.68002   1.69915   1.75721   1.75887   1.77559
 Alpha virt. eigenvalues --    1.80643   1.83936   1.86025   1.88296   1.89544
 Alpha virt. eigenvalues --    1.93392   1.94991   1.96798   1.98819   2.01278
 Alpha virt. eigenvalues --    2.03244   2.11117   2.14701   2.15368   2.18245
 Alpha virt. eigenvalues --    2.21469   2.22629   2.24918   2.26328   2.28294
 Alpha virt. eigenvalues --    2.29188   2.35770   2.39071   2.40062   2.42237
 Alpha virt. eigenvalues --    2.43469   2.47289   2.48514   2.52132   2.57506
 Alpha virt. eigenvalues --    2.58706   2.63108   2.68214   2.69477   2.70768
 Alpha virt. eigenvalues --    2.71184   2.74552   2.76139   2.77866   2.78439
 Alpha virt. eigenvalues --    2.79346   2.83487   2.84545   2.85217   2.86315
 Alpha virt. eigenvalues --    2.87466   2.88883   2.89882   2.92256   2.93169
 Alpha virt. eigenvalues --    2.94888   2.97626   2.99418   3.00889   3.04221
 Alpha virt. eigenvalues --    3.05762   3.08325   3.11842   3.12275   3.14917
 Alpha virt. eigenvalues --    3.15784   3.19539   3.22479   3.25617   3.27832
 Alpha virt. eigenvalues --    3.28799   3.35481   3.38617   3.39048   3.40219
 Alpha virt. eigenvalues --    3.42152   3.46380   3.48063   3.51059   3.52714
 Alpha virt. eigenvalues --    3.55363   3.59259   3.60454   3.61912   3.62923
 Alpha virt. eigenvalues --    3.64411   3.68662   3.72285   3.75215   3.77640
 Alpha virt. eigenvalues --    3.79247   3.80400   3.86620   3.91242   3.92251
 Alpha virt. eigenvalues --    3.94492   3.94852   3.96350   3.97738   4.01490
 Alpha virt. eigenvalues --    4.04506   4.08976   4.10250   4.11405   4.12556
 Alpha virt. eigenvalues --    4.13723   4.19883   4.20307   4.21780   4.23204
 Alpha virt. eigenvalues --    4.26392   4.27360   4.32346   4.34729   4.36791
 Alpha virt. eigenvalues --    4.38006   4.39408   4.42875   4.44261   4.45100
 Alpha virt. eigenvalues --    4.46693   4.47321   4.48781   4.50008   4.51957
 Alpha virt. eigenvalues --    4.52229   4.54274   4.55601   4.58288   4.59171
 Alpha virt. eigenvalues --    4.60951   4.63789   4.65496   4.66641   4.67287
 Alpha virt. eigenvalues --    4.68587   4.69661   4.72105   4.73025   4.73650
 Alpha virt. eigenvalues --    4.76031   4.76243   4.78691   4.82079   4.83240
 Alpha virt. eigenvalues --    4.84342   4.86940   4.88258   4.89734   4.92470
 Alpha virt. eigenvalues --    4.92501   4.94009   4.97470   5.00544   5.02312
 Alpha virt. eigenvalues --    5.03789   5.09230   5.13705   5.17736   5.23030
 Alpha virt. eigenvalues --    5.24858   5.31772   5.35407   5.37961   5.43332
 Alpha virt. eigenvalues --    5.46825   5.48490   5.54044   5.58764   5.60651
 Alpha virt. eigenvalues --    5.70538   5.99017   6.21338   8.31564  10.50290
 Alpha virt. eigenvalues --   10.94036  11.21772  11.26951  11.40799  11.44232
 Alpha virt. eigenvalues --   11.50380  11.69153  12.04537  13.18381  14.79232
 Alpha virt. eigenvalues --   18.55039
          Condensed to atoms (all electrons):
               1          2          3          4          5          6
     1  C    4.960271   0.417572  -0.040158   0.003027  -0.000179  -0.000001
     2  C    0.417572   4.772475   0.361353  -0.061708   0.003470   0.001064
     3  N   -0.040158   0.361353   6.409905   0.390894  -0.030612  -0.024082
     4  C    0.003027  -0.061708   0.390894   5.047515   0.389738  -0.080154
     5  C   -0.000179   0.003470  -0.030612   0.389738   4.457897   0.660430
     6  N   -0.000001   0.001064  -0.024082  -0.080154   0.660430   6.653346
     7  N    0.000000  -0.000049   0.000279  -0.066201   0.382418  -0.013426
     8  C    0.000000   0.000009   0.000244  -0.002895  -0.069785   0.002822
     9  N   -0.000000   0.000000  -0.000018   0.004818  -0.049966  -0.019079
    10  H    0.367054  -0.022478   0.003235  -0.000189   0.000002  -0.000000
    11  H    0.375908  -0.026395   0.003821   0.000244   0.000003  -0.000012
    12  H    0.378927  -0.028476  -0.003909   0.000099   0.000008  -0.000005
    13  H   -0.030285   0.372443  -0.026320  -0.004300   0.000357  -0.000007
    14  H   -0.043738   0.355772  -0.037168  -0.000344   0.000082  -0.000031
    15  H    0.000209  -0.036773   0.326618  -0.053270   0.005383   0.005384
    16  H    0.000268  -0.003745  -0.019093   0.340224  -0.009934   0.000989
    17  H    0.000015  -0.005869  -0.045055   0.347735  -0.026520   0.002377
    18  H    0.000047  -0.001322   0.035289  -0.024419  -0.083537   0.343400
    19  H   -0.000000   0.000011   0.000053   0.003512  -0.008568   0.000269
    20  H    0.000000  -0.000000  -0.000002  -0.000094   0.003608   0.000021
    21  H   -0.000000  -0.000000  -0.000009  -0.000095   0.001878   0.000041
    22  H   -0.000000  -0.000001   0.000012   0.001599   0.004203   0.036536
    23  H    0.000000  -0.000000   0.000000  -0.000115   0.002864   0.001413
               7          8          9         10         11         12
     1  C    0.000000   0.000000  -0.000000   0.367054   0.375908   0.378927
     2  C   -0.000049   0.000009   0.000000  -0.022478  -0.026395  -0.028476
     3  N    0.000279   0.000244  -0.000018   0.003235   0.003821  -0.003909
     4  C   -0.066201  -0.002895   0.004818  -0.000189   0.000244   0.000099
     5  C    0.382418  -0.069785  -0.049966   0.000002   0.000003   0.000008
     6  N   -0.013426   0.002822  -0.019079  -0.000000  -0.000012  -0.000005
     7  N    6.255087   0.425403   0.298260  -0.000000   0.000000  -0.000000
     8  C    0.425403   4.911306  -0.056562  -0.000000   0.000000   0.000000
     9  N    0.298260  -0.056562   6.639392   0.000000  -0.000000   0.000000
    10  H   -0.000000  -0.000000   0.000000   0.600374  -0.029076  -0.030583
    11  H    0.000000   0.000000  -0.000000  -0.029076   0.578255  -0.032401
    12  H   -0.000000   0.000000   0.000000  -0.030583  -0.032401   0.597981
    13  H   -0.000002  -0.000000   0.000000  -0.002253  -0.005625   0.005366
    14  H    0.000004  -0.000005  -0.000000   0.000853   0.006260  -0.005207
    15  H   -0.000074  -0.000013   0.000001  -0.000314  -0.000722   0.004771
    16  H   -0.000676  -0.000359  -0.000070  -0.000005  -0.000023   0.000006
    17  H   -0.000287  -0.000750  -0.000212   0.000024   0.000034  -0.000013
    18  H    0.005355  -0.000218   0.000200   0.000002   0.000105  -0.000027
    19  H   -0.016136   0.375527   0.002407   0.000000   0.000000  -0.000000
    20  H   -0.036278   0.370547   0.005537   0.000000   0.000000  -0.000000
    21  H   -0.037758   0.368623  -0.000556   0.000000   0.000000   0.000000
    22  H   -0.043344   0.004100   0.329199   0.000000   0.000000   0.000000
    23  H   -0.060828  -0.003943   0.328558  -0.000000   0.000000   0.000000
              13         14         15         16         17         18
     1  C   -0.030285  -0.043738   0.000209   0.000268   0.000015   0.000047
     2  C    0.372443   0.355772  -0.036773  -0.003745  -0.005869  -0.001322
     3  N   -0.026320  -0.037168   0.326618  -0.019093  -0.045055   0.035289
     4  C   -0.004300  -0.000344  -0.053270   0.340224   0.347735  -0.024419
     5  C    0.000357   0.000082   0.005383  -0.009934  -0.026520  -0.083537
     6  N   -0.000007  -0.000031   0.005384   0.000989   0.002377   0.343400
     7  N   -0.000002   0.000004  -0.000074  -0.000676  -0.000287   0.005355
     8  C   -0.000000  -0.000005  -0.000013  -0.000359  -0.000750  -0.000218
     9  N    0.000000  -0.000000   0.000001  -0.000070  -0.000212   0.000200
    10  H   -0.002253   0.000853  -0.000314  -0.000005   0.000024   0.000002
    11  H   -0.005625   0.006260  -0.000722  -0.000023   0.000034   0.000105
    12  H    0.005366  -0.005207   0.004771   0.000006  -0.000013  -0.000027
    13  H    0.623012  -0.051205   0.006381   0.005698  -0.001559  -0.000083
    14  H   -0.051205   0.690341  -0.009034  -0.001575   0.012391   0.000275
    15  H    0.006381  -0.009034   0.531080   0.006867  -0.010002  -0.003159
    16  H    0.005698  -0.001575   0.006867   0.605310  -0.049725  -0.000094
    17  H   -0.001559   0.012391  -0.010002  -0.049725   0.668596   0.002644
    18  H   -0.000083   0.000275  -0.003159  -0.000094   0.002644   0.508231
    19  H   -0.000010   0.000039  -0.000009   0.000496   0.004147  -0.000000
    20  H   -0.000000   0.000000   0.000003   0.000003   0.000149   0.000004
    21  H    0.000000   0.000000  -0.000001   0.000101   0.000059   0.000009
    22  H    0.000000   0.000000  -0.000004  -0.000051  -0.000052  -0.001462
    23  H    0.000000  -0.000000  -0.000000   0.000017  -0.000002  -0.000002
              19         20         21         22         23
     1  C   -0.000000   0.000000  -0.000000  -0.000000   0.000000
     2  C    0.000011  -0.000000  -0.000000  -0.000001  -0.000000
     3  N    0.000053  -0.000002  -0.000009   0.000012   0.000000
     4  C    0.003512  -0.000094  -0.000095   0.001599  -0.000115
     5  C   -0.008568   0.003608   0.001878   0.004203   0.002864
     6  N    0.000269   0.000021   0.000041   0.036536   0.001413
     7  N   -0.016136  -0.036278  -0.037758  -0.043344  -0.060828
     8  C    0.375527   0.370547   0.368623   0.004100  -0.003943
     9  N    0.002407   0.005537  -0.000556   0.329199   0.328558
    10  H    0.000000   0.000000   0.000000   0.000000  -0.000000
    11  H    0.000000   0.000000   0.000000   0.000000   0.000000
    12  H   -0.000000  -0.000000   0.000000   0.000000   0.000000
    13  H   -0.000010  -0.000000   0.000000   0.000000   0.000000
    14  H    0.000039   0.000000   0.000000   0.000000  -0.000000
    15  H   -0.000009   0.000003  -0.000001  -0.000004  -0.000000
    16  H    0.000496   0.000003   0.000101  -0.000051   0.000017
    17  H    0.004147   0.000149   0.000059  -0.000052  -0.000002
    18  H   -0.000000   0.000004   0.000009  -0.001462  -0.000002
    19  H    0.553790  -0.028277  -0.031736  -0.000210  -0.000200
    20  H   -0.028277   0.601035  -0.050243  -0.000011  -0.002016
    21  H   -0.031736  -0.050243   0.622317  -0.000145   0.006799
    22  H   -0.000210  -0.000011  -0.000145   0.426796  -0.032396
    23  H   -0.000200  -0.002016   0.006799  -0.032396   0.527094
 Mulliken charges:
               1
     1  C   -0.388936
     2  C   -0.097353
     3  N   -0.305276
     4  C   -0.235619
     5  C    0.366759
     6  N   -0.571295
     7  N   -0.091747
     8  C   -0.324052
     9  N   -0.481909
    10  H    0.113357
    11  H    0.129622
    12  H    0.113465
    13  H    0.108391
    14  H    0.082292
    15  H    0.226680
    16  H    0.125371
    17  H    0.101876
    18  H    0.218761
    19  H    0.144896
    20  H    0.136014
    21  H    0.120716
    22  H    0.275229
    23  H    0.232757
 Sum of Mulliken charges =  -0.00000
 Mulliken charges with hydrogens summed into heavy atoms:
               1
     1  C   -0.032492
     2  C    0.093330
     3  N   -0.078596
     4  C   -0.008371
     5  C    0.366759
     6  N   -0.352534
     7  N   -0.091747
     8  C    0.077574
     9  N    0.026077
 Electronic spatial extent (au):  <R**2>=           1952.6449
 Charge=             -0.0000 electrons
 Dipole moment (field-independent basis, Debye):
    X=             -1.2445    Y=              3.1262    Z=              0.3476  Tot=              3.3827
 Quadrupole moment (field-independent basis, Debye-Ang):
   XX=            -53.9738   YY=            -58.0040   ZZ=            -56.3054
   XY=              2.8965   XZ=              6.0258   YZ=              0.6877
 Traceless Quadrupole moment (field-independent basis, Debye-Ang):
   XX=              2.1206   YY=             -1.9096   ZZ=             -0.2110
   XY=              2.8965   XZ=              6.0258   YZ=              0.6877
 Octapole moment (field-independent basis, Debye-Ang**2):
  XXX=              1.5331  YYY=              7.2999  ZZZ=              0.3849  XYY=              3.7155
  XXY=              2.6553  XXZ=             18.0214  XZZ=              0.6798  YZZ=              0.5368
  YYZ=             -0.0566  XYZ=             -5.7691
 Hexadecapole moment (field-independent basis, Debye-Ang**3):
 XXXX=          -2093.1564 YYYY=           -410.7542 ZZZZ=            -86.5847 XXXY=            -18.2403
 XXXZ=             76.4957 YYYX=              9.4067 YYYZ=              1.1956 ZZZX=              6.1746
 ZZZY=              1.0090 XXYY=           -393.6627 XXZZ=           -356.8856 YYZZ=            -80.1339
 XXYZ=             -7.7281 YYXZ=              2.1475 ZZXY=              3.8535
 N-N= 4.698856377026D+02 E-N=-1.911108534674D+03  KE= 4.144620926398D+02
 PrsmSu:  requested number of processors reduced to:  13 ShMem   1 Linda.
 Calling FoFJK, ICntrl=      2127 FMM=F ISym2X=0 I1Cent= 0 IOpClX= 0 NMat=1 NMatS=1 NMatT=0.
 ***** Axes restored to original set *****
 -------------------------------------------------------------------
 Center     Atomic                   Forces (Hartrees/Bohr)
 Number     Number              X              Y              Z
 -------------------------------------------------------------------
      1        6          -0.004737580    0.003708320   -0.002107441
      2        6          -0.009344687   -0.006449075    0.003898631
      3        7           0.014881264    0.009300268   -0.002662458
      4        6           0.003697656   -0.013597321    0.011321820
      5        6          -0.014142230   -0.003615584    0.015208286
      6        7           0.018799755    0.008516702   -0.017315803
      7        7          -0.037444512    0.006995715   -0.003143219
      8        6          -0.000872514   -0.008671711    0.007815033
      9        7           0.006320172   -0.006977628    0.002312355
     10        1          -0.000998919   -0.000919127   -0.000185136
     11        1           0.000559132   -0.001442055   -0.000042528
     12        1          -0.000863848   -0.000180024    0.000106968
     13        1           0.003381324   -0.002369155    0.003127823
     14        1           0.002783361    0.002154525   -0.005866648
     15        1           0.002199438    0.003836684   -0.000604573
     16        1          -0.004204170    0.000963262   -0.004877614
     17        1           0.006237908    0.003553754   -0.005355884
     18        1           0.009629242   -0.001768905    0.008041285
     19        1          -0.004579923   -0.002314442    0.004478723
     20        1           0.003292789   -0.000894790    0.000441822
     21        1           0.003581887    0.001370750    0.000519527
     22        1           0.002509611    0.002964548   -0.012413660
     23        1          -0.000685154    0.005835288   -0.002697310
 -------------------------------------------------------------------
 Cartesian Forces:  Max     0.037444512 RMS     0.007944160

 GradGradGradGradGradGradGradGradGradGradGradGradGradGradGradGradGradGrad
 Berny optimization.
 FormGI is forming the generalized inverse of G from B-inverse, IUseBI=4.
 Internal  Forces:  Max     0.027830623 RMS     0.006698609
 Search for a local minimum.
 Step number   1 out of a maximum of  112
 All quantities printed in internal units (Hartrees-Bohrs-Radians)
 Mixed Optimization -- RFO/linear search
 Second derivative matrix not updated -- first step.
 ITU=  0
     Eigenvalues ---    0.00230   0.00520   0.00721   0.00786   0.00973
     Eigenvalues ---    0.01000   0.01207   0.01222   0.01772   0.02878
     Eigenvalues ---    0.03217   0.04549   0.04990   0.05610   0.05661
     Eigenvalues ---    0.05724   0.06325   0.06442   0.07216   0.07501
     Eigenvalues ---    0.08912   0.09716   0.10309   0.12540   0.13126
     Eigenvalues ---    0.16000   0.16000   0.16000   0.16000   0.16000
     Eigenvalues ---    0.16000   0.16000   0.16000   0.16000   0.21926
     Eigenvalues ---    0.22079   0.23593   0.24984   0.24988   0.25000
     Eigenvalues ---    0.25000   0.28202   0.30503   0.34016   0.34038
     Eigenvalues ---    0.34126   0.34132   0.34252   0.34255   0.34258
     Eigenvalues ---    0.34285   0.34355   0.34516   0.35339   0.35919
     Eigenvalues ---    0.37942   0.41816   0.42346   0.42709   0.44057
     Eigenvalues ---    0.44169   0.46638   0.64404
 RFO step:  Lambda=-1.78051212D-02 EMin= 2.30000000D-03
 Linear search not attempted -- first point.
 Iteration  1 RMS(Cart)=  0.08932462 RMS(Int)=  0.00320509
 Iteration  2 RMS(Cart)=  0.00483812 RMS(Int)=  0.00052105
 Iteration  3 RMS(Cart)=  0.00000997 RMS(Int)=  0.00052101
 Iteration  4 RMS(Cart)=  0.00000000 RMS(Int)=  0.00052101
 Variable       Old X    -DE/DX   Delta X   Delta X   Delta X     New X
                                 (Linear)    (Quad)   (Total)
    R1        2.86972   0.00608   0.00000   0.01883   0.01883   2.88854
    R2        2.06897   0.00004   0.00000   0.00010   0.00010   2.06907
    R3        2.06907  -0.00090   0.00000  -0.00251  -0.00251   2.06656
    R4        2.06901   0.00048   0.00000   0.00134   0.00134   2.07035
    R5        2.77508   0.00110   0.00000   0.00292   0.00292   2.77800
    R6        2.07265  -0.00108   0.00000  -0.00302  -0.00302   2.06964
    R7        2.07303   0.00490   0.00000   0.01369   0.01369   2.08671
    R8        2.78428  -0.00789   0.00000  -0.02126  -0.02126   2.76302
    R9        1.93086  -0.00426   0.00000  -0.00930  -0.00930   1.92156
   R10        2.91700  -0.00307   0.00000  -0.01025  -0.01025   2.90675
   R11        2.07109  -0.00063   0.00000  -0.00175  -0.00175   2.06934
   R12        2.07118   0.00494   0.00000   0.01376   0.01376   2.08494
   R13        2.47616  -0.02665   0.00000  -0.04026  -0.04026   2.43590
   R14        2.63419  -0.02783   0.00000  -0.05748  -0.05748   2.57671
   R15        1.94730  -0.01171   0.00000  -0.02633  -0.02633   1.92097
   R16        2.74450  -0.01132   0.00000  -0.02850  -0.02850   2.71599
   R17        2.69158  -0.00846   0.00000  -0.01941  -0.01941   2.67217
   R18        2.06468  -0.00271   0.00000  -0.00748  -0.00748   2.05721
   R19        2.06735   0.00239   0.00000   0.00661   0.00661   2.07397
   R20        2.06852   0.00324   0.00000   0.00898   0.00898   2.07750
   R21        1.95184  -0.00916   0.00000  -0.02076  -0.02076   1.93108
   R22        1.92953   0.00163   0.00000   0.00355   0.00355   1.93308
    A1        1.92394   0.00165   0.00000   0.01142   0.01141   1.93534
    A2        1.93688  -0.00076   0.00000  -0.00439  -0.00440   1.93248
    A3        1.93916   0.00062   0.00000   0.00142   0.00140   1.94057
    A4        1.88528   0.00018   0.00000   0.00497   0.00495   1.89023
    A5        1.88424  -0.00116   0.00000  -0.00639  -0.00640   1.87783
    A6        1.89260  -0.00058   0.00000  -0.00725  -0.00727   1.88534
    A7        1.91517   0.00438   0.00000   0.02276   0.02236   1.93754
    A8        1.90219   0.00226   0.00000   0.01271   0.01295   1.91514
    A9        1.90433  -0.00149   0.00000   0.00766   0.00688   1.91121
   A10        1.93378  -0.00630   0.00000  -0.05389  -0.05373   1.88005
   A11        1.92533   0.00187   0.00000   0.02800   0.02744   1.95277
   A12        1.88244  -0.00077   0.00000  -0.01727  -0.01713   1.86531
   A13        1.90512   0.01485   0.00000   0.05947   0.05947   1.96459
   A14        1.88545  -0.00334   0.00000  -0.00672  -0.00653   1.87893
   A15        1.89361  -0.00505   0.00000  -0.02129  -0.02145   1.87216
   A16        1.95293   0.00012   0.00000   0.00785   0.00757   1.96050
   A17        1.92417  -0.00435   0.00000  -0.03841  -0.03837   1.88580
   A18        1.91644   0.00258   0.00000   0.02420   0.02372   1.94017
   A19        1.87434   0.00395   0.00000   0.02449   0.02459   1.89893
   A20        1.88292   0.00093   0.00000   0.01996   0.01946   1.90237
   A21        1.91195  -0.00321   0.00000  -0.03828  -0.03836   1.87359
   A22        2.09074   0.02733   0.00000   0.10208   0.10199   2.19273
   A23        2.07321  -0.01007   0.00000  -0.03758  -0.03765   2.03556
   A24        2.11921  -0.01725   0.00000  -0.06439  -0.06445   2.05477
   A25        1.86395   0.00715   0.00000   0.04024   0.04024   1.90419
   A26        2.19180   0.00762   0.00000   0.02822   0.02813   2.21993
   A27        2.02887   0.00595   0.00000   0.02198   0.02189   2.05076
   A28        2.06185  -0.01360   0.00000  -0.05102  -0.05108   2.01077
   A29        1.97286  -0.00965   0.00000  -0.05558  -0.05545   1.91742
   A30        1.92287   0.00248   0.00000   0.01492   0.01486   1.93773
   A31        1.91863   0.00351   0.00000   0.02010   0.02007   1.93871
   A32        1.87614   0.00354   0.00000   0.01922   0.01931   1.89545
   A33        1.87125   0.00264   0.00000   0.01306   0.01321   1.88446
   A34        1.89993  -0.00243   0.00000  -0.01107  -0.01127   1.88865
   A35        1.85986  -0.01315   0.00000  -0.07892  -0.08006   1.77980
   A36        1.91078  -0.00921   0.00000  -0.05641  -0.05739   1.85339
   A37        1.81722   0.00708   0.00000   0.02834   0.02514   1.84236
    D1       -3.12694  -0.00235   0.00000  -0.03106  -0.03112   3.12512
    D2        1.03587   0.00125   0.00000   0.01311   0.01310   1.04897
    D3       -1.01561   0.00173   0.00000   0.02226   0.02233  -0.99328
    D4        1.06834  -0.00315   0.00000  -0.04187  -0.04194   1.02641
    D5       -1.05203   0.00045   0.00000   0.00230   0.00228  -1.04975
    D6       -3.10352   0.00093   0.00000   0.01145   0.01152  -3.09200
    D7       -1.03887  -0.00232   0.00000  -0.03067  -0.03073  -1.06960
    D8        3.12394   0.00128   0.00000   0.01350   0.01349   3.13743
    D9        1.07245   0.00176   0.00000   0.02265   0.02273   1.09518
   D10       -3.12454  -0.00017   0.00000  -0.00124  -0.00079  -3.12533
   D11        1.10284  -0.00044   0.00000  -0.00481  -0.00455   1.09828
   D12       -1.02324   0.00147   0.00000  -0.00501  -0.00496  -1.02820
   D13       -3.07905   0.00120   0.00000  -0.00858  -0.00873  -3.08777
   D14        1.06004  -0.00230   0.00000  -0.04291  -0.04311   1.01693
   D15       -0.99577  -0.00257   0.00000  -0.04648  -0.04688  -1.04264
   D16        3.11761  -0.00165   0.00000  -0.04438  -0.04445   3.07316
   D17        1.03289  -0.00378   0.00000  -0.05459  -0.05443   0.97847
   D18       -1.07525   0.00133   0.00000   0.00194   0.00215  -1.07310
   D19       -1.11490  -0.00021   0.00000  -0.03129  -0.03156  -1.14647
   D20        3.08356  -0.00234   0.00000  -0.04150  -0.04154   3.04202
   D21        0.97542   0.00277   0.00000   0.01503   0.01504   0.99046
   D22       -0.02758   0.00071   0.00000  -0.05378  -0.05329  -0.08087
   D23        3.11964   0.00009   0.00000  -0.07612  -0.07640   3.04324
   D24        2.08623  -0.00201   0.00000  -0.08042  -0.08004   2.00619
   D25       -1.04974  -0.00263   0.00000  -0.10275  -0.10315  -1.15289
   D26       -2.13747  -0.00319   0.00000  -0.10187  -0.10157  -2.23904
   D27        1.00975  -0.00381   0.00000  -0.12420  -0.12468   0.88507
   D28       -0.04272  -0.00325   0.00000  -0.07412  -0.07432  -0.11704
   D29        3.09309  -0.00258   0.00000  -0.05107  -0.05088   3.04222
   D30        0.00115   0.00026   0.00000   0.01004   0.00896   0.01011
   D31       -3.10041   0.00132   0.00000   0.03580   0.03539  -3.06502
   D32       -3.13472  -0.00052   0.00000  -0.01323  -0.01282   3.13564
   D33        0.04690   0.00054   0.00000   0.01253   0.01361   0.06052
   D34        0.00858   0.00022   0.00000   0.00557   0.00549   0.01407
   D35       -2.09073   0.00044   0.00000   0.00789   0.00790  -2.08282
   D36        2.09866  -0.00034   0.00000  -0.00053  -0.00077   2.09789
   D37        3.10945  -0.00044   0.00000  -0.01908  -0.01895   3.09050
   D38        1.01015  -0.00022   0.00000  -0.01676  -0.01654   0.99361
   D39       -1.08365  -0.00100   0.00000  -0.02518  -0.02522  -1.10887
   D40       -0.02694   0.00046   0.00000   0.04677   0.04844   0.02150
   D41       -1.98228   0.00313   0.00000   0.07974   0.07849  -1.90379
   D42       -3.13161   0.00096   0.00000   0.06878   0.07003  -3.06158
   D43        1.19624   0.00363   0.00000   0.10175   0.10008   1.29631
         Item               Value     Threshold  Converged?
 Maximum Force            0.027831     0.000450     NO 
 RMS     Force            0.006699     0.000300     NO 
 Maximum Displacement     0.450404     0.001800     NO 
 RMS     Displacement     0.089765     0.001200     NO 
 Predicted change in Energy=-1.033912D-02
 GradGradGradGradGradGradGradGradGradGradGradGradGradGradGradGradGradGrad

                          Input orientation:                          
 ---------------------------------------------------------------------
 Center     Atomic      Atomic             Coordinates (Angstroms)
 Number     Number       Type             X           Y           Z
 ---------------------------------------------------------------------
      1          6           0        0.923105   -0.098321   -0.079875
      2          6           0        2.450512   -0.055732   -0.038886
      3          7           0        2.968205   -0.810465    1.111523
      4          6           0        4.427440   -0.773785    1.195810
      5          6           0        4.958162   -1.482969    2.453350
      6          7           0        4.234306   -1.982441    3.395762
      7          7           0        6.311966   -1.605160    2.560639
      8          6           0        7.303099   -1.133828    1.632651
      9          7           0        6.816392   -2.336707    3.660610
     10          1           0        0.539130    0.478216   -0.927803
     11          1           0        0.499607    0.317989    0.838409
     12          1           0        0.558358   -1.125953   -0.185859
     13          1           0        2.788869    0.980900    0.062999
     14          1           0        2.855624   -0.432688   -0.994469
     15          1           0        2.697276   -1.782931    0.989523
     16          1           0        4.739364    0.275511    1.224249
     17          1           0        4.889540   -1.230324    0.304006
     18          1           0        3.261292   -1.736976    3.233504
     19          1           0        6.818456   -0.630032    0.798134
     20          1           0        7.901601   -1.965583    1.239619
     21          1           0        7.984549   -0.416760    2.112284
     22          1           0        5.958232   -2.632610    4.129919
     23          1           0        7.248303   -1.651240    4.285109
 ---------------------------------------------------------------------
                    Distance matrix (angstroms):
                    1          2          3          4          5
     1  C    0.000000
     2  C    1.528551   0.000000
     3  N    2.471642   1.470057   0.000000
     4  C    3.789985   2.438916   1.462127   0.000000
     5  C    4.961468   3.812683   2.492527   1.538186   0.000000
     6  N    5.156939   4.323301   2.862567   2.517527   1.289023
     7  N    6.187302   4.906025   3.729909   2.470908   1.363535
     8  C    6.686505   5.244418   4.378064   2.930849   2.508820
     9  N    7.330242   6.160359   4.861667   3.771613   2.374735
    10  H    1.094903   2.174548   3.423442   4.603932   5.899685
    11  H    1.093576   2.171485   2.727998   4.092380   5.072494
    12  H    1.095582   2.178812   2.755013   4.123448   5.143069
    13  H    2.160140   1.095204   2.083399   2.654636   4.060820
    14  H    2.164004   1.104242   2.142566   2.717402   4.172674
    15  H    2.670058   2.025273   1.016846   2.013553   2.710050
    16  H    4.050225   2.635161   2.080639   1.095047   2.156575
    17  H    4.142632   2.728753   2.126004   1.103303   2.165229
    18  H    4.373876   3.767290   2.333907   2.537683   1.884815
    19  H    5.984044   4.484345   3.867196   2.428121   2.632097
    20  H    7.343511   5.915782   5.068442   3.673160   3.220232
    21  H    7.400741   5.948398   5.130326   3.690586   3.226786
    22  H    7.035446   6.026884   4.622898   3.795728   2.265546
    23  H    7.840458   6.652922   5.394237   4.274455   2.937414
                    6          7          8          9         10
     6  N    0.000000
     7  N    2.270780   0.000000
     8  C    3.639532   1.437240   0.000000
     9  N    2.619698   1.414052   2.407575   0.000000
    10  H    6.196965   7.059414   7.409850   8.269301   0.000000
    11  H    5.077402   6.359882   7.001864   7.410399   1.773905
    12  H    5.203285   6.393505   6.985597   7.444746   1.767543
    13  H    4.688069   5.033699   5.226294   6.338002   2.509124
    14  H    4.855577   5.095074   5.212810   6.401776   2.490047
    15  H    2.862211   3.945376   4.695588   4.940495   3.666949
    16  H    3.173153   2.792122   2.953941   4.132020   4.723810
    17  H    3.248686   2.693732   2.756788   4.025374   4.833479
    18  H    1.016532   3.126777   4.388931   3.630542   5.443685
    19  H    3.905702   2.076977   1.088627   3.332644   6.605831
    20  H    4.254208   2.098080   1.097495   2.678919   8.054555
    21  H    4.261807   2.100203   1.099368   2.729121   8.091810
    22  H    1.983337   1.908775   3.208016   1.021885   8.038934
    23  H    3.159875   1.962816   2.703008   1.022943   8.759112
                   11         12         13         14         15
    11  H    0.000000
    12  H    1.771312   0.000000
    13  H    2.506278   3.078301   0.000000
    14  H    3.077950   2.532172   1.766614   0.000000
    15  H    3.044084   2.527472   2.916435   2.405089   0.000000
    16  H    4.257489   4.629613   2.377079   2.995451   2.909021
    17  H    4.685549   4.360045   3.059479   2.541470   2.362483
    18  H    4.193598   4.401277   4.202634   4.443139   2.314233
    19  H    6.389696   6.356336   4.401488   4.353896   4.283682
    20  H    7.756622   7.527296   6.017161   5.727373   5.213531
    21  H    7.628039   7.805942   5.757440   5.996503   5.575148
    22  H    7.024006   7.074927   6.296202   6.381629   4.606286
    23  H    7.829592   8.063551   6.681387   6.975274   5.620505
                   16         17         18         19         20
    16  H    0.000000
    17  H    1.771141   0.000000
    18  H    3.204981   3.389667   0.000000
    19  H    2.307424   2.079719   4.450816   0.000000
    20  H    3.875885   3.238594   5.055720   1.775334   0.000000
    21  H    3.434978   3.675710   5.030831   1.769816   1.779685
    22  H    4.287859   4.212614   2.979800   3.981344   3.546187
    23  H    4.401819   4.646517   4.124256   3.658774   3.130594
                   21         22         23
    21  H    0.000000
    22  H    3.617569   0.000000
    23  H    2.605219   1.628330   0.000000
 Stoichiometry    C5H14N4
 Framework group  C1[X(C5H14N4)]
 Deg. of freedom    63
 Full point group                 C1      NOp   1
 Largest Abelian subgroup         C1      NOp   1
 Largest concise Abelian subgroup C1      NOp   1
                         Standard orientation:                         
 ---------------------------------------------------------------------
 Center     Atomic      Atomic             Coordinates (Angstroms)
 Number     Number       Type             X           Y           Z
 ---------------------------------------------------------------------
      1          6           0       -4.090541   -0.198183   -0.007774
      2          6           0       -2.800570    0.618927    0.061320
      3          7           0       -1.619656   -0.250822   -0.038906
      4          6           0       -0.364858    0.494958    0.045419
      5          6           0        0.865385   -0.428323    0.036969
      6          7           0        0.837335   -1.716976    0.049834
      7          7           0        2.085235    0.179311   -0.007466
      8          6           0        2.352000    1.591291   -0.035887
      9          7           0        3.224950   -0.651163   -0.111892
     10          1           0       -4.968408    0.449719    0.083803
     11          1           0       -4.123881   -0.937501    0.797339
     12          1           0       -4.170738   -0.731634   -0.961345
     13          1           0       -2.746879    1.144676    1.020578
     14          1           0       -2.810860    1.391561   -0.727529
     15          1           0       -1.643493   -0.699295   -0.951199
     16          1           0       -0.371463    1.065545    0.980039
     17          1           0       -0.275797    1.219568   -0.781797
     18          1           0       -0.121987   -2.027564    0.178577
     19          1           0        1.415514    2.145342   -0.002284
     20          1           0        2.892047    1.871654   -0.949256
     21          1           0        2.958024    1.896682    0.829029
     22          1           0        2.805913   -1.582374   -0.150683
     23          1           0        3.698468   -0.600845    0.793458
 ---------------------------------------------------------------------
 Rotational constants (GHZ):           4.0733190           0.6721228           0.5880286
 Standard basis: 6-31G(2df,p) (6D, 7F)
 There are   349 symmetry adapted cartesian basis functions of A   symmetry.
 There are   322 symmetry adapted basis functions of A   symmetry.
   322 basis functions,   494 primitive gaussians,   349 cartesian basis functions
    36 alpha electrons       36 beta electrons
       nuclear repulsion energy       472.1620485250 Hartrees.
 NAtoms=   23 NActive=   23 NUniq=   23 SFac= 1.00D+00 NAtFMM=   60 NAOKFM=F Big=F
 Integral buffers will be    131072 words long.
 Raffenetti 2 integral format.
 Two-electron integral symmetry is turned on.
 One-electron integrals computed using PRISM.
 PrsmSu:  requested number of processors reduced to:  13 ShMem   1 Linda.
 NBasis=   322 RedAO= T EigKep=  2.28D-04  NBF=   322
 NBsUse=   322 1.00D-06 EigRej= -1.00D+00 NBFU=   322
 Initial guess from the checkpoint file:  "CCNCCpdNpNpCpN.chk"
 B after Tr=     0.000000    0.000000   -0.000000
         Rot=    0.999960   -0.007747    0.000037   -0.004549 Ang=  -1.03 deg.
 ExpMin= 1.61D-01 ExpMax= 4.17D+03 ExpMxC= 6.27D+02 IAcc=2 IRadAn=         4 AccDes= 0.00D+00
 Harris functional with IExCor=  402 and IRadAn=       4 diagonalized for initial guess.
 HarFok:  IExCor=  402 AccDes= 0.00D+00 IRadAn=         4 IDoV= 1 UseB2=F ITyADJ=14
 ICtDFT=  3500011 ScaDFX=  1.000000  1.000000  1.000000  1.000000
 FoFCou: FMM=F IPFlag=           0 FMFlag=      100000 FMFlg1=           0
         NFxFlg=           0 DoJE=T BraDBF=F KetDBF=T FulRan=T
         wScrn=  0.000000 ICntrl=       500 IOpCl=  0 I1Cent=   200000004 NGrid=           0
         NMat0=    1 NMatS0=      1 NMatT0=    0 NMatD0=    1 NMtDS0=    0 NMtDT0=    0
 Petite list used in FoFCou.
 Requested convergence on RMS density matrix=1.00D-08 within 128 cycles.
 Requested convergence on MAX density matrix=1.00D-06.
 Requested convergence on             energy=1.00D-06.
 No special actions if energy rises.
 Integral accuracy reduced to 1.0D-05 until final iterations.
 Initial convergence to 1.0D-05 achieved.  Increase integral accuracy.
 SCF Done:  E(RB3LYP) =  -417.946007677     A.U. after   11 cycles
            NFock= 11  Conv=0.93D-08     -V/T= 2.0078
 PrsmSu:  requested number of processors reduced to:  13 ShMem   1 Linda.
 Calling FoFJK, ICntrl=      2127 FMM=F ISym2X=0 I1Cent= 0 IOpClX= 0 NMat=1 NMatS=1 NMatT=0.
 ***** Axes restored to original set *****
 -------------------------------------------------------------------
 Center     Atomic                   Forces (Hartrees/Bohr)
 Number     Number              X              Y              Z
 -------------------------------------------------------------------
      1        6           0.000694504    0.000658268    0.000313223
      2        6          -0.001493267   -0.002399313    0.003251617
      3        7           0.003147879   -0.001080940   -0.001040404
      4        6          -0.003389900   -0.003413180    0.003508177
      5        6          -0.003016349    0.001255788    0.001206453
      6        7          -0.004668590    0.004926559   -0.003909632
      7        7          -0.000719816    0.004082436   -0.008797526
      8        6          -0.000637498   -0.002970089   -0.001199861
      9        7           0.006251925    0.000402073    0.000757194
     10        1           0.000749231   -0.000402501    0.000025365
     11        1           0.000313480   -0.000460233    0.000297899
     12        1           0.000036800   -0.000215605    0.000042284
     13        1           0.000493401    0.000918078   -0.000098122
     14        1           0.000809027    0.000962110   -0.000887321
     15        1          -0.001719684   -0.000261489    0.002192063
     16        1           0.000371990    0.001330237   -0.001217224
     17        1           0.002290677    0.001468731    0.000007213
     18        1          -0.001471862   -0.001801595   -0.000646614
     19        1           0.001764721    0.000711383   -0.000184219
     20        1           0.000740301    0.000152369    0.000866571
     21        1           0.000592649   -0.000043513    0.000232173
     22        1          -0.000619178   -0.003288440    0.002875402
     23        1          -0.000520442   -0.000531135    0.002405289
 -------------------------------------------------------------------
 Cartesian Forces:  Max     0.008797526 RMS     0.002239347

 GradGradGradGradGradGradGradGradGradGradGradGradGradGradGradGradGradGrad
 Berny optimization.
 Using GEDIIS/GDIIS optimizer.
 FormGI is forming the generalized inverse of G from B-inverse, IUseBI=4.
 Internal  Forces:  Max     0.010413001 RMS     0.002587116
 Search for a local minimum.
 Step number   2 out of a maximum of  112
 All quantities printed in internal units (Hartrees-Bohrs-Radians)
 Mixed Optimization -- RFO/linear search
 Update second derivatives using D2CorX and points    1    2
 DE= -7.96D-03 DEPred=-1.03D-02 R= 7.70D-01
 TightC=F SS=  1.41D+00  RLast= 4.02D-01 DXNew= 5.0454D-01 1.2072D+00
 Trust test= 7.70D-01 RLast= 4.02D-01 DXMaxT set to 5.05D-01
 ITU=  1  0
 Use linear search instead of GDIIS.
     Eigenvalues ---    0.00246   0.00520   0.00726   0.00785   0.00970
     Eigenvalues ---    0.01000   0.01158   0.01240   0.01773   0.02952
     Eigenvalues ---    0.02991   0.04367   0.04807   0.05573   0.05630
     Eigenvalues ---    0.05645   0.06390   0.07114   0.07386   0.07505
     Eigenvalues ---    0.09178   0.09875   0.10782   0.12611   0.13099
     Eigenvalues ---    0.15762   0.16000   0.16000   0.16000   0.16000
     Eigenvalues ---    0.16000   0.16000   0.16000   0.16710   0.20793
     Eigenvalues ---    0.21958   0.23264   0.24068   0.24956   0.24998
     Eigenvalues ---    0.27607   0.29955   0.31305   0.33930   0.34055
     Eigenvalues ---    0.34095   0.34185   0.34249   0.34255   0.34260
     Eigenvalues ---    0.34278   0.34358   0.34505   0.35130   0.36032
     Eigenvalues ---    0.38053   0.42018   0.42512   0.43399   0.44091
     Eigenvalues ---    0.44160   0.50013   0.63500
 RFO step:  Lambda=-3.08296556D-03 EMin= 2.46061233D-03
 Quartic linear search produced a step of -0.09459.
 Iteration  1 RMS(Cart)=  0.08098335 RMS(Int)=  0.00175357
 Iteration  2 RMS(Cart)=  0.00303094 RMS(Int)=  0.00014448
 Iteration  3 RMS(Cart)=  0.00000280 RMS(Int)=  0.00014446
 Iteration  4 RMS(Cart)=  0.00000000 RMS(Int)=  0.00014446
 Variable       Old X    -DE/DX   Delta X   Delta X   Delta X     New X
                                 (Linear)    (Quad)   (Total)
    R1        2.88854  -0.00180  -0.00178  -0.00161  -0.00339   2.88515
    R2        2.06907  -0.00049  -0.00001  -0.00126  -0.00126   2.06780
    R3        2.06656  -0.00005   0.00024  -0.00060  -0.00036   2.06620
    R4        2.07035   0.00019  -0.00013   0.00073   0.00061   2.07096
    R5        2.77800  -0.00335  -0.00028  -0.00769  -0.00796   2.77004
    R6        2.06964   0.00101   0.00029   0.00205   0.00234   2.07197
    R7        2.08671   0.00074  -0.00129   0.00452   0.00322   2.08994
    R8        2.76302  -0.00320   0.00201  -0.01206  -0.01004   2.75298
    R9        1.92156   0.00045   0.00088  -0.00087   0.00001   1.92157
   R10        2.90675  -0.00736   0.00097  -0.02496  -0.02399   2.88276
   R11        2.06934   0.00135   0.00017   0.00316   0.00332   2.07266
   R12        2.08494   0.00035  -0.00130   0.00352   0.00221   2.08715
   R13        2.43590  -0.00109   0.00381  -0.00910  -0.00529   2.43061
   R14        2.57671   0.00670   0.00544   0.00183   0.00727   2.58398
   R15        1.92097   0.00108   0.00249  -0.00276  -0.00027   1.92070
   R16        2.71599   0.00118   0.00270  -0.00268   0.00002   2.71601
   R17        2.67217   0.00829   0.00184   0.01386   0.01569   2.68786
   R18        2.05721  -0.00032   0.00071  -0.00223  -0.00152   2.05568
   R19        2.07397  -0.00002  -0.00063   0.00120   0.00058   2.07454
   R20        2.07750   0.00044  -0.00085   0.00284   0.00199   2.07950
   R21        1.93108   0.00279   0.00196   0.00190   0.00386   1.93495
   R22        1.93308   0.00089  -0.00034   0.00246   0.00213   1.93521
    A1        1.93534  -0.00071  -0.00108  -0.00117  -0.00225   1.93309
    A2        1.93248  -0.00024   0.00042  -0.00177  -0.00135   1.93112
    A3        1.94057  -0.00005  -0.00013  -0.00090  -0.00103   1.93954
    A4        1.89023   0.00072  -0.00047   0.00665   0.00619   1.89642
    A5        1.87783   0.00029   0.00061  -0.00045   0.00016   1.87799
    A6        1.88534   0.00004   0.00069  -0.00216  -0.00147   1.88387
    A7        1.93754  -0.00142  -0.00212  -0.00028  -0.00239   1.93515
    A8        1.91514   0.00060  -0.00123   0.00350   0.00223   1.91738
    A9        1.91121   0.00051  -0.00065   0.00593   0.00532   1.91653
   A10        1.88005   0.00015   0.00508  -0.01307  -0.00799   1.87206
   A11        1.95277   0.00087  -0.00260   0.01296   0.01040   1.96317
   A12        1.86531  -0.00068   0.00162  -0.00977  -0.00814   1.85717
   A13        1.96459  -0.00010  -0.00563   0.01672   0.01085   1.97543
   A14        1.87893   0.00082   0.00062   0.01760   0.01783   1.89676
   A15        1.87216   0.00070   0.00203   0.01364   0.01529   1.88745
   A16        1.96050  -0.00902  -0.00072  -0.03441  -0.03502   1.92548
   A17        1.88580   0.00188   0.00363  -0.00455  -0.00095   1.88486
   A18        1.94017   0.00433  -0.00224   0.02919   0.02709   1.96726
   A19        1.89893   0.00313  -0.00233   0.01504   0.01255   1.91148
   A20        1.90237   0.00204  -0.00184   0.01150   0.00990   1.91227
   A21        1.87359  -0.00209   0.00363  -0.01646  -0.01290   1.86070
   A22        2.19273  -0.01041  -0.00965  -0.01729  -0.02712   2.16561
   A23        2.03556   0.00219   0.00356   0.00032   0.00366   2.03922
   A24        2.05477   0.00822   0.00610   0.01637   0.02223   2.07699
   A25        1.90419   0.00142  -0.00381   0.01560   0.01180   1.91598
   A26        2.21993   0.00403  -0.00266   0.01920   0.01645   2.23637
   A27        2.05076   0.00324  -0.00207   0.01521   0.01305   2.06381
   A28        2.01077  -0.00729   0.00483  -0.03587  -0.03110   1.97967
   A29        1.91742   0.00299   0.00524   0.00869   0.01390   1.93132
   A30        1.93773  -0.00047  -0.00141  -0.00027  -0.00172   1.93602
   A31        1.93871  -0.00065  -0.00190  -0.00223  -0.00415   1.93456
   A32        1.89545  -0.00029  -0.00183   0.00707   0.00518   1.90063
   A33        1.88446  -0.00100  -0.00125  -0.00183  -0.00309   1.88137
   A34        1.88865  -0.00064   0.00107  -0.01154  -0.01050   1.87816
   A35        1.77980   0.00558   0.00757   0.01724   0.02483   1.80462
   A36        1.85339   0.00292   0.00543   0.00680   0.01225   1.86563
   A37        1.84236  -0.00172  -0.00238   0.00170  -0.00063   1.84173
    D1        3.12512  -0.00016   0.00294  -0.01273  -0.00978   3.11534
    D2        1.04897   0.00015  -0.00124   0.00141   0.00017   1.04914
    D3       -0.99328   0.00033  -0.00211   0.00774   0.00562  -0.98766
    D4        1.02641  -0.00044   0.00397  -0.01915  -0.01518   1.01123
    D5       -1.04975  -0.00013  -0.00022  -0.00502  -0.00523  -1.05498
    D6       -3.09200   0.00005  -0.00109   0.00132   0.00022  -3.09177
    D7       -1.06960  -0.00030   0.00291  -0.01466  -0.01175  -1.08135
    D8        3.13743   0.00002  -0.00128  -0.00053  -0.00180   3.13563
    D9        1.09518   0.00020  -0.00215   0.00581   0.00365   1.09884
   D10       -3.12533   0.00042   0.00007  -0.00701  -0.00691  -3.13224
   D11        1.09828  -0.00091   0.00043  -0.04476  -0.04442   1.05386
   D12       -1.02820   0.00040   0.00047  -0.01112  -0.01057  -1.03877
   D13       -3.08777  -0.00092   0.00083  -0.04887  -0.04809  -3.13586
   D14        1.01693   0.00016   0.00408  -0.02373  -0.01958   0.99736
   D15       -1.04264  -0.00116   0.00443  -0.06147  -0.05709  -1.09974
   D16        3.07316  -0.00063   0.00420  -0.03638  -0.03207   3.04109
   D17        0.97847  -0.00024   0.00515  -0.03094  -0.02592   0.95255
   D18       -1.07310  -0.00130  -0.00020  -0.02482  -0.02519  -1.09828
   D19       -1.14647   0.00075   0.00299   0.00355   0.00676  -1.13970
   D20        3.04202   0.00115   0.00393   0.00898   0.01292   3.05494
   D21        0.99046   0.00009  -0.00142   0.01511   0.01365   1.00411
   D22       -0.08087   0.00066   0.00504  -0.05124  -0.04645  -0.12731
   D23        3.04324   0.00014   0.00723  -0.09315  -0.08565   2.95759
   D24        2.00619  -0.00055   0.00757  -0.06840  -0.06114   1.94505
   D25       -1.15289  -0.00106   0.00976  -0.11031  -0.10034  -1.25323
   D26       -2.23904  -0.00017   0.00961  -0.07330  -0.06393  -2.30296
   D27        0.88507  -0.00069   0.01179  -0.11521  -0.10313   0.78194
   D28       -0.11704   0.00155   0.00703   0.01598   0.02305  -0.09398
   D29        3.04222   0.00213   0.00481   0.05846   0.06323   3.10545
   D30        0.01011   0.00003  -0.00085   0.00798   0.00740   0.01751
   D31       -3.06502   0.00066  -0.00335   0.03755   0.03481  -3.03021
   D32        3.13564  -0.00063   0.00121  -0.03084  -0.03022   3.10542
   D33        0.06052  -0.00000  -0.00129  -0.00127  -0.00282   0.05770
   D34        0.01407   0.00045  -0.00052   0.01370   0.01314   0.02721
   D35       -2.08282  -0.00084  -0.00075  -0.00064  -0.00146  -2.08428
   D36        2.09789   0.00073   0.00007   0.01564   0.01565   2.11354
   D37        3.09050   0.00017   0.00179  -0.01367  -0.01181   3.07869
   D38        0.99361  -0.00112   0.00156  -0.02801  -0.02641   0.96720
   D39       -1.10887   0.00045   0.00239  -0.01174  -0.00930  -1.11817
   D40        0.02150   0.00181  -0.00458   0.10314   0.09864   0.12014
   D41       -1.90379   0.00055  -0.00742   0.09232   0.08503  -1.81877
   D42       -3.06158   0.00198  -0.00662   0.12732   0.12057  -2.94101
   D43        1.29631   0.00073  -0.00947   0.11650   0.10695   1.40327
         Item               Value     Threshold  Converged?
 Maximum Force            0.010413     0.000450     NO 
 RMS     Force            0.002587     0.000300     NO 
 Maximum Displacement     0.254147     0.001800     NO 
 RMS     Displacement     0.081360     0.001200     NO 
 Predicted change in Energy=-1.825611D-03
 GradGradGradGradGradGradGradGradGradGradGradGradGradGradGradGradGradGrad

                          Input orientation:                          
 ---------------------------------------------------------------------
 Center     Atomic      Atomic             Coordinates (Angstroms)
 Number     Number       Type             X           Y           Z
 ---------------------------------------------------------------------
      1          6           0        0.914953   -0.167803   -0.056161
      2          6           0        2.436254   -0.042943   -0.024023
      3          7           0        2.998949   -0.800423    1.097714
      4          6           0        4.450148   -0.705556    1.183276
      5          6           0        4.952525   -1.395362    2.447756
      6          7           0        4.184649   -1.855297    3.371443
      7          7           0        6.302889   -1.582314    2.554054
      8          6           0        7.328733   -1.191450    1.626390
      9          7           0        6.792848   -2.343019    3.651488
     10          1           0        0.494880    0.419767   -0.878139
     11          1           0        0.479390    0.183500    0.883181
     12          1           0        0.607099   -1.209384   -0.202237
     13          1           0        2.720925    1.006505    0.116699
     14          1           0        2.858437   -0.353258   -0.997977
     15          1           0        2.751770   -1.780369    0.985480
     16          1           0        4.718981    0.357345    1.214186
     17          1           0        4.958321   -1.134232    0.301312
     18          1           0        3.219189   -1.609520    3.170124
     19          1           0        6.897637   -0.668582    0.775438
     20          1           0        7.882542   -2.066715    1.262559
     21          1           0        8.052568   -0.514944    2.105277
     22          1           0        5.940325   -2.700206    4.092005
     23          1           0        7.189379   -1.677629    4.321364
 ---------------------------------------------------------------------
                    Distance matrix (angstroms):
                    1          2          3          4          5
     1  C    0.000000
     2  C    1.526755   0.000000
     3  N    2.464686   1.465843   0.000000
     4  C    3.784573   2.439753   1.456812   0.000000
     5  C    4.906984   3.777611   2.448066   1.525491   0.000000
     6  N    5.028620   4.227375   2.772812   2.486055   1.286224
     7  N    6.151741   4.895611   3.694360   2.465843   1.367381
     8  C    6.709352   5.289544   4.379433   2.952743   2.522416
     9  N    7.282025   6.146515   4.826493   3.776453   2.394539
    10  H    1.094233   2.170840   3.415145   4.599992   5.850373
    11  H    1.093386   2.168782   2.713357   4.080123   4.994961
    12  H    1.095904   2.176731   2.752830   4.116130   5.093111
    13  H    2.161115   1.096441   2.074771   2.656868   4.022789
    14  H    2.167612   1.105947   2.147468   2.723146   4.164644
    15  H    2.656931   2.034034   1.016852   2.019613   2.670169
    16  H    4.044773   2.627590   2.076656   1.096806   2.155973
    17  H    4.172601   2.767232   2.141220   1.104474   2.162277
    18  H    4.218645   3.642763   2.235626   2.505988   1.890009
    19  H    6.060928   4.575423   3.914207   2.481512   2.666143
[...]
 -0.00003887,-0.00002549,0.00000819,0.00008255,0.00000376,-0.00002290,0
 .00023050,-0.00006507,-0.00011038,-0.00022251,0.00123302,0.00060549,0.
 00044676,0.00071715,0.00065984,0.01062149,-0.01152801,-0.02684580,-0.0
 3097384,0.08289651,0.00055138,-0.00108101,0.00038168,0.06903147,-0.071
 03211,-0.21519149,-0.00089822,0.00278976,-0.03644018,0.00497743,0.0001
 2480,0.00158381,0.00063194,0.00037978,-0.00079426,-0.00110600,0.000059
 56,0.00006532,-0.00057311,0.00031809,0.00008561,0.00010704,0.00008836,
 -0.00025659,-0.00031714,-0.00001778,0.00006447,0.00086317,-0.00018875,
 0.00038457,-0.00055478,0.00018988,0.00126807,0.00006328,0.00039301,0.0
 0009269,0.00234761,-0.00355383,-0.00347935,-0.07220515,0.07194624,0.24
 987401,0.00177966,0.00185410,0.00039956,0.00548600,0.01467982,0.001685
 06,-0.08997865,-0.10372789,-0.01498697,-0.01959790,-0.03928088,-0.0021
 1835,-0.00024370,-0.00068387,0.00112505,0.00059170,0.00053214,-0.00037
 856,0.00007043,0.00012807,0.00008773,-0.00014946,0.00003231,0.00025308
 ,0.00011227,0.00003241,-0.00004209,-0.00007169,-0.00053102,0.00022301,
 -0.00018640,0.00017193,0.00011654,-0.00041412,-0.00094776,-0.00049124,
 -0.00106467,0.00288439,-0.00299633,-0.00010386,-0.00046595,-0.00051027
 ,0.10863818,-0.00021141,0.00102620,-0.00061050,-0.00601304,-0.02130758
 ,-0.00510587,-0.12663039,-0.37610771,0.00970254,0.00466973,0.00034722,
 -0.00330838,-0.00064284,0.00051700,0.00059782,0.00041296,0.00010651,-0
 .00018667,0.00050644,-0.00031832,-0.00024867,-0.00003333,-0.00006420,0
 .00005537,0.00007422,0.00003262,-0.00012826,-0.00013912,0.00056903,-0.
 00003969,0.00016083,-0.00018281,0.00000376,0.00109728,0.00022965,0.000
 17499,0.00193471,-0.00083038,0.00422441,-0.00048203,0.00163892,-0.0002
 3933,0.12475263,0.39142877,0.00095018,-0.00012008,0.00133051,0.0078338
 0,0.03298974,-0.00592297,-0.02978692,-0.02809495,-0.02566478,0.0070957
 3,-0.00035697,-0.00248570,-0.00312109,-0.00149436,0.00373223,0.0022616
 7,0.00210955,-0.00086108,0.00103163,-0.00050869,-0.00080102,-0.0000862
 5,-0.00015396,0.00044575,0.00026169,0.00008022,-0.00025430,0.00032995,
 -0.00027983,-0.00031568,0.00008415,-0.00039860,-0.00013067,-0.00069149
 ,-0.00050177,0.00012653,-0.00193753,0.00193928,-0.00282077,0.00081105,
 0.00031894,0.00089144,0.01797913,-0.00500922,0.03405504,-0.00006061,0.
 00012419,0.00009479,0.00136888,-0.00295618,0.00114378,-0.02077084,-0.0
 3628948,0.00365538,-0.06713049,-0.06351612,0.00353244,0.00497191,0.009
 92890,0.00183233,-0.00036619,-0.00101378,-0.00120989,-0.00101078,0.000
 16363,-0.00028725,0.00040312,0.00081083,-0.00010844,-0.00013397,-0.000
 63645,-0.00051979,0.00003315,0.00011999,0.00000068,0.00002183,-0.00004
 793,0.00001412,0.00022953,0.00022492,0.00003034,0.00000122,0.00118258,
 -0.00028125,-0.00008933,0.00035234,-0.00029296,-0.00701802,0.00014940,
 -0.00112177,0.08686807,0.00012105,0.00069344,-0.00015152,0.00136519,0.
 00106154,0.00095670,-0.00333050,0.00080935,0.00057687,-0.07359848,-0.2
 7377195,0.01471629,-0.00352598,-0.01077258,0.00227026,0.00168568,0.001
 12866,0.00048684,0.00017290,-0.00014487,0.00101875,-0.00049928,0.00011
 263,0.00117281,0.00060127,0.00023959,0.00036541,-0.00011716,-0.0000217
 9,-0.00002898,0.00005197,-0.00002573,0.00000511,0.00027103,-0.00009085
 ,0.00005602,-0.00057846,0.00043982,-0.00053240,-0.00003691,-0.00038478
 ,-0.00034889,0.00061562,0.00156610,-0.00028359,0.08073227,0.29638616,-
 0.00007127,-0.00005315,-0.00014378,-0.00056269,-0.00123770,0.00040955,
 -0.00057652,0.00091263,0.00066227,0.00667975,0.01825748,-0.04645446,0.
 01106368,0.02843628,-0.00272610,-0.00259706,-0.00332849,-0.00394908,-0
 .00021301,0.00008308,0.00031296,-0.00019734,0.00040917,0.00041052,-0.0
 0063698,-0.00073529,-0.00073143,-0.00002017,0.00000448,0.00000704,0.00
 006003,0.00001957,-0.00001051,0.00000005,0.00006805,-0.00004796,-0.000
 02159,0.00014048,0.00032743,-0.00004472,-0.00019975,-0.00010033,-0.000
 45347,0.00053177,0.00049134,-0.00586961,-0.01920777,0.04983960,-0.0000
 8671,0.00011515,-0.00065751,0.00206384,-0.00253288,0.00600930,-0.03327
 107,0.01881393,0.02592511,-0.07439688,0.04104624,0.06247728,0.00468012
 ,-0.00676058,-0.00431428,0.00076124,0.00253605,-0.00185499,-0.00048285
 ,0.00018905,-0.00012625,-0.00128146,-0.00036791,-0.00126547,0.00011025
 ,0.00022408,0.00010837,-0.00021014,-0.00005542,-0.00025754,0.00040648,
 -0.00012037,-0.00009097,0.00001865,-0.00003176,0.00004872,-0.00009395,
 0.00025240,-0.00038001,0.00059963,-0.00002951,-0.00237156,0.00173742,0
 .00077024,-0.00096342,0.00392396,-0.00430594,-0.00640465,0.09846160,0.
 00005891,0.00018824,0.00035768,-0.00026811,0.00046551,-0.00107499,0.00
 368394,0.00417274,0.00193887,0.03993837,-0.10864651,-0.09294154,-0.003
 75652,0.00714842,0.01214872,0.00016647,-0.00229989,0.00191576,-0.00042
 150,0.00019764,-0.00042083,0.00047473,0.00036190,-0.00089887,-0.000412
 96,-0.00034917,-0.00008287,0.00007831,-0.00003560,-0.00000152,-0.00015
 730,-0.00002367,0.00002439,-0.00000548,-0.00002166,-0.00000663,-0.0002
 4390,-0.00013172,-0.00023389,0.00024272,-0.00033109,0.00059552,0.00001
 360,0.00131096,0.00134300,0.00992084,-0.01676208,-0.02519068,-0.049115
 93,0.11403679,-0.00019385,-0.00007539,0.00016416,-0.00037417,0.0006844
 1,0.00299767,0.00440839,0.00310494,0.00242570,0.05975733,-0.09276512,-
 0.19044610,0.01289281,-0.01694936,-0.02417967,-0.00291085,0.00534114,-
 0.00232125,0.00008623,0.00187297,0.00108996,0.00021777,-0.00004018,-0.
 00125326,-0.00052313,0.00056366,0.00049031,0.00005026,-0.00003679,0.00
 000530,-0.00013351,0.00006145,-0.00015430,-0.00000855,0.00001815,-0.00
 002928,-0.00001767,-0.00018081,-0.00010978,0.00151002,-0.00122897,0.00
 035312,0.00050743,0.00037302,0.00075500,-0.00055473,0.00044107,0.00140
 892,-0.07425008,0.10125325,0.20645832,0.00004241,-0.00006194,-0.000042
 02,-0.00013979,0.00037668,-0.00057774,0.00019536,0.00000799,-0.0026485
 2,-0.00045711,-0.00103851,-0.00233425,-0.03592613,0.01075311,-0.004264
 55,-0.35254912,0.10375925,-0.04726336,0.00159767,-0.00068916,0.0026585
 7,-0.00045110,0.00179508,0.00064831,0.00022152,-0.00011050,0.00112613,
 -0.00002673,-0.00000092,0.00004752,-0.00009089,0.00007464,0.00001399,-
 0.00003289,-0.00002412,-0.00002732,0.00001868,-0.00005511,0.00000960,-
 0.00020506,0.00012109,0.00012926,0.00048922,-0.00029366,-0.00091884,-0
 .00012594,0.00003295,0.00020681,-0.00092363,0.00003829,-0.00012735,0.3
 8804615,0.00005371,0.00018024,0.00001421,0.00008608,-0.00106805,0.0003
 9029,-0.00065369,-0.00054115,0.00009300,-0.00197054,-0.00687437,-0.001
 32956,-0.00974243,-0.00241977,0.00174517,0.12435521,-0.06824590,0.0180
 6355,-0.00097284,0.01070407,0.00325493,0.00151230,0.00181067,0.0007552
 4,0.00088716,0.00074522,0.00215180,-0.00006088,-0.00002318,-0.00003426
 ,0.00005992,0.00000575,0.00000901,-0.00001095,-0.00006065,-0.00005785,
 -0.00002612,0.00001624,0.00015473,-0.00001433,0.00007098,-0.00031449,-
 0.00010968,-0.00007104,-0.00197709,0.00043774,-0.00050446,0.00178011,-
 0.00013858,0.00062849,-0.00147819,-0.11430350,0.06732101,-0.00019934,-
 0.00012339,0.00021130,-0.00188476,0.00235273,-0.00049333,0.00134297,-0
 .00243936,-0.00096458,0.00245149,-0.00276118,-0.00218991,0.04164274,-0
 .01102645,-0.00276186,-0.10048696,0.03227169,-0.05043918,0.00443945,0.
 00514022,-0.00604237,0.00116133,0.00001352,0.00142183,-0.00326214,0.00
 089912,0.00122317,0.00016176,-0.00003298,0.00005850,-0.00001353,0.0000
 3215,-0.00009092,0.00000736,0.00004114,-0.00002654,-0.00000197,-0.0002
 5943,0.00014027,0.00023814,-0.00040462,0.00117778,-0.00015136,-0.00086
 069,-0.00231561,-0.00018033,-0.00030020,0.00047633,-0.00085198,0.00016
 346,0.00066908,0.05299249,-0.02263217,0.05981507,-0.00000957,-0.000021
 83,0.00001462,-0.00008032,0.00017372,-0.00018354,0.00044352,-0.0004060
 0,-0.00009722,-0.00375337,0.00109900,0.00088313,0.00161991,0.00048865,
 -0.00019076,-0.00014665,0.00013871,-0.00007111,0.00969508,-0.00494091,
 0.02321318,-0.08381680,0.01434568,-0.09056816,-0.00181142,-0.00165394,
 0.00273663,0.00002292,-0.00000310,0.00001155,-0.00000125,0.00000559,-0
 .00000660,0.00000198,0.00000658,-0.00000309,-0.00000543,-0.00001691,0.
 00000591,-0.00000703,-0.00000778,0.00005603,-0.00008038,-0.00000584,0.
 00012712,-0.00070965,-0.00002462,-0.00021512,-0.00203517,-0.00046886,-
 0.00073577,-0.00006122,-0.00027384,-0.00002335,0.08968595,0.00000449,-
 0.00000971,0.00000353,-0.00003501,0.00007867,-0.00004868,0.00039112,-0
 .00021141,-0.00032434,0.00001226,0.00061985,0.00066557,0.00054391,0.00
 053428,0.00009470,-0.00030165,-0.00005478,0.00006931,0.00828572,-0.004
 67979,0.01487010,0.00989634,-0.05446554,0.03431746,-0.00238045,0.00006
 271,0.00372804,0.00000276,0.00000235,0.00000233,-0.00000333,-0.0000004
 5,0.00000039,-0.00000909,-0.00000528,0.00000279,0.00000760,-0.00003540
 ,-0.00001043,-0.00000664,0.00000588,0.00000646,-0.00008181,0.00001085,
 0.00011248,0.00075320,-0.00033518,-0.00029766,-0.00042794,0.00011827,-
 0.00055772,-0.00002171,-0.00008422,-0.00005464,-0.01165336,0.05640570,
 0.00000860,0.00003078,-0.00004171,0.00009489,-0.00010423,0.00025735,-0
 .00046665,-0.00018253,0.00082464,-0.00146920,-0.00000471,-0.00049430,-
 0.00217689,0.00092200,-0.00092487,0.00081865,-0.00036924,-0.00000459,-
 0.00535468,0.00484011,-0.01600970,-0.08060689,0.03797853,-0.27511911,0
 .00229963,0.00099723,-0.00187042,-0.00002792,0.00000523,-0.00001451,-0
 .00000288,-0.00000393,0.00000832,-0.00000467,-0.00000750,0.00000425,0.
 00000429,-0.00001079,-0.00001786,0.00003111,-0.00000722,-0.00002157,-0
 .00014802,0.00002544,-0.00006991,0.00017184,-0.00078277,-0.00016311,-0
 .00074555,0.00045568,0.00080165,0.00003853,0.00019852,-0.00007643,0.09
 237231,-0.04563695,0.30272317,0.00000007,0.00002950,-0.00003431,0.0000
 2639,-0.00014333,0.00015271,-0.00008393,0.00018536,-0.00016216,0.00008
 607,-0.00015564,0.00026878,0.00181011,-0.00083849,0.00440390,-0.001774
 79,0.00023072,0.00019731,-0.02959407,0.00836263,0.00202816,-0.21765662
 ,0.12654501,0.00847242,0.00133867,-0.00014500,-0.00272746,-0.00002554,
 0.00000648,-0.00001259,0.00000509,-0.00000849,0.00000534,-0.00000239,-
 0.00000559,0.00000649,0.00000136,0.00000936,-0.00000995,0.00000253,0.0
 0001055,-0.00006312,0.00000586,0.00002552,0.00006102,-0.00003233,0.000
 00030,-0.00010293,-0.00004771,0.00011218,0.00003129,-0.00027601,-0.000
 16903,0.00029247,-0.00679909,0.00545763,0.00023161,0.24553006,-0.00000
 444,0.00000539,0.00000254,-0.00002049,-0.00001981,-0.00003548,0.000031
 45,0.00019476,-0.00010557,-0.00005735,-0.00030002,0.00006478,-0.000846
 41,-0.00077768,0.00320413,-0.00133991,0.00033703,0.00003901,-0.0195837
 5,0.01083324,0.00222522,0.13549078,-0.14735901,-0.00715162,-0.00073900
 ,0.00070224,-0.00069851,0.00000248,-0.00000253,0.00000164,0.00000061,-
 0.00000196,-0.00000136,0.00000461,0.00000363,-0.00000010,-0.00000583,0
 .00001531,-0.00000063,-0.00000235,0.00000552,-0.00000357,0.00005659,0.
 00000566,0.00004664,-0.00013673,0.00024203,-0.00012343,0.00001587,-0.0
 0001383,-0.00001963,-0.00032561,-0.00015703,0.00011797,0.00147049,-0.0
 0227340,-0.00078696,-0.13590613,0.15558337,0.00000247,0.00001177,-0.00
 001694,0.00003302,-0.00004921,0.00009122,-0.00021714,-0.00008636,0.000
 37896,-0.00046825,-0.00003090,-0.00051034,-0.00102213,0.00131356,-0.00
 316490,0.00152047,-0.00022090,-0.00026826,0.02212934,-0.00601723,-0.00
 234049,0.00184907,-0.00484067,-0.04608585,0.00065952,-0.00069303,0.001
 35234,-0.00001106,0.00000258,-0.00000578,-0.00000138,-0.00000232,0.000
 00211,-0.00000316,-0.00000236,0.00000236,0.00000488,-0.00000423,-0.000
 00812,0.00001463,0.00000055,-0.00000474,-0.00006080,0.00001045,-0.0000
 4311,0.00006800,-0.00032747,-0.00011621,-0.00013089,0.00034117,0.00032
 964,0.00025487,0.00022373,-0.00021600,-0.02366150,0.01775156,0.0033288
 4,-0.01239626,0.00359220,0.04772332,-0.00000441,0.00002711,-0.00002408
 ,0.00002763,-0.00016109,0.00008264,-0.00005967,0.00042434,-0.00025847,
 0.00006423,-0.00057441,0.00010327,0.00600081,-0.00436025,-0.00196313,-
 0.00195054,0.00038983,0.00205480,-0.01793067,-0.02656742,-0.00352048,-
 0.06185786,-0.04622882,-0.02494755,0.00032176,0.00148978,-0.00122069,-
 0.00001902,0.00000425,-0.00001141,0.00000534,-0.00001016,0.00000425,0.
 00000636,0.00000286,0.00000652,-0.00000805,0.00003642,-0.00000955,-0.0
 0000512,0.00001782,-0.00006240,0.00011110,0.00000495,0.00012959,-0.000
 22018,0.00040971,-0.00025488,0.00006528,0.00007083,0.00001951,0.000259
 39,0.00037106,0.00034457,-0.00226500,-0.00985514,-0.00577142,0.0071819
 9,0.02224385,0.01141334,0.07052189,-0.00000356,0.00002445,-0.00003028,
 0.00006161,-0.00018443,0.00011735,0.00001879,0.00013448,-0.00044562,-0
 .00025380,0.00019807,0.00005239,0.00577666,-0.00162330,0.00025976,-0.0
 0223358,0.00002441,0.00142692,-0.01811189,-0.01204461,0.00287656,-0.04
 582205,-0.23091262,-0.09269947,0.00046778,0.00183285,-0.00077101,-0.00
 002472,0.00000851,-0.00001540,0.00000583,-0.00001177,0.00000755,0.0000
 0599,0.00000260,0.00000916,0.00000082,0.00003624,-0.00000970,-0.000012
 18,0.00002064,-0.00007662,0.00004322,0.00003966,0.00014940,-0.00032182
 ,0.00011258,-0.00023627,-0.00001114,0.00002186,-0.00019955,0.00017980,
 -0.00017705,0.00021537,0.00231434,0.00540974,0.00191990,-0.00402843,-0
 .01680148,-0.01068797,0.06220274,0.25454012,0.00000104,0.00001075,0.00
 000381,0.00001827,-0.00005040,-0.00001606,-0.00027483,0.00020166,0.000
 34869,0.00019143,-0.00049964,-0.00051352,-0.00362536,0.00218366,0.0013
 3778,0.00088606,-0.00036496,-0.00118034,0.01289272,0.02154154,0.007724
 25,-0.02635569,-0.09284529,-0.09683610,-0.00041850,-0.00087324,0.00293
 693,-0.00000126,-0.00000258,-0.00000243,-0.00000339,0.00000005,0.00000
 239,0.00000587,0.00000353,-0.00000187,-0.00000705,0.00001826,0.0000030
 0,0.00000525,0.00000592,0.00001782,0.00003887,0.00000157,-0.00007243,-
 0.00018749,0.00006469,-0.00007447,0.00008796,0.00016324,0.00042368,-0.
 00017599,-0.00026960,-0.00022439,-0.00545322,-0.02623933,-0.01165467,-
 0.00097967,-0.00017486,-0.00032983,0.02320046,0.09762657,0.09793541,-0
 .00000555,-0.00000320,0.00000966,-0.00012794,0.00010109,-0.00010669,0.
 00003244,-0.00012757,0.00010597,-0.00050429,-0.00076779,-0.00014861,0.
 00204907,0.00338617,-0.00387436,0.00087519,-0.00143842,0.00124897,-0.0
 0226342,0.02304249,-0.00920888,0.00002642,-0.00076975,0.00038008,-0.06
 608599,-0.16072452,0.01598047,0.00001474,-0.00000886,0.00001757,-0.000
 00637,0.00001045,-0.00000664,0.00000262,0.00000468,-0.00000900,0.00000
 399,-0.00000954,0.00001337,0.00001369,-0.00002146,0.00007276,-0.000049
 43,-0.00002589,-0.00010271,0.00001312,-0.00008030,0.00021691,0.0000287
 8,0.00004290,-0.00002788,-0.00014273,-0.00054458,0.00013825,0.00000285
 ,-0.00010318,0.00056010,0.00014433,-0.00046642,0.00039950,-0.00013178,
 0.00032392,-0.00034384,0.06502380,0.00000289,0.00002069,-0.00002203,0.
 00002835,-0.00008961,0.00006894,-0.00001630,0.00017894,-0.00027216,-0.
 00005177,0.00005921,0.00006395,-0.00132163,-0.00078393,0.00009382,-0.0
 0075872,0.00103292,-0.00005306,-0.00387142,-0.00552680,0.01070132,0.00
 152112,-0.00068741,0.00071559,-0.09959023,-0.35976126,0.02598254,-0.00
 001847,0.00000469,-0.00001020,0.00000327,-0.00000680,0.00000492,-0.000
 00290,-0.00000520,0.00000457,-0.00000241,0.00000480,-0.00000629,-0.000
 00982,0.00001519,-0.00005165,0.00002309,0.00003221,0.00007611,-0.00005
 959,0.00006997,-0.00011439,-0.00005680,0.00000460,-0.00015259,-0.00017
 306,-0.00003236,-0.00058560,-0.00021107,-0.00012094,-0.00008085,0.0001
 7766,-0.00007572,-0.00012754,0.00009016,-0.00009217,-0.00017085,0.1164
 0544,0.39128012,-0.00000064,0.00001922,-0.00000689,-0.00001179,-0.0000
 5097,0.00003898,-0.00004218,-0.00002899,-0.00010146,-0.00026049,-0.000
 69172,-0.00026718,0.00165834,0.00136432,-0.00078785,-0.00106466,0.0008
 0700,0.00074677,0.01008569,0.04096287,-0.02022864,-0.00332555,0.003304
 84,-0.00357144,0.00776625,0.02032924,-0.05484980,-0.00000631,0.0000003
 2,-0.00000148,0.00000026,-0.00000358,-0.00000009,-0.00000252,-0.000003
 44,0.00000111,0.00000519,-0.00000039,-0.00000199,0.00000346,0.00000611
 ,-0.00001287,-0.00005196,0.00002826,-0.00000046,0.00011791,-0.00011850
 ,0.00016075,-0.00000788,0.00010535,-0.00009948,-0.00001588,-0.00022248
 ,-0.00012568,0.00090573,0.00069293,-0.00076983,0.00016997,-0.00023176,
 0.00007162,0.00031786,0.00027677,-0.00010768,-0.00722603,-0.03639364,0
 .07654968,-0.00000543,-0.00003969,0.00003054,-0.00015881,0.00023394,-0
 .00015532,0.00004552,-0.00027081,0.00057718,0.00019673,0.00075673,0.00
 029334,0.00770638,-0.00235105,-0.00769720,-0.00156960,-0.00156723,0.00
 139782,-0.00385324,-0.00606572,-0.02021400,-0.00023684,0.00063074,0.00
 056046,-0.11192241,0.11991889,0.15278751,0.00003545,-0.00001302,0.0000
 2597,-0.00000700,0.00001754,-0.00001380,-0.00000171,0.00000607,-0.0000
 1298,0.00000915,-0.00003857,0.00002913,0.00002980,-0.00004474,0.000123
 36,-0.00006356,-0.00008137,-0.00022669,-0.00016647,0.00003766,0.000014
 80,-0.00002768,0.00000847,0.00037648,0.00053795,0.00122782,0.00184271,
 0.00011014,-0.00047573,0.00014321,0.00015995,0.00011769,-0.00037655,-0
 .00011347,-0.00057831,0.00049837,0.00108649,-0.01210778,-0.00901479,0.
 10820864,0.00000205,-0.00001407,0.00002359,0.00002398,0.00009452,-0.00
 002036,0.00013308,-0.00018195,0.00014251,0.00008000,-0.00013754,0.0001
 1446,-0.00076045,0.00150276,0.00272236,0.00076920,-0.00113181,-0.00095
 901,-0.00769678,0.01165480,0.01334661,0.00154209,0.00113006,0.00196486
 ,0.08354299,-0.15109929,-0.11371812,0.00001292,-0.00000230,0.00000372,
 0.00000351,0.00000390,-0.00000490,-0.00000021,-0.00000219,-0.00000341,
 -0.00000990,-0.00000915,0.00000218,0.00000377,-0.00001399,0.00001657,0
 .00000893,0.00002068,0.00001374,0.00007723,-0.00004760,0.00008146,-0.0
 0000824,-0.00004021,-0.00002975,-0.00004109,-0.00122343,0.00023334,-0.
 00035471,-0.00097220,0.00060424,0.00024724,-0.00014571,-0.00015740,-0.
 00002843,-0.00055878,-0.00033071,0.02177431,-0.02552113,-0.03015176,-0
 .09932152,0.16669462,-0.00000340,-0.00002385,0.00003555,0.00000008,0.0
 0012831,-0.00003166,0.00019043,-0.00030293,0.00054693,0.00051630,0.000
 45023,-0.00069592,0.00558104,-0.00132532,-0.00123476,0.00009540,0.0000
 8955,0.00135824,0.01097924,-0.00728834,-0.04471249,-0.00297034,-0.0025
 8623,-0.00331732,0.10302618,-0.11615662,-0.20708141,0.00002230,-0.0000
 0520,0.00000536,-0.00000201,0.00000372,-0.00000720,0.00000011,0.000003
 45,-0.00000379,-0.00000191,-0.00001399,0.00000661,0.00001571,-0.000019
 53,0.00006100,-0.00002602,0.00000789,-0.00006936,-0.00004808,-0.000048
 71,0.00001074,0.00001629,0.00004573,0.00022060,0.00026973,-0.00051862,
 0.00077348,0.00088324,0.00085211,-0.00069562,0.00016698,0.00003933,-0.
 00016985,0.00036725,0.00023418,0.00028004,0.00191102,0.00032906,0.0033
 6394,-0.12098955,0.12610578,0.25135691\\-0.00000039,-0.00000498,0.0000
 0182,0.00000440,0.00000084,0.00001348,0.00000435,-0.00000083,-0.000017
 06,-0.00001804,0.00001851,0.00001607,0.00002042,-0.00002487,-0.0000038
 3,-0.00001605,0.00000186,0.00000720,0.00002097,0.00000226,0.00004392,-
 0.00001720,0.00001053,-0.00000871,-0.00001918,0.00000623,-0.00001954,0
 .00000356,0.00000141,-0.00000011,0.00000153,-0.00000065,0.00000123,0.0
 0000044,0.00000099,-0.00000026,0.00000077,0.00000302,-0.00000355,-0.00
 000197,-0.00000061,0.00000065,-0.00000054,0.00000006,0.,0.00000223,0.0
 0000166,-0.00001224,0.00001521,-0.00000477,0.00000361,0.00000682,0.000
 00071,0.00000003,-0.00000425,0.00000062,-0.00001335,0.00000078,-0.0000
 0503,-0.00000027,-0.00000543,-0.00000690,0.00000349,-0.00000009,0.0000
 0523,-0.00000231,0.00000167,-0.00000529,-0.00001028\\\@


 A CHEMICAL PHYSICIST MAKES PRECISE MEASUREMENTS ON IMPURE COMPOUNDS.
 A THEORETICAL PHYSICAL CHEMIST MAKES IMPRECISE
     MEASUREMENTS ON PURE COMPOUNDS.
 AN EXPERIMENTAL PHYSICAL CHEMIST MAKES IMPRECISE
     MEASUREMENTS ON IMPURE COMPOUNDS.
 Job cpu time:       0 days  1 hours 57 minutes 48.4 seconds.
 Elapsed time:       0 days  0 hours 29 minutes 27.4 seconds.
 File lengths (MBytes):  RWF=    181 Int=      0 D2E=      0 Chk=     10 Scr=      1
 Normal termination of Gaussian 16 at Tue Jun  1 07:15:18 2021.
### All Done ###
