### Starting Gaussian ###
 Entering Gaussian System, Link 0=g16
 Initial command:
 /cluster/software/gaussian/gaussian-16-A.03/avx2/g16/l1.exe "/local/scratch/linjian/Gau-21327.inp" -scrdir="/local/scratch/linjian/"
 Entering Link 1 = /cluster/software/gaussian/gaussian-16-A.03/avx2/g16/l1.exe PID=     21328.
  
 Copyright (c) 1988,1990,1992,1993,1995,1998,2003,2009,2016,
            Gaussian, Inc.  All Rights Reserved.
  
 This is part of the Gaussian(R) 16 program.  It is based on
 the Gaussian(R) 09 system (copyright 2009, Gaussian, Inc.),
 the Gaussian(R) 03 system (copyright 2003, Gaussian, Inc.),
 the Gaussian(R) 98 system (copyright 1998, Gaussian, Inc.),
 the Gaussian(R) 94 system (copyright 1995, Gaussian, Inc.),
 the Gaussian 92(TM) system (copyright 1992, Gaussian, Inc.),
 the Gaussian 90(TM) system (copyright 1990, Gaussian, Inc.),
 the Gaussian 88(TM) system (copyright 1988, Gaussian, Inc.),
 the Gaussian 86(TM) system (copyright 1986, Carnegie Mellon
 University), and the Gaussian 82(TM) system (copyright 1983,
 Carnegie Mellon University). Gaussian is a federally registered
 trademark of Gaussian, Inc.
  
 This software contains proprietary and confidential information,
 including trade secrets, belonging to Gaussian, Inc.
  
 This software is provided under written license and may be
 used, copied, transmitted, or stored only in accord with that
 written license.
  
 The following legend is applicable only to US Government
 contracts under FAR:
  
                    RESTRICTED RIGHTS LEGEND
  
 Use, reproduction and disclosure by the US Government is
 subject to restrictions as set forth in subparagraphs (a)
 and (c) of the Commercial Computer Software - Restricted
 Rights clause in FAR 52.227-19.
  
 Gaussian, Inc.
 340 Quinnipiac St., Bldg. 40, Wallingford CT 06492
  
  
 ---------------------------------------------------------------
 Warning -- This program may not be used in any manner that
 competes with the business of Gaussian, Inc. or will provide
 assistance to any competitor of Gaussian, Inc.  The licensee
 of this program is prohibited from giving any competitor of
 Gaussian, Inc. access to this program.  By using this program,
 the user acknowledges that Gaussian, Inc. is engaged in the
 business of creating and licensing software in the field of
 computational chemistry and represents and warrants to the
 licensee that it is not a competitor of Gaussian, Inc. and that
 it will not use this program in any manner prohibited above.
 ---------------------------------------------------------------
  

 Cite this work as:
 Gaussian 16, Revision A.03,
 M. J. Frisch, G. W. Trucks, H. B. Schlegel, G. E. Scuseria, 
 M. A. Robb, J. R. Cheeseman, G. Scalmani, V. Barone, 
 G. A. Petersson, H. Nakatsuji, X. Li, M. Caricato, A. V. Marenich, 
 J. Bloino, B. G. Janesko, R. Gomperts, B. Mennucci, H. P. Hratchian, 
 J. V. Ortiz, A. F. Izmaylov, J. L. Sonnenberg, D. Williams-Young, 
 F. Ding, F. Lipparini, F. Egidi, J. Goings, B. Peng, A. Petrone, 
 T. Henderson, D. Ranasinghe, V. G. Zakrzewski, J. Gao, N. Rega, 
 G. Zheng, W. Liang, M. Hada, M. Ehara, K. Toyota, R. Fukuda, 
 J. Hasegawa, M. Ishida, T. Nakajima, Y. Honda, O. Kitao, H. Nakai, 
 T. Vreven, K. Throssell, J. A. Montgomery, Jr., J. E. Peralta, 
 F. Ogliaro, M. J. Bearpark, J. J. Heyd, E. N. Brothers, K. N. Kudin, 
 V. N. Staroverov, T. A. Keith, R. Kobayashi, J. Normand, 
 K. Raghavachari, A. P. Rendell, J. C. Burant, S. S. Iyengar, 
 J. Tomasi, M. Cossi, J. M. Millam, M. Klene, C. Adamo, R. Cammi, 
 J. W. Ochterski, R. L. Martin, K. Morokuma, O. Farkas, 
 J. B. Foresman, and D. J. Fox, Gaussian, Inc., Wallingford CT, 2016.
 
 ******************************************
 Gaussian 16:  ES64L-G16RevA.03 25-Dec-2016
                31-May-2021 
 ******************************************
 %chk=CCNCNdCNdCpNpCC.chk
 %NProcShared=20
 Will use up to   20 processors via shared memory.
 -----------------------------
 # opt freq b3lyp/6-31g(2df,p)
 -----------------------------
 1/18=20,19=15,26=3,38=1/1,3;
 2/9=110,12=2,17=6,18=5,40=1/2;
 3/5=1,6=6,7=104,11=2,25=1,30=1,71=1,74=-5/1,2,3;
 4//1;
 5/5=2,38=5/2;
 6/7=2,8=2,9=2,10=2,28=1/1;
 7//1,2,3,16;
 1/18=20,19=15,26=3/3(2);
 2/9=110/2;
 99//99;
 2/9=110/2;
 3/5=1,6=6,7=104,11=2,25=1,30=1,71=1,74=-5/1,2,3;
 4/5=5,16=3,69=1/1;
 5/5=2,38=5/2;
 7//1,2,3,16;
 1/18=20,19=15,26=3/3(-5);
 2/9=110/2;
 6/7=2,8=2,9=2,10=2,19=2,28=1/1;
 99/9=1/99;
 -------------------
 Title Card Required
 -------------------
 Symbolic Z-matrix:
 Charge =  0 Multiplicity = 1
 C                     0.98046  -0.05      0.05633 
 C                     2.50533  -0.05164   0.04768 
 N                     3.00457  -0.67464  -1.17426 
 C                     4.45695  -0.69542  -1.24951 
 N                     4.87135  -1.29076  -2.52191 
 C                     6.15252  -1.39023  -2.652 
 N                     6.68641  -1.94706  -3.78666 
 C                     7.97651  -2.03023  -3.94419 
 N                     8.92664  -1.59409  -3.06234 
 C                     8.47995  -2.68341  -5.25594 
 C                     9.9995   -2.75009  -5.38866 
 H                     0.60617   0.4055    0.97999 
 H                     0.58035  -1.06839   0.00225 
 H                     0.57661   0.52286  -0.78527 
 H                     2.85576  -0.60589   0.92613 
 H                     2.85997   0.98171   0.1355 
 H                     2.66299  -0.18535  -1.99889 
 H                     4.85301  -1.27615  -0.40617 
 H                     4.84372   0.32968  -1.1749 
 H                     6.81116  -1.02329  -1.84992 
 H                     8.70656  -1.1638   -2.17977 
 H                     9.91526  -1.69533  -3.25086 
 H                     8.07342  -2.12067  -6.10515 
 H                     8.07281  -3.70004  -5.32015 
 H                     10.43736  -1.74577  -5.35902 
 H                     10.30547  -3.21662  -6.32985 
 H                     10.43677  -3.33527  -4.57153 
 

 GradGradGradGradGradGradGradGradGradGradGradGradGradGradGradGradGradGrad
 Berny optimization.
 Initialization pass.
                           ----------------------------
                           !    Initial Parameters    !
                           ! (Angstroms and Degrees)  !
 --------------------------                            --------------------------
 ! Name  Definition              Value          Derivative Info.                !
 --------------------------------------------------------------------------------
 ! R1    R(1,2)                  1.5249         estimate D2E/DX2                !
 ! R2    R(1,12)                 1.0958         estimate D2E/DX2                !
 ! R3    R(1,13)                 1.0955         estimate D2E/DX2                !
 ! R4    R(1,14)                 1.0952         estimate D2E/DX2                !
 ! R5    R(2,3)                  1.4596         estimate D2E/DX2                !
 ! R6    R(2,15)                 1.0962         estimate D2E/DX2                !
 ! R7    R(2,16)                 1.096          estimate D2E/DX2                !
 ! R8    R(3,4)                  1.4545         estimate D2E/DX2                !
 ! R9    R(3,17)                 1.0179         estimate D2E/DX2                !
 ! R10   R(4,5)                  1.4646         estimate D2E/DX2                !
 ! R11   R(4,18)                 1.0979         estimate D2E/DX2                !
 ! R12   R(4,19)                 1.0982         estimate D2E/DX2                !
 ! R13   R(5,6)                  1.2916         estimate D2E/DX2                !
 ! R14   R(6,7)                  1.3721         estimate D2E/DX2                !
 ! R15   R(6,20)                 1.1008         estimate D2E/DX2                !
 ! R16   R(7,8)                  1.3023         estimate D2E/DX2                !
 ! R17   R(8,9)                  1.3677         estimate D2E/DX2                !
 ! R18   R(8,10)                 1.5494         estimate D2E/DX2                !
 ! R19   R(9,21)                 1.0062         estimate D2E/DX2                !
 ! R20   R(9,22)                 1.0115         estimate D2E/DX2                !
 ! R21   R(10,11)                1.5268         estimate D2E/DX2                !
 ! R22   R(10,23)                1.0969         estimate D2E/DX2                !
 ! R23   R(10,24)                1.097          estimate D2E/DX2                !
 ! R24   R(11,25)                1.096          estimate D2E/DX2                !
 ! R25   R(11,26)                1.0941         estimate D2E/DX2                !
 ! R26   R(11,27)                1.0961         estimate D2E/DX2                !
 ! A1    A(2,1,12)             110.2916         estimate D2E/DX2                !
 ! A2    A(2,1,13)             111.3425         estimate D2E/DX2                !
 ! A3    A(2,1,14)             111.4032         estimate D2E/DX2                !
 ! A4    A(12,1,13)            107.655          estimate D2E/DX2                !
 ! A5    A(12,1,14)            107.7188         estimate D2E/DX2                !
 ! A6    A(13,1,14)            108.2776         estimate D2E/DX2                !
 ! A7    A(1,2,3)              110.3183         estimate D2E/DX2                !
 ! A8    A(1,2,15)             108.4011         estimate D2E/DX2                !
 ! A9    A(1,2,16)             108.7895         estimate D2E/DX2                !
 ! A10   A(3,2,15)             110.2256         estimate D2E/DX2                !
 ! A11   A(3,2,16)             111.0276         estimate D2E/DX2                !
 ! A12   A(15,2,16)            108.0017         estimate D2E/DX2                !
 ! A13   A(2,3,4)              113.0136         estimate D2E/DX2                !
 ! A14   A(2,3,17)             110.9938         estimate D2E/DX2                !
 ! A15   A(4,3,17)             107.4604         estimate D2E/DX2                !
 ! A16   A(3,4,5)              109.4682         estimate D2E/DX2                !
 ! A17   A(3,4,18)             109.1502         estimate D2E/DX2                !
 ! A18   A(3,4,19)             109.5625         estimate D2E/DX2                !
 ! A19   A(5,4,18)             110.5029         estimate D2E/DX2                !
 ! A20   A(5,4,19)             109.804          estimate D2E/DX2                !
 ! A21   A(18,4,19)            108.3317         estimate D2E/DX2                !
 ! A22   A(4,5,6)              113.5443         estimate D2E/DX2                !
 ! A23   A(5,6,7)              120.0346         estimate D2E/DX2                !
 ! A24   A(5,6,20)             119.6325         estimate D2E/DX2                !
 ! A25   A(7,6,20)             120.3326         estimate D2E/DX2                !
 ! A26   A(6,7,8)              120.7575         estimate D2E/DX2                !
 ! A27   A(7,8,9)              126.1431         estimate D2E/DX2                !
 ! A28   A(7,8,10)             116.8199         estimate D2E/DX2                !
 ! A29   A(9,8,10)             117.037          estimate D2E/DX2                !
 ! A30   A(8,9,21)             123.3633         estimate D2E/DX2                !
 ! A31   A(8,9,22)             121.795          estimate D2E/DX2                !
 ! A32   A(21,9,22)            114.8367         estimate D2E/DX2                !
 ! A33   A(8,10,11)            114.5431         estimate D2E/DX2                !
 ! A34   A(8,10,23)            108.5871         estimate D2E/DX2                !
 ! A35   A(8,10,24)            108.6408         estimate D2E/DX2                !
 ! A36   A(11,10,23)           108.9037         estimate D2E/DX2                !
 ! A37   A(11,10,24)           108.8938         estimate D2E/DX2                !
 ! A38   A(23,10,24)           107.0128         estimate D2E/DX2                !
 ! A39   A(10,11,25)           110.8079         estimate D2E/DX2                !
 ! A40   A(10,11,26)           111.8218         estimate D2E/DX2                !
 ! A41   A(10,11,27)           110.8282         estimate D2E/DX2                !
 ! A42   A(25,11,26)           107.5937         estimate D2E/DX2                !
 ! A43   A(25,11,27)           108.0403         estimate D2E/DX2                !
 ! A44   A(26,11,27)           107.5835         estimate D2E/DX2                !
 ! D1    D(12,1,2,3)           179.2339         estimate D2E/DX2                !
 ! D2    D(12,1,2,15)           58.4565         estimate D2E/DX2                !
 ! D3    D(12,1,2,16)          -58.7512         estimate D2E/DX2                !
 ! D4    D(13,1,2,3)            59.7859         estimate D2E/DX2                !
 ! D5    D(13,1,2,15)          -60.9915         estimate D2E/DX2                !
 ! D6    D(13,1,2,16)         -178.1992         estimate D2E/DX2                !
 ! D7    D(14,1,2,3)           -61.1988         estimate D2E/DX2                !
 ! D8    D(14,1,2,15)          178.0238         estimate D2E/DX2                !
 ! D9    D(14,1,2,16)           60.8161         estimate D2E/DX2                !
 ! D10   D(1,2,3,4)            179.4283         estimate D2E/DX2                !
 ! D11   D(1,2,3,17)            58.6201         estimate D2E/DX2                !
 ! D12   D(15,2,3,4)           -60.8917         estimate D2E/DX2                !
 ! D13   D(15,2,3,17)          178.3001         estimate D2E/DX2                !
 ! D14   D(16,2,3,4)            58.7441         estimate D2E/DX2                !
 ! D15   D(16,2,3,17)          -62.0641         estimate D2E/DX2                !
 ! D16   D(2,3,4,5)           -177.9822         estimate D2E/DX2                !
 ! D17   D(2,3,4,18)            60.9527         estimate D2E/DX2                !
 ! D18   D(2,3,4,19)           -57.5198         estimate D2E/DX2                !
 ! D19   D(17,3,4,5)           -55.1862         estimate D2E/DX2                !
 ! D20   D(17,3,4,18)         -176.2513         estimate D2E/DX2                !
 ! D21   D(17,3,4,19)           65.2763         estimate D2E/DX2                !
 ! D22   D(3,4,5,6)           -177.7618         estimate D2E/DX2                !
 ! D23   D(18,4,5,6)           -57.5196         estimate D2E/DX2                !
 ! D24   D(19,4,5,6)            61.923          estimate D2E/DX2                !
 ! D25   D(4,5,6,7)            179.0874         estimate D2E/DX2                !
 ! D26   D(4,5,6,20)            -1.106          estimate D2E/DX2                !
 ! D27   D(5,6,7,8)            178.6303         estimate D2E/DX2                !
 ! D28   D(20,6,7,8)            -1.1749         estimate D2E/DX2                !
 ! D29   D(6,7,8,9)             -0.4641         estimate D2E/DX2                !
 ! D30   D(6,7,8,10)           179.628          estimate D2E/DX2                !
 ! D31   D(7,8,9,21)             0.6361         estimate D2E/DX2                !
 ! D32   D(7,8,9,22)           179.7788         estimate D2E/DX2                !
 ! D33   D(10,8,9,21)         -179.4562         estimate D2E/DX2                !
 ! D34   D(10,8,9,22)           -0.3135         estimate D2E/DX2                !
 ! D35   D(7,8,10,11)          179.8132         estimate D2E/DX2                !
 ! D36   D(7,8,10,23)           57.8538         estimate D2E/DX2                !
 ! D37   D(7,8,10,24)          -58.2            estimate D2E/DX2                !
 ! D38   D(9,8,10,11)           -0.1033         estimate D2E/DX2                !
 ! D39   D(9,8,10,23)         -122.0627         estimate D2E/DX2                !
 ! D40   D(9,8,10,24)          121.8835         estimate D2E/DX2                !
 ! D41   D(8,10,11,25)         -59.8618         estimate D2E/DX2                !
 ! D42   D(8,10,11,26)        -179.8935         estimate D2E/DX2                !
 ! D43   D(8,10,11,27)          60.0739         estimate D2E/DX2                !
 ! D44   D(23,10,11,25)         61.9248         estimate D2E/DX2                !
 ! D45   D(23,10,11,26)        -58.1069         estimate D2E/DX2                !
 ! D46   D(23,10,11,27)       -178.1395         estimate D2E/DX2                !
 ! D47   D(24,10,11,25)        178.2894         estimate D2E/DX2                !
 ! D48   D(24,10,11,26)         58.2577         estimate D2E/DX2                !
 ! D49   D(24,10,11,27)        -61.7749         estimate D2E/DX2                !
 --------------------------------------------------------------------------------
 Trust Radius=3.00D-01 FncErr=1.00D-07 GrdErr=1.00D-06 EigMax=2.50D+02 EigMin=1.00D-04
 Number of steps in this run=    129 maximum allowed number of steps=    162.
 GradGradGradGradGradGradGradGradGradGradGradGradGradGradGradGradGradGrad

                          Input orientation:                          
 ---------------------------------------------------------------------
 Center     Atomic      Atomic             Coordinates (Angstroms)
 Number     Number       Type             X           Y           Z
 ---------------------------------------------------------------------
      1          6           0        0.980460   -0.050000    0.056330
      2          6           0        2.505330   -0.051640    0.047680
      3          7           0        3.004570   -0.674640   -1.174260
      4          6           0        4.456950   -0.695420   -1.249510
      5          7           0        4.871350   -1.290760   -2.521910
      6          6           0        6.152520   -1.390230   -2.652000
      7          7           0        6.686410   -1.947060   -3.786660
      8          6           0        7.976510   -2.030230   -3.944190
      9          7           0        8.926640   -1.594090   -3.062340
     10          6           0        8.479950   -2.683410   -5.255940
     11          6           0        9.999500   -2.750090   -5.388660
     12          1           0        0.606170    0.405500    0.979990
     13          1           0        0.580350   -1.068390    0.002250
     14          1           0        0.576610    0.522860   -0.785270
     15          1           0        2.855760   -0.605890    0.926130
     16          1           0        2.859970    0.981710    0.135500
     17          1           0        2.662990   -0.185350   -1.998890
     18          1           0        4.853010   -1.276150   -0.406170
     19          1           0        4.843720    0.329680   -1.174900
     20          1           0        6.811160   -1.023290   -1.849920
     21          1           0        8.706560   -1.163800   -2.179770
     22          1           0        9.915260   -1.695330   -3.250860
     23          1           0        8.073420   -2.120670   -6.105150
     24          1           0        8.072810   -3.700040   -5.320150
     25          1           0       10.437360   -1.745770   -5.359020
     26          1           0       10.305470   -3.216620   -6.329850
     27          1           0       10.436770   -3.335270   -4.571530
 ---------------------------------------------------------------------
                    Distance matrix (angstroms):
                    1          2          3          4          5
     1  C    0.000000
     2  C    1.524895   0.000000
     3  N    2.449806   1.459626   0.000000
     4  C    3.769319   2.430221   1.454477   0.000000
     5  N    4.829682   3.706246   2.383408   1.464636   0.000000
     6  C    5.990115   4.730971   3.550405   2.307530   1.291594
     7  N    7.136195   5.981322   4.690377   3.601975   2.307545
     8  C    8.298806   7.055753   5.850669   4.629289   3.494526
     9  N    8.674796   7.299630   6.283403   4.906332   4.102371
    10  C    9.560199   8.411342   7.118641   6.015656   4.736706
    11  C   10.875729   9.643548   8.426014   7.216238   6.053579
    12  H    1.095774   2.164483   3.399973   4.583798   5.773419
    13  H    1.095505   2.177474   2.723244   4.090726   4.983324
    14  H    1.095242   2.178030   2.735015   4.093503   4.974930
    15  H    2.140634   1.096206   2.106777   2.702820   4.052238
    16  H    2.145519   1.096036   2.116572   2.698400   4.033807
    17  H    2.659541   2.056984   1.017888   2.009984   2.524348
    18  H    4.088275   2.686449   2.090097   1.097877   2.115870
    19  H    4.072452   2.666116   2.095503   1.098175   2.107374
    20  H    6.211131   4.804702   3.881778   2.451590   2.070259
    21  H    8.119933   6.682341   5.810595   4.375380   3.852533
    22  H    9.668261   8.275817   7.287778   5.899014   5.112345
    23  H    9.620893   8.552300   7.217889   6.219922   4.876639
    24  H    9.619291   8.551097   7.213079   6.218705   4.887139
    25  H   11.028808   9.747799   8.596854   7.331890   6.263920
    26  H   11.737401  10.560879   9.292196   8.146870   6.909342
    27  H   11.028685   9.748183   8.594067   7.332317   6.273345
                    6          7          8          9         10
     6  C    0.000000
     7  N    1.372061   0.000000
     8  C    2.325144   1.302341   0.000000
     9  N    2.811704   2.380726   1.367708   0.000000
    10  C    3.724211   2.432649   1.549446   2.489584   0.000000
    11  C    4.913022   3.766673   2.587891   2.810539   1.526792
    12  H    6.868624   8.076188   9.192510   9.464091  10.508311
    13  H    6.180429   7.239604   8.438170   8.906662   9.626034
    14  H    6.183475   7.241443   8.441301   8.910080   9.629633
    15  H    4.928167   6.219566   7.209081   7.330758   8.611945
    16  H    4.923123   6.213105   7.203793   7.325668   8.607259
    17  H    3.749014   4.742115   5.951577   6.507594   7.119389
    18  H    2.597209   3.903740   4.779380   4.873478   6.217342
    19  H    2.617799   3.924327   4.801304   4.892193   6.241456
    20  H    1.100811   2.149390   2.599603   2.504203   4.140269
    21  H    2.607181   2.697517   2.096867   1.006238   3.438515
    22  H    3.822294   3.282670   2.086053   1.011513   2.656457
    23  H    4.018413   2.707274   2.165022   3.203742   1.096859
    24  H    4.017681   2.710468   2.165827   3.203398   1.097006
    25  H    5.080770   4.072157   2.852796   2.753184   2.172843
    26  H    5.840315   4.601868   3.538778   3.900051   2.184060
    27  H    5.081592   4.075334   2.854744   2.754969   2.173127
                   11         12         13         14         15
    11  C    0.000000
    12  H   11.779308   0.000000
    13  H   10.982277   1.768896   0.000000
    14  H   10.986094   1.769404   1.775466   0.000000
    15  H    9.772778   2.467076   2.498990   3.065533   0.000000
    16  H    9.768089   2.474832   3.068767   2.504415   1.773580
    17  H    8.478963   3.667879   3.020217   2.515436   2.961377
    18  H    7.313280   4.773367   4.297161   4.654863   2.492645
    19  H    7.336404   4.754590   4.638600   4.289214   3.040001
    20  H    5.066560   6.967907   6.500428   6.511042   4.850347
    21  H    3.805914   8.835333   8.414607   8.419355   6.647536
    22  H    2.385331  10.439001   9.905368   9.910090   8.274700
    23  H    2.149258  10.599083   9.723874   9.565121   8.885800
    24  H    2.149240  10.597072   9.559837   9.725792   8.706744
    25  H    1.096019  11.893835  11.241117  11.104065   9.913783
    26  H    1.094124  12.673987  11.802048  11.805795  10.722096
    27  H    1.096058  11.893420  11.099875  11.244718   9.754255
                   16         17         18         19         20
    16  H    0.000000
    17  H    2.440584   0.000000
    18  H    3.059991   2.919382   0.000000
    19  H    2.465270   2.387425   1.780371   0.000000
    20  H    4.855288   4.234578   2.445957   2.481330   0.000000
    21  H    6.644268   6.124934   4.243598   4.261664   1.929011
    22  H    8.271100   7.512848   5.821885   5.842157   3.471269
    23  H    8.703478   7.062548   6.600199   6.382989   4.572147
    24  H    8.880124   7.256030   6.355278   6.621840   4.560619
    25  H    9.749140   8.611981   7.479053   7.287192   5.097557
    26  H   10.717378   9.292648   8.281590   8.305448   6.090211
    27  H    9.909609   8.773376   7.264198   7.500077   5.088955
                   21         22         23         24         25
    21  H    0.000000
    22  H    1.700210   0.000000
    23  H    4.089630   3.423487   0.000000
    24  H    4.086091   3.419860   1.763699   0.000000
    25  H    3.666332   2.172434   2.507084   3.067862   0.000000
    26  H    4.898341   3.456409   2.496727   2.497591   1.767288
    27  H    3.664618   2.169227   3.068007   2.506351   1.773880
                   26         27
    26  H    0.000000
    27  H    1.767203   0.000000
 Stoichiometry    C7H16N4
 Framework group  C1[X(C7H16N4)]
 Deg. of freedom    75
 Full point group                 C1      NOp   1
 Largest Abelian subgroup         C1      NOp   1
 Largest concise Abelian subgroup C1      NOp   1
                         Standard orientation:                         
 ---------------------------------------------------------------------
 Center     Atomic      Atomic             Coordinates (Angstroms)
 Number     Number       Type             X           Y           Z
 ---------------------------------------------------------------------
      1          6           0        5.641752   -0.398177   -0.033169
      2          6           0        4.391653    0.474724   -0.008660
      3          7           0        3.192308   -0.356605   -0.039817
      4          6           0        1.962084    0.418536   -0.005081
      5          7           0        0.813122   -0.489672    0.009153
      6          6           0       -0.325929    0.119050   -0.006157
      7          7           0       -1.491424   -0.604901   -0.014488
      8          6           0       -2.647718   -0.005780   -0.003174
      9          7           0       -2.855746    1.345693    0.026295
     10          6           0       -3.904645   -0.911609   -0.022997
     11          6           0       -5.231243   -0.156047   -0.004081
     12          1           0        6.541829    0.226714   -0.023503
     13          1           0        5.677438   -1.018234   -0.935603
     14          1           0        5.685167   -1.058723    0.839384
     15          1           0        4.415689    1.138142   -0.880995
     16          1           0        4.414378    1.098684    0.892146
     17          1           0        3.172039   -0.997286    0.750887
     18          1           0        1.923894    1.073179   -0.885603
     19          1           0        1.949621    1.048415    0.894411
     20          1           0       -0.354979    1.219473   -0.009225
     21          1           0       -2.109319    2.020464    0.033073
     22          1           0       -3.786516    1.741687    0.030179
     23          1           0       -3.865584   -1.582811    0.843641
     24          1           0       -3.867992   -1.542628   -0.919598
     25          1           0       -5.314005    0.462852    0.896682
     26          1           0       -6.087428   -0.837136   -0.017186
     27          1           0       -5.317762    0.501419   -0.876775
 ---------------------------------------------------------------------
 Rotational constants (GHZ):           6.0145011           0.2701376           0.2608069
 Standard basis: 6-31G(2df,p) (6D, 7F)
 There are   421 symmetry adapted cartesian basis functions of A   symmetry.
 There are   388 symmetry adapted basis functions of A   symmetry.
   388 basis functions,   596 primitive gaussians,   421 cartesian basis functions
    43 alpha electrons       43 beta electrons
       nuclear repulsion energy       584.6255276927 Hartrees.
 NAtoms=   27 NActive=   27 NUniq=   27 SFac= 1.00D+00 NAtFMM=   60 NAOKFM=F Big=F
 Integral buffers will be    131072 words long.
 Raffenetti 2 integral format.
 Two-electron integral symmetry is turned on.
 One-electron integrals computed using PRISM.
 PrsmSu:  requested number of processors reduced to:  13 ShMem   1 Linda.
 NBasis=   388 RedAO= T EigKep=  1.78D-04  NBF=   388
 NBsUse=   388 1.00D-06 EigRej= -1.00D+00 NBFU=   388
 ExpMin= 1.61D-01 ExpMax= 4.17D+03 ExpMxC= 6.27D+02 IAcc=3 IRadAn=         5 AccDes= 0.00D+00
 Harris functional with IExCor=  402 and IRadAn=       5 diagonalized for initial guess.
 HarFok:  IExCor=  402 AccDes= 0.00D+00 IRadAn=         5 IDoV= 1 UseB2=F ITyADJ=14
 ICtDFT=  3500011 ScaDFX=  1.000000  1.000000  1.000000  1.000000
 FoFCou: FMM=F IPFlag=           0 FMFlag=      100000 FMFlg1=           0
         NFxFlg=           0 DoJE=T BraDBF=F KetDBF=T FulRan=T
         wScrn=  0.000000 ICntrl=       500 IOpCl=  0 I1Cent=   200000004 NGrid=           0
         NMat0=    1 NMatS0=      1 NMatT0=    0 NMatD0=    1 NMtDS0=    0 NMtDT0=    0
 Petite list used in FoFCou.
 Requested convergence on RMS density matrix=1.00D-08 within 128 cycles.
 Requested convergence on MAX density matrix=1.00D-06.
 Requested convergence on             energy=1.00D-06.
 No special actions if energy rises.
 Integral accuracy reduced to 1.0D-05 until final iterations.
 Initial convergence to 1.0D-05 achieved.  Increase integral accuracy.
 SCF Done:  E(RB3LYP) =  -495.388633919     A.U. after   15 cycles
            NFock= 15  Conv=0.29D-08     -V/T= 2.0081

 **********************************************************************

            Population analysis using the SCF density.

 **********************************************************************

 Orbital symmetries:
       Occupied  (A) (A) (A) (A) (A) (A) (A) (A) (A) (A) (A) (A)
                 (A) (A) (A) (A) (A) (A) (A) (A) (A) (A) (A) (A)
                 (A) (A) (A) (A) (A) (A) (A) (A) (A) (A) (A) (A)
                 (A) (A) (A) (A) (A) (A) (A)
       Virtual   (A) (A) (A) (A) (A) (A) (A) (A) (A) (A) (A) (A)
                 (A) (A) (A) (A) (A) (A) (A) (A) (A) (A) (A) (A)
                 (A) (A) (A) (A) (A) (A) (A) (A) (A) (A) (A) (A)
                 (A) (A) (A) (A) (A) (A) (A) (A) (A) (A) (A) (A)
                 (A) (A) (A) (A) (A) (A) (A) (A) (A) (A) (A) (A)
                 (A) (A) (A) (A) (A) (A) (A) (A) (A) (A) (A) (A)
                 (A) (A) (A) (A) (A) (A) (A) (A) (A) (A) (A) (A)
                 (A) (A) (A) (A) (A) (A) (A) (A) (A) (A) (A) (A)
                 (A) (A) (A) (A) (A) (A) (A) (A) (A) (A) (A) (A)
                 (A) (A) (A) (A) (A) (A) (A) (A) (A) (A) (A) (A)
                 (A) (A) (A) (A) (A) (A) (A) (A) (A) (A) (A) (A)
                 (A) (A) (A) (A) (A) (A) (A) (A) (A) (A) (A) (A)
                 (A) (A) (A) (A) (A) (A) (A) (A) (A) (A) (A) (A)
                 (A) (A) (A) (A) (A) (A) (A) (A) (A) (A) (A) (A)
                 (A) (A) (A) (A) (A) (A) (A) (A) (A) (A) (A) (A)
                 (A) (A) (A) (A) (A) (A) (A) (A) (A) (A) (A) (A)
                 (A) (A) (A) (A) (A) (A) (A) (A) (A) (A) (A) (A)
                 (A) (A) (A) (A) (A) (A) (A) (A) (A) (A) (A) (A)
                 (A) (A) (A) (A) (A) (A) (A) (A) (A) (A) (A) (A)
                 (A) (A) (A) (A) (A) (A) (A) (A) (A) (A) (A) (A)
                 (A) (A) (A) (A) (A) (A) (A) (A) (A) (A) (A) (A)
                 (A) (A) (A) (A) (A) (A) (A) (A) (A) (A) (A) (A)
                 (A) (A) (A) (A) (A) (A) (A) (A) (A) (A) (A) (A)
                 (A) (A) (A) (A) (A) (A) (A) (A) (A) (A) (A) (A)
                 (A) (A) (A) (A) (A) (A) (A) (A) (A) (A) (A) (A)
                 (A) (A) (A) (A) (A) (A) (A) (A) (A) (A) (A) (A)
                 (A) (A) (A) (A) (A) (A) (A) (A) (A) (A) (A) (A)
                 (A) (A) (A) (A) (A) (A) (A) (A) (A) (A) (A) (A)
                 (A) (A) (A) (A) (A) (A) (A) (A) (A)
 The electronic state is 1-A.
 Alpha  occ. eigenvalues --  -14.36533 -14.29492 -14.29397 -14.29018 -10.27269
 Alpha  occ. eigenvalues --  -10.22747 -10.21031 -10.20220 -10.19529 -10.19163
 Alpha  occ. eigenvalues --  -10.16273  -0.96433  -0.91465  -0.88129  -0.84098
 Alpha  occ. eigenvalues --   -0.78292  -0.73007  -0.67872  -0.63136  -0.59378
 Alpha  occ. eigenvalues --   -0.59028  -0.55963  -0.55153  -0.49850  -0.47307
 Alpha  occ. eigenvalues --   -0.46931  -0.45445  -0.43913  -0.42356  -0.42072
 Alpha  occ. eigenvalues --   -0.39666  -0.38989  -0.38008  -0.36960  -0.35556
 Alpha  occ. eigenvalues --   -0.34939  -0.34054  -0.33354  -0.30728  -0.25873
 Alpha  occ. eigenvalues --   -0.23368  -0.21941  -0.19989
 Alpha virt. eigenvalues --   -0.01941   0.05270   0.07719   0.09324   0.10159
 Alpha virt. eigenvalues --    0.11703   0.13055   0.13884   0.14325   0.14413
 Alpha virt. eigenvalues --    0.15747   0.16522   0.17587   0.18169   0.18714
 Alpha virt. eigenvalues --    0.20049   0.20449   0.20567   0.21506   0.22058
 Alpha virt. eigenvalues --    0.23457   0.25186   0.27366   0.27688   0.30127
 Alpha virt. eigenvalues --    0.33130   0.36845   0.40943   0.42398   0.45626
 Alpha virt. eigenvalues --    0.47727   0.48296   0.48410   0.48992   0.49236
 Alpha virt. eigenvalues --    0.49730   0.52007   0.52907   0.52978   0.54271
 Alpha virt. eigenvalues --    0.54852   0.57820   0.58789   0.59852   0.61416
 Alpha virt. eigenvalues --    0.62422   0.62810   0.64138   0.65386   0.66861
 Alpha virt. eigenvalues --    0.67591   0.69534   0.70312   0.71175   0.71971
 Alpha virt. eigenvalues --    0.72741   0.73188   0.73519   0.73779   0.74538
 Alpha virt. eigenvalues --    0.74682   0.75791   0.76913   0.77676   0.78232
 Alpha virt. eigenvalues --    0.78743   0.80056   0.81134   0.82391   0.83194
 Alpha virt. eigenvalues --    0.84236   0.85463   0.85971   0.86947   0.87561
 Alpha virt. eigenvalues --    0.88255   0.89141   0.90314   0.90974   0.92112
 Alpha virt. eigenvalues --    0.93591   0.94270   0.97847   1.00901   1.03580
 Alpha virt. eigenvalues --    1.05907   1.07161   1.10382   1.12880   1.17682
 Alpha virt. eigenvalues --    1.18542   1.19219   1.20202   1.21933   1.23513
 Alpha virt. eigenvalues --    1.24364   1.28738   1.28879   1.30744   1.31900
 Alpha virt. eigenvalues --    1.32923   1.33192   1.36485   1.38072   1.38499
 Alpha virt. eigenvalues --    1.42275   1.44170   1.46466   1.46998   1.49352
 Alpha virt. eigenvalues --    1.51332   1.51542   1.54521   1.55045   1.57013
 Alpha virt. eigenvalues --    1.58225   1.59514   1.59981   1.62234   1.63972
 Alpha virt. eigenvalues --    1.66520   1.67945   1.69922   1.72837   1.73184
 Alpha virt. eigenvalues --    1.75390   1.78250   1.81344   1.82609   1.84908
 Alpha virt. eigenvalues --    1.86390   1.88052   1.88863   1.93000   1.93606
 Alpha virt. eigenvalues --    1.94367   1.96029   1.97374   1.99722   2.03426
 Alpha virt. eigenvalues --    2.04935   2.07413   2.13562   2.14593   2.18452
 Alpha virt. eigenvalues --    2.22129   2.22282   2.25104   2.26071   2.27799
 Alpha virt. eigenvalues --    2.30073   2.32490   2.33115   2.35688   2.36221
 Alpha virt. eigenvalues --    2.38353   2.40946   2.44122   2.46334   2.48014
 Alpha virt. eigenvalues --    2.52072   2.55235   2.58438   2.58946   2.65036
 Alpha virt. eigenvalues --    2.67286   2.69427   2.72467   2.75028   2.75579
 Alpha virt. eigenvalues --    2.76090   2.76922   2.77154   2.78035   2.78445
 Alpha virt. eigenvalues --    2.80396   2.81889   2.83137   2.88002   2.89378
 Alpha virt. eigenvalues --    2.90055   2.90927   2.91800   2.92381   2.93237
 Alpha virt. eigenvalues --    2.93722   2.97041   2.97271   2.98016   3.01093
 Alpha virt. eigenvalues --    3.01904   3.03331   3.05789   3.07140   3.07990
 Alpha virt. eigenvalues --    3.09789   3.11209   3.15477   3.16653   3.17323
 Alpha virt. eigenvalues --    3.20664   3.21907   3.24432   3.25812   3.28405
 Alpha virt. eigenvalues --    3.29946   3.30530   3.32057   3.34480   3.36243
 Alpha virt. eigenvalues --    3.37524   3.41127   3.42663   3.47140   3.48339
 Alpha virt. eigenvalues --    3.50462   3.54104   3.55208   3.56386   3.57633
 Alpha virt. eigenvalues --    3.58940   3.59890   3.62196   3.62797   3.64257
 Alpha virt. eigenvalues --    3.66352   3.68966   3.71586   3.72425   3.72758
 Alpha virt. eigenvalues --    3.74809   3.76766   3.80516   3.80891   3.89330
 Alpha virt. eigenvalues --    3.90995   3.91609   3.91896   3.93220   3.95957
 Alpha virt. eigenvalues --    3.98849   3.99672   4.01141   4.01960   4.04539
 Alpha virt. eigenvalues --    4.06353   4.09007   4.10697   4.14645   4.17507
 Alpha virt. eigenvalues --    4.18158   4.18720   4.19367   4.23475   4.28885
 Alpha virt. eigenvalues --    4.31371   4.33069   4.34990   4.35845   4.38260
 Alpha virt. eigenvalues --    4.39370   4.40423   4.41983   4.43942   4.44629
 Alpha virt. eigenvalues --    4.45170   4.47218   4.48868   4.50067   4.50239
 Alpha virt. eigenvalues --    4.50713   4.51642   4.54500   4.56589   4.58929
 Alpha virt. eigenvalues --    4.59115   4.59453   4.61151   4.61662   4.63830
 Alpha virt. eigenvalues --    4.64429   4.64723   4.65750   4.66803   4.67926
 Alpha virt. eigenvalues --    4.69118   4.70762   4.71477   4.71764   4.72995
 Alpha virt. eigenvalues --    4.74665   4.75945   4.77573   4.78471   4.80201
 Alpha virt. eigenvalues --    4.80820   4.82750   4.82901   4.84334   4.88274
 Alpha virt. eigenvalues --    4.89613   4.91414   4.92861   4.94330   4.98202
 Alpha virt. eigenvalues --    4.98696   5.03369   5.04944   5.08901   5.11356
 Alpha virt. eigenvalues --    5.15864   5.18210   5.20370   5.20887   5.21358
 Alpha virt. eigenvalues --    5.29359   5.35887   5.41805   5.45061   5.48106
 Alpha virt. eigenvalues --    5.49406   5.50343   5.62555   5.63255   5.67099
 Alpha virt. eigenvalues --    5.73399   5.80368   5.93018   6.04707   6.12102
 Alpha virt. eigenvalues --   10.21593  10.37148  10.89240  11.07137  11.23657
 Alpha virt. eigenvalues --   11.42091  11.42511  11.47748  11.56713  11.58610
 Alpha virt. eigenvalues --   12.07107  12.15937  13.53608  15.65287  19.70951
          Condensed to atoms (all electrons):
               1          2          3          4          5          6
     1  C    4.957568   0.417019  -0.038039   0.002842  -0.000083  -0.000000
     2  C    0.417019   4.770810   0.378705  -0.063534   0.003533  -0.000316
     3  N   -0.038039   0.378705   6.380992   0.418797  -0.041380   0.002010
     4  C    0.002842  -0.063534   0.418797   4.839813   0.370452  -0.104632
     5  N   -0.000083   0.003533  -0.041380   0.370452   6.449456   0.615685
     6  C   -0.000000  -0.000316   0.002010  -0.104632   0.615685   4.707854
     7  N   -0.000000  -0.000001   0.000050   0.005144  -0.001392   0.407043
     8  C   -0.000000   0.000000  -0.000000  -0.000328  -0.002060  -0.076524
     9  N    0.000000  -0.000000   0.000000   0.000015   0.000544  -0.010217
    10  C   -0.000000   0.000000  -0.000000   0.000001  -0.000122   0.003766
    11  C    0.000000   0.000000   0.000000   0.000000  -0.000001  -0.000132
    12  H    0.365865  -0.023036   0.002924  -0.000187   0.000001   0.000000
    13  H    0.374281  -0.025600   0.004123   0.000204   0.000000   0.000001
    14  H    0.378932  -0.028348  -0.003571   0.000079   0.000001  -0.000000
    15  H   -0.028893   0.366063  -0.026567  -0.003513   0.000169  -0.000003
    16  H   -0.045009   0.352110  -0.045353  -0.001821  -0.000126   0.000077
    17  H   -0.000758  -0.045200   0.336651  -0.056506   0.010279   0.000617
    18  H    0.000186  -0.002149  -0.026884   0.334203  -0.018621  -0.007819
    19  H   -0.000059  -0.004236  -0.055452   0.338641  -0.041721   0.000806
    20  H    0.000000   0.000074  -0.000392  -0.011109  -0.109582   0.381010
    21  H   -0.000000   0.000000  -0.000000  -0.000087  -0.000303   0.001554
    22  H    0.000000  -0.000000  -0.000000  -0.000002   0.000011   0.000254
    23  H    0.000000   0.000000   0.000000   0.000000   0.000001   0.000169
    24  H    0.000000   0.000000   0.000000   0.000000   0.000001   0.000159
    25  H    0.000000  -0.000000  -0.000000   0.000000  -0.000000   0.000003
    26  H   -0.000000   0.000000  -0.000000   0.000000  -0.000000   0.000001
    27  H    0.000000  -0.000000  -0.000000   0.000000  -0.000000   0.000004
               7          8          9         10         11         12
     1  C   -0.000000  -0.000000   0.000000  -0.000000   0.000000   0.365865
     2  C   -0.000001   0.000000  -0.000000   0.000000   0.000000  -0.023036
     3  N    0.000050  -0.000000   0.000000  -0.000000   0.000000   0.002924
     4  C    0.005144  -0.000328   0.000015   0.000001   0.000000  -0.000187
     5  N   -0.001392  -0.002060   0.000544  -0.000122  -0.000001   0.000001
     6  C    0.407043  -0.076524  -0.010217   0.003766  -0.000132   0.000000
     7  N    6.528124   0.572431  -0.034178  -0.045423   0.002331  -0.000000
     8  C    0.572431   4.389754   0.459258   0.387203  -0.029352   0.000000
     9  N   -0.034178   0.459258   6.488081  -0.050538  -0.006125  -0.000000
    10  C   -0.045423   0.387203  -0.050538   4.936334   0.350625   0.000000
    11  C    0.002331  -0.029352  -0.006125   0.350625   5.030325  -0.000000
    12  H   -0.000000   0.000000  -0.000000   0.000000  -0.000000   0.611960
    13  H    0.000000   0.000000  -0.000000   0.000000  -0.000000  -0.030043
    14  H    0.000000   0.000000   0.000000  -0.000000   0.000000  -0.031959
    15  H    0.000000   0.000000  -0.000000   0.000000  -0.000000  -0.002730
    16  H   -0.000000   0.000000  -0.000000   0.000000  -0.000000   0.001283
    17  H   -0.000049   0.000000  -0.000000   0.000000  -0.000000  -0.000204
    18  H   -0.000891   0.000075  -0.000020   0.000000  -0.000000  -0.000001
    19  H   -0.000824   0.000095  -0.000019   0.000000  -0.000000   0.000028
    20  H   -0.120180   0.008205  -0.004238  -0.000195   0.000060   0.000000
    21  H   -0.004948  -0.030508   0.349126   0.005894  -0.000022   0.000000
    22  H    0.003879  -0.032037   0.345016  -0.006253   0.005482  -0.000000
    23  H   -0.000431  -0.017354   0.001040   0.368384  -0.034932  -0.000000
    24  H   -0.000466  -0.017533   0.001008   0.368768  -0.034944   0.000000
    25  H    0.000006  -0.004901   0.000890  -0.026275   0.374903   0.000000
    26  H   -0.000051   0.002128   0.000312  -0.018168   0.378648   0.000000
    27  H    0.000008  -0.004859   0.000823  -0.026242   0.374845  -0.000000
              13         14         15         16         17         18
     1  C    0.374281   0.378932  -0.028893  -0.045009  -0.000758   0.000186
     2  C   -0.025600  -0.028348   0.366063   0.352110  -0.045200  -0.002149
     3  N    0.004123  -0.003571  -0.026567  -0.045353   0.336651  -0.026884
     4  C    0.000204   0.000079  -0.003513  -0.001821  -0.056506   0.334203
     5  N    0.000000   0.000001   0.000169  -0.000126   0.010279  -0.018621
     6  C    0.000001  -0.000000  -0.000003   0.000077   0.000617  -0.007819
     7  N    0.000000   0.000000   0.000000  -0.000000  -0.000049  -0.000891
     8  C    0.000000   0.000000   0.000000   0.000000   0.000000   0.000075
     9  N   -0.000000   0.000000  -0.000000  -0.000000  -0.000000  -0.000020
    10  C    0.000000  -0.000000   0.000000   0.000000   0.000000   0.000000
    11  C   -0.000000   0.000000  -0.000000  -0.000000  -0.000000  -0.000000
    12  H   -0.030043  -0.031959  -0.002730   0.001283  -0.000204  -0.000001
    13  H    0.584244  -0.033315  -0.005865   0.006518  -0.000531  -0.000036
    14  H   -0.033315   0.603533   0.005511  -0.005704   0.004759   0.000010
    15  H   -0.005865   0.005511   0.641855  -0.055987   0.006689   0.006955
    16  H    0.006518  -0.005704  -0.055987   0.718047  -0.006223  -0.002393
    17  H   -0.000531   0.004759   0.006689  -0.006223   0.534222   0.008257
    18  H   -0.000036   0.000010   0.006955  -0.002393   0.008257   0.663257
    19  H    0.000044  -0.000028  -0.002264   0.015707  -0.005621  -0.057987
    20  H    0.000000  -0.000000  -0.000003   0.000006   0.000136   0.009331
    21  H   -0.000000  -0.000000  -0.000000  -0.000000   0.000000   0.000023
    22  H   -0.000000  -0.000000   0.000000   0.000000   0.000000   0.000000
    23  H    0.000000  -0.000000   0.000000  -0.000000   0.000000   0.000000
    24  H   -0.000000   0.000000  -0.000000   0.000000  -0.000000  -0.000000
    25  H   -0.000000   0.000000  -0.000000   0.000000  -0.000000  -0.000000
    26  H   -0.000000   0.000000   0.000000  -0.000000   0.000000   0.000000
    27  H    0.000000  -0.000000   0.000000   0.000000   0.000000   0.000000
              19         20         21         22         23         24
     1  C   -0.000059   0.000000  -0.000000   0.000000   0.000000   0.000000
     2  C   -0.004236   0.000074   0.000000  -0.000000   0.000000   0.000000
     3  N   -0.055452  -0.000392  -0.000000  -0.000000   0.000000   0.000000
     4  C    0.338641  -0.011109  -0.000087  -0.000002   0.000000   0.000000
     5  N   -0.041721  -0.109582  -0.000303   0.000011   0.000001   0.000001
     6  C    0.000806   0.381010   0.001554   0.000254   0.000169   0.000159
     7  N   -0.000824  -0.120180  -0.004948   0.003879  -0.000431  -0.000466
     8  C    0.000095   0.008205  -0.030508  -0.032037  -0.017354  -0.017533
     9  N   -0.000019  -0.004238   0.349126   0.345016   0.001040   0.001008
    10  C    0.000000  -0.000195   0.005894  -0.006253   0.368384   0.368768
    11  C   -0.000000   0.000060  -0.000022   0.005482  -0.034932  -0.034944
    12  H    0.000028   0.000000   0.000000  -0.000000  -0.000000   0.000000
    13  H    0.000044   0.000000  -0.000000  -0.000000   0.000000  -0.000000
    14  H   -0.000028  -0.000000  -0.000000  -0.000000  -0.000000   0.000000
    15  H   -0.002264  -0.000003  -0.000000   0.000000   0.000000  -0.000000
    16  H    0.015707   0.000006  -0.000000   0.000000  -0.000000   0.000000
    17  H   -0.005621   0.000136   0.000000   0.000000   0.000000  -0.000000
    18  H   -0.057987   0.009331   0.000023   0.000000   0.000000  -0.000000
    19  H    0.736831   0.009853   0.000015   0.000000  -0.000000   0.000000
    20  H    0.009853   0.796208   0.009386  -0.000654   0.000024   0.000028
    21  H    0.000015   0.009386   0.431026  -0.028043  -0.000147  -0.000145
    22  H    0.000000  -0.000654  -0.028043   0.440530   0.000164   0.000164
    23  H   -0.000000   0.000024  -0.000147   0.000164   0.572869  -0.030073
    24  H    0.000000   0.000028  -0.000145   0.000164  -0.030073   0.572231
    25  H    0.000000  -0.000000  -0.000013   0.004535  -0.004367   0.005179
    26  H   -0.000000  -0.000000  -0.000001  -0.000508  -0.002440  -0.002400
    27  H   -0.000000  -0.000000  -0.000014   0.004667   0.005180  -0.004387
              25         26         27
     1  C    0.000000  -0.000000   0.000000
     2  C   -0.000000   0.000000  -0.000000
     3  N   -0.000000  -0.000000  -0.000000
     4  C    0.000000   0.000000   0.000000
     5  N   -0.000000  -0.000000  -0.000000
     6  C    0.000003   0.000001   0.000004
     7  N    0.000006  -0.000051   0.000008
     8  C   -0.004901   0.002128  -0.004859
     9  N    0.000890   0.000312   0.000823
    10  C   -0.026275  -0.018168  -0.026242
    11  C    0.374903   0.378648   0.374845
    12  H    0.000000   0.000000  -0.000000
    13  H   -0.000000  -0.000000   0.000000
    14  H    0.000000   0.000000  -0.000000
    15  H   -0.000000   0.000000   0.000000
    16  H    0.000000  -0.000000   0.000000
    17  H   -0.000000   0.000000   0.000000
    18  H   -0.000000   0.000000   0.000000
    19  H    0.000000  -0.000000  -0.000000
    20  H   -0.000000  -0.000000  -0.000000
    21  H   -0.000013  -0.000001  -0.000014
    22  H    0.004535  -0.000508   0.004667
    23  H   -0.004367  -0.002440   0.005180
    24  H    0.005179  -0.002400  -0.004387
    25  H    0.594732  -0.028490  -0.039408
    26  H   -0.028490   0.570962  -0.028491
    27  H   -0.039408  -0.028491   0.594666
 Mulliken charges:
               1
     1  C   -0.383851
     2  C   -0.095896
     3  N   -0.286613
     4  C   -0.068474
     5  N   -0.234744
     6  C    0.078631
     7  N   -0.310182
     8  C    0.396305
     9  N   -0.540777
    10  C   -0.247757
    11  C   -0.411711
    12  H    0.106098
    13  H    0.125975
    14  H    0.110101
    15  H    0.098581
    16  H    0.068869
    17  H    0.213481
    18  H    0.094504
    19  H    0.066191
    20  H    0.032032
    21  H    0.267208
    22  H    0.262796
    23  H    0.141911
    24  H    0.142411
    25  H    0.123206
    26  H    0.128497
    27  H    0.123208
 Sum of Mulliken charges =  -0.00000
 Mulliken charges with hydrogens summed into heavy atoms:
               1
     1  C   -0.041677
     2  C    0.071554
     3  N   -0.073132
     4  C    0.092221
     5  N   -0.234744
     6  C    0.110663
     7  N   -0.310182
     8  C    0.396305
     9  N   -0.010773
    10  C    0.036565
    11  C   -0.036801
 Electronic spatial extent (au):  <R**2>=           4210.8164
 Charge=             -0.0000 electrons
 Dipole moment (field-independent basis, Debye):
    X=             -4.0017    Y=              4.1258    Z=              0.7745  Tot=              5.7996
 Quadrupole moment (field-independent basis, Debye-Ang):
   XX=            -50.6279   YY=            -66.1942   ZZ=            -68.6693
   XY=             -2.1297   XZ=              2.3838   YZ=             -1.6658
 Traceless Quadrupole moment (field-independent basis, Debye-Ang):
   XX=             11.2026   YY=             -4.3637   ZZ=             -6.8389
   XY=             -2.1297   XZ=              2.3838   YZ=             -1.6658
 Octapole moment (field-independent basis, Debye-Ang**2):
  XXX=            -74.0238  YYY=             14.2998  ZZZ=              0.3283  XYY=            -17.4144
  XXY=             10.4683  XXZ=              6.1755  XZZ=              0.5967  YZZ=             -1.2785
  YYZ=              1.0346  XYZ=             -5.7135
 Hexadecapole moment (field-independent basis, Debye-Ang**3):
 XXXX=          -4972.8197 YYYY=           -268.7034 ZZZZ=           -102.9272 XXXY=              4.3282
 XXXZ=             12.5050 YYYX=            -41.5288 YYYZ=             -2.5070 ZZZX=              1.1605
 ZZZY=             -1.9428 XXYY=           -878.2107 XXZZ=           -892.3876 YYZZ=            -64.1714
 XXYZ=            -17.1952 YYXZ=              1.8439 ZZXY=             -1.6269
 N-N= 5.846255276927D+02 E-N=-2.320258070343D+03  KE= 4.913959222216D+02
 PrsmSu:  requested number of processors reduced to:  13 ShMem   1 Linda.
 Calling FoFJK, ICntrl=      2127 FMM=F ISym2X=0 I1Cent= 0 IOpClX= 0 NMat=1 NMatS=1 NMatT=0.
 ***** Axes restored to original set *****
 -------------------------------------------------------------------
 Center     Atomic                   Forces (Hartrees/Bohr)
 Number     Number              X              Y              Z
 -------------------------------------------------------------------
      1        6          -0.003337300   -0.000162994    0.004065489
      2        6          -0.007465971   -0.001342692   -0.011108415
      3        7           0.003113096   -0.008972596    0.004658775
      4        6          -0.008291175   -0.002285450   -0.009487491
      5        7           0.021318363    0.002831563    0.007520436
      6        6          -0.027257591   -0.001217535   -0.005514967
      7        7           0.014171351   -0.001594283   -0.004630261
      8        6          -0.008124500   -0.002070865   -0.003886989
      9        7           0.010204008   -0.001631310   -0.003312191
     10        6           0.003263016    0.004461377    0.009019272
     11        6           0.003498224    0.001032149    0.002048220
     12        1          -0.000358113    0.000792446   -0.000804174
     13        1           0.001585774    0.000749020   -0.001454105
     14        1          -0.000095491   -0.000164126   -0.000424884
     15        1           0.004243079   -0.000965424   -0.001915961
     16        1           0.003248462    0.006178297    0.005586226
     17        1          -0.001340799   -0.001142202    0.002600296
     18        1          -0.001553054    0.000446230    0.002852524
     19        1           0.007824449    0.005390977    0.002500305
     20        1           0.002383336    0.000057822    0.002777518
     21        1          -0.003731934   -0.001449930   -0.003295972
     22        1          -0.007898240   -0.000726662   -0.001281666
     23        1          -0.003619153   -0.000561832    0.003953353
     24        1          -0.003625154    0.003571070    0.001996259
     25        1           0.001639462   -0.000594454   -0.001632396
     26        1          -0.001405327    0.000308847    0.000642786
     27        1           0.001611183   -0.000937446   -0.001471988
 -------------------------------------------------------------------
 Cartesian Forces:  Max     0.027257591 RMS     0.005815996

 GradGradGradGradGradGradGradGradGradGradGradGradGradGradGradGradGradGrad
 Berny optimization.
 FormGI is forming the generalized inverse of G from B-inverse, IUseBI=4.
 Internal  Forces:  Max     0.018173515 RMS     0.003843642
 Search for a local minimum.
 Step number   1 out of a maximum of  129
 All quantities printed in internal units (Hartrees-Bohrs-Radians)
 Mixed Optimization -- RFO/linear search
 Second derivative matrix not updated -- first step.
 ITU=  0
     Eigenvalues ---    0.00230   0.00412   0.00437   0.00837   0.00903
     Eigenvalues ---    0.00971   0.01426   0.02061   0.02119   0.02120
     Eigenvalues ---    0.02590   0.02873   0.02984   0.03126   0.03826
     Eigenvalues ---    0.04494   0.05336   0.05480   0.05490   0.05571
     Eigenvalues ---    0.05644   0.05660   0.06437   0.07588   0.09000
     Eigenvalues ---    0.09544   0.11145   0.11227   0.12605   0.12988
     Eigenvalues ---    0.13879   0.16000   0.16000   0.16000   0.16000
     Eigenvalues ---    0.16000   0.16000   0.16000   0.16000   0.16000
     Eigenvalues ---    0.21947   0.21998   0.22000   0.22068   0.23391
     Eigenvalues ---    0.25000   0.25000   0.25000   0.25000   0.27698
     Eigenvalues ---    0.29722   0.29900   0.33593   0.33885   0.33918
     Eigenvalues ---    0.34015   0.34032   0.34105   0.34122   0.34124
     Eigenvalues ---    0.34126   0.34154   0.34184   0.34214   0.34340
     Eigenvalues ---    0.36390   0.37011   0.37664   0.44677   0.45720
     Eigenvalues ---    0.46608   0.50583   0.51420   0.66547   0.69583
 RFO step:  Lambda=-7.71344758D-03 EMin= 2.30000000D-03
 Linear search not attempted -- first point.
 Iteration  1 RMS(Cart)=  0.09803134 RMS(Int)=  0.00298786
 Iteration  2 RMS(Cart)=  0.00517291 RMS(Int)=  0.00034003
 Iteration  3 RMS(Cart)=  0.00001271 RMS(Int)=  0.00033995
 Iteration  4 RMS(Cart)=  0.00000001 RMS(Int)=  0.00033995
 Variable       Old X    -DE/DX   Delta X   Delta X   Delta X     New X
                                 (Linear)    (Quad)   (Total)
    R1        2.88163   0.00221   0.00000   0.00722   0.00722   2.88885
    R2        2.07071  -0.00023   0.00000  -0.00065  -0.00065   2.07007
    R3        2.07020  -0.00120   0.00000  -0.00344  -0.00344   2.06676
    R4        2.06971   0.00028   0.00000   0.00079   0.00079   2.07049
    R5        2.75829  -0.00215   0.00000  -0.00570  -0.00570   2.75259
    R6        2.07153   0.00031   0.00000   0.00089   0.00089   2.07242
    R7        2.07121   0.00732   0.00000   0.02099   0.02099   2.09219
    R8        2.74856   0.00040   0.00000   0.00103   0.00103   2.74959
    R9        1.92353  -0.00221   0.00000  -0.00485  -0.00485   1.91868
   R10        2.76776  -0.00246   0.00000  -0.00662  -0.00662   2.76114
   R11        2.07469   0.00139   0.00000   0.00402   0.00402   2.07871
   R12        2.07525   0.00796   0.00000   0.02296   0.02296   2.09821
   R13        2.44076  -0.01817   0.00000  -0.02583  -0.02583   2.41493
   R14        2.59282   0.00394   0.00000   0.00767   0.00767   2.60049
   R15        2.08023   0.00347   0.00000   0.01009   0.01009   2.09033
   R16        2.46107  -0.00854   0.00000  -0.01268  -0.01268   2.44838
   R17        2.58459  -0.00729   0.00000  -0.01397  -0.01397   2.57062
   R18        2.92803  -0.01495   0.00000  -0.05251  -0.05251   2.87552
   R19        1.90151  -0.00269   0.00000  -0.00569  -0.00569   1.89583
   R20        1.91148  -0.00741   0.00000  -0.01593  -0.01593   1.89555
   R21        2.88522   0.00536   0.00000   0.01758   0.01758   2.90280
   R22        2.07276  -0.00201   0.00000  -0.00577  -0.00577   2.06700
   R23        2.07304  -0.00208   0.00000  -0.00598  -0.00598   2.06706
   R24        2.07118   0.00007   0.00000   0.00019   0.00019   2.07137
   R25        2.06759  -0.00108   0.00000  -0.00307  -0.00307   2.06453
   R26        2.07125   0.00005   0.00000   0.00013   0.00013   2.07138
    A1        1.92495   0.00128   0.00000   0.01136   0.01138   1.93633
    A2        1.94329  -0.00189   0.00000  -0.01185  -0.01189   1.93140
    A3        1.94435  -0.00015   0.00000  -0.00409  -0.00415   1.94020
    A4        1.87893   0.00109   0.00000   0.01263   0.01266   1.89160
    A5        1.88005  -0.00048   0.00000  -0.00183  -0.00182   1.87822
    A6        1.88980   0.00021   0.00000  -0.00562  -0.00574   1.88406
    A7        1.92542   0.00200   0.00000   0.01458   0.01414   1.93956
    A8        1.89196   0.00300   0.00000   0.01662   0.01674   1.90869
    A9        1.89874  -0.00106   0.00000   0.00957   0.00879   1.90752
   A10        1.92380  -0.00503   0.00000  -0.05023  -0.05003   1.87378
   A11        1.93780   0.00258   0.00000   0.03451   0.03404   1.97183
   A12        1.88499  -0.00150   0.00000  -0.02550  -0.02526   1.85973
   A13        1.97246   0.00118   0.00000   0.00379   0.00380   1.97626
   A14        1.93721  -0.00238   0.00000  -0.02096  -0.02095   1.91626
   A15        1.87554   0.00129   0.00000   0.00996   0.00996   1.88550
   A16        1.91058  -0.00261   0.00000  -0.00830  -0.00854   1.90204
   A17        1.90503  -0.00383   0.00000  -0.03370  -0.03353   1.87150
   A18        1.91223   0.00700   0.00000   0.05290   0.05299   1.96522
   A19        1.92864   0.00337   0.00000   0.01435   0.01408   1.94272
   A20        1.91644  -0.00149   0.00000  -0.00287  -0.00315   1.91329
   A21        1.89074  -0.00237   0.00000  -0.02203  -0.02159   1.86915
   A22        1.98172   0.01213   0.00000   0.04708   0.04708   2.02881
   A23        2.09500   0.00365   0.00000   0.01603   0.01600   2.11100
   A24        2.08798  -0.00139   0.00000  -0.00539  -0.00542   2.08256
   A25        2.10020  -0.00226   0.00000  -0.01059  -0.01062   2.08958
   A26        2.10762   0.00658   0.00000   0.02552   0.02552   2.13314
   A27        2.20161   0.00733   0.00000   0.02846   0.02846   2.23007
   A28        2.03889  -0.00407   0.00000  -0.01580  -0.01580   2.02309
   A29        2.04268  -0.00326   0.00000  -0.01266  -0.01266   2.03002
   A30        2.15310  -0.00363   0.00000  -0.02166  -0.02166   2.13143
   A31        2.12572  -0.00116   0.00000  -0.00689  -0.00689   2.11883
   A32        2.00428   0.00479   0.00000   0.02854   0.02854   2.03282
   A33        1.99915   0.00982   0.00000   0.04777   0.04767   2.04683
   A34        1.89520  -0.00609   0.00000  -0.04115  -0.04221   1.85299
   A35        1.89614  -0.00617   0.00000  -0.04186  -0.04291   1.85323
   A36        1.90073   0.00088   0.00000   0.02425   0.02465   1.92538
   A37        1.90056   0.00092   0.00000   0.02439   0.02480   1.92536
   A38        1.86773   0.00005   0.00000  -0.01785  -0.01944   1.84829
   A39        1.93396   0.00288   0.00000   0.02063   0.02036   1.95432
   A40        1.95166  -0.00315   0.00000  -0.02568  -0.02555   1.92611
   A41        1.93432   0.00284   0.00000   0.02032   0.02005   1.95437
   A42        1.87786  -0.00073   0.00000  -0.01083  -0.01071   1.86716
   A43        1.88566  -0.00127   0.00000   0.00571   0.00512   1.89077
   A44        1.87769  -0.00072   0.00000  -0.01092  -0.01081   1.86688
    D1        3.12822  -0.00201   0.00000  -0.02977  -0.02984   3.09838
    D2        1.02026   0.00106   0.00000   0.01256   0.01256   1.03282
    D3       -1.02540   0.00177   0.00000   0.02846   0.02851  -0.99689
    D4        1.04346  -0.00300   0.00000  -0.04543  -0.04545   0.99801
    D5       -1.06450   0.00007   0.00000  -0.00310  -0.00305  -1.06755
    D6       -3.11016   0.00078   0.00000   0.01281   0.01290  -3.09727
    D7       -1.06812  -0.00186   0.00000  -0.02722  -0.02731  -1.09544
    D8        3.10710   0.00121   0.00000   0.01511   0.01509   3.12219
    D9        1.06144   0.00192   0.00000   0.03101   0.03103   1.09248
   D10        3.13162   0.00011   0.00000   0.00163   0.00192   3.13354
   D11        1.02311  -0.00066   0.00000   0.00126   0.00155   1.02467
   D12       -1.06276   0.00191   0.00000  -0.00043  -0.00037  -1.06313
   D13        3.11192   0.00114   0.00000  -0.00080  -0.00074   3.11118
   D14        1.02528  -0.00158   0.00000  -0.04286  -0.04322   0.98206
   D15       -1.08322  -0.00235   0.00000  -0.04323  -0.04359  -1.12681
   D16       -3.10638   0.00120   0.00000   0.04252   0.04253  -3.06384
   D17        1.06382   0.00106   0.00000   0.05100   0.05070   1.11452
   D18       -1.00391   0.00208   0.00000   0.06660   0.06690  -0.93701
   D19       -0.96318  -0.00013   0.00000   0.02552   0.02552  -0.93766
   D20       -3.07617  -0.00027   0.00000   0.03400   0.03369  -3.04248
   D21        1.13929   0.00075   0.00000   0.04960   0.04989   1.18918
   D22       -3.10253   0.00389   0.00000   0.05941   0.05943  -3.04309
   D23       -1.00391  -0.00040   0.00000   0.02138   0.02130  -0.98260
   D24        1.08076  -0.00217   0.00000   0.00128   0.00132   1.08208
   D25        3.12566   0.00134   0.00000   0.03352   0.03351  -3.12401
   D26       -0.01930   0.00178   0.00000   0.04651   0.04652   0.02722
   D27        3.11769   0.00024   0.00000   0.00737   0.00736   3.12504
   D28       -0.02051  -0.00020   0.00000  -0.00573  -0.00571  -0.02622
   D29       -0.00810  -0.00023   0.00000  -0.00598  -0.00598  -0.01408
   D30        3.13510  -0.00023   0.00000  -0.00635  -0.00635   3.12874
   D31        0.01110  -0.00010   0.00000  -0.00369  -0.00369   0.00741
   D32        3.13773  -0.00013   0.00000  -0.00458  -0.00458   3.13315
   D33       -3.13210  -0.00010   0.00000  -0.00332  -0.00332  -3.13542
   D34       -0.00547  -0.00013   0.00000  -0.00421  -0.00421  -0.00968
   D35        3.13833   0.00000   0.00000   0.00013   0.00014   3.13847
   D36        1.00974  -0.00327   0.00000  -0.03299  -0.03187   0.97787
   D37       -1.01578   0.00328   0.00000   0.03296   0.03183  -0.98395
   D38       -0.00180  -0.00001   0.00000  -0.00024  -0.00023  -0.00204
   D39       -2.13040  -0.00328   0.00000  -0.03337  -0.03225  -2.16264
   D40        2.12727   0.00327   0.00000   0.03258   0.03146   2.15873
   D41       -1.04479  -0.00110   0.00000  -0.01732  -0.01751  -1.06229
   D42       -3.13973  -0.00003   0.00000  -0.00044  -0.00044  -3.14017
   D43        1.04849   0.00107   0.00000   0.01679   0.01697   1.06546
   D44        1.08079  -0.00160   0.00000  -0.01971  -0.01962   1.06117
   D45       -1.01416  -0.00053   0.00000  -0.00282  -0.00254  -1.01670
   D46       -3.10912   0.00056   0.00000   0.01440   0.01486  -3.09426
   D47        3.11174  -0.00054   0.00000  -0.01416  -0.01462   3.09712
   D48        1.01679   0.00053   0.00000   0.00273   0.00246   1.01924
   D49       -1.07818   0.00162   0.00000   0.01995   0.01986  -1.05831
         Item               Value     Threshold  Converged?
 Maximum Force            0.018174     0.000450     NO 
 RMS     Force            0.003844     0.000300     NO 
 Maximum Displacement     0.275092     0.001800     NO 
 RMS     Displacement     0.099773     0.001200     NO 
 Predicted change in Energy=-4.105587D-03
 GradGradGradGradGradGradGradGradGradGradGradGradGradGradGradGradGradGrad

                          Input orientation:                          
 ---------------------------------------------------------------------
 Center     Atomic      Atomic             Coordinates (Angstroms)
 Number     Number       Type             X           Y           Z
 ---------------------------------------------------------------------
      1          6           0        0.933355   -0.104747    0.007230
      2          6           0        2.459820   -0.021952    0.011745
      3          7           0        3.025384   -0.691151   -1.151880
      4          6           0        4.478384   -0.630599   -1.198922
      5          7           0        4.938862   -1.232439   -2.448186
      6          6           0        6.203691   -1.353961   -2.584309
      7          7           0        6.743924   -1.889030   -3.731286
      8          6           0        8.022730   -2.007027   -3.902713
      9          7           0        9.015475   -1.636700   -3.049619
     10          6           0        8.462369   -2.634042   -5.217636
     11          6           0        9.972429   -2.785126   -5.455310
     12          1           0        0.513298    0.361010    0.905336
     13          1           0        0.603523   -1.146940   -0.027195
     14          1           0        0.511728    0.411736   -0.862220
     15          1           0        2.848822   -0.529834    0.902493
     16          1           0        2.768414    1.038199    0.093062
     17          1           0        2.665492   -0.266871   -2.001196
     18          1           0        4.855943   -1.183240   -0.325969
     19          1           0        4.864940    0.407293   -1.120318
     20          1           0        6.870400   -1.031714   -1.762585
     21          1           0        8.824183   -1.220041   -2.157280
     22          1           0        9.981561   -1.780234   -3.278196
     23          1           0        8.012011   -2.028519   -6.009428
     24          1           0        7.970253   -3.609536   -5.269788
     25          1           0       10.486812   -1.817198   -5.453357
     26          1           0       10.159898   -3.244096   -6.428838
     27          1           0       10.443879   -3.427631   -4.702704
 ---------------------------------------------------------------------
                    Distance matrix (angstroms):
                    1          2          3          4          5
     1  C    0.000000
     2  C    1.528715   0.000000
     3  N    2.462517   1.456610   0.000000
     4  C    3.781343   2.431207   1.455022   0.000000
     5  N    4.831650   3.696240   2.373774   1.461134   0.000000
     6  C    6.004420   4.746612   3.548635   2.327925   1.277924
     7  N    7.136027   5.987471   4.681430   3.623422   2.309915
     8  C    8.316583   7.085864   5.854236   4.665557   3.496552
     9  N    8.775640   7.413229   6.354263   5.002250   4.140521
    10  C    9.506977   8.378547   7.061587   6.002998   4.695684
    11  C   10.896266   9.693457   8.435974   7.276218   6.065511
    12  H    1.095432   2.175801   3.413174   4.597075   5.776747
    13  H    1.093682   2.170934   2.708887   4.080944   4.966254
    14  H    1.095658   2.178752   2.760204   4.115117   4.981778
    15  H    2.156666   1.096676   2.068247   2.661122   4.011106
    16  H    2.163592   1.107142   2.146291   2.716267   4.040369
    17  H    2.657133   2.038190   1.015320   2.015569   2.510047
    18  H    4.081773   2.684036   2.067662   1.100005   2.124406
    19  H    4.122003   2.692660   2.142788   1.110326   2.111260
    20  H    6.264185   4.860152   3.908080   2.490050   2.059412
    21  H    8.257975   6.829730   5.909029   4.489083   3.896217
    22  H    9.770942   8.395943   7.354979   5.994163   5.139825
    23  H    9.487278   8.432536   7.088778   6.130388   4.770789
    24  H    9.468284   8.433874   7.065824   6.135076   4.775077
    25  H   11.136383   9.875366   8.685827   7.457173   6.336619
    26  H   11.679365  10.542984   9.233910   8.152421   6.866700
    27  H   11.120931   9.877747   8.667800   7.462373   6.340894
                    6          7          8          9         10
     6  C    0.000000
     7  N    1.376120   0.000000
     8  C    2.339569   1.295629   0.000000
     9  N    2.864014   2.385012   1.360314   0.000000
    10  C    3.697924   2.391095   1.521662   2.449677   0.000000
    11  C    4.949167   3.768088   2.611000   2.832312   1.536097
    12  H    6.891975   8.085892   9.225860   9.587467  10.471335
    13  H    6.159836   7.209405   8.414513   8.951863   9.534864
    14  H    6.203364   7.236389   8.456367   9.016346   9.563425
    15  H    4.908373   6.204123   7.213974   7.407560   8.567122
    16  H    4.969092   6.244917   7.269625   7.487142   8.608716
    17  H    3.747085   4.717862   5.945074   6.580114   7.039373
    18  H    2.635464   3.957119   4.847706   4.992554   6.248163
    19  H    2.652837   3.952320   4.852041   5.012688   6.243335
    20  H    1.106153   2.150993   2.619016   2.573676   4.127857
    21  H    2.658433   2.693051   2.075623   1.003228   3.390589
    22  H    3.864645   3.270997   2.068447   1.003081   2.607366
    23  H    3.931473   2.611021   2.106852   3.149751   1.093807
    24  H    3.926850   2.613620   2.107056   3.148606   1.093841
    25  H    5.176016   4.120667   2.917573   2.824070   2.195715
    26  H    5.831344   4.558713   3.532582   3.913125   2.172735
    27  H    5.173674   4.123181   2.918916   2.824972   2.195751
                   11         12         13         14         15
    11  C    0.000000
    12  H   11.825021   0.000000
    13  H   10.951003   1.775293   0.000000
    14  H   10.991872   1.768284   1.770639   0.000000
    15  H    9.810900   2.499657   2.507291   3.076162   0.000000
    16  H    9.864079   2.490767   3.078319   2.529358   1.766457
    17  H    8.465449   3.670708   2.987125   2.529124   2.921330
    18  H    7.419878   4.770680   4.263058   4.658725   2.442252
    19  H    7.420925   4.800229   4.665858   4.360858   3.005778
    20  H    5.131593   7.033507   6.503738   6.582318   4.850527
    21  H    3.826873   8.997230   8.492459   8.569526   6.748595
    22  H    2.397856  10.570471   9.945736  10.015957   8.361676
    23  H    2.173186  10.476378   9.562948   9.418218   8.756667
    24  H    2.173195  10.464395   9.371119   9.551276   8.591314
    25  H    1.096119  12.026992  11.294772  11.204864  10.019632
    26  H    1.092500  12.642934  11.692023  11.723460  10.703619
    27  H    1.096127  12.017503  11.130793  11.319792   9.874227
                   16         17         18         19         20
    16  H    0.000000
    17  H    2.469760   0.000000
    18  H    3.077037   2.905890   0.000000
    19  H    2.503149   2.463334   1.777882   0.000000
    20  H    4.955224   4.280557   2.478883   2.550513   0.000000
    21  H    6.843685   6.233970   4.370581   4.404443   2.002129
    22  H    8.446208   7.579305   5.945082   5.968377   3.540718
    23  H    8.610485   6.910470   6.555681   6.304017   4.509165
    24  H    8.798905   7.070898   6.326704   6.557132   4.489467
    25  H    9.924198   8.688727   7.641903   7.438349   5.226588
    26  H   10.747430   9.199674   8.344103   8.339640   6.122854
    27  H   10.092363   8.819970   7.444336   7.659289   5.210996
                   21         22         23         24         25
    21  H    0.000000
    22  H    1.705811   0.000000
    23  H    4.018993   3.376448   0.000000
    24  H    4.015793   3.370184   1.745974   0.000000
    25  H    3.739660   2.233376   2.545292   3.095035   0.000000
    26  H    4.911939   3.478683   2.503388   2.504293   1.759112
    27  H    3.738457   2.226405   3.095000   2.544307   1.777306
                   26         27
    26  H    0.000000
    27  H    1.758939   0.000000
 Stoichiometry    C7H16N4
 Framework group  C1[X(C7H16N4)]
 Deg. of freedom    75
 Full point group                 C1      NOp   1
 Largest Abelian subgroup         C1      NOp   1
 Largest concise Abelian subgroup C1      NOp   1
                         Standard orientation:                         
 ---------------------------------------------------------------------
 Center     Atomic      Atomic             Coordinates (Angstroms)
 Number     Number       Type             X           Y           Z
 ---------------------------------------------------------------------
      1          6           0        5.645533   -0.475608   -0.071402
      2          6           0        4.418375    0.430023    0.032927
      3          7           0        3.186720   -0.340579   -0.071540
      4          6           0        1.987620    0.476946    0.032863
      5          7           0        0.815480   -0.395355    0.023422
      6          6           0       -0.321858    0.186734   -0.003513
      7          7           0       -1.489774   -0.540992    0.006077
      8          6           0       -2.655752    0.023878   -0.002492
      9          7           0       -2.936839    1.354828   -0.006203
     10          6           0       -3.850935   -0.917911   -0.007496
     11          6           0       -5.248845   -0.281194   -0.013404
     12          1           0        6.569629    0.111583   -0.036437
     13          1           0        5.630469   -1.039469   -1.008405
     14          1           0        5.678048   -1.194507    0.754791
     15          1           0        4.425715    1.149043   -0.795116
     16          1           0        4.479485    1.022809    0.966004
     17          1           0        3.155290   -1.039937    0.663840
     18          1           0        1.983721    1.161104   -0.828486
     19          1           0        1.977744    1.104910    0.948498
     20          1           0       -0.364228    1.291325   -0.044242
     21          1           0       -2.215752    2.052319   -0.008643
     22          1           0       -3.882434    1.689234   -0.020213
     23          1           0       -3.732208   -1.565349    0.866084
     24          1           0       -3.724983   -1.565659   -0.879875
     25          1           0       -5.420713    0.339226    0.873736
     26          1           0       -6.019278   -1.055781   -0.015167
     27          1           0       -5.414436    0.336625   -0.903557
 ---------------------------------------------------------------------
 Rotational constants (GHZ):           5.9506333           0.2687870           0.2594190
 Standard basis: 6-31G(2df,p) (6D, 7F)
 There are   421 symmetry adapted cartesian basis functions of A   symmetry.
 There are   388 symmetry adapted basis functions of A   symmetry.
   388 basis functions,   596 primitive gaussians,   421 cartesian basis functions
    43 alpha electrons       43 beta electrons
       nuclear repulsion energy       584.3546069207 Hartrees.
 NAtoms=   27 NActive=   27 NUniq=   27 SFac= 1.00D+00 NAtFMM=   60 NAOKFM=F Big=F
 Integral buffers will be    131072 words long.
 Raffenetti 2 integral format.
 Two-electron integral symmetry is turned on.
 One-electron integrals computed using PRISM.
 PrsmSu:  requested number of processors reduced to:  13 ShMem   1 Linda.
 NBasis=   388 RedAO= T EigKep=  1.80D-04  NBF=   388
 NBsUse=   388 1.00D-06 EigRej= -1.00D+00 NBFU=   388
 Initial guess from the checkpoint file:  "CCNCNdCNdCpNpCC.chk"
 B after Tr=     0.000000   -0.000000    0.000000
         Rot=    0.999997   -0.001887   -0.000022   -0.001428 Ang=  -0.27 deg.
 ExpMin= 1.61D-01 ExpMax= 4.17D+03 ExpMxC= 6.27D+02 IAcc=2 IRadAn=         4 AccDes= 0.00D+00
 Harris functional with IExCor=  402 and IRadAn=       4 diagonalized for initial guess.
 HarFok:  IExCor=  402 AccDes= 0.00D+00 IRadAn=         4 IDoV= 1 UseB2=F ITyADJ=14
 ICtDFT=  3500011 ScaDFX=  1.000000  1.000000  1.000000  1.000000
 FoFCou: FMM=F IPFlag=           0 FMFlag=      100000 FMFlg1=           0
         NFxFlg=           0 DoJE=T BraDBF=F KetDBF=T FulRan=T
         wScrn=  0.000000 ICntrl=       500 IOpCl=  0 I1Cent=   200000004 NGrid=           0
         NMat0=    1 NMatS0=      1 NMatT0=    0 NMatD0=    1 NMtDS0=    0 NMtDT0=    0
 Petite list used in FoFCou.
 Requested convergence on RMS density matrix=1.00D-08 within 128 cycles.
 Requested convergence on MAX density matrix=1.00D-06.
 Requested convergence on             energy=1.00D-06.
 No special actions if energy rises.
 Integral accuracy reduced to 1.0D-05 until final iterations.
 Initial convergence to 1.0D-05 achieved.  Increase integral accuracy.
 SCF Done:  E(RB3LYP) =  -495.392688341     A.U. after   12 cycles
            NFock= 12  Conv=0.43D-08     -V/T= 2.0080
 PrsmSu:  requested number of processors reduced to:  13 ShMem   1 Linda.
 Calling FoFJK, ICntrl=      2127 FMM=F ISym2X=0 I1Cent= 0 IOpClX= 0 NMat=1 NMatS=1 NMatT=0.
 ***** Axes restored to original set *****
 -------------------------------------------------------------------
 Center     Atomic                   Forces (Hartrees/Bohr)
 Number     Number              X              Y              Z
 -------------------------------------------------------------------
      1        6           0.000392673   -0.000092027    0.001132925
      2        6          -0.001988142   -0.001228120   -0.001603009
      3        7           0.001370935    0.001664300    0.000737012
      4        6          -0.001611445   -0.004322356   -0.005379520
      5        7           0.004781506    0.003819888    0.003110478
      6        6          -0.007916678   -0.000668116   -0.000380123
      7        7           0.002943774   -0.000167013   -0.000389372
      8        6          -0.003299831   -0.000184108   -0.000051412
      9        7           0.000814774    0.000959623    0.001894843
     10        6           0.004207486    0.000473157    0.001019549
     11        6          -0.002001628    0.000479441    0.000821100
     12        1           0.000493468    0.000129793   -0.000566231
     13        1           0.000335976   -0.000069165   -0.000453425
     14        1           0.000058082    0.000083378   -0.000326072
     15        1           0.000489942    0.000516218    0.001580088
     16        1           0.000770484    0.000430305    0.000679498
     17        1          -0.000192692   -0.001119521   -0.001553369
     18        1           0.001290993    0.000228705    0.001423159
     19        1          -0.000050579    0.000382359    0.000575779
     20        1           0.002558720    0.000142707    0.000972873
     21        1          -0.001552443    0.000282026    0.000358410
     22        1          -0.000411544   -0.000623227   -0.001235941
     23        1          -0.000331395   -0.000441463   -0.000774637
     24        1          -0.000338255   -0.000295287   -0.000810304
     25        1          -0.000180071   -0.000104573   -0.000158141
     26        1          -0.000470721   -0.000205288   -0.000436729
     27        1          -0.000163389   -0.000071638   -0.000187429
 -------------------------------------------------------------------
 Cartesian Forces:  Max     0.007916678 RMS     0.001763371

 GradGradGradGradGradGradGradGradGradGradGradGradGradGradGradGradGradGrad
 Berny optimization.
 Using GEDIIS/GDIIS optimizer.
 FormGI is forming the generalized inverse of G from B-inverse, IUseBI=4.
 Internal  Forces:  Max     0.006106786 RMS     0.001159944
 Search for a local minimum.
 Step number   2 out of a maximum of  129
 All quantities printed in internal units (Hartrees-Bohrs-Radians)
 Mixed Optimization -- RFO/linear search
 Update second derivatives using D2CorX and points    1    2
 DE= -4.05D-03 DEPred=-4.11D-03 R= 9.88D-01
 TightC=F SS=  1.41D+00  RLast= 2.60D-01 DXNew= 5.0454D-01 7.8061D-01
 Trust test= 9.88D-01 RLast= 2.60D-01 DXMaxT set to 5.05D-01
 ITU=  1  0
 Use linear search instead of GDIIS.
     Eigenvalues ---    0.00230   0.00412   0.00437   0.00826   0.00903
     Eigenvalues ---    0.00959   0.01457   0.02061   0.02119   0.02120
     Eigenvalues ---    0.02592   0.02900   0.02983   0.03133   0.03521
     Eigenvalues ---    0.04415   0.05079   0.05338   0.05543   0.05577
     Eigenvalues ---    0.05593   0.05601   0.06520   0.07528   0.09231
     Eigenvalues ---    0.10123   0.11202   0.11213   0.12830   0.13283
     Eigenvalues ---    0.13823   0.15494   0.16000   0.16000   0.16000
     Eigenvalues ---    0.16000   0.16000   0.16000   0.16000   0.16161
     Eigenvalues ---    0.21160   0.21951   0.21999   0.22019   0.23437
[...]
 7163,0.00016083,-0.00016521,0.00002455,0.00002835,0.00001145,-0.000013
 81,0.00001052,0.00000898,-0.00000990,0.00001038,0.00000214,0.00001678,
 0.00000381,0.00003284,0.00000356,-0.00001385,0.00000754,0.00000083,0.0
 0003754,-0.00032558,0.00018374,0.00008662,0.00226701,0.00082136,-0.000
 70007,0.00020621,0.00079870,0.00044763,0.13838439,0.18280768,-0.000009
 06,0.00000869,0.00004372,0.00003406,0.00021696,0.00004274,0.00017220,0
 .00011994,0.00027722,-0.00762034,-0.00110631,-0.00157566,-0.00476678,-
 0.03023433,0.00439738,-0.01192954,-0.00697139,-0.05358544,0.02263269,0
 .01123218,-0.00093931,0.00509613,-0.00156125,0.00092442,-0.00045230,0.
 00052169,0.00023253,0.00004578,0.00080875,-0.00003214,0.00009838,-0.00
 004756,-0.00001444,-0.00000750,0.00000955,-0.00000728,-0.00000601,-0.0
 0000148,-0.00000503,-0.00000788,0.00001245,0.00000399,0.00008999,-0.00
 002667,-0.00005898,-0.00002351,0.00000310,-0.00002847,-0.00005964,0.00
 054704,0.00013909,0.00080602,0.00132733,-0.00008940,0.00026066,-0.0001
 3681,-0.00039519,-0.00604034,0.02520221,0.05134942,0.00001482,0.000042
 84,-0.00010759,-0.00043728,0.00020026,0.00049720,0.00009902,-0.0004157
 3,-0.00029145,-0.00023776,0.00499498,0.00412559,0.00008816,0.00934019,
 0.00254378,0.01338991,-0.01040894,-0.01791035,-0.01988834,-0.00674477,
 0.00587239,0.02159979,0.02226674,0.00307897,-0.21590374,0.02368056,0.1
 6773932,0.00214174,-0.00418160,0.00005439,0.00030535,-0.00012135,-0.00
 014082,0.00008671,-0.00005930,-0.00003120,-0.00001874,-0.00000029,0.00
 003263,-0.00001467,-0.00003418,0.00002821,0.00002488,-0.00002259,-0.00
 007060,0.00004700,-0.00003888,-0.00020672,-0.00050186,0.00034039,0.000
 25152,0.00226343,0.00042887,-0.00086513,-0.00041350,-0.00009271,-0.000
 03463,0.00040851,0.00139539,0.00188338,0.20250061,0.00004779,0.0000593
 1,-0.00006104,-0.00008170,-0.00013808,0.00010806,0.00039065,0.00012476
 ,-0.00003992,0.00015205,0.00289964,0.00202300,0.00501739,-0.00524135,-
 0.00120939,-0.00135238,-0.00576940,-0.00450253,-0.00297650,-0.00148396
 ,0.00469343,0.02818396,0.00015180,-0.02067670,0.02998697,-0.06896828,-
 0.06827360,-0.00457674,-0.00235948,-0.00432636,0.00178333,-0.00006137,
 -0.00066734,0.00002112,-0.00004454,0.00000229,0.00000408,-0.00000320,0
 .00001242,-0.00000616,-0.00005664,-0.00000643,-0.00006391,-0.00005234,
 0.00001578,0.00002370,0.00001151,-0.00004300,0.00003962,-0.00007260,-0
 .00016253,0.00097982,0.00018627,-0.00055231,-0.00006882,-0.00007020,-0
 .00012038,-0.00031650,0.00078503,-0.00055882,-0.04643693,0.07482190,0.
 00001088,-0.00002004,0.00002238,0.00013961,-0.00008293,-0.00005548,-0.
 00003494,0.00019945,-0.00024926,0.00075253,-0.00125907,-0.00120033,-0.
 00217560,-0.00465959,-0.01057149,-0.01002258,0.00197670,0.00980549,0.0
 0831742,0.00710976,-0.00486466,0.00739361,-0.01588534,-0.01727943,0.17
 359392,-0.06421259,-0.19053915,0.00088764,-0.00257668,0.00330405,0.000
 02714,-0.00007010,0.00011734,-0.00002232,0.00001821,0.00000339,-0.0000
 1874,0.00000124,-0.00002598,0.00000927,0.00000914,0.00000658,-0.000022
 09,0.00001350,0.00001374,-0.00000632,0.00001567,-0.00001528,0.00024296
 ,-0.00016376,0.00021978,-0.00059540,-0.00025514,0.00024640,0.00034882,
 0.00014886,-0.00020644,0.00072002,-0.00169237,-0.00013631,-0.17045635,
 0.07749672,0.20807625,0.00000763,-0.00000911,-0.00000660,-0.00003855,0
 .00000914,0.00005726,0.00010213,0.00000425,-0.00011540,-0.00026431,-0.
 00077510,-0.00060580,-0.00214268,-0.00210684,0.00176455,-0.00245508,0.
 00233988,0.00261802,0.00880080,0.00035660,0.00130910,-0.00541780,-0.00
 216515,-0.00331045,-0.31046110,-0.20100018,0.06108955,-0.00038353,0.00
 238000,-0.00031315,-0.00024128,-0.00027102,-0.00012087,0.00000989,-0.0
 0000055,-0.00000668,-0.00000913,-0.00000095,-0.00000189,-0.00000037,0.
 00001329,0.00000870,0.00002488,0.00001366,-0.00001240,0.00000302,-0.00
 000060,-0.00002464,-0.00001003,0.00003206,0.00007899,-0.00027815,-0.00
 006125,0.00006196,0.00009061,-0.00000136,-0.00007073,-0.00044152,0.000
 09228,-0.00036570,-0.00505056,-0.01047415,-0.00971028,0.31759128,0.000
 01701,0.00002315,-0.00001737,-0.00005291,-0.00003650,0.00002699,0.0001
 3623,-0.00003477,0.00000708,0.00016676,0.00033936,0.00034808,0.0009059
 2,0.00165917,-0.00173466,0.00096288,-0.00027365,0.00035967,-0.00009635
 ,-0.00014214,-0.00841908,-0.02534512,-0.01707875,0.01083281,-0.1963511
 6,-0.17751925,-0.00110837,0.00083746,-0.00031911,0.00285274,-0.0001700
 2,0.00029460,-0.00038906,0.00000552,-0.00001415,0.00000189,0.00000298,
 -0.00000039,0.00000510,-0.00000493,-0.00001799,-0.00000449,-0.00001339
 ,-0.00000885,0.00000413,0.00001150,0.00000156,-0.00000768,-0.00000928,
 0.00001100,-0.00004266,0.00021334,0.00000857,-0.00006868,0.00003006,-0
 .00000805,0.00001048,0.00015754,-0.00023649,0.00061628,0.00680469,0.00
 483279,0.00404888,0.21084901,0.18812494,0.00000334,0.00000213,-0.00000
 455,-0.00000746,0.00003931,0.00008026,-0.00005376,0.00000916,-0.000079
 01,-0.00002793,0.00103463,0.00049367,0.00461692,0.00035135,0.00017812,
 0.00135997,-0.00052155,-0.00306289,0.00105341,-0.00890735,0.00286832,-
 0.02179677,-0.00525305,0.00270525,0.06407203,0.00151112,-0.04616633,-0
 .00265428,-0.00086683,-0.00052764,0.00054394,0.00061240,-0.00031499,0.
 00000701,-0.00000276,-0.00000459,-0.00000989,-0.00000134,-0.00000412,0
 .00000069,-0.00000586,0.00000872,-0.00000143,-0.00001126,-0.00001419,-
 0.00000167,-0.00000012,-0.00004380,-0.00003365,0.00003292,0.00009038,0
 .00033260,0.00009575,-0.00021421,-0.00009200,0.00000710,-0.00005779,-0
 .00041358,0.00064858,-0.00038272,0.00488163,0.01668431,0.00407647,-0.0
 5282408,-0.00651591,0.04095276,-0.00002206,-0.00000867,0.00003070,0.00
 006794,0.00004557,-0.00008982,-0.00022218,-0.00000597,0.00015394,0.000
 11997,0.00022524,-0.00041848,-0.00011625,-0.00011175,0.00029985,0.0010
 7939,-0.00084971,0.00100440,-0.00023166,-0.00071273,0.00159808,-0.0187
 8274,0.01789606,-0.01034195,-0.00003443,-0.00127782,0.00081343,-0.1464
 1589,0.10138277,-0.07348095,-0.00682648,0.00592044,-0.00625523,-0.0000
 1525,0.00001533,0.00000309,0.00000422,-0.00000070,-0.00000433,0.000003
 31,0.00000299,-0.00000287,-0.00000650,-0.00000496,0.00000409,-0.000009
 96,0.00000313,0.00003053,0.00001538,-0.00002560,-0.00000662,-0.0000446
 0,-0.00002634,-0.00000175,-0.00004217,0.00001139,0.00004428,-0.0001714
 2,0.00000025,-0.00003418,0.00023789,-0.00014313,0.00068803,-0.00017967
 ,0.00030608,-0.00018728,0.15958609,0.00000054,-0.00000158,-0.00000188,
 -0.00000798,0.00000045,0.00001472,0.00000314,0.00000977,-0.00002799,0.
 00010170,-0.00002517,0.00007196,0.00002430,0.00034382,0.00009205,0.000
 49026,-0.00027028,-0.00069044,-0.00113211,-0.00018421,0.00060822,0.004
 86082,-0.00561753,0.00190439,0.00062931,0.00067676,-0.00192716,0.10003
 021,-0.14417448,0.07488718,-0.01002800,0.00950809,-0.00830972,0.000002
 02,-0.00000026,-0.00000141,-0.00000177,0.00000018,0.,-0.00000009,0.000
 00075,0.00000156,0.00000057,0.00000092,-0.00000069,-0.00000005,-0.0000
 0093,-0.00000569,-0.00000172,-0.00000062,0.00001023,0.00001363,0.00000
 557,-0.00000224,-0.00001878,-0.00000228,0.00000372,0.00001749,0.000018
 90,-0.00002189,-0.00059445,0.00017988,-0.00042439,0.00060753,-0.000441
 52,0.00063958,-0.11097566,0.15649498,0.00001574,0.00000799,-0.00002716
 ,-0.00005946,-0.00003273,0.00006536,0.00018265,-0.00001778,-0.00009318
 ,-0.00016665,-0.00011076,0.00032101,0.00021483,0.00008980,-0.00035931,
 -0.00111926,0.00060052,-0.00042775,0.00074478,0.00022683,-0.00026727,0
 .01432142,-0.01505652,0.00969806,0.00019898,0.00038882,-0.00159158,-0.
 07000717,0.07228727,-0.09494009,-0.01914839,0.01764781,-0.01621707,0.0
 0001264,-0.00001301,-0.00000155,-0.00000115,-0.00000018,0.00000514,-0.
 00000254,-0.00000285,0.00000200,0.00000543,0.00000364,-0.00000489,0.00
 001000,-0.00000263,-0.00002049,-0.00001853,0.00002257,-0.00000138,0.00
 004619,0.00002445,-0.00000383,0.00004281,-0.00001109,-0.00003690,0.000
 12415,-0.00000646,0.00006549,-0.00067762,0.00049168,-0.00075913,0.0002
 9487,-0.00043078,0.00020847,0.07979384,-0.07750281,0.10995641,-0.00000
 928,-0.00000775,0.00001051,0.00002750,0.00001354,-0.00003186,-0.000072
 25,0.00002615,0.00001631,0.00017716,0.00000259,0.00013332,-0.00009870,
 0.00035077,0.00016232,-0.00064274,-0.00013933,-0.00042553,-0.00367120,
 0.00071834,0.00433108,-0.01383239,-0.02405252,0.00346593,0.00130829,0.
 00025575,-0.00240078,-0.11020803,-0.10420237,0.02814241,-0.00517315,-0
 .00845614,0.00188432,-0.00000535,0.00000707,0.00000005,-0.00000075,-0.
 00000062,-0.00000247,0.00000257,0.00000548,0.00000085,0.00000159,0.000
 00140,0.00000099,-0.00000382,-0.00000009,0.00000878,0.00000328,-0.0000
 0577,0.00001428,0.00003378,0.00001600,-0.00002142,-0.00005739,0.000024
 03,0.00005480,-0.00026438,-0.00000216,0.00020658,-0.00054177,0.0001405
 6,-0.00005405,0.00071426,0.00046445,0.00132222,0.01071925,0.01721061,-
 0.00418205,0.12118859,-0.00000812,-0.00000604,0.00000788,0.00002560,0.
 00000682,-0.00003247,-0.00006403,0.00001820,0.00002621,0.00015053,-0.0
 0003182,0.00000956,-0.00006375,0.00049384,0.00027245,0.00082419,-0.000
 15315,-0.00075030,0.00071019,0.00074689,0.00001080,0.00446466,0.003101
 99,-0.00353479,0.00155081,0.00086123,-0.00082528,-0.10842518,-0.224897
 54,0.04508942,-0.00665856,-0.01166148,0.00223806,-0.00000548,0.0000055
 0,0.00000134,0.00000139,-0.00000062,-0.00000126,0.00000256,0.00000428,
 -0.00000058,0.00000006,0.00000153,0.00000174,-0.00000322,0.00000010,0.
 00001236,0.00000505,-0.00000935,-0.00000067,0.00000697,-0.00000757,-0.
 00000981,-0.00004015,0.00000530,0.00003278,0.00000844,-0.00002514,0.00
 001798,-0.00024452,0.00056750,0.00016981,0.00007819,0.00053339,0.00039
 368,-0.01049620,-0.01764531,0.00462700,0.11803908,0.24661222,0.0000124
 4,0.00000815,-0.00001738,-0.00005665,-0.00001997,0.00005617,0.00013121
 ,-0.00002222,-0.00004108,-0.00031550,-0.00000155,-0.00005907,0.0000619
 2,-0.00017701,-0.00035195,0.00031312,-0.00026648,0.00135329,0.00450491
 ,-0.00042218,-0.00256478,0.00702719,0.01888944,-0.00368404,0.00000103,
 0.00000836,0.00065046,0.02742581,0.04217312,-0.05976928,-0.01549082,-0
 .02586181,0.00571599,0.00001064,-0.00001037,-0.00000287,-0.00000196,-0
 .00000099,0.00000409,-0.00000215,-0.00000367,0.00000218,0.00000319,0.0
 0000279,-0.00000417,0.00000764,0.00000008,-0.00001821,-0.00000858,0.00
 001700,-0.00000042,-0.00000244,-0.00000505,0.00001407,0.00009655,-0.00
 003532,-0.00008394,0.00015729,0.00002981,-0.00016887,0.00028106,0.0001
 4936,-0.00009879,0.00043190,-0.00096136,-0.00112093,0.00743143,0.01218
 988,-0.00347963,-0.03120370,-0.04435993,0.06671974,0.00000551,0.000002
 82,-0.00000806,-0.00003318,-0.00000453,0.00003520,0.00005898,-0.000018
 13,-0.00003732,-0.00010977,0.00003239,0.00006137,0.00011108,-0.0001359
 4,-0.00017515,-0.00020283,0.00007123,0.00029136,-0.00049826,0.00123361
 ,0.00106513,-0.00022910,0.00024025,0.00033111,-0.00011971,-0.00050148,
 -0.00015108,-0.00625656,-0.00955178,0.00087998,-0.12307166,-0.11917527
 ,0.02970699,0.00000666,-0.00000520,-0.00000274,-0.00000185,0.00000068,
 0.00000216,-0.00000153,-0.00000133,0.00000120,0.00000239,0.00000136,-0
 .00000191,0.00000367,-0.00000179,-0.00001321,-0.00000796,0.00001019,0.
 00000443,0.00001773,0.00000490,0.00000133,0.00002422,-0.00001253,-0.00
 003024,0.00002191,0.00000195,0.00000198,-0.00004882,0.00001754,0.00004
 059,0.00007630,0.00003007,-0.00000474,0.00006146,-0.00002945,0.0003881
 2,0.00000155,-0.00040534,-0.00178972,0.13176954,-0.00000792,-0.0000053
 3,0.00001052,0.00002972,0.00001290,-0.00003681,-0.00008592,0.00001868,
 0.00005036,0.00007804,0.00002034,-0.00007809,-0.00025344,0.00029785,0.
 00038403,0.00086304,0.00025326,-0.00022120,0.00021622,0.00089413,0.001
 37307,-0.00260981,-0.00143593,0.00099680,0.00048519,0.00051195,-0.0000
 2129,-0.00692072,-0.01271881,0.00117795,-0.11746004,-0.23124115,0.0481
 7502,-0.00000703,0.00000670,0.00000184,0.00000129,-0.00000113,-0.00000
 235,0.00000236,0.00000354,-0.00000055,-0.00000033,-0.00000019,0.000000
 68,-0.00000364,0.00000153,0.00001327,0.00000737,-0.00000644,0.00000093
 ,-0.00000720,0.00000118,-0.00000499,-0.00002033,0.00001333,0.00003217,
 -0.00003278,-0.00002105,0.00003145,-0.00008666,-0.00006530,0.00004665,
 0.00004870,0.00021236,0.00013815,0.00029086,0.00087204,-0.00016686,-0.
 00088209,0.00029824,-0.00269077,0.13143576,0.24961012,-0.00000888,-0.0
 0000526,0.00001468,0.00004535,0.00001510,-0.00004391,-0.00010214,0.000
 02887,0.00004290,0.00019998,0.00000129,-0.00003912,-0.00023700,0.00028
 443,0.00041145,0.00077743,0.00044514,-0.00042672,0.00013688,-0.0001537
 2,-0.00126863,-0.00090902,-0.00114030,0.00124446,0.00068523,0.00080877
 ,0.00019447,-0.01636967,-0.02552008,0.00553076,0.03137687,0.05141725,-
 0.05821777,-0.00000914,0.00000808,0.00000277,0.00000163,0.00000064,-0.
 00000408,0.00000158,0.00000218,-0.00000211,-0.00000277,-0.00000269,0.0
 0000385,-0.00000657,0.00000095,0.00001469,0.00000943,-0.00001244,-0.00
 000301,-0.00001171,-0.00000940,-0.00000690,-0.00005063,0.00001381,0.00
 004712,-0.00002943,-0.00002008,0.00000787,-0.00006471,0.00001224,0.000
 04162,-0.00016358,0.00027731,0.00041327,0.00020952,0.00060665,0.001436
 11,-0.00168631,-0.00314478,-0.00538126,-0.03092617,-0.05163096,0.06398
 293,-0.00000818,-0.00000354,0.00000926,0.00003940,0.00000914,-0.000044
 73,-0.00008490,0.00001658,0.00006449,0.00007249,0.00003143,-0.00010632
 ,-0.00012379,0.00016481,0.00026696,0.00055379,-0.00000723,-0.00014564,
 0.00017094,0.00061393,0.00116516,-0.00204624,-0.00224116,-0.00225602,0
 .00091498,-0.00002105,-0.00036166,0.00966651,-0.00351004,-0.00930434,-
 0.20947974,0.05112520,0.11919178,-0.00000836,0.00000632,0.00000409,0.0
 0000378,-0.00000065,-0.00000212,0.00000189,0.00000151,-0.00000207,-0.0
 0000275,-0.00000206,0.00000203,-0.00000452,0.00000187,0.00001763,0.000
 00537,-0.00001055,-0.00001011,-0.00001039,-0.00000316,-0.00000334,-0.0
 0001418,0.00001008,0.00002762,-0.00001718,-0.00000665,0.00000664,-0.00
 008401,-0.00026742,-0.00004991,-0.00001194,0.00006739,-0.00003364,0.00
 079705,0.00019928,0.00078575,0.00045625,0.00043745,0.00064938,-0.01243
 476,0.00570101,0.00793504,0.22587993,0.00000469,0.00000239,-0.00000639
 ,-0.00002746,-0.00000268,0.00002484,0.00004703,-0.00000605,-0.00002373
 ,-0.00011338,0.00003452,0.00004178,0.00003708,0.00001155,0.00001437,0.
 00004711,0.00011603,0.00025984,0.00018680,0.00071427,0.00061020,-0.003
 31356,-0.00116126,-0.00151366,0.00083837,0.00002358,-0.00053819,0.0113
 7397,-0.00466515,-0.00909605,0.05078845,-0.06332445,-0.03601800,0.0000
 0488,-0.00000375,-0.00000206,-0.00000179,-0.00000002,0.00000172,-0.000
 00115,-0.00000057,0.00000131,0.00000315,0.00000133,-0.00000261,0.00000
 380,-0.00000076,-0.00000968,-0.00000746,0.00001067,0.00000759,0.000020
 94,0.00000985,-0.00000523,0.00002489,-0.00000539,-0.00001871,0.0000130
 1,0.00001400,-0.00000868,-0.00005275,-0.00026760,0.00003774,0.00006584
 ,0.00011858,-0.00005997,-0.00033159,0.00063290,0.00056637,0.00035979,0
 .00005424,0.00052046,-0.02048057,0.00884635,0.01526055,-0.05535861,0.0
 6423440,0.00001236,0.00000656,-0.00002231,-0.00006911,-0.00001755,0.00
 006936,0.00015144,-0.00003258,-0.00006640,-0.00025492,0.00004278,0.000
 15032,0.00035825,-0.00014231,-0.00030813,-0.00063780,0.00000679,0.0004
 2733,0.00087698,-0.00002406,-0.00009740,-0.00425302,-0.00258864,-0.002
 96603,0.00172731,-0.00033053,-0.00129841,0.02248189,-0.00581766,-0.017
 11625,0.11685121,-0.03602523,-0.13238645,0.00001412,-0.00001182,-0.000
 00411,-0.00000230,-0.00000024,0.00000583,-0.00000267,-0.00000215,0.000
 00299,0.00000652,0.00000403,-0.00000618,0.00000919,-0.00000266,-0.0000
 2329,-0.00002234,0.00002458,0.00000610,0.00005108,0.00002469,-0.000005
 95,0.00005080,-0.00001992,-0.00005026,0.00008796,0.00006642,-0.0000519
 7,-0.00026434,-0.00048359,0.00004630,0.00003337,0.00015633,-0.00004915
 ,0.00036680,0.00088642,0.00097893,-0.00015748,-0.00013021,0.00101192,0
 .00436245,-0.00171434,-0.00426034,-0.12848309,0.04259951,0.14566124,0.
 00000548,0.00000395,-0.00000828,-0.00002526,-0.00000747,0.00002379,0.0
 0006478,-0.00001521,-0.00002801,-0.00006213,-0.00000446,0.00008666,0.0
 0009582,-0.00005585,-0.00013616,-0.00024858,0.00014112,0.00003762,0.00
 042205,0.00027619,-0.00027154,-0.00004577,-0.00040998,0.00094201,0.000
 23342,-0.00015531,-0.00017181,-0.00657739,0.00583878,-0.00564580,-0.13
 735988,0.09796274,-0.07765107,0.00000495,-0.00000494,-0.00000127,-0.00
 000038,0.00000068,0.00000251,-0.00000173,-0.00000215,0.00000007,0.0000
 0136,0.00000035,-0.00000129,0.00000401,-0.00000126,-0.00000771,-0.0000
 0778,0.00000786,-0.00000295,0.00001456,0.00000446,-0.00000025,0.000010
 05,-0.00000750,-0.00001099,0.00002579,0.00001385,-0.00001173,-0.000066
 74,-0.00002425,-0.00000386,-0.00003512,0.00007428,-0.00005161,0.000429
 30,-0.00140133,-0.00179937,-0.00005284,0.00010939,0.00032482,0.0108549
 8,-0.01078165,0.00919880,-0.01423142,0.01586851,-0.01329465,0.14654848
 ,0.00000067,-0.00000009,0.00000477,0.00000519,0.00000265,0.00000147,-0
 .00001308,0.00000612,-0.00001398,0.00003183,-0.00001792,0.00001480,-0.
 00007198,-0.00000209,0.00003707,0.00006300,0.00010209,0.00003318,-0.00
 062331,0.00016138,-0.00021641,0.00007854,0.00108954,0.00039818,-0.0001
 5409,-0.00027353,0.00035228,-0.01001625,0.00994145,-0.00894411,0.09886
 851,-0.15409808,0.08562175,-0.00000084,0.00000096,-0.00000066,-0.00000
 140,0.00000111,-0.00000188,-0.00000061,-0.00000047,-0.00000057,-0.0000
 0072,-0.00000105,0.00000185,-0.00000194,-0.00000016,-0.00000277,0.0000
 0390,-0.00000052,0.00000277,-0.00000593,-0.00000464,0.00000325,-0.0000
 0976,-0.00000031,0.,-0.00000817,-0.00001321,-0.00000041,0.00004074,0.0
 0003395,0.00000967,-0.00002415,-0.00002785,-0.00005418,-0.00112928,-0.
 00038082,-0.00363028,0.00011322,0.00112678,0.00085022,0.01724058,-0.01
 637917,0.01245647,0.00304612,-0.00538697,0.00352540,-0.10743082,0.1641
 2086,-0.00000210,0.00000076,-0.00000252,0.00000808,-0.00000240,-0.0000
 1555,-0.00000423,-0.00000841,0.00004225,-0.00001065,0.00003528,-0.0000
 4220,0.00006015,0.00004484,0.00002326,0.00012218,-0.00003656,-0.000122
 82,0.00106840,-0.00000255,0.00046058,-0.00246564,0.00088452,0.00123384
 ,0.00048837,-0.00045409,-0.00011761,-0.01605720,0.01756450,-0.01626005
 ,-0.07687710,0.08389725,-0.11384353,-0.00000171,0.,0.00000277,0.000004
 14,-0.00000064,0.00000146,0.00000030,-0.00000071,-0.00000156,-0.000001
 42,-0.00000102,-0.00000003,0.00000023,0.00000065,0.00001022,-0.0000047
 8,-0.00000192,-0.00001867,0.00000303,0.00000120,-0.00000198,0.00000251
 ,0.00000054,0.00001413,0.00002357,0.00000892,-0.00001264,-0.00014856,-
 0.00000535,0.00002192,-0.00009601,0.00015231,-0.00002880,-0.00164855,-
 0.00300025,-0.00450576,0.00041088,-0.00012099,0.00131877,-0.00403308,0
 .00413532,-0.00373510,0.01067716,-0.01264331,0.01035230,0.08848204,-0.
 09044788,0.12522732\\-0.00000233,-0.00000156,-0.00000028,-0.00004331,-
 0.00000278,0.00003685,-0.00000098,0.00002600,-0.00010435,-0.00000822,-
 0.00004442,0.00003723,0.00001886,0.00005724,0.00007201,-0.00004605,-0.
 00007227,-0.00011660,-0.00003041,0.00006579,-0.00008191,0.00000522,-0.
 00007983,0.00005818,-0.00001742,-0.00000978,0.00005483,0.00003205,-0.0
 0001833,-0.00000608,-0.00000620,-0.00003010,0.00001401,-0.00000587,0.0
 0000396,0.00000060,0.00000439,-0.00000103,-0.00000295,-0.00000192,-0.0
 0000321,0.00000046,0.00001483,0.00000015,0.00000021,0.00000499,0.00000
 459,-0.00001732,0.00000188,-0.00000102,0.00006406,-0.00000284,0.000008
 84,0.00001479,0.00001791,0.00003129,-0.00001735,0.00003844,-0.00001611
 ,0.00004018,0.00004384,0.00000690,-0.00000645,-0.00001368,0.00002391,0
 .00000347,0.00000894,0.00002949,-0.00000283,-0.00001894,0.00001058,-0.
 00002122,-0.00000810,0.00000782,0.00000275,-0.00000129,0.00000009,-0.0
 0000705,0.00001621,0.00000380,-0.00001523\\\@


 IT'S WHAT YOU LEARN AFTER YOU KNOW IT ALL
 THAT COUNTS.
 Job cpu time:       0 days  4 hours 35 minutes  8.6 seconds.
 Elapsed time:       0 days  1 hours  8 minutes 50.6 seconds.
 File lengths (MBytes):  RWF=    298 Int=      0 D2E=      0 Chk=     13 Scr=      1
 Normal termination of Gaussian 16 at Mon May 31 23:24:19 2021.
### All Done ###
