### Starting Gaussian ###
 Entering Gaussian System, Link 0=g16
 Initial command:
 /cluster/software/gaussian/gaussian-16-A.03/avx2/g16/l1.exe "/local/scratch/linjian/Gau-32574.inp" -scrdir="/local/scratch/linjian/"
 Entering Link 1 = /cluster/software/gaussian/gaussian-16-A.03/avx2/g16/l1.exe PID=     32575.
  
 Copyright (c) 1988,1990,1992,1993,1995,1998,2003,2009,2016,
            Gaussian, Inc.  All Rights Reserved.
  
 This is part of the Gaussian(R) 16 program.  It is based on
 the Gaussian(R) 09 system (copyright 2009, Gaussian, Inc.),
 the Gaussian(R) 03 system (copyright 2003, Gaussian, Inc.),
 the Gaussian(R) 98 system (copyright 1998, Gaussian, Inc.),
 the Gaussian(R) 94 system (copyright 1995, Gaussian, Inc.),
 the Gaussian 92(TM) system (copyright 1992, Gaussian, Inc.),
 the Gaussian 90(TM) system (copyright 1990, Gaussian, Inc.),
 the Gaussian 88(TM) system (copyright 1988, Gaussian, Inc.),
 the Gaussian 86(TM) system (copyright 1986, Carnegie Mellon
 University), and the Gaussian 82(TM) system (copyright 1983,
 Carnegie Mellon University). Gaussian is a federally registered
 trademark of Gaussian, Inc.
  
 This software contains proprietary and confidential information,
 including trade secrets, belonging to Gaussian, Inc.
  
 This software is provided under written license and may be
 used, copied, transmitted, or stored only in accord with that
 written license.
  
 The following legend is applicable only to US Government
 contracts under FAR:
  
                    RESTRICTED RIGHTS LEGEND
  
 Use, reproduction and disclosure by the US Government is
 subject to restrictions as set forth in subparagraphs (a)
 and (c) of the Commercial Computer Software - Restricted
 Rights clause in FAR 52.227-19.
  
 Gaussian, Inc.
 340 Quinnipiac St., Bldg. 40, Wallingford CT 06492
  
  
 ---------------------------------------------------------------
 Warning -- This program may not be used in any manner that
 competes with the business of Gaussian, Inc. or will provide
 assistance to any competitor of Gaussian, Inc.  The licensee
 of this program is prohibited from giving any competitor of
 Gaussian, Inc. access to this program.  By using this program,
 the user acknowledges that Gaussian, Inc. is engaged in the
 business of creating and licensing software in the field of
 computational chemistry and represents and warrants to the
 licensee that it is not a competitor of Gaussian, Inc. and that
 it will not use this program in any manner prohibited above.
 ---------------------------------------------------------------
  

 Cite this work as:
 Gaussian 16, Revision A.03,
 M. J. Frisch, G. W. Trucks, H. B. Schlegel, G. E. Scuseria, 
 M. A. Robb, J. R. Cheeseman, G. Scalmani, V. Barone, 
 G. A. Petersson, H. Nakatsuji, X. Li, M. Caricato, A. V. Marenich, 
 J. Bloino, B. G. Janesko, R. Gomperts, B. Mennucci, H. P. Hratchian, 
 J. V. Ortiz, A. F. Izmaylov, J. L. Sonnenberg, D. Williams-Young, 
 F. Ding, F. Lipparini, F. Egidi, J. Goings, B. Peng, A. Petrone, 
 T. Henderson, D. Ranasinghe, V. G. Zakrzewski, J. Gao, N. Rega, 
 G. Zheng, W. Liang, M. Hada, M. Ehara, K. Toyota, R. Fukuda, 
 J. Hasegawa, M. Ishida, T. Nakajima, Y. Honda, O. Kitao, H. Nakai, 
 T. Vreven, K. Throssell, J. A. Montgomery, Jr., J. E. Peralta, 
 F. Ogliaro, M. J. Bearpark, J. J. Heyd, E. N. Brothers, K. N. Kudin, 
 V. N. Staroverov, T. A. Keith, R. Kobayashi, J. Normand, 
 K. Raghavachari, A. P. Rendell, J. C. Burant, S. S. Iyengar, 
 J. Tomasi, M. Cossi, J. M. Millam, M. Klene, C. Adamo, R. Cammi, 
 J. W. Ochterski, R. L. Martin, K. Morokuma, O. Farkas, 
 J. B. Foresman, and D. J. Fox, Gaussian, Inc., Wallingford CT, 2016.
 
 ******************************************
 Gaussian 16:  ES64L-G16RevA.03 25-Dec-2016
                 1-Jun-2021 
 ******************************************
 %chk=CCNCCpNpCdNN.chk
 %NProcShared=20
 Will use up to   20 processors via shared memory.
 -----------------------------
 # opt freq b3lyp/6-31g(2df,p)
 -----------------------------
 1/18=20,19=15,26=3,38=1/1,3;
 2/9=110,12=2,17=6,18=5,40=1/2;
 3/5=1,6=6,7=104,11=2,25=1,30=1,71=1,74=-5/1,2,3;
 4//1;
 5/5=2,38=5/2;
 6/7=2,8=2,9=2,10=2,28=1/1;
 7//1,2,3,16;
 1/18=20,19=15,26=3/3(2);
 2/9=110/2;
 99//99;
 2/9=110/2;
 3/5=1,6=6,7=104,11=2,25=1,30=1,71=1,74=-5/1,2,3;
 4/5=5,16=3,69=1/1;
 5/5=2,38=5/2;
 7//1,2,3,16;
 1/18=20,19=15,26=3/3(-5);
 2/9=110/2;
 6/7=2,8=2,9=2,10=2,19=2,28=1/1;
 99/9=1/99;
 -------------------
 Title Card Required
 -------------------
 Symbolic Z-matrix:
 Charge =  0 Multiplicity = 1
 C                     0.91274   0.00328  -0.0499 
 C                     2.43355   0.0121   -0.05985 
 N                     2.93048  -0.79805   1.0483 
 C                     4.40144  -0.81365   1.08876 
 C                     4.92536  -1.69583   2.2469 
 N                     4.43375  -3.0825    2.1263 
 C                     6.45087  -1.69606   2.27833 
 N                     7.10376  -2.3336    3.2117 
 N                     8.43011  -2.16189   3.217 
 H                     0.52771   0.60425  -0.87949 
 H                     0.52075   0.42287   0.88299 
 H                     0.51979  -1.01357  -0.15908 
 H                     2.78711   1.04453   0.03378 
 H                     2.78962  -0.39013  -1.01489 
 H                     2.57741  -1.74777   0.94908 
 H                     4.78187   0.20833   1.20799 
 H                     4.79083  -1.19688   0.1363 
 H                     4.58147  -1.28206   3.20363 
 H                     4.70966  -3.4683    1.22758 
 H                     3.41849  -3.07135   2.16278 
 H                     6.97155  -1.1132    1.50134 
 H                     8.94094  -2.83369   3.79037 
 H                     8.92242  -1.85315   2.38508 
 

 GradGradGradGradGradGradGradGradGradGradGradGradGradGradGradGradGradGrad
 Berny optimization.
 Initialization pass.
                           ----------------------------
                           !    Initial Parameters    !
                           ! (Angstroms and Degrees)  !
 --------------------------                            --------------------------
 ! Name  Definition              Value          Derivative Info.                !
 --------------------------------------------------------------------------------
 ! R1    R(1,2)                  1.5209         estimate D2E/DX2                !
 ! R2    R(1,10)                 1.0944         estimate D2E/DX2                !
 ! R3    R(1,11)                 1.0954         estimate D2E/DX2                !
 ! R4    R(1,12)                 1.0956         estimate D2E/DX2                !
 ! R5    R(2,3)                  1.4599         estimate D2E/DX2                !
 ! R6    R(2,13)                 1.0953         estimate D2E/DX2                !
 ! R7    R(2,14)                 1.0958         estimate D2E/DX2                !
 ! R8    R(3,4)                  1.4716         estimate D2E/DX2                !
 ! R9    R(3,15)                 1.0181         estimate D2E/DX2                !
 ! R10   R(4,5)                  1.5473         estimate D2E/DX2                !
 ! R11   R(4,16)                 1.097          estimate D2E/DX2                !
 ! R12   R(4,17)                 1.098          estimate D2E/DX2                !
 ! R13   R(5,6)                  1.4762         estimate D2E/DX2                !
 ! R14   R(5,7)                  1.5258         estimate D2E/DX2                !
 ! R15   R(5,18)                 1.0976         estimate D2E/DX2                !
 ! R16   R(6,19)                 1.0162         estimate D2E/DX2                !
 ! R17   R(6,20)                 1.016          estimate D2E/DX2                !
 ! R18   R(7,8)                  1.3053         estimate D2E/DX2                !
 ! R19   R(7,21)                 1.1021         estimate D2E/DX2                !
 ! R20   R(8,9)                  1.3374         estimate D2E/DX2                !
 ! R21   R(9,22)                 1.0203         estimate D2E/DX2                !
 ! R22   R(9,23)                 1.0148         estimate D2E/DX2                !
 ! A1    A(2,1,10)             110.1008         estimate D2E/DX2                !
 ! A2    A(2,1,11)             111.1723         estimate D2E/DX2                !
 ! A3    A(2,1,12)             111.3081         estimate D2E/DX2                !
 ! A4    A(10,1,11)            108.0188         estimate D2E/DX2                !
 ! A5    A(10,1,12)            107.9358         estimate D2E/DX2                !
 ! A6    A(11,1,12)            108.1814         estimate D2E/DX2                !
 ! A7    A(1,2,3)              109.4018         estimate D2E/DX2                !
 ! A8    A(1,2,13)             109.1288         estimate D2E/DX2                !
 ! A9    A(1,2,14)             109.1787         estimate D2E/DX2                !
 ! A10   A(3,2,13)             110.3847         estimate D2E/DX2                !
 ! A11   A(3,2,14)             110.3204         estimate D2E/DX2                !
 ! A12   A(13,2,14)            108.3983         estimate D2E/DX2                !
 ! A13   A(2,3,4)              111.5303         estimate D2E/DX2                !
 ! A14   A(2,3,15)             109.0053         estimate D2E/DX2                !
 ! A15   A(4,3,15)             109.8429         estimate D2E/DX2                !
 ! A16   A(3,4,5)              111.413          estimate D2E/DX2                !
 ! A17   A(3,4,16)             109.862          estimate D2E/DX2                !
 ! A18   A(3,4,17)             109.5314         estimate D2E/DX2                !
 ! A19   A(5,4,16)             109.4137         estimate D2E/DX2                !
 ! A20   A(5,4,17)             109.2811         estimate D2E/DX2                !
 ! A21   A(16,4,17)            107.2444         estimate D2E/DX2                !
 ! A22   A(4,5,6)              111.2026         estimate D2E/DX2                !
 ! A23   A(4,5,7)              110.7348         estimate D2E/DX2                !
 ! A24   A(4,5,18)             109.3542         estimate D2E/DX2                !
 ! A25   A(6,5,7)              109.5422         estimate D2E/DX2                !
 ! A26   A(6,5,18)             108.7223         estimate D2E/DX2                !
 ! A27   A(7,5,18)             107.1778         estimate D2E/DX2                !
 ! A28   A(5,6,19)             109.7832         estimate D2E/DX2                !
 ! A29   A(5,6,20)             108.6359         estimate D2E/DX2                !
 ! A30   A(19,6,20)            107.8931         estimate D2E/DX2                !
 ! A31   A(5,7,8)              120.9885         estimate D2E/DX2                !
 ! A32   A(5,7,21)             117.2424         estimate D2E/DX2                !
 ! A33   A(8,7,21)             121.7442         estimate D2E/DX2                !
 ! A34   A(7,8,9)              115.8588         estimate D2E/DX2                !
 ! A35   A(8,9,22)             114.4696         estimate D2E/DX2                !
 ! A36   A(8,9,23)             121.1267         estimate D2E/DX2                !
 ! A37   A(22,9,23)            114.7165         estimate D2E/DX2                !
 ! D1    D(10,1,2,3)          -179.7518         estimate D2E/DX2                !
 ! D2    D(10,1,2,13)           59.3823         estimate D2E/DX2                !
 ! D3    D(10,1,2,14)          -58.9339         estimate D2E/DX2                !
 ! D4    D(11,1,2,3)            60.5798         estimate D2E/DX2                !
 ! D5    D(11,1,2,13)          -60.2861         estimate D2E/DX2                !
 ! D6    D(11,1,2,14)         -178.6023         estimate D2E/DX2                !
 ! D7    D(12,1,2,3)           -60.0999         estimate D2E/DX2                !
 ! D8    D(12,1,2,13)          179.0342         estimate D2E/DX2                !
 ! D9    D(12,1,2,14)           60.718          estimate D2E/DX2                !
 ! D10   D(1,2,3,4)           -179.5775         estimate D2E/DX2                !
 ! D11   D(1,2,3,15)            58.9676         estimate D2E/DX2                !
 ! D12   D(13,2,3,4)           -59.4779         estimate D2E/DX2                !
 ! D13   D(13,2,3,15)          179.0671         estimate D2E/DX2                !
 ! D14   D(14,2,3,4)            60.3013         estimate D2E/DX2                !
 ! D15   D(14,2,3,15)          -61.1536         estimate D2E/DX2                !
 ! D16   D(2,3,4,5)           -178.8615         estimate D2E/DX2                !
 ! D17   D(2,3,4,16)            59.7204         estimate D2E/DX2                !
 ! D18   D(2,3,4,17)           -57.8338         estimate D2E/DX2                !
 ! D19   D(15,3,4,5)           -57.894          estimate D2E/DX2                !
 ! D20   D(15,3,4,16)         -179.3121         estimate D2E/DX2                !
 ! D21   D(15,3,4,17)           63.1336         estimate D2E/DX2                !
 ! D22   D(3,4,5,6)             58.2123         estimate D2E/DX2                !
 ! D23   D(3,4,5,7)           -179.749          estimate D2E/DX2                !
 ! D24   D(3,4,5,18)           -61.8652         estimate D2E/DX2                !
 ! D25   D(16,4,5,6)           179.8909         estimate D2E/DX2                !
 ! D26   D(16,4,5,7)           -58.0704         estimate D2E/DX2                !
 ! D27   D(16,4,5,18)           59.8134         estimate D2E/DX2                !
 ! D28   D(17,4,5,6)           -62.9615         estimate D2E/DX2                !
 ! D29   D(17,4,5,7)            59.0772         estimate D2E/DX2                !
 ! D30   D(17,4,5,18)          176.9609         estimate D2E/DX2                !
 ! D31   D(4,5,6,19)            57.141          estimate D2E/DX2                !
 ! D32   D(4,5,6,20)           -60.6262         estimate D2E/DX2                !
 ! D33   D(7,5,6,19)           -65.5873         estimate D2E/DX2                !
 ! D34   D(7,5,6,20)           176.6455         estimate D2E/DX2                !
 ! D35   D(18,5,6,19)          177.5922         estimate D2E/DX2                !
 ! D36   D(18,5,6,20)           59.825          estimate D2E/DX2                !
 ! D37   D(4,5,7,8)            177.1654         estimate D2E/DX2                !
 ! D38   D(4,5,7,21)            -1.0511         estimate D2E/DX2                !
 ! D39   D(6,5,7,8)            -59.8288         estimate D2E/DX2                !
 ! D40   D(6,5,7,21)           121.9547         estimate D2E/DX2                !
 ! D41   D(18,5,7,8)            57.9609         estimate D2E/DX2                !
 ! D42   D(18,5,7,21)         -120.2556         estimate D2E/DX2                !
 ! D43   D(5,7,8,9)           -173.859          estimate D2E/DX2                !
 ! D44   D(21,7,8,9)             4.2764         estimate D2E/DX2                !
 ! D45   D(7,8,9,22)          -165.5593         estimate D2E/DX2                !
 ! D46   D(7,8,9,23)           -21.3196         estimate D2E/DX2                !
 ! D47   D(8,9,22,23)          146.5843         estimate D2E/DX2                !
 --------------------------------------------------------------------------------
 Trust Radius=3.00D-01 FncErr=1.00D-07 GrdErr=1.00D-06 EigMax=2.50D+02 EigMin=1.00D-04
 Number of steps in this run=    116 maximum allowed number of steps=    138.
 GradGradGradGradGradGradGradGradGradGradGradGradGradGradGradGradGradGrad

                          Input orientation:                          
 ---------------------------------------------------------------------
 Center     Atomic      Atomic             Coordinates (Angstroms)
 Number     Number       Type             X           Y           Z
 ---------------------------------------------------------------------
      1          6           0        0.912740    0.003280   -0.049900
      2          6           0        2.433550    0.012100   -0.059850
      3          7           0        2.930480   -0.798050    1.048300
      4          6           0        4.401440   -0.813650    1.088760
      5          6           0        4.925360   -1.695830    2.246900
      6          7           0        4.433750   -3.082500    2.126300
      7          6           0        6.450870   -1.696060    2.278330
      8          7           0        7.103760   -2.333600    3.211700
      9          7           0        8.430110   -2.161890    3.217000
     10          1           0        0.527710    0.604250   -0.879490
     11          1           0        0.520750    0.422870    0.882990
     12          1           0        0.519790   -1.013570   -0.159080
     13          1           0        2.787110    1.044530    0.033780
     14          1           0        2.789620   -0.390130   -1.014890
     15          1           0        2.577410   -1.747770    0.949080
     16          1           0        4.781870    0.208330    1.207990
     17          1           0        4.790830   -1.196880    0.136300
     18          1           0        4.581470   -1.282060    3.203630
     19          1           0        4.709660   -3.468300    1.227580
     20          1           0        3.418490   -3.071350    2.162780
     21          1           0        6.971550   -1.113200    1.501340
     22          1           0        8.940940   -2.833690    3.790370
     23          1           0        8.922420   -1.853150    2.385080
 ---------------------------------------------------------------------
                    Distance matrix (angstroms):
                    1          2          3          4          5
     1  C    0.000000
     2  C    1.520868   0.000000
     3  N    2.432992   1.459890   0.000000
     4  C    3.759647   2.423584   1.471599   0.000000
     5  C    4.925788   3.800952   2.494433   1.547263   0.000000
     6  N    5.162886   4.284460   2.939493   2.495038   1.476170
     7  C    6.243340   4.952147   3.835693   2.528614   1.525834
     8  N    7.377518   6.165729   4.945147   3.757613   2.466377
     9  N    8.477703   7.170963   6.067063   4.751562   3.666276
    10  H    1.094364   2.157470   3.384690   4.570583   5.865493
    11  H    1.095443   2.171747   2.706432   4.078122   5.074419
    12  H    1.095588   2.173551   2.704744   4.082191   5.065892
    13  H    2.145802   1.095300   2.108295   2.678036   4.120629
    14  H    2.146778   1.095754   2.107841   2.683780   4.111631
    15  H    2.614434   2.033661   1.018072   2.054063   2.683264
    16  H    4.073635   2.675917   2.113279   1.096989   2.173879
    17  H    4.063820   2.656478   2.109908   1.098030   2.172943
    18  H    5.069234   4.115667   2.757804   2.173590   1.097633
    19  H    5.300983   4.353313   3.213698   2.676086   2.056013
    20  H    4.541815   3.926558   2.578393   2.686432   2.042006
    21  H    6.353114   4.929205   4.078580   2.620194   2.254376
    22  H    9.340667   8.078913   6.912916   5.655645   4.449933
    23  H    8.574989   7.180688   6.229250   4.816665   4.002541
                    6          7          8          9         10
     6  N    0.000000
     7  C    2.452367   0.000000
     8  N    2.977902   1.305336   0.000000
     9  N    4.243588   2.239529   1.337429   0.000000
    10  H    6.155002   7.095567   8.283310   9.320981   0.000000
    11  H    5.398612   6.450051   7.507132   8.642139   1.771802
    12  H    4.982220   6.448602   7.513541   8.676965   1.770987
    13  H    4.911460   5.096271   6.335961   7.228933   2.476448
    14  H    4.451864   5.094654   6.344521   7.270705   2.474543
    15  H    2.571643   4.095519   5.094162   6.290394   3.616205
    16  H    3.434246   2.749162   3.983395   4.792047   4.755229
    17  H    2.764628   2.755577   4.012463   4.864804   4.738153
    18  H    2.103341   2.126554   2.732718   3.947950   6.054998
    19  H    1.016202   2.697540   3.309984   4.416588   6.205974
    20  H    1.015976   3.331682   3.902015   5.201426   5.578714
    21  H    3.272483   1.102065   2.105276   2.484077   7.081035
    22  H    4.811008   3.127446   1.990020   1.020302  10.218095
    23  H    4.661162   2.478837   2.054667   1.014781   9.336348
                   11         12         13         14         15
    11  H    0.000000
    12  H    1.774618   0.000000
    13  H    2.498801   3.068177   0.000000
    14  H    3.067685   2.504639   1.777066   0.000000
    15  H    2.990969   2.449667   2.945961   2.396956   0.000000
    16  H    4.278878   4.639746   2.461111   3.044406   2.958548
    17  H    4.627604   4.285164   3.008209   2.445593   2.421429
    18  H    4.978112   5.279882   4.322117   4.669280   3.052235
    19  H    5.727732   5.050103   5.048464   4.265015   2.753956
    20  H    4.716390   4.245934   4.676724   4.204998   1.983015
    21  H    6.659932   6.662742   4.931437   4.933841   4.473940
    22  H    9.484600   9.477698   8.186708   8.179257   7.053132
    23  H    8.833153   8.819401   7.181030   7.163202   6.506332
                   16         17         18         19         20
    16  H    0.000000
    17  H    1.767262   0.000000
    18  H    2.498800   3.075646   0.000000
    19  H    3.677391   2.521275   2.949721   0.000000
    20  H    3.677870   3.082787   2.374331   1.642951   0.000000
    21  H    2.574334   2.574078   2.939181   3.276826   4.110485
    22  H    5.763717   5.766696   4.664418   4.987419   5.762203
    23  H    4.772776   4.749499   4.454213   4.657882   5.641513
                   21         22         23
    21  H    0.000000
    22  H    3.475376   0.000000
    23  H    2.265925   1.713663   0.000000
 Stoichiometry    C5H14N4
 Framework group  C1[X(C5H14N4)]
 Deg. of freedom    63
 Full point group                 C1      NOp   1
 Largest Abelian subgroup         C1      NOp   1
 Largest concise Abelian subgroup C1      NOp   1
                         Standard orientation:                         
 ---------------------------------------------------------------------
 Center     Atomic      Atomic             Coordinates (Angstroms)
 Number     Number       Type             X           Y           Z
 ---------------------------------------------------------------------
      1          6           0       -4.277008    0.006959   -0.182274
      2          6           0       -2.987430   -0.693825    0.216385
      3          7           0       -1.846263    0.101418   -0.227018
      4          6           0       -0.570341   -0.540685    0.127003
      5          6           0        0.637048    0.317990   -0.318991
      6          7           0        0.590613    1.661754    0.290288
      7          6           0        1.950948   -0.364516    0.049823
      8          7           0        3.098198    0.161489   -0.283401
      9          7           0        4.178682   -0.582326   -0.022613
     10          1           0       -5.140721   -0.577855    0.148824
     11          1           0       -4.343812    0.124248   -1.269369
     12          1           0       -4.347520    1.000632    0.273747
     13          1           0       -2.961853   -1.687460   -0.243743
     14          1           0       -2.965946   -0.816188    1.305073
     15          1           0       -1.899070    1.024019    0.200170
     16          1           0       -0.507808   -1.529838   -0.343159
     17          1           0       -0.525165   -0.693239    1.213445
     18          1           0        0.623138    0.425712   -1.411236
     19          1           0        0.562622    1.579550    1.302773
     20          1           0       -0.262836    2.124621   -0.009022
     21          1           0        1.887195   -1.328987    0.579236
     22          1           0        5.062633   -0.075049   -0.070744
     23          1           0        4.151229   -1.322051    0.671529
 ---------------------------------------------------------------------
 Rotational constants (GHZ):           5.5764356           0.5259268           0.4947424
 Standard basis: 6-31G(2df,p) (6D, 7F)
 There are   349 symmetry adapted cartesian basis functions of A   symmetry.
 There are   322 symmetry adapted basis functions of A   symmetry.
   322 basis functions,   494 primitive gaussians,   349 cartesian basis functions
    36 alpha electrons       36 beta electrons
       nuclear repulsion energy       455.2234635049 Hartrees.
 NAtoms=   23 NActive=   23 NUniq=   23 SFac= 1.00D+00 NAtFMM=   60 NAOKFM=F Big=F
 Integral buffers will be    131072 words long.
 Raffenetti 2 integral format.
 Two-electron integral symmetry is turned on.
 One-electron integrals computed using PRISM.
 PrsmSu:  requested number of processors reduced to:  13 ShMem   1 Linda.
 NBasis=   322 RedAO= T EigKep=  3.01D-04  NBF=   322
 NBsUse=   322 1.00D-06 EigRej= -1.00D+00 NBFU=   322
 ExpMin= 1.61D-01 ExpMax= 4.17D+03 ExpMxC= 6.27D+02 IAcc=3 IRadAn=         5 AccDes= 0.00D+00
 Harris functional with IExCor=  402 and IRadAn=       5 diagonalized for initial guess.
 HarFok:  IExCor=  402 AccDes= 0.00D+00 IRadAn=         5 IDoV= 1 UseB2=F ITyADJ=14
 ICtDFT=  3500011 ScaDFX=  1.000000  1.000000  1.000000  1.000000
 FoFCou: FMM=F IPFlag=           0 FMFlag=      100000 FMFlg1=           0
         NFxFlg=           0 DoJE=T BraDBF=F KetDBF=T FulRan=T
         wScrn=  0.000000 ICntrl=       500 IOpCl=  0 I1Cent=   200000004 NGrid=           0
         NMat0=    1 NMatS0=      1 NMatT0=    0 NMatD0=    1 NMtDS0=    0 NMtDT0=    0
 Petite list used in FoFCou.
 Requested convergence on RMS density matrix=1.00D-08 within 128 cycles.
 Requested convergence on MAX density matrix=1.00D-06.
 Requested convergence on             energy=1.00D-06.
 No special actions if energy rises.
 Integral accuracy reduced to 1.0D-05 until final iterations.
 Initial convergence to 1.0D-05 achieved.  Increase integral accuracy.
 SCF Done:  E(RB3LYP) =  -417.929076046     A.U. after   13 cycles
            NFock= 13  Conv=0.43D-08     -V/T= 2.0081

 **********************************************************************

            Population analysis using the SCF density.

 **********************************************************************

 Orbital symmetries:
       Occupied  (A) (A) (A) (A) (A) (A) (A) (A) (A) (A) (A) (A)
                 (A) (A) (A) (A) (A) (A) (A) (A) (A) (A) (A) (A)
                 (A) (A) (A) (A) (A) (A) (A) (A) (A) (A) (A) (A)
       Virtual   (A) (A) (A) (A) (A) (A) (A) (A) (A) (A) (A) (A)
                 (A) (A) (A) (A) (A) (A) (A) (A) (A) (A) (A) (A)
                 (A) (A) (A) (A) (A) (A) (A) (A) (A) (A) (A) (A)
                 (A) (A) (A) (A) (A) (A) (A) (A) (A) (A) (A) (A)
                 (A) (A) (A) (A) (A) (A) (A) (A) (A) (A) (A) (A)
                 (A) (A) (A) (A) (A) (A) (A) (A) (A) (A) (A) (A)
                 (A) (A) (A) (A) (A) (A) (A) (A) (A) (A) (A) (A)
                 (A) (A) (A) (A) (A) (A) (A) (A) (A) (A) (A) (A)
                 (A) (A) (A) (A) (A) (A) (A) (A) (A) (A) (A) (A)
                 (A) (A) (A) (A) (A) (A) (A) (A) (A) (A) (A) (A)
                 (A) (A) (A) (A) (A) (A) (A) (A) (A) (A) (A) (A)
                 (A) (A) (A) (A) (A) (A) (A) (A) (A) (A) (A) (A)
                 (A) (A) (A) (A) (A) (A) (A) (A) (A) (A) (A) (A)
                 (A) (A) (A) (A) (A) (A) (A) (A) (A) (A) (A) (A)
                 (A) (A) (A) (A) (A) (A) (A) (A) (A) (A) (A) (A)
                 (A) (A) (A) (A) (A) (A) (A) (A) (A) (A) (A) (A)
                 (A) (A) (A) (A) (A) (A) (A) (A) (A) (A) (A) (A)
                 (A) (A) (A) (A) (A) (A) (A) (A) (A) (A) (A) (A)
                 (A) (A) (A) (A) (A) (A) (A) (A) (A) (A) (A) (A)
                 (A) (A) (A) (A) (A) (A) (A) (A) (A) (A) (A) (A)
                 (A) (A) (A) (A) (A) (A) (A) (A) (A) (A) (A) (A)
                 (A) (A) (A) (A) (A) (A) (A) (A) (A) (A) (A) (A)
                 (A) (A) (A) (A) (A) (A) (A) (A) (A) (A) (A) (A)
                 (A) (A) (A) (A) (A) (A) (A) (A) (A) (A)
 The electronic state is 1-A.
 Alpha  occ. eigenvalues --  -14.35436 -14.35351 -14.30798 -14.30153 -10.20816
 Alpha  occ. eigenvalues --  -10.20118 -10.19852 -10.19629 -10.17154  -0.98861
 Alpha  occ. eigenvalues --   -0.90547  -0.86710  -0.78614  -0.74596  -0.69626
 Alpha  occ. eigenvalues --   -0.61844  -0.60133  -0.57144  -0.51561  -0.50255
 Alpha  occ. eigenvalues --   -0.48021  -0.47300  -0.44680  -0.43176  -0.42848
 Alpha  occ. eigenvalues --   -0.39658  -0.38249  -0.36869  -0.35738  -0.35392
 Alpha  occ. eigenvalues --   -0.33988  -0.33853  -0.26906  -0.23293  -0.21679
 Alpha  occ. eigenvalues --   -0.20657
 Alpha virt. eigenvalues --    0.00856   0.07668   0.08505   0.10632   0.11219
 Alpha virt. eigenvalues --    0.13026   0.13775   0.14483   0.15009   0.16266
 Alpha virt. eigenvalues --    0.17249   0.18456   0.19030   0.19859   0.20568
 Alpha virt. eigenvalues --    0.22122   0.23097   0.24291   0.26809   0.27939
 Alpha virt. eigenvalues --    0.28941   0.31093   0.37513   0.44877   0.47226
 Alpha virt. eigenvalues --    0.49752   0.49993   0.50655   0.51857   0.52819
 Alpha virt. eigenvalues --    0.53681   0.55641   0.56274   0.57425   0.57973
 Alpha virt. eigenvalues --    0.58971   0.59879   0.60783   0.62551   0.63663
 Alpha virt. eigenvalues --    0.66359   0.67010   0.69442   0.70753   0.72637
 Alpha virt. eigenvalues --    0.73381   0.73940   0.74910   0.74992   0.76701
 Alpha virt. eigenvalues --    0.76890   0.77156   0.78287   0.79221   0.79945
 Alpha virt. eigenvalues --    0.80715   0.81177   0.81819   0.83970   0.84022
 Alpha virt. eigenvalues --    0.84915   0.87104   0.87725   0.88635   0.89665
 Alpha virt. eigenvalues --    0.91666   0.95499   0.98039   0.99369   1.00419
 Alpha virt. eigenvalues --    1.01783   1.06041   1.11205   1.13249   1.17139
 Alpha virt. eigenvalues --    1.19024   1.21355   1.21932   1.22311   1.25957
 Alpha virt. eigenvalues --    1.28351   1.29622   1.32976   1.35718   1.38050
 Alpha virt. eigenvalues --    1.38790   1.40633   1.42045   1.45675   1.49464
 Alpha virt. eigenvalues --    1.49763   1.53818   1.55292   1.56118   1.58547
 Alpha virt. eigenvalues --    1.59987   1.61387   1.63814   1.64841   1.66715
 Alpha virt. eigenvalues --    1.69750   1.70845   1.73439   1.74089   1.77261
 Alpha virt. eigenvalues --    1.78869   1.81716   1.86858   1.88274   1.89658
 Alpha virt. eigenvalues --    1.91682   1.94198   1.95672   1.99209   2.02886
 Alpha virt. eigenvalues --    2.03334   2.06022   2.12922   2.17657   2.21599
 Alpha virt. eigenvalues --    2.23186   2.24950   2.26318   2.29282   2.30657
 Alpha virt. eigenvalues --    2.34259   2.37371   2.38608   2.39725   2.41504
 Alpha virt. eigenvalues --    2.44714   2.46040   2.50261   2.53745   2.55098
 Alpha virt. eigenvalues --    2.57203   2.64820   2.70419   2.71583   2.74271
 Alpha virt. eigenvalues --    2.76229   2.77219   2.78204   2.82143   2.82221
 Alpha virt. eigenvalues --    2.82687   2.84658   2.87466   2.88880   2.89471
 Alpha virt. eigenvalues --    2.91181   2.91596   2.92045   2.93630   2.95891
 Alpha virt. eigenvalues --    2.97764   3.00103   3.01978   3.04393   3.05185
 Alpha virt. eigenvalues --    3.06001   3.08238   3.11551   3.12042   3.13817
 Alpha virt. eigenvalues --    3.17700   3.21571   3.24789   3.27755   3.28624
 Alpha virt. eigenvalues --    3.31304   3.34355   3.34628   3.39061   3.40163
 Alpha virt. eigenvalues --    3.41343   3.45580   3.48602   3.50507   3.53293
 Alpha virt. eigenvalues --    3.55474   3.57714   3.59275   3.61687   3.62584
 Alpha virt. eigenvalues --    3.66199   3.68357   3.69750   3.73093   3.75817
 Alpha virt. eigenvalues --    3.78022   3.81963   3.82621   3.88445   3.90689
 Alpha virt. eigenvalues --    3.93337   3.94025   3.97394   4.00548   4.03618
 Alpha virt. eigenvalues --    4.08567   4.10729   4.11024   4.14450   4.18682
 Alpha virt. eigenvalues --    4.19906   4.22396   4.22927   4.24504   4.27180
 Alpha virt. eigenvalues --    4.28725   4.32283   4.33448   4.33488   4.34867
 Alpha virt. eigenvalues --    4.39168   4.39283   4.40936   4.43650   4.44784
 Alpha virt. eigenvalues --    4.46885   4.48437   4.49473   4.51629   4.53331
 Alpha virt. eigenvalues --    4.53997   4.57458   4.58077   4.58276   4.61105
 Alpha virt. eigenvalues --    4.61764   4.63435   4.64755   4.64944   4.66498
 Alpha virt. eigenvalues --    4.68034   4.69677   4.71140   4.71922   4.75400
 Alpha virt. eigenvalues --    4.76075   4.79584   4.80549   4.82206   4.83418
 Alpha virt. eigenvalues --    4.83773   4.86826   4.87328   4.90265   4.91199
 Alpha virt. eigenvalues --    4.92184   4.97577   4.98642   5.02479   5.05070
 Alpha virt. eigenvalues --    5.08154   5.09184   5.12276   5.19337   5.22478
 Alpha virt. eigenvalues --    5.22717   5.27961   5.32991   5.36730   5.41064
 Alpha virt. eigenvalues --    5.47644   5.48245   5.54394   5.59109   5.62497
 Alpha virt. eigenvalues --    5.68396   5.80599   5.92557   7.23754   9.67764
 Alpha virt. eigenvalues --   10.82785  10.89975  11.26249  11.37703  11.41918
 Alpha virt. eigenvalues --   11.43475  11.61750  12.09344  12.50325  13.42513
 Alpha virt. eigenvalues --   14.50072
          Condensed to atoms (all electrons):
               1          2          3          4          5          6
     1  C    4.963366   0.412867  -0.041074   0.003194  -0.000189   0.000005
     2  C    0.412867   4.756453   0.387444  -0.061065   0.002444   0.000493
     3  N   -0.041074   0.387444   6.408186   0.392143  -0.024516  -0.011340
     4  C    0.003194  -0.061065   0.392143   4.973638   0.384888  -0.053106
     5  C   -0.000189   0.002444  -0.024516   0.384888   4.822671   0.383467
     6  N    0.000005   0.000493  -0.011340  -0.053106   0.383467   6.563478
     7  C    0.000001  -0.000158   0.001549  -0.038822   0.357694  -0.035467
     8  N   -0.000000  -0.000000  -0.000018   0.000701  -0.012604  -0.002471
     9  N    0.000000  -0.000000   0.000000  -0.000079   0.003046   0.000343
    10  H    0.365804  -0.022632   0.003200  -0.000200   0.000002  -0.000000
    11  H    0.375007  -0.026022   0.003998   0.000196   0.000011  -0.000000
    12  H    0.378129  -0.028889  -0.003998   0.000087   0.000010  -0.000012
    13  H   -0.028961   0.370572  -0.026434  -0.003772   0.000156  -0.000012
    14  H   -0.043813   0.356486  -0.044908  -0.001686   0.000323  -0.000027
    15  H    0.000828  -0.045693   0.321293  -0.057677  -0.004629   0.014051
    16  H    0.000285  -0.003772  -0.019162   0.333430  -0.013749   0.005141
    17  H    0.000058  -0.005613  -0.047923   0.329121  -0.029696  -0.005461
    18  H    0.000005  -0.000025   0.003327  -0.053550   0.348848  -0.029767
    19  H    0.000002  -0.000044  -0.000873  -0.005633  -0.052501   0.330356
    20  H    0.000007  -0.000350   0.001731  -0.005016  -0.047380   0.336187
    21  H    0.000000   0.000018   0.000188  -0.000732  -0.075651   0.001970
    22  H   -0.000000   0.000000  -0.000000   0.000002  -0.000145   0.000019
    23  H    0.000000   0.000000   0.000000   0.000077  -0.001025   0.000017
               7          8          9         10         11         12
     1  C    0.000001  -0.000000   0.000000   0.365804   0.375007   0.378129
     2  C   -0.000158  -0.000000  -0.000000  -0.022632  -0.026022  -0.028889
     3  N    0.001549  -0.000018   0.000000   0.003200   0.003998  -0.003998
     4  C   -0.038822   0.000701  -0.000079  -0.000200   0.000196   0.000087
     5  C    0.357694  -0.012604   0.003046   0.000002   0.000011   0.000010
     6  N   -0.035467  -0.002471   0.000343  -0.000000  -0.000000  -0.000012
     7  C    4.818991   0.653641  -0.118909  -0.000000   0.000000  -0.000000
     8  N    0.653641   6.256803   0.378915   0.000000   0.000000   0.000000
     9  N   -0.118909   0.378915   6.474585  -0.000000   0.000000   0.000000
    10  H   -0.000000   0.000000  -0.000000   0.605821  -0.029280  -0.031114
    11  H    0.000000   0.000000   0.000000  -0.029280   0.583462  -0.033645
    12  H   -0.000000   0.000000   0.000000  -0.031114  -0.033645   0.605908
    13  H   -0.000018   0.000000   0.000000  -0.002430  -0.005803   0.005436
    14  H    0.000053   0.000000   0.000000   0.001132   0.006417  -0.005646
    15  H   -0.000040  -0.000004  -0.000000  -0.000346  -0.000626   0.005392
    16  H   -0.002686  -0.000105  -0.000011  -0.000005  -0.000022   0.000005
    17  H    0.002296  -0.000140  -0.000001   0.000027   0.000042  -0.000029
    18  H   -0.019009  -0.007514  -0.000009   0.000000   0.000003  -0.000000
    19  H    0.002203   0.000348  -0.000126  -0.000000   0.000000  -0.000001
    20  H    0.005736   0.000162  -0.000001   0.000000   0.000009  -0.000016
    21  H    0.372975  -0.070564  -0.007850   0.000000   0.000000  -0.000000
    22  H    0.004028  -0.037697   0.356075   0.000000   0.000000   0.000000
    23  H   -0.001419  -0.044794   0.328714   0.000000   0.000000  -0.000000
              13         14         15         16         17         18
     1  C   -0.028961  -0.043813   0.000828   0.000285   0.000058   0.000005
     2  C    0.370572   0.356486  -0.045693  -0.003772  -0.005613  -0.000025
     3  N   -0.026434  -0.044908   0.321293  -0.019162  -0.047923   0.003327
     4  C   -0.003772  -0.001686  -0.057677   0.333430   0.329121  -0.053550
     5  C    0.000156   0.000323  -0.004629  -0.013749  -0.029696   0.348848
     6  N   -0.000012  -0.000027   0.014051   0.005141  -0.005461  -0.029767
     7  C   -0.000018   0.000053  -0.000040  -0.002686   0.002296  -0.019009
     8  N    0.000000   0.000000  -0.000004  -0.000105  -0.000140  -0.007514
     9  N    0.000000   0.000000  -0.000000  -0.000011  -0.000001  -0.000009
    10  H   -0.002430   0.001132  -0.000346  -0.000005   0.000027   0.000000
    11  H   -0.005803   0.006417  -0.000626  -0.000022   0.000042   0.000003
    12  H    0.005436  -0.005646   0.005392   0.000005  -0.000029  -0.000000
    13  H    0.630588  -0.053454   0.006610   0.005592  -0.002064  -0.000025
    14  H   -0.053454   0.705050  -0.006981  -0.001639   0.014521   0.000036
    15  H    0.006610  -0.006981   0.559166   0.007759  -0.004842   0.000399
    16  H    0.005592  -0.001639   0.007759   0.640975  -0.051418  -0.003050
    17  H   -0.002064   0.014521  -0.004842  -0.051418   0.715607   0.007171
    18  H   -0.000025   0.000036   0.000399  -0.003050   0.007171   0.635354
    19  H    0.000000   0.000010   0.002217   0.000001   0.006416   0.007053
    20  H   -0.000005   0.000093   0.006222  -0.000176   0.000972  -0.002508
    21  H   -0.000001   0.000004   0.000007   0.002408   0.004958   0.006246
    22  H    0.000000   0.000000  -0.000000  -0.000000  -0.000000  -0.000006
    23  H   -0.000000  -0.000000  -0.000000   0.000006  -0.000001   0.000017
              19         20         21         22         23
     1  C    0.000002   0.000007   0.000000  -0.000000   0.000000
     2  C   -0.000044  -0.000350   0.000018   0.000000   0.000000
     3  N   -0.000873   0.001731   0.000188  -0.000000   0.000000
     4  C   -0.005633  -0.005016  -0.000732   0.000002   0.000077
     5  C   -0.052501  -0.047380  -0.075651  -0.000145  -0.001025
     6  N    0.330356   0.336187   0.001970   0.000019   0.000017
     7  C    0.002203   0.005736   0.372975   0.004028  -0.001419
     8  N    0.000348   0.000162  -0.070564  -0.037697  -0.044794
     9  N   -0.000126  -0.000001  -0.007850   0.356075   0.328714
    10  H   -0.000000   0.000000   0.000000   0.000000   0.000000
    11  H    0.000000   0.000009   0.000000   0.000000   0.000000
    12  H   -0.000001  -0.000016  -0.000000   0.000000  -0.000000
    13  H    0.000000  -0.000005  -0.000001   0.000000  -0.000000
    14  H    0.000010   0.000093   0.000004   0.000000  -0.000000
    15  H    0.002217   0.006222   0.000007  -0.000000  -0.000000
    16  H    0.000001  -0.000176   0.002408  -0.000000   0.000006
    17  H    0.006416   0.000972   0.004958  -0.000000  -0.000001
    18  H    0.007053  -0.002508   0.006246  -0.000006   0.000017
    19  H    0.525574  -0.031901   0.000672  -0.000004   0.000001
    20  H   -0.031901   0.513911  -0.000247  -0.000001  -0.000001
    21  H    0.000672  -0.000247   0.684075  -0.000046   0.018395
    22  H   -0.000004  -0.000001  -0.000046   0.455017  -0.037823
    23  H    0.000001  -0.000001   0.018395  -0.037823   0.504867
 Mulliken charges:
               1
     1  C   -0.385521
     2  C   -0.092514
     3  N   -0.302814
     4  C   -0.136140
     5  C   -0.041475
     6  N   -0.497864
     7  C   -0.002639
     8  N   -0.114659
     9  N   -0.414691
    10  H    0.110020
    11  H    0.126253
    12  H    0.108381
    13  H    0.104024
    14  H    0.074028
    15  H    0.196894
    16  H    0.100191
    17  H    0.065996
    18  H    0.107004
    19  H    0.216230
    20  H    0.222570
    21  H    0.063174
    22  H    0.260581
    23  H    0.232970
 Sum of Mulliken charges =  -0.00000
 Mulliken charges with hydrogens summed into heavy atoms:
               1
     1  C   -0.040867
     2  C    0.085538
     3  N   -0.105920
     4  C    0.030047
     5  C    0.065529
     6  N   -0.059064
     7  C    0.060535
     8  N   -0.114659
     9  N    0.078859
 Electronic spatial extent (au):  <R**2>=           2258.9334
 Charge=             -0.0000 electrons
 Dipole moment (field-independent basis, Debye):
    X=             -0.1250    Y=             -1.5090    Z=              2.3514  Tot=              2.7968
 Quadrupole moment (field-independent basis, Debye-Ang):
   XX=            -47.4405   YY=            -56.5478   ZZ=            -56.7211
   XY=             -5.9076   XZ=              3.5260   YZ=              0.2803
 Traceless Quadrupole moment (field-independent basis, Debye-Ang):
   XX=              6.1293   YY=             -2.9780   ZZ=             -3.1513
   XY=             -5.9076   XZ=              3.5260   YZ=              0.2803
 Octapole moment (field-independent basis, Debye-Ang**2):
  XXX=             78.3621  YYY=             -2.6363  ZZZ=              2.6151  XYY=             -4.5689
  XXY=            -13.2919  XXZ=             21.3108  XZZ=              4.6415  YZZ=              2.8606
  YYZ=              3.3506  XYZ=             -7.1413
 Hexadecapole moment (field-independent basis, Debye-Ang**3):
 XXXX=          -2129.8090 YYYY=           -274.6021 ZZZZ=           -106.6080 XXXY=            -23.4279
 XXXZ=             68.1782 YYYX=            -31.0703 YYYZ=              2.4695 ZZZX=              6.0832
 ZZZY=              4.3587 XXYY=           -467.7970 XXZZ=           -458.0066 YYZZ=            -60.3323
 XXYZ=            -19.7163 YYXZ=             11.2341 ZZXY=             -2.6868
 N-N= 4.552234635049D+02 E-N=-1.882312409859D+03  KE= 4.145652340102D+02
 PrsmSu:  requested number of processors reduced to:  13 ShMem   1 Linda.
 Calling FoFJK, ICntrl=      2127 FMM=F ISym2X=0 I1Cent= 0 IOpClX= 0 NMat=1 NMatS=1 NMatT=0.
 ***** Axes restored to original set *****
 -------------------------------------------------------------------
 Center     Atomic                   Forces (Hartrees/Bohr)
 Number     Number              X              Y              Z
 -------------------------------------------------------------------
      1        6          -0.004414224    0.004618203   -0.002489842
      2        6          -0.009224214   -0.009406216    0.006102966
      3        7           0.012539872    0.012423811    0.006808361
      4        6          -0.007081312   -0.004732229    0.008263870
      5        6           0.007818325   -0.006727589   -0.009393304
      6        7          -0.001651184    0.002196601    0.009075201
      7        6           0.001658975   -0.014023885    0.017553284
      8        7          -0.022693490    0.024037890   -0.030653266
      9        7           0.024488766   -0.008334577    0.017519549
     10        1          -0.001633187   -0.000798783   -0.000555812
     11        1           0.001199628   -0.001239208   -0.000356565
     12        1          -0.000270726   -0.000114302   -0.000113678
     13        1           0.003458462   -0.001287878    0.001527683
     14        1           0.002964208    0.003036473   -0.007829106
     15        1           0.002765249    0.003058571   -0.001905346
     16        1          -0.003527809    0.001575972   -0.000523554
     17        1           0.007930389   -0.001663433   -0.003707357
     18        1          -0.004696403   -0.002738016   -0.002042619
     19        1          -0.000083316    0.000304651   -0.000357557
     20        1           0.000206979   -0.003353404    0.000659400
     21        1           0.000958848   -0.001548744    0.003243623
     22        1          -0.007400080    0.005303824   -0.008203850
     23        1          -0.003313756   -0.000587732   -0.002622078
 -------------------------------------------------------------------
 Cartesian Forces:  Max     0.030653266 RMS     0.008514636

 GradGradGradGradGradGradGradGradGradGradGradGradGradGradGradGradGradGrad
 Berny optimization.
 FormGI is forming the generalized inverse of G from B-inverse, IUseBI=4.
 Internal  Forces:  Max     0.031567122 RMS     0.005157400
 Search for a local minimum.
 Step number   1 out of a maximum of  116
 All quantities printed in internal units (Hartrees-Bohrs-Radians)
 Mixed Optimization -- RFO/linear search
 Second derivative matrix not updated -- first step.
 ITU=  0
     Eigenvalues ---    0.00230   0.00424   0.00490   0.00684   0.00745
     Eigenvalues ---    0.00900   0.01099   0.02122   0.02321   0.02886
     Eigenvalues ---    0.02944   0.04203   0.04346   0.04450   0.04622
     Eigenvalues ---    0.05005   0.05421   0.05561   0.05677   0.05701
     Eigenvalues ---    0.06483   0.08897   0.09183   0.10886   0.12507
     Eigenvalues ---    0.12711   0.14793   0.15997   0.16000   0.16000
     Eigenvalues ---    0.16000   0.16000   0.16000   0.16000   0.17443
     Eigenvalues ---    0.18260   0.21939   0.21941   0.22001   0.23408
     Eigenvalues ---    0.25000   0.27885   0.29812   0.30283   0.33455
     Eigenvalues ---    0.33901   0.33945   0.34017   0.34156   0.34175
     Eigenvalues ---    0.34191   0.34207   0.34313   0.35012   0.35550
     Eigenvalues ---    0.36978   0.44290   0.44647   0.44950   0.44986
     Eigenvalues ---    0.45181   0.57785   0.65733
 RFO step:  Lambda=-1.15546612D-02 EMin= 2.30000000D-03
 Linear search not attempted -- first point.
 Iteration  1 RMS(Cart)=  0.07743380 RMS(Int)=  0.00245146
 Iteration  2 RMS(Cart)=  0.00405186 RMS(Int)=  0.00050350
 Iteration  3 RMS(Cart)=  0.00001051 RMS(Int)=  0.00050346
 Iteration  4 RMS(Cart)=  0.00000001 RMS(Int)=  0.00050346
 Variable       Old X    -DE/DX   Delta X   Delta X   Delta X     New X
                                 (Linear)    (Quad)   (Total)
    R1        2.87402   0.00508   0.00000   0.01616   0.01616   2.89019
    R2        2.06805   0.00056   0.00000   0.00157   0.00157   2.06962
    R3        2.07009  -0.00121   0.00000  -0.00342  -0.00342   2.06667
    R4        2.07036   0.00021   0.00000   0.00061   0.00061   2.07097
    R5        2.75879   0.00263   0.00000   0.00690   0.00690   2.76570
    R6        2.06982   0.00003   0.00000   0.00009   0.00009   2.06991
    R7        2.07067   0.00667   0.00000   0.01890   0.01890   2.08957
    R8        2.78092  -0.00730   0.00000  -0.01990  -0.01990   2.76102
    R9        1.92388  -0.00363   0.00000  -0.00792  -0.00792   1.91596
   R10        2.92390  -0.00238   0.00000  -0.00821  -0.00821   2.91569
   R11        2.07301   0.00019   0.00000   0.00053   0.00053   2.07354
   R12        2.07498   0.00661   0.00000   0.01885   0.01885   2.09383
   R13        2.78956   0.00054   0.00000   0.00150   0.00150   2.79106
   R14        2.88341  -0.00636   0.00000  -0.02055  -0.02055   2.86286
   R15        2.07423  -0.00134   0.00000  -0.00382  -0.00382   2.07041
   R16        1.92034   0.00018   0.00000   0.00039   0.00039   1.92073
   R17        1.91992  -0.00022   0.00000  -0.00048  -0.00048   1.91944
   R18        2.46673  -0.03157   0.00000  -0.04719  -0.04719   2.41953
   R19        2.08260  -0.00265   0.00000  -0.00766  -0.00766   2.07494
   R20        2.52737   0.01322   0.00000   0.02244   0.02244   2.54981
   R21        1.92809  -0.01181   0.00000  -0.02598  -0.02598   1.90211
   R22        1.91766   0.00036   0.00000   0.00078   0.00078   1.91844
    A1        1.92162   0.00259   0.00000   0.01794   0.01794   1.93956
    A2        1.94032  -0.00153   0.00000  -0.00914  -0.00917   1.93115
    A3        1.94269  -0.00014   0.00000  -0.00341  -0.00344   1.93925
    A4        1.88528   0.00014   0.00000   0.00586   0.00587   1.89115
    A5        1.88383  -0.00125   0.00000  -0.00696  -0.00696   1.87688
    A6        1.88812   0.00015   0.00000  -0.00434  -0.00441   1.88371
    A7        1.90942   0.00595   0.00000   0.03275   0.03214   1.94156
    A8        1.90466   0.00128   0.00000   0.00606   0.00647   1.91113
    A9        1.90553  -0.00221   0.00000   0.00405   0.00280   1.90833
   A10        1.92658  -0.00591   0.00000  -0.05031  -0.05005   1.87653
   A11        1.92545   0.00192   0.00000   0.03516   0.03439   1.95984
   A12        1.89191  -0.00110   0.00000  -0.02802  -0.02772   1.86419
   A13        1.94657   0.00891   0.00000   0.03253   0.03266   1.97923
   A14        1.90250  -0.00272   0.00000  -0.01773  -0.01749   1.88501
   A15        1.91712  -0.00400   0.00000  -0.02854  -0.02837   1.88875
   A16        1.94452   0.00381   0.00000   0.01923   0.01864   1.96316
   A17        1.91745  -0.00555   0.00000  -0.05145  -0.05107   1.86639
   A18        1.91168   0.00438   0.00000   0.05589   0.05580   1.96748
   A19        1.90963   0.00116   0.00000  -0.00406  -0.00417   1.90546
   A20        1.90731  -0.00405   0.00000  -0.01172  -0.01293   1.89438
   A21        1.87177   0.00010   0.00000  -0.00884  -0.00829   1.86348
   A22        1.94085   0.01328   0.00000   0.07807   0.07857   2.01942
   A23        1.93269  -0.01007   0.00000  -0.03955  -0.04075   1.89193
   A24        1.90859  -0.00212   0.00000  -0.02644  -0.02579   1.88280
   A25        1.91187  -0.00020   0.00000   0.01310   0.01328   1.92515
   A26        1.89756  -0.00645   0.00000  -0.04877  -0.04812   1.84944
   A27        1.87061   0.00527   0.00000   0.02082   0.02021   1.89081
   A28        1.91608  -0.00119   0.00000  -0.00324  -0.00334   1.91273
   A29        1.89605   0.00566   0.00000   0.03679   0.03669   1.93274
   A30        1.88309  -0.00126   0.00000   0.00043   0.00022   1.88331
   A31        2.11165   0.00013   0.00000   0.00066   0.00062   2.11227
   A32        2.04627   0.00261   0.00000   0.01542   0.01539   2.06165
   A33        2.12484  -0.00273   0.00000  -0.01564  -0.01568   2.10916
   A34        2.02212   0.01761   0.00000   0.06734   0.06734   2.08945
   A35        1.99787  -0.00081   0.00000  -0.01914  -0.02067   1.97720
   A36        2.11406  -0.00343   0.00000  -0.03896  -0.04046   2.07360
   A37        2.00218   0.00236   0.00000   0.00022  -0.00174   2.00044
    D1       -3.13726  -0.00222   0.00000  -0.03191  -0.03195   3.11398
    D2        1.03642   0.00056   0.00000   0.00587   0.00583   1.04225
    D3       -1.02859   0.00243   0.00000   0.03384   0.03392  -0.99467
    D4        1.05732  -0.00312   0.00000  -0.04510  -0.04513   1.01219
    D5       -1.05219  -0.00033   0.00000  -0.00732  -0.00734  -1.05954
    D6       -3.11720   0.00153   0.00000   0.02064   0.02074  -3.09646
    D7       -1.04894  -0.00217   0.00000  -0.03102  -0.03108  -1.08002
    D8        3.12474   0.00062   0.00000   0.00676   0.00670   3.13144
    D9        1.05973   0.00248   0.00000   0.03472   0.03479   1.09452
   D10       -3.13422  -0.00075   0.00000  -0.01531  -0.01471   3.13425
   D11        1.02918   0.00034   0.00000   0.01143   0.01205   1.04123
   D12       -1.03809   0.00093   0.00000  -0.01839  -0.01848  -1.05656
   D13        3.12531   0.00202   0.00000   0.00835   0.00828   3.13359
   D14        1.05246  -0.00298   0.00000  -0.06289  -0.06343   0.98902
   D15       -1.06733  -0.00189   0.00000  -0.03615  -0.03667  -1.10401
   D16       -3.12172  -0.00033   0.00000  -0.03318  -0.03360   3.12786
   D17        1.04232  -0.00055   0.00000  -0.00581  -0.00607   1.03625
   D18       -1.00939  -0.00000   0.00000   0.00211   0.00297  -1.00642
   D19       -1.01044  -0.00060   0.00000  -0.05344  -0.05398  -1.06442
   D20       -3.12959  -0.00081   0.00000  -0.02607  -0.02645   3.12715
   D21        1.10189  -0.00027   0.00000  -0.01816  -0.01741   1.08448
   D22        1.01600   0.00206   0.00000   0.02386   0.02394   1.03993
   D23       -3.13721   0.00397   0.00000   0.06691   0.06635  -3.07086
   D24       -1.07975   0.00310   0.00000   0.05254   0.05279  -1.02696
   D25        3.13969  -0.00164   0.00000  -0.03104  -0.03094   3.10875
   D26       -1.01352   0.00027   0.00000   0.01201   0.01148  -1.00204
   D27        1.04394  -0.00060   0.00000  -0.00236  -0.00209   1.04185
   D28       -1.09889  -0.00318   0.00000  -0.05077  -0.05048  -1.14936
   D29        1.03109  -0.00127   0.00000  -0.00772  -0.00806   1.02303
   D30        3.08855  -0.00214   0.00000  -0.02209  -0.02163   3.06693
   D31        0.99730  -0.00164   0.00000  -0.00241  -0.00144   0.99586
   D32       -1.05813  -0.00275   0.00000  -0.02257  -0.02170  -1.07983
   D33       -1.14471   0.00232   0.00000  -0.01380  -0.01450  -1.15922
   D34        3.08305   0.00121   0.00000  -0.03396  -0.03477   3.04827
   D35        3.09957  -0.00021   0.00000  -0.01835  -0.01846   3.08111
   D36        1.04414  -0.00132   0.00000  -0.03851  -0.03873   1.00542
   D37        3.09212  -0.00507   0.00000  -0.04921  -0.04906   3.04306
   D38       -0.01835  -0.00540   0.00000  -0.06474  -0.06466  -0.08301
   D39       -1.04421   0.00481   0.00000   0.03173   0.03150  -1.01271
   D40        2.12851   0.00448   0.00000   0.01620   0.01590   2.14441
   D41        1.01161  -0.00000   0.00000  -0.00748  -0.00729   1.00432
   D42       -2.09886  -0.00033   0.00000  -0.02301  -0.02290  -2.12175
   D43       -3.03441  -0.00277   0.00000  -0.07053  -0.07043  -3.10484
   D44        0.07464  -0.00232   0.00000  -0.05372  -0.05383   0.02081
   D45       -2.88955   0.00267   0.00000   0.09533   0.09422  -2.79534
   D46       -0.37210   0.00049   0.00000   0.00089   0.00200  -0.37009
   D47        2.55838  -0.00408   0.00000  -0.10211  -0.10206   2.45632
         Item               Value     Threshold  Converged?
 Maximum Force            0.031567     0.000450     NO 
 RMS     Force            0.005157     0.000300     NO 
 Maximum Displacement     0.277716     0.001800     NO 
 RMS     Displacement     0.077932     0.001200     NO 
 Predicted change in Energy=-6.397593D-03
 GradGradGradGradGradGradGradGradGradGradGradGradGradGradGradGradGradGrad

                          Input orientation:                          
 ---------------------------------------------------------------------
 Center     Atomic      Atomic             Coordinates (Angstroms)
 Number     Number       Type             X           Y           Z
 ---------------------------------------------------------------------
      1          6           0        0.900409    0.056826   -0.068542
      2          6           0        2.429622    0.033653   -0.058532
      3          7           0        2.940143   -0.806721    1.025489
      4          6           0        4.399070   -0.870218    1.072637
      5          6           0        4.914279   -1.745424    2.234175
      6          7           0        4.475281   -3.155538    2.217318
      7          6           0        6.426965   -1.666056    2.258215
      8          7           0        7.101936   -2.218342    3.195617
      9          7           0        8.445470   -2.095143    3.214380
     10          1           0        0.520648    0.708251   -0.862821
     11          1           0        0.513960    0.419136    0.888237
     12          1           0        0.491570   -0.945450   -0.239750
     13          1           0        2.809606    1.048072    0.103811
     14          1           0        2.797426   -0.290823   -1.049554
     15          1           0        2.586299   -1.746638    0.886542
     16          1           0        4.759519    0.157255    1.208215
     17          1           0        4.842133   -1.242369    0.127716
     18          1           0        4.532017   -1.321966    3.169548
     19          1           0        4.753315   -3.588589    1.340822
     20          1           0        3.464087   -3.218311    2.289708
     21          1           0        6.928804   -1.108379    1.456480
     22          1           0        8.901607   -2.796827    3.773600
     23          1           0        8.927513   -1.862719    2.351688
 ---------------------------------------------------------------------
                    Distance matrix (angstroms):
                    1          2          3          4          5
     1  C    0.000000
     2  C    1.529422   0.000000
     3  N    2.470452   1.463544   0.000000
     4  C    3.795040   2.444432   1.461069   0.000000
     5  C    4.966061   3.820358   2.497858   1.542918   0.000000
     6  N    5.322044   4.419859   3.048614   2.557106   1.476964
     7  C    6.238986   4.922913   3.796841   2.480184   1.514958
     8  N    7.368179   6.123028   4.901290   3.691878   2.435953
     9  N    8.505087   7.171761   6.062994   4.739289   3.681361
    10  H    1.095195   2.178566   3.422691   4.612995   5.908968
    11  H    1.093635   2.171343   2.721751   4.097623   5.085241
    12  H    1.095910   2.178883   2.759635   4.122690   5.130362
    13  H    2.158080   1.095349   2.075280   2.672987   4.095330
    14  H    2.163774   1.105753   2.142971   2.721150   4.168910
    15  H    2.647054   2.021670   1.013882   2.022099   2.689908
    16  H    4.066070   2.654872   2.067067   1.097272   2.167195
    17  H    4.154950   2.735530   2.147871   1.108006   2.166897
    18  H    5.057161   4.083903   2.719656   2.149137   1.095611
    19  H    5.488192   4.525304   3.335539   2.754443   2.054567
    20  H    4.781246   4.142417   2.772821   2.805173   2.067737
    21  H    6.326527   4.882841   4.023203   2.569749   2.251433
    22  H    9.323335   8.036382   6.859423   5.592840   4.401598
    23  H    8.600963   7.185260   6.222743   4.809140   4.016667
                    6          7          8          9         10
     6  N    0.000000
     7  C    2.455463   0.000000
     8  N    2.955456   1.280362   0.000000
     9  N    4.228590   2.274364   1.349302   0.000000
    10  H    6.328922   7.089626   8.267359   9.342666   0.000000
    11  H    5.498802   6.417826   7.462018   8.639525   1.774778
    12  H    5.176063   6.479816   7.557707   8.747419   1.767425
    13  H    4.991165   5.009315   6.217139   7.163687   2.507825
    14  H    4.657708   5.099624   6.345519   7.303226   2.493339
    15  H    2.706329   4.079056   5.093654   6.314284   3.654267
    16  H    3.474720   2.684649   3.883316   4.762797   4.749823
    17  H    2.856787   2.688909   3.933351   4.820660   4.843688
    18  H    2.066869   2.130670   2.721884   3.989352   6.039277
    19  H    1.016405   2.709031   3.291483   4.401433   6.421398
    20  H    1.015724   3.345017   3.880020   5.189480   5.832681
    21  H    3.284738   1.098009   2.070408   2.522735   7.052927
    22  H    4.705640   3.114304   1.976746   1.006553  10.199140
    23  H    4.638081   2.510010   2.042404   1.015196   9.360467
                   11         12         13         14         15
    11  H    0.000000
    12  H    1.770580   0.000000
    13  H    2.506168   3.076598   0.000000
    14  H    3.077872   2.530077   1.767212   0.000000
    15  H    2.997527   2.509646   2.910832   2.431551   0.000000
    16  H    4.265646   4.639822   2.411519   3.024584   2.907090
    17  H    4.698092   4.376138   3.062329   2.544058   2.432877
    18  H    4.937671   5.300027   4.240581   4.676846   3.029568
    19  H    5.851395   5.258028   5.177531   4.518259   2.880124
    20  H    4.888598   4.516626   4.838235   4.490579   2.214770
    21  H    6.618642   6.658958   4.842292   4.900703   4.426009
    22  H    9.435060   9.500700   8.084744   8.173366   7.022900
    23  H    8.839481   8.872545   7.138238   7.184516   6.509310
                   16         17         18         19         20
    16  H    0.000000
    17  H    1.770099   0.000000
    18  H    2.467120   3.058636   0.000000
    19  H    3.748196   2.642776   2.920752   0.000000
    20  H    3.773886   3.236907   2.347491   1.643046   0.000000
    21  H    2.523740   2.477451   2.953779   3.301147   4.141297
    22  H    5.697780   5.673460   4.651174   4.873769   5.652098
    23  H    4.770744   4.692677   4.503520   4.628650   5.629431
                   21         22         23
    21  H    0.000000
    22  H    3.480209   0.000000
    23  H    2.316304   1.701488   0.000000
 Stoichiometry    C5H14N4
 Framework group  C1[X(C5H14N4)]
 Deg. of freedom    63
 Full point group                 C1      NOp   1
 Largest Abelian subgroup         C1      NOp   1
 Largest concise Abelian subgroup C1      NOp   1
                         Standard orientation:                         
 ---------------------------------------------------------------------
 Center     Atomic      Atomic             Coordinates (Angstroms)
 Number     Number       Type             X           Y           Z
 ---------------------------------------------------------------------
      1          6           0       -4.310233   -0.028572   -0.196887
      2          6           0       -2.995983   -0.701127    0.202546
      3          7           0       -1.843442    0.105816   -0.200509
      4          6           0       -0.560973   -0.489575    0.167601
      5          6           0        0.639163    0.368452   -0.284130
      6          7           0        0.688438    1.739477    0.262940
      7          6           0        1.913995   -0.377794    0.052053
      8          7           0        3.056348    0.068324   -0.315825
      9          7           0        4.171435   -0.639264   -0.039211
     10          1           0       -5.170460   -0.647011    0.080596
     11          1           0       -4.343196    0.142745   -1.276518
     12          1           0       -4.425410    0.940322    0.302110
     13          1           0       -2.912869   -1.669802   -0.301984
     14          1           0       -3.005020   -0.906209    1.289077
     15          1           0       -1.917079    1.007725    0.256760
     16          1           0       -0.509870   -1.468602   -0.325248
     17          1           0       -0.471727   -0.674717    1.256378
     18          1           0        0.581997    0.480169   -1.372530
     19          1           0        0.684768    1.701476    1.278628
     20          1           0       -0.123169    2.273988   -0.032504
     21          1           0        1.830357   -1.320999    0.607925
     22          1           0        5.012110   -0.086816   -0.074053
     23          1           0        4.144299   -1.321032    0.712506
 ---------------------------------------------------------------------
 Rotational constants (GHZ):           5.2736554           0.5262234           0.4923521
 Standard basis: 6-31G(2df,p) (6D, 7F)
 There are   349 symmetry adapted cartesian basis functions of A   symmetry.
 There are   322 symmetry adapted basis functions of A   symmetry.
   322 basis functions,   494 primitive gaussians,   349 cartesian basis functions
    36 alpha electrons       36 beta electrons
       nuclear repulsion energy       454.2799715158 Hartrees.
 NAtoms=   23 NActive=   23 NUniq=   23 SFac= 1.00D+00 NAtFMM=   60 NAOKFM=F Big=F
 Integral buffers will be    131072 words long.
 Raffenetti 2 integral format.
 Two-electron integral symmetry is turned on.
 One-electron integrals computed using PRISM.
 PrsmSu:  requested number of processors reduced to:  13 ShMem   1 Linda.
 NBasis=   322 RedAO= T EigKep=  2.85D-04  NBF=   322
 NBsUse=   322 1.00D-06 EigRej= -1.00D+00 NBFU=   322
 Initial guess from the checkpoint file:  "CCNCCpNpCdNN.chk"
 B after Tr=     0.000000    0.000000    0.000000
         Rot=    0.999988    0.004019   -0.000805    0.002855 Ang=   0.57 deg.
 ExpMin= 1.61D-01 ExpMax= 4.17D+03 ExpMxC= 6.27D+02 IAcc=2 IRadAn=         4 AccDes= 0.00D+00
 Harris functional with IExCor=  402 and IRadAn=       4 diagonalized for initial guess.
 HarFok:  IExCor=  402 AccDes= 0.00D+00 IRadAn=         4 IDoV= 1 UseB2=F ITyADJ=14
 ICtDFT=  3500011 ScaDFX=  1.000000  1.000000  1.000000  1.000000
 FoFCou: FMM=F IPFlag=           0 FMFlag=      100000 FMFlg1=           0
         NFxFlg=           0 DoJE=T BraDBF=F KetDBF=T FulRan=T
         wScrn=  0.000000 ICntrl=       500 IOpCl=  0 I1Cent=   200000004 NGrid=           0
         NMat0=    1 NMatS0=      1 NMatT0=    0 NMatD0=    1 NMtDS0=    0 NMtDT0=    0
 Petite list used in FoFCou.
 Requested convergence on RMS density matrix=1.00D-08 within 128 cycles.
 Requested convergence on MAX density matrix=1.00D-06.
 Requested convergence on             energy=1.00D-06.
 No special actions if energy rises.
 Integral accuracy reduced to 1.0D-05 until final iterations.
 Initial convergence to 1.0D-05 achieved.  Increase integral accuracy.
 SCF Done:  E(RB3LYP) =  -417.934682579     A.U. after   11 cycles
            NFock= 11  Conv=0.94D-08     -V/T= 2.0080
 PrsmSu:  requested number of processors reduced to:  13 ShMem   1 Linda.
 Calling FoFJK, ICntrl=      2127 FMM=F ISym2X=0 I1Cent= 0 IOpClX= 0 NMat=1 NMatS=1 NMatT=0.
 ***** Axes restored to original set *****
 -------------------------------------------------------------------
 Center     Atomic                   Forces (Hartrees/Bohr)
 Number     Number              X              Y              Z
 -------------------------------------------------------------------
      1        6           0.000858206    0.000374417    0.000462298
      2        6          -0.001982583   -0.001691294    0.001534316
      3        7           0.002859559    0.000036624   -0.000739038
      4        6          -0.004883328   -0.000003230    0.001072023
      5        6          -0.000427676   -0.000597553    0.001085383
      6        7           0.001957049    0.004528012   -0.001459255
      7        6           0.005836150   -0.004460395    0.006347220
      8        7          -0.007534735   -0.000357377   -0.005082685
      9        7           0.004167433    0.006397293    0.003434792
     10        1           0.000903135   -0.000468587    0.000121880
     11        1           0.000161572   -0.000323349    0.000271003
     12        1          -0.000073077   -0.000268143   -0.000026470
     13        1           0.000683773    0.001155488   -0.000628348
     14        1           0.000840254    0.000884196   -0.000572796
     15        1          -0.001420772   -0.002303441    0.000483620
     16        1           0.002139444   -0.000104841    0.000231825
     17        1           0.000618874    0.000123308   -0.001119573
     18        1          -0.001523863    0.000287555    0.000218646
     19        1          -0.000792316   -0.001135181   -0.000372171
     20        1          -0.000099490    0.000833586   -0.000309963
     21        1           0.000021268   -0.000015580   -0.001656526
     22        1          -0.001317785   -0.001889427   -0.000974112
     23        1          -0.000991094   -0.001002082   -0.002322071
 -------------------------------------------------------------------
 Cartesian Forces:  Max     0.007534735 RMS     0.002284442

 GradGradGradGradGradGradGradGradGradGradGradGradGradGradGradGradGradGrad
 Berny optimization.
 Using GEDIIS/GDIIS optimizer.
 FormGI is forming the generalized inverse of G from B-inverse, IUseBI=4.
 Internal  Forces:  Max     0.007971141 RMS     0.001441273
 Search for a local minimum.
 Step number   2 out of a maximum of  116
 All quantities printed in internal units (Hartrees-Bohrs-Radians)
 Mixed Optimization -- RFO/linear search
 Update second derivatives using D2CorX and points    1    2
 DE= -5.61D-03 DEPred=-6.40D-03 R= 8.76D-01
 TightC=F SS=  1.41D+00  RLast= 3.31D-01 DXNew= 5.0454D-01 9.9172D-01
 Trust test= 8.76D-01 RLast= 3.31D-01 DXMaxT set to 5.05D-01
 ITU=  1  0
 Use linear search instead of GDIIS.
     Eigenvalues ---    0.00230   0.00424   0.00490   0.00687   0.00748
     Eigenvalues ---    0.00900   0.01082   0.02119   0.02561   0.02892
     Eigenvalues ---    0.03042   0.04051   0.04119   0.04211   0.04485
     Eigenvalues ---    0.05122   0.05436   0.05583   0.05599   0.05632
     Eigenvalues ---    0.06570   0.09223   0.09320   0.11028   0.12719
     Eigenvalues ---    0.13064   0.14364   0.15910   0.15999   0.16000
     Eigenvalues ---    0.16000   0.16000   0.16000   0.16223   0.17939
     Eigenvalues ---    0.19089   0.21890   0.21993   0.22413   0.23574
     Eigenvalues ---    0.26804   0.28049   0.29789   0.30604   0.33505
     Eigenvalues ---    0.33570   0.33965   0.34022   0.34074   0.34175
     Eigenvalues ---    0.34191   0.34239   0.34330   0.35302   0.35527
     Eigenvalues ---    0.37155   0.44121   0.44915   0.44986   0.45017
     Eigenvalues ---    0.45306   0.56741   0.61974
 RFO step:  Lambda=-1.37519836D-03 EMin= 2.30198736D-03
 Quartic linear search produced a step of -0.01778.
 Iteration  1 RMS(Cart)=  0.03701536 RMS(Int)=  0.00079264
 Iteration  2 RMS(Cart)=  0.00123493 RMS(Int)=  0.00036335
 Iteration  3 RMS(Cart)=  0.00000145 RMS(Int)=  0.00036335
 Iteration  4 RMS(Cart)=  0.00000000 RMS(Int)=  0.00036335
 Variable       Old X    -DE/DX   Delta X   Delta X   Delta X     New X
                                 (Linear)    (Quad)   (Total)
    R1        2.89019  -0.00186  -0.00029  -0.00397  -0.00425   2.88593
    R2        2.06962  -0.00068  -0.00003  -0.00173  -0.00176   2.06786
    R3        2.06667   0.00007   0.00006  -0.00022  -0.00016   2.06651
    R4        2.07097   0.00028  -0.00001   0.00087   0.00086   2.07183
    R5        2.76570  -0.00154  -0.00012  -0.00319  -0.00332   2.76238
    R6        2.06991   0.00121  -0.00000   0.00347   0.00347   2.07338
    R7        2.08957   0.00053  -0.00034   0.00389   0.00356   2.09313
    R8        2.76102  -0.00297   0.00035  -0.01063  -0.01028   2.75074
    R9        1.91596   0.00257   0.00014   0.00461   0.00475   1.92071
   R10        2.91569  -0.00253   0.00015  -0.00985  -0.00970   2.90599
   R11        2.07354   0.00063  -0.00001   0.00188   0.00187   2.07541
   R12        2.09383   0.00116  -0.00034   0.00570   0.00537   2.09920
   R13        2.79106  -0.00433  -0.00003  -0.01186  -0.01188   2.77917
   R14        2.86286   0.00011   0.00037  -0.00223  -0.00186   2.86100
   R15        2.07041   0.00083   0.00007   0.00190   0.00197   2.07237
   R16        1.92073   0.00059  -0.00001   0.00132   0.00131   1.92204
   R17        1.91944   0.00003   0.00001  -0.00000   0.00000   1.91944
   R18        2.41953  -0.00797   0.00084  -0.01776  -0.01692   2.40261
   R19        2.07494   0.00121   0.00014   0.00257   0.00270   2.07764
   R20        2.54981   0.00217  -0.00040   0.00649   0.00609   2.55590
   R21        1.90211   0.00018   0.00046  -0.00287  -0.00241   1.89970
   R22        1.91844   0.00127  -0.00001   0.00285   0.00283   1.92128
    A1        1.93956  -0.00095  -0.00032  -0.00353  -0.00385   1.93571
    A2        1.93115  -0.00008   0.00016  -0.00103  -0.00086   1.93029
    A3        1.93925   0.00010   0.00006  -0.00043  -0.00037   1.93888
    A4        1.89115   0.00067  -0.00010   0.00591   0.00581   1.89696
    A5        1.87688   0.00032   0.00012  -0.00004   0.00008   1.87696
    A6        1.88371  -0.00001   0.00008  -0.00061  -0.00053   1.88318
    A7        1.94156  -0.00164  -0.00057  -0.00175  -0.00232   1.93924
    A8        1.91113   0.00055  -0.00011   0.00320   0.00308   1.91420
    A9        1.90833   0.00074  -0.00005   0.00489   0.00485   1.91318
   A10        1.87653   0.00060   0.00089  -0.00330  -0.00241   1.87412
   A11        1.95984   0.00063  -0.00061   0.00867   0.00807   1.96791
   A12        1.86419  -0.00085   0.00049  -0.01234  -0.01185   1.85235
   A13        1.97923  -0.00051  -0.00058   0.00416   0.00355   1.98278
   A14        1.88501   0.00047   0.00031   0.00588   0.00615   1.89116
   A15        1.88875   0.00030   0.00050   0.00295   0.00341   1.89216
   A16        1.96316  -0.00321  -0.00033  -0.01156  -0.01186   1.95130
   A17        1.86639   0.00261   0.00091   0.01479   0.01564   1.88203
   A18        1.96748   0.00055  -0.00099   0.00725   0.00624   1.97372
   A19        1.90546  -0.00053   0.00007  -0.00694  -0.00681   1.89864
   A20        1.89438   0.00144   0.00023   0.00193   0.00220   1.89658
   A21        1.86348  -0.00079   0.00015  -0.00557  -0.00550   1.85798
   A22        2.01942  -0.00226  -0.00140  -0.00682  -0.00825   2.01116
   A23        1.89193   0.00101   0.00072  -0.00060   0.00017   1.89211
   A24        1.88280  -0.00011   0.00046  -0.00771  -0.00733   1.87548
   A25        1.92515   0.00070  -0.00024   0.00521   0.00497   1.93012
   A26        1.84944   0.00049   0.00086  -0.00528  -0.00456   1.84488
   A27        1.89081   0.00025  -0.00036   0.01660   0.01627   1.90708
   A28        1.91273   0.00209   0.00006   0.01084   0.01092   1.92365
   A29        1.93274  -0.00179  -0.00065  -0.00761  -0.00825   1.92450
   A30        1.88331  -0.00041  -0.00000  -0.00520  -0.00518   1.87814
   A31        2.11227   0.00094  -0.00001   0.00417   0.00414   2.11641
   A32        2.06165  -0.00116  -0.00027  -0.00438  -0.00468   2.05698
   A33        2.10916   0.00022   0.00028   0.00005   0.00031   2.10947
   A34        2.08945  -0.00490  -0.00120  -0.01061  -0.01181   2.07764
   A35        1.97720  -0.00177   0.00037  -0.02954  -0.03090   1.94630
   A36        2.07360  -0.00104   0.00072  -0.03268  -0.03396   2.03964
   A37        2.00044   0.00083   0.00003  -0.01153  -0.01365   1.98679
    D1        3.11398   0.00005   0.00057  -0.00653  -0.00596   3.10801
    D2        1.04225  -0.00003  -0.00010  -0.00341  -0.00351   1.03874
    D3       -0.99467   0.00025  -0.00060   0.00684   0.00623  -0.98844
    D4        1.01219  -0.00011   0.00080  -0.01095  -0.01015   1.00204
    D5       -1.05954  -0.00020   0.00013  -0.00782  -0.00769  -1.06723
    D6       -3.09646   0.00009  -0.00037   0.00242   0.00205  -3.09440
    D7       -1.08002  -0.00011   0.00055  -0.00921  -0.00866  -1.08869
    D8        3.13144  -0.00020  -0.00012  -0.00609  -0.00621   3.12523
    D9        1.09452   0.00009  -0.00062   0.00415   0.00354   1.09805
   D10        3.13425   0.00005   0.00026  -0.01055  -0.01029   3.12396
   D11        1.04123  -0.00032  -0.00021  -0.02089  -0.02112   1.02011
   D12       -1.05656   0.00014   0.00033  -0.00974  -0.00940  -1.06596
   D13        3.13359  -0.00023  -0.00015  -0.02008  -0.02023   3.11337
   D14        0.98902  -0.00017   0.00113  -0.02195  -0.02082   0.96821
   D15       -1.10401  -0.00054   0.00065  -0.03229  -0.03164  -1.13565
   D16        3.12786  -0.00052   0.00060  -0.01589  -0.01531   3.11255
   D17        1.03625   0.00032   0.00011  -0.01018  -0.01001   1.02623
   D18       -1.00642  -0.00065  -0.00005  -0.01667  -0.01678  -1.02320
   D19       -1.06442  -0.00005   0.00096  -0.00387  -0.00292  -1.06734
   D20        3.12715   0.00079   0.00047   0.00185   0.00238   3.12953
   D21        1.08448  -0.00019   0.00031  -0.00464  -0.00438   1.08010
   D22        1.03993  -0.00088  -0.00043  -0.03206  -0.03248   1.00745
   D23       -3.07086  -0.00079  -0.00118  -0.03061  -0.03178  -3.10264
   D24       -1.02696  -0.00001  -0.00094  -0.01548  -0.01645  -1.04342
   D25        3.10875   0.00004   0.00055  -0.02537  -0.02479   3.08396
   D26       -1.00204   0.00013  -0.00020  -0.02392  -0.02409  -1.02614
   D27        1.04185   0.00090   0.00004  -0.00878  -0.00876   1.03309
   D28       -1.14936  -0.00040   0.00090  -0.03471  -0.03380  -1.18316
   D29        1.02303  -0.00031   0.00014  -0.03326  -0.03310   0.98993
   D30        3.06693   0.00047   0.00038  -0.01812  -0.01777   3.04915
   D31        0.99586   0.00024   0.00003  -0.00631  -0.00633   0.98953
   D32       -1.07983   0.00055   0.00039  -0.00203  -0.00167  -1.08150
   D33       -1.15922   0.00003   0.00026  -0.00460  -0.00434  -1.16356
   D34        3.04827   0.00034   0.00062  -0.00032   0.00032   3.04860
   D35        3.08111  -0.00090   0.00033  -0.02392  -0.02358   3.05754
   D36        1.00542  -0.00060   0.00069  -0.01964  -0.01891   0.98650
   D37        3.04306   0.00039   0.00087  -0.05177  -0.05088   2.99218
   D38       -0.08301   0.00056   0.00115  -0.04013  -0.03898  -0.12198
   D39       -1.01271  -0.00127  -0.00056  -0.05724  -0.05782  -1.07053
   D40        2.14441  -0.00110  -0.00028  -0.04560  -0.04591   2.09850
   D41        1.00432  -0.00015   0.00013  -0.05128  -0.05113   0.95318
   D42       -2.12175   0.00001   0.00041  -0.03964  -0.03923  -2.16098
   D43       -3.10484   0.00130   0.00125   0.03660   0.03786  -3.06698
   D44        0.02081   0.00112   0.00096   0.02460   0.02555   0.04636
   D45       -2.79534   0.00157  -0.00167   0.07547   0.07284  -2.72250
   D46       -0.37009  -0.00070  -0.00004  -0.02577  -0.02485  -0.39494
   D47        2.45632  -0.00290   0.00181  -0.10543  -0.10292   2.35340
         Item               Value     Threshold  Converged?
 Maximum Force            0.007971     0.000450     NO 
 RMS     Force            0.001441     0.000300     NO 
 Maximum Displacement     0.137100     0.001800     NO 
 RMS     Displacement     0.037255     0.001200     NO 
 Predicted change in Energy=-7.045412D-04
 GradGradGradGradGradGradGradGradGradGradGradGradGradGradGradGradGradGrad

                          Input orientation:                          
 ---------------------------------------------------------------------
 Center     Atomic      Atomic             Coordinates (Angstroms)
 Number     Number       Type             X           Y           Z
 ---------------------------------------------------------------------
      1          6           0        0.913110    0.028879   -0.062681
      2          6           0        2.440146    0.038563   -0.044958
      3          7           0        2.959706   -0.815329    1.021698
      4          6           0        4.413604   -0.864270    1.073128
      5          6           0        4.914869   -1.739904    2.233637
      6          7           0        4.441228   -3.132140    2.218452
      7          6           0        6.428018   -1.692486    2.249397
      8          7           0        7.094104   -2.199953    3.206102
      9          7           0        8.438894   -2.056076    3.218648
     10          1           0        0.527367    0.695305   -0.840170
     11          1           0        0.515111    0.350635    0.903715
     12          1           0        0.527334   -0.976610   -0.268061
     13          1           0        2.800928    1.057072    0.145531
     14          1           0        2.825432   -0.242465   -1.044676
     15          1           0        2.611730   -1.758888    0.874494
     16          1           0        4.779648    0.160754    1.219813
     17          1           0        4.870800   -1.229551    0.128924
     18          1           0        4.529492   -1.305399    3.163873
     19          1           0        4.694819   -3.580136    1.341248
     20          1           0        3.428889   -3.160231    2.296427
     21          1           0        6.934637   -1.180930    1.418486
     22          1           0        8.882222   -2.780899    3.755936
     23          1           0        8.889591   -1.872263    2.326037
 ---------------------------------------------------------------------
                    Distance matrix (angstroms):
                    1          2          3          4          5
     1  C    0.000000
     2  C    1.527170   0.000000
     3  N    2.465182   1.461789   0.000000
     4  C    3.786983   2.441262   1.455631   0.000000
     5  C    4.941229   3.805153   2.479172   1.537785   0.000000
[...]
 6567,-0.00008927,-0.00013861,0.00013629,-0.00012492,0.00004456,-0.0000
 2572,-0.00013139,-0.00001045,-0.00011446,-0.00000420,0.00001665,0.0001
 4931,0.00005134,-0.00003872,-0.00003964,0.00001545,-0.00019038,0.00024
 494,0.00105863,0.00056187,0.00032763,0.00043510,0.00078668,0.01096894,
 -0.00375095,-0.02582845,-0.01350744,0.05899196,-0.00099099,-0.00066143
 ,0.00226392,0.08061071,-0.03119028,-0.23017492,0.00091833,0.01283326,-
 0.02872388,0.00429984,-0.00042544,0.00154029,-0.00036804,0.00023978,0.
 00060921,-0.00027138,0.00022374,-0.00020609,0.00008731,0.00012216,-0.0
 0018035,0.00019844,0.00006076,0.00000146,-0.00033284,-0.00013243,0.000
 11204,0.00094948,-0.00031088,0.00031714,-0.00110425,0.00015386,0.00139
 240,0.00028889,0.00046313,0.00040297,0.00592996,-0.00395507,-0.0120304
 5,-0.08682897,0.02302969,0.26293247,0.00171343,0.00175669,0.00086103,0
 .00461844,0.01063518,0.00470422,-0.09274483,-0.09934966,-0.04751046,-0
 .02039960,-0.03715508,-0.01406100,-0.00041819,-0.00201890,-0.00032236,
 0.00216136,-0.00034331,0.00180752,-0.00006286,0.00004928,-0.00000677,-
 0.00010958,0.00022092,0.00003855,0.00023408,0.00005629,-0.00002816,-0.
 00010566,-0.00053057,0.00011643,-0.00018076,0.00015284,0.00015423,-0.0
 0027139,-0.00075054,-0.00070176,-0.00055979,0.00324493,-0.00181864,-0.
 00012740,-0.00023222,-0.00071039,0.11173799,-0.00046704,0.00121383,-0.
 00082259,-0.00896578,-0.02905353,-0.01184100,-0.11848398,-0.33014569,-
 0.08562666,0.00180800,0.00236742,-0.00257801,0.00018456,0.00059303,0.0
 0051462,-0.00018750,0.00013067,-0.00020056,-0.00006818,-0.00020797,-0.
 00023550,-0.00000411,-0.00004781,0.00003266,-0.00014944,-0.00001708,0.
 00000856,-0.00022877,0.00067874,0.00021059,0.00013096,-0.00007987,0.00
 002903,0.00133126,0.00030979,0.00035758,0.00204436,-0.00281870,0.00460
 851,-0.00060230,0.00165550,-0.00010220,0.12108084,0.35561545,0.0008491
 3,-0.00010122,0.00123247,0.00728011,0.02830805,0.00016951,-0.07032439,
 -0.12319073,-0.06326567,0.00725485,-0.00197360,-0.00346901,-0.00161244
 ,-0.00263914,-0.00015114,0.00144538,-0.00025967,0.00097787,-0.00019513
 ,0.00035634,-0.00007901,0.00005720,0.00019248,-0.00004657,0.00015958,0
 .00001759,0.00002683,0.00033058,-0.00006053,-0.00029706,0.00011169,-0.
 00037235,-0.00022287,-0.00035211,-0.00047359,0.00000798,-0.00124972,0.
 00227771,-0.00123676,0.00054051,0.00048607,0.00113010,0.05803121,0.093
 19338,0.06470183,-0.00005230,0.00016879,0.00008692,0.00126041,-0.00294
 750,0.00049251,-0.02136717,-0.03359484,-0.00872896,-0.07620853,-0.0730
 7730,-0.02121180,0.00279184,0.00676760,0.00359001,0.00067529,0.0023894
 9,-0.00177763,0.00021854,0.00097359,0.00057560,0.00001644,-0.00015083,
 0.00016777,-0.00011482,-0.00005993,-0.00002931,0.00000833,0.00012327,0
 .00003481,0.00001668,-0.00005032,0.00000885,0.00023951,0.00018714,0.00
 010735,0.00005522,0.00117050,-0.00003261,-0.00008864,0.00042105,-0.000
 24638,-0.00695872,0.00064105,-0.00169763,0.09467603,0.00014063,0.00064
 866,0.00007262,0.00095833,0.00103324,0.00080124,-0.00038066,0.00277392
 ,0.00146311,-0.07982975,-0.25488983,-0.06210298,-0.00682999,-0.0188805
 7,-0.00756784,0.00084961,-0.00402942,0.00411028,-0.00109618,-0.0003240
 2,-0.00100933,0.00035071,0.00104309,0.00028838,0.00015041,0.00006585,0
 .00009011,-0.00010477,-0.00001529,-0.00004647,0.00002011,-0.00003228,0
 .00000143,0.00023332,-0.00013172,0.00004551,-0.00048889,0.00049376,-0.
 00047274,0.00001947,-0.00019277,-0.00028001,0.00128704,0.00085136,0.00
 039017,0.08704861,0.27644787,-0.00001516,0.00022521,-0.00007055,-0.000
 02939,-0.00124015,0.00042488,-0.00286766,-0.00017012,0.00024993,-0.022
 67175,-0.06430969,-0.06714680,0.00776718,0.02019186,0.00572842,-0.0010
 9413,0.00524350,-0.00248824,0.00072445,-0.00004237,0.00051445,-0.00002
 208,-0.00022484,0.00027764,0.00010869,0.00003222,-0.00023215,-0.000048
 60,0.00000032,-0.00000744,0.00006094,0.00000354,-0.00000380,0.00009936
 ,0.00005233,-0.00001488,-0.00020085,0.00034772,0.00019184,-0.00001205,
 -0.00018590,-0.00024329,-0.00035169,0.00122888,0.00070157,0.02601420,0
 .06591466,0.06967173,0.00001741,0.00024237,-0.00057846,0.00197878,-0.0
 0456914,0.00545016,-0.03463664,0.01165310,0.02902628,-0.07731999,0.019
 77187,0.07156231,0.00377618,-0.00239956,-0.00785731,-0.00019107,-0.000
 35272,0.00022460,0.00091384,-0.00041676,0.00000576,-0.00010668,-0.0002
 1091,-0.00001923,0.00014605,0.00010849,-0.00007392,-0.00018755,0.00003
 476,-0.00028462,0.00042484,-0.00011924,-0.00009959,0.00001680,-0.00004
 700,0.00004478,-0.00006290,0.00037600,-0.00033536,0.00079724,0.0006265
 6,-0.00254883,0.00161802,0.00098170,-0.00051097,0.00473128,-0.00195468
 ,-0.00804439,0.09830743,0.00008678,0.00004815,0.00034219,-0.00006800,0
 .00102656,-0.00224071,0.00410614,0.00260815,0.00019700,0.01802200,-0.0
 6686404,-0.04811246,-0.00700159,0.00391294,0.02088522,0.00022277,0.003
 02037,-0.00019575,-0.00095393,0.00026422,-0.00040433,0.00018130,0.0002
 4488,-0.00014894,-0.00007592,-0.00006753,0.00009543,0.00008014,-0.0000
 3077,0.00001996,-0.00013316,-0.00004371,0.00006695,-0.00000526,-0.0000
 1518,-0.00000854,-0.00016867,-0.00003608,-0.00019533,-0.00037049,-0.00
 011609,0.00053292,-0.00002817,0.00068690,0.00140129,0.01043306,-0.0067
 7661,-0.02675079,-0.02550340,0.06452536,-0.00019103,-0.00013001,0.0003
 5376,-0.00077466,0.00042670,0.00278468,0.00570787,0.00280362,0.0046191
 6,0.06886834,-0.04822042,-0.22055098,0.00741167,-0.00812843,-0.0242920
 8,-0.00067586,-0.00010912,0.00236692,0.00218322,-0.00054112,0.00030475
 ,-0.00105993,0.00009318,0.00010274,-0.00006911,-0.00005721,0.00002408,
 0.00009816,-0.00005518,-0.00000203,-0.00020765,0.00010704,-0.00014740,
 -0.00001011,0.00002536,-0.00002762,-0.00009320,-0.00017411,-0.00025337
 ,0.00155813,-0.00158492,0.00043621,0.00053051,0.00014285,0.00145174,0.
 00320149,-0.00223110,-0.00843664,-0.08478074,0.05215203,0.24295053,-0.
 00001183,-0.00003249,0.00004779,0.00004833,0.00029617,-0.00023703,0.00
 122243,-0.00071220,0.00033669,0.00308962,-0.00165054,-0.00885927,-0.07
 591099,0.02705874,0.07732466,0.00425265,-0.00816504,-0.01370287,-0.014
 79097,0.01214690,0.02900138,0.00409636,0.00134896,0.00026428,-0.000654
 49,-0.00055173,-0.00061219,0.00002242,-0.00000251,0.00001579,-0.000028
 86,0.00000768,0.00000429,0.00000041,0.00000303,0.00000066,-0.00001415,
 -0.00002712,-0.00000593,-0.00014052,-0.00000672,0.00019239,0.00001189,
 -0.00011433,-0.00009574,0.00031495,-0.00034435,0.00063423,-0.00017931,
 0.00094826,-0.00122705,0.08286512,0.00001317,-0.00002149,-0.00010041,-
 0.00005378,-0.00013128,0.00015260,-0.00091103,0.00055128,-0.00142476,-
 0.00651031,0.00500197,0.02200888,0.02318061,-0.07210080,-0.07095101,0.
 00911015,-0.01773349,-0.03005705,0.00395419,-0.00096137,-0.00202617,-0
 .00123816,0.00009905,-0.00050557,-0.00018049,-0.00023416,0.00044250,-0
 .00000945,-0.00000030,0.00000849,0.00004336,0.00000805,0.00000138,0.00
 000675,0.00000465,0.00000359,-0.00000521,0.00000473,0.00000004,0.00002
 541,0.00004130,-0.00022261,0.00008724,-0.00010444,0.00009522,-0.000415
 71,0.00106320,-0.00037810,0.00192890,-0.00217261,0.00381584,-0.0270025
 6,0.09053771,-0.00004413,0.00002493,0.00003820,-0.00023621,0.00030374,
 0.00015605,0.00040879,-0.00106083,0.00240654,0.00886308,-0.00433783,-0
 .02464570,0.07656177,-0.07594499,-0.25432863,0.00010247,-0.00365289,-0
 .00284719,-0.00037682,0.00027367,0.00146324,-0.00169595,0.00066426,0.0
 0010043,0.00015493,0.00021770,0.00048002,-0.00000168,0.00000036,0.0000
 0221,-0.00006136,0.00001487,0.00000066,-0.00000068,0.00000323,0.000000
 34,0.00000175,-0.00000540,-0.00003544,0.00010731,-0.00020858,0.0003511
 4,0.00011517,-0.00000265,-0.00018330,0.00010768,0.00011045,0.00098319,
 -0.00157585,0.00337300,-0.00231542,-0.08087961,0.08090858,0.27632799,0
 .00000546,0.00000944,0.00006798,-0.00008889,0.00004036,-0.00036240,-0.
 00028718,0.00018348,0.00013910,0.00104654,-0.00000155,0.00000385,0.002
 75775,-0.00086271,-0.01477010,-0.05625388,-0.00755877,0.04090928,0.002
 62409,-0.00104734,-0.00182788,-0.00092276,0.00035266,0.00075511,-0.000
 08839,0.00017340,-0.00008750,0.00003140,-0.00002962,0.00000583,0.00000
 842,-0.00000536,-0.00001866,-0.00001845,-0.00000236,-0.00002016,0.0000
 2950,-0.00009983,0.00007356,0.00002372,0.00002699,0.00002785,-0.000708
 15,0.00044730,0.00003134,-0.00009949,-0.00022474,0.00007364,-0.0001121
 6,0.00023631,0.00053592,-0.00051898,-0.00277867,-0.00055703,0.05989761
 ,0.00002284,0.00003889,-0.00004617,0.00031032,-0.00024691,0.00046606,-
 0.00004011,0.00007637,0.00033726,0.00144759,0.00218535,-0.00198235,0.0
 0580092,-0.01679962,-0.03755241,-0.00363662,-0.06034743,-0.08771966,0.
 00071831,0.00048331,0.00046230,-0.00049465,-0.00026628,-0.00002842,0.0
 0012593,0.00019046,0.00001582,-0.00004903,0.00003145,-0.00002659,-0.00
 001385,-0.00001402,0.00002130,-0.00000180,-0.00001781,0.00001645,-0.00
 005776,0.00011173,-0.00010158,-0.00000091,0.00001552,-0.00007297,0.001
 05371,-0.00060814,0.00002944,-0.00043774,0.00084840,0.00028639,-0.0003
 8684,-0.00015121,0.00124726,-0.00350902,-0.00559644,-0.00028668,-0.002
 15283,0.08100163,-0.00000162,-0.00005018,-0.00000795,0.00003253,0.0002
 1596,0.00002942,0.00048032,0.00001150,0.00002476,-0.00104570,0.0014408
 8,0.00298366,-0.00004704,0.00376291,-0.00697414,0.07371703,-0.12877162
 ,-0.37202269,0.00057852,-0.00062773,-0.00052639,-0.00039670,0.00019496
 ,0.00052459,-0.00008234,0.00005999,-0.00010861,0.00001973,-0.00000319,
 0.00000818,0.00000469,0.00000209,-0.00000477,0.00000069,0.00001016,0.0
 0000984,-0.00002079,0.00001524,-0.00004256,-0.00001291,-0.00001444,-0.
 00000847,0.00014368,-0.00009302,0.00010782,-0.00013199,0.00031686,-0.0
 0028938,0.00052339,-0.00111865,0.00037215,-0.00141560,-0.00097055,0.00
 155385,-0.06580397,0.12438784,0.38352641,0.00003874,-0.00003544,0.0000
 0804,0.00026388,0.00030371,0.00025399,0.00003097,0.00034261,-0.0005846
 2,-0.00004745,0.00105256,0.00018061,-0.01377342,0.00540259,-0.00065115
 ,-0.41456902,-0.01380682,0.08612739,-0.00044142,-0.00440141,-0.0020786
 1,0.00014566,-0.00020394,0.00096932,-0.00085466,-0.00006890,-0.0002640
 2,-0.00001028,-0.00000472,0.00000122,-0.00001110,0.00001420,0.00001332
 ,-0.00001258,-0.00000817,-0.00001869,-0.00007079,0.00009953,-0.0000963
 8,-0.00001474,-0.00002234,0.00001419,0.00063930,0.00063127,-0.00010516
 ,-0.00017391,0.00029725,-0.00014363,-0.00001429,-0.00016052,0.00005783
 ,0.00090868,0.00021363,-0.00037527,-0.00604606,0.00170234,-0.00557388,
 0.43372143,0.00007452,0.00007665,-0.00002492,0.00096720,-0.00074833,0.
 00031303,0.00012916,0.00135472,-0.00059270,-0.00190730,0.00003891,0.00
 031151,-0.03915438,-0.00363696,0.00735273,0.01882968,-0.03711078,-0.02
 826570,0.00026310,-0.00575223,-0.00120802,-0.00122687,-0.00020423,0.00
 057101,-0.00038379,0.00009751,-0.00048516,-0.00006314,0.00003310,-0.00
 004638,0.00002184,-0.00004327,0.00002961,-0.00000314,-0.00003767,0.000
 01547,-0.00006734,0.00020476,-0.00012996,-0.00006560,0.00027664,-0.000
 44973,0.00085627,-0.00109837,0.00246124,0.00030608,0.00002031,-0.00019
 806,0.00022010,-0.00004215,-0.00018144,0.00049692,0.00134571,-0.000321
 10,0.01307820,-0.00125746,0.00130885,0.00815013,0.04614656,-0.00003388
 ,-0.00000774,0.00013088,-0.00045419,0.00010412,-0.00058253,0.00048607,
 0.00014441,0.00047622,0.00162335,0.00003174,-0.00052153,-0.00596491,0.
 00316697,0.00004881,0.04557126,-0.02147077,-0.04376970,-0.00081532,-0.
 00299968,-0.00023022,0.00032517,-0.00020958,0.00043416,-0.00119742,-0.
 00000532,-0.00026099,0.00006064,-0.00003996,0.00000413,0.00001827,-0.0
 0000599,-0.00003701,-0.00002550,0.00001014,-0.00003524,0.00005475,-0.0
 0021612,0.00016706,0.00002726,-0.00003907,0.00011917,-0.00104994,0.001
 21847,-0.00161650,-0.00029210,-0.00010044,0.00021139,-0.00010878,0.000
 14457,0.00010724,-0.00068412,-0.00023827,0.00015016,0.04031527,0.00050
 333,-0.00926316,-0.07752576,0.01938926,0.05460437,0.00000841,0.0000722
 4,-0.00004451,-0.00005303,-0.00035658,-0.00002710,-0.00040165,0.000615
 79,-0.00104119,-0.00006636,-0.00121769,0.00222867,-0.00923437,0.017407
 12,0.02086843,0.00318851,0.00053218,-0.00015865,-0.11191211,0.06620184
 ,0.07008996,0.00673857,-0.01107853,-0.01449028,0.00609363,-0.00469342,
 -0.00226742,-0.00004505,0.00001619,-0.00001246,0.00000848,-0.00001273,
 0.00000866,-0.00000663,-0.00001420,0.00000031,0.00001498,0.00000956,0.
 00001544,-0.00002090,0.00008158,-0.00013321,-0.00006787,0.00000144,0.0
 0003928,0.00002037,-0.00003527,0.00001142,0.00009635,0.00013104,-0.000
 99707,-0.00512671,0.00050267,-0.00060751,-0.00109707,-0.00037114,-0.00
 088653,0.00045521,-0.00026482,-0.00011666,0.11035709,0.00000628,-0.000
 00777,0.00000724,0.00007180,-0.00002295,-0.00005054,-0.00017643,-0.000
 00769,0.00042490,0.00007264,0.00023839,-0.00063582,-0.00249280,-0.0002
 0868,-0.00446127,0.00052437,0.00119900,0.00072235,0.06537069,-0.127847
 86,-0.09347124,0.00512166,-0.00151931,-0.03391468,0.00188702,-0.002003
 25,0.00766842,0.00000672,-0.00000407,0.00000093,-0.00000810,0.00000144
 ,0.00000313,-0.00000103,0.00000086,-0.00000244,0.00000242,-0.00000522,
 0.00000125,-0.00000160,0.00000604,0.00002974,-0.00000897,0.00002958,-0
 .00006273,0.00010790,-0.00002939,0.00003371,0.00004410,-0.00004007,0.0
 0056487,-0.00031010,0.00051428,0.00015402,0.00024926,0.00037134,-0.000
 06487,0.00021316,0.00017022,0.00027489,-0.07000971,0.13067152,0.000001
 69,-0.00004692,0.00004059,0.00011867,0.00007573,-0.00009610,-0.0002057
 3,-0.00030088,0.00010636,0.00114209,0.00006762,-0.00024679,-0.00172366
 ,-0.00156558,0.00232416,-0.00048119,0.00052565,0.00036359,0.06719145,-
 0.09406132,-0.14810441,0.00594605,-0.03636734,-0.01213145,0.00532782,0
 .00653457,-0.00154077,0.00002283,-0.00000351,0.00000441,-0.00000223,0.
 00000014,-0.00000244,0.00000480,0.00000889,0.00000274,-0.00000290,0.00
 001491,-0.00000128,0.00000025,0.00000759,0.00000955,0.00003490,-0.0000
 1677,0.00001635,-0.00021425,0.00019674,-0.00001935,-0.00006125,-0.0000
 1592,0.00019710,-0.00000144,-0.00051234,0.00036133,0.00055928,0.000044
 41,0.00014203,-0.00008847,0.00023844,0.00002211,-0.07405159,0.12238800
 ,0.15880436,0.00000004,-0.00001086,0.00000507,0.00001284,0.00003026,-0
 .00002799,0.00005728,-0.00006859,0.00004968,0.00014868,0.00008462,0.00
 005946,0.00049677,-0.00213466,-0.00007211,-0.00072351,-0.00009654,0.00
 016801,-0.00755181,0.00304764,0.00060280,-0.03137241,-0.00901068,-0.04
 085683,-0.09248484,-0.00521388,-0.11447795,0.00000712,-0.00000345,0.00
 000386,-0.00000189,0.00000105,-0.00000114,0.00000074,0.00000279,0.0000
 0058,-0.00000050,0.00000095,-0.00000188,-0.00000090,-0.00000175,0.0000
 0834,0.00000117,-0.00000855,0.00001745,-0.00000581,0.00001658,-0.00003
 798,-0.00000168,0.00001617,-0.00001733,0.00001468,0.00007575,0.0001218
 4,-0.00003434,0.00000281,-0.00001984,-0.00011616,-0.00016026,-0.000144
 17,0.00010802,0.00065105,-0.00036318,0.12498222,-0.00000237,-0.0000626
 5,0.00005238,0.00001854,0.00026680,-0.00014997,0.00028981,-0.00038901,
 0.00025430,0.00007997,0.00045399,-0.00019231,-0.00131676,0.00091260,-0
 .00040185,0.00098156,0.00006678,-0.00021351,0.00145287,0.00340894,-0.0
 0049475,-0.01079459,-0.00684419,0.00515719,0.01083981,-0.03356697,-0.0
 5131493,0.00004457,-0.00001889,0.00001982,0.00000097,0.00001348,-0.000
 01122,-0.00000280,0.00000303,-0.00000973,-0.00000734,-0.00003812,0.000
 00479,-0.00000371,-0.00003097,0.00006185,-0.00004049,0.00002905,-0.000
 04087,-0.00000043,0.00001376,-0.00002222,-0.00001879,-0.00001120,-0.00
 001421,0.00016155,0.00005847,0.00001482,-0.00004487,-0.00004115,-0.000
 01387,0.00022388,0.00012136,0.00022881,0.00023271,0.00037007,0.0001764
 8,0.01198363,0.04323102,-0.00000236,-0.00000444,0.00000492,0.00002744,
 -0.00001779,0.00001614,0.00000183,-0.00003219,0.00002522,0.00026521,-0
 .00001007,-0.00006968,0.00049260,-0.00080913,0.00132284,-0.00026999,-0
 .00001451,0.00001191,0.00118179,0.00074581,0.00156671,0.00769678,0.005
 85268,0.00532108,-0.14667431,-0.09056475,-0.37795524,0.00000090,0.0000
 0226,-0.00000235,0.00000210,-0.00000106,-0.00000069,0.00000171,0.00000
 068,0.00000106,-0.00000207,0.00000555,-0.00000008,0.00000078,0.0000028
 7,-0.00000845,0.00000553,-0.00000383,0.00001446,-0.00000709,0.00000692
 ,-0.00000629,-0.00000010,0.00001357,-0.00000405,-0.00020449,-0.0000207
 8,-0.00005099,0.00000151,-0.00000151,-0.00000838,-0.00001507,-0.000036
 27,-0.00005852,0.00000988,0.00097111,-0.00026336,0.14160510,0.07696488
 ,0.38201952,0.00000026,-0.00001560,0.00001127,0.00003209,0.00004089,-0
 .00000454,0.00009245,-0.00017849,0.00009757,0.00033290,0.00014016,-0.0
 0005208,-0.00022016,-0.00194694,0.00023948,-0.00039492,-0.00019312,-0.
 00014505,0.00453028,0.00583403,0.00711252,-0.03400200,0.03602824,0.014
 83911,-0.08785106,0.08853584,0.02678438,0.00000842,-0.00000212,0.00000
 180,-0.00000007,0.00000149,-0.00000110,-0.00000103,0.00000092,-0.00000
 094,-0.00000013,-0.00000694,-0.00000076,-0.00000018,-0.00000557,0.0000
 0951,-0.00002091,-0.00000278,-0.00000503,0.00004448,-0.00008279,0.0000
 4525,-0.00001195,0.00000515,-0.00004943,0.00052929,-0.00003646,-0.0001
 3270,-0.00014870,-0.00003247,-0.00006168,-0.00004798,-0.00009655,-0.00
 006930,0.00094212,-0.00132033,-0.00315393,0.00646429,-0.01407770,-0.00
 411767,0.10972252,-0.00000109,-0.00002700,0.00002431,-0.00000745,0.000
 13838,-0.00011742,0.00009610,-0.00017828,0.00016718,-0.00001231,0.0001
 5780,-0.00020067,-0.00087916,0.00107022,-0.00113701,0.00044223,0.00008
 736,0.00007225,-0.00304745,0.00426954,0.00615024,-0.00120733,0.0018230
 4,-0.00098774,0.11414718,-0.29870636,-0.15999208,0.00002225,-0.0000120
 5,0.00001127,-0.00000545,0.00000643,-0.00000345,-0.00000010,0.00000461
 ,-0.00000437,-0.00000107,-0.00001463,0.00000150,-0.00000458,-0.0000144
 9,0.00005216,-0.00002331,0.00002030,-0.00003453,-0.00000354,-0.0000015
 1,-0.00003809,-0.00000893,0.00002974,0.00004853,-0.00003947,-0.0001740
 0,-0.00024267,0.00001126,-0.00000797,0.00000088,0.00006542,0.00004498,
 0.00011622,0.00224974,-0.00187647,0.00261142,0.00079591,-0.00794618,0.
 00695000,-0.11258886,0.30130652,-0.00000148,0.00004488,-0.00003928,-0.
 00007482,-0.00013293,0.00009548,-0.00011548,0.00032648,-0.00028143,-0.
 00073376,-0.00026512,0.00032562,0.00092286,0.00014856,-0.00135045,-0.0
 0034045,0.00003139,0.00002884,-0.00643184,0.00325501,0.00121900,0.0184
 9531,-0.00312081,0.00069100,0.01471063,-0.11609893,-0.09075164,-0.0000
 2752,0.00000889,-0.00000763,0.00000326,-0.00000569,0.00000272,0.000002
 29,-0.00000207,0.00000494,0.00000301,0.00001824,-0.00000055,0.00000528
 ,0.00001020,-0.00004215,0.00001819,-0.00002237,0.00002936,-0.00001744,
 0.00000243,0.00000376,0.00004212,-0.00003271,-0.00004149,0.00010318,-0
 .00002947,0.00003132,-0.00005181,0.00000051,-0.00002620,-0.00010518,-0
 .00005171,-0.00010030,0.00156214,-0.00058096,0.00001128,0.01337821,-0.
 03005589,-0.01187577,-0.04134669,0.14655209,0.10207357\\0.00000528,-0.
 00000084,-0.00000108,0.00000300,0.00000203,0.00000626,0.00000910,-0.00
 001266,-0.00000695,-0.00000946,0.00002046,-0.00001088,-0.00000634,-0.0
 0003434,0.00000753,-0.00000401,0.00001451,0.00000200,-0.00000645,-0.00
 000240,-0.00001562,0.00000334,0.00000670,0.00000346,0.00000517,-0.0000
 0184,0.00000880,-0.00000231,0.00000030,0.00000051,-0.00000192,0.000000
 51,0.00000061,-0.00000118,-0.00000013,0.00000003,-0.00000228,-0.000001
 92,0.00000042,-0.00000270,-0.00000035,0.00000056,-0.00000144,0.0000087
 9,-0.00000020,0.00000010,-0.00000206,-0.00000130,0.00000012,-0.0000038
 3,0.00000573,-0.00000373,0.00000095,-0.00000186,0.00000523,0.00000127,
 0.00000429,0.00000177,0.00000103,-0.00000330,-0.00000393,0.,0.00000159
 ,0.00000844,0.00000231,0.00000112,0.00000419,0.00000153,-0.00000173\\\
 @


 Discoveries are often made by not following instructions,
 by going off the main road, by trying the untried.
 -- Frank Tyger
 Job cpu time:       0 days  1 hours 55 minutes 42.4 seconds.
 Elapsed time:       0 days  0 hours 28 minutes 56.2 seconds.
 File lengths (MBytes):  RWF=    181 Int=      0 D2E=      0 Chk=     10 Scr=      1
 Normal termination of Gaussian 16 at Tue Jun  1 02:38:40 2021.
### All Done ###
