### Starting Gaussian ###
 Entering Gaussian System, Link 0=g16
 Initial command:
 /cluster/software/gaussian/gaussian-16-A.03/avx2/g16/l1.exe "/local/scratch/cz9n3/Gau-23504.inp" -scrdir="/local/scratch/cz9n3/"
 Entering Link 1 = /cluster/software/gaussian/gaussian-16-A.03/avx2/g16/l1.exe PID=     23505.
  
 Copyright (c) 1988,1990,1992,1993,1995,1998,2003,2009,2016,
            Gaussian, Inc.  All Rights Reserved.
  
 This is part of the Gaussian(R) 16 program.  It is based on
 the Gaussian(R) 09 system (copyright 2009, Gaussian, Inc.),
 the Gaussian(R) 03 system (copyright 2003, Gaussian, Inc.),
 the Gaussian(R) 98 system (copyright 1998, Gaussian, Inc.),
 the Gaussian(R) 94 system (copyright 1995, Gaussian, Inc.),
 the Gaussian 92(TM) system (copyright 1992, Gaussian, Inc.),
 the Gaussian 90(TM) system (copyright 1990, Gaussian, Inc.),
 the Gaussian 88(TM) system (copyright 1988, Gaussian, Inc.),
 the Gaussian 86(TM) system (copyright 1986, Carnegie Mellon
 University), and the Gaussian 82(TM) system (copyright 1983,
 Carnegie Mellon University). Gaussian is a federally registered
 trademark of Gaussian, Inc.
  
 This software contains proprietary and confidential information,
 including trade secrets, belonging to Gaussian, Inc.
  
 This software is provided under written license and may be
 used, copied, transmitted, or stored only in accord with that
 written license.
  
 The following legend is applicable only to US Government
 contracts under FAR:
  
                    RESTRICTED RIGHTS LEGEND
  
 Use, reproduction and disclosure by the US Government is
 subject to restrictions as set forth in subparagraphs (a)
 and (c) of the Commercial Computer Software - Restricted
 Rights clause in FAR 52.227-19.
  
 Gaussian, Inc.
 340 Quinnipiac St., Bldg. 40, Wallingford CT 06492
  
  
 ---------------------------------------------------------------
 Warning -- This program may not be used in any manner that
 competes with the business of Gaussian, Inc. or will provide
 assistance to any competitor of Gaussian, Inc.  The licensee
 of this program is prohibited from giving any competitor of
 Gaussian, Inc. access to this program.  By using this program,
 the user acknowledges that Gaussian, Inc. is engaged in the
 business of creating and licensing software in the field of
 computational chemistry and represents and warrants to the
 licensee that it is not a competitor of Gaussian, Inc. and that
 it will not use this program in any manner prohibited above.
 ---------------------------------------------------------------
  

 Cite this work as:
 Gaussian 16, Revision A.03,
 M. J. Frisch, G. W. Trucks, H. B. Schlegel, G. E. Scuseria, 
 M. A. Robb, J. R. Cheeseman, G. Scalmani, V. Barone, 
 G. A. Petersson, H. Nakatsuji, X. Li, M. Caricato, A. V. Marenich, 
 J. Bloino, B. G. Janesko, R. Gomperts, B. Mennucci, H. P. Hratchian, 
 J. V. Ortiz, A. F. Izmaylov, J. L. Sonnenberg, D. Williams-Young, 
 F. Ding, F. Lipparini, F. Egidi, J. Goings, B. Peng, A. Petrone, 
 T. Henderson, D. Ranasinghe, V. G. Zakrzewski, J. Gao, N. Rega, 
 G. Zheng, W. Liang, M. Hada, M. Ehara, K. Toyota, R. Fukuda, 
 J. Hasegawa, M. Ishida, T. Nakajima, Y. Honda, O. Kitao, H. Nakai, 
 T. Vreven, K. Throssell, J. A. Montgomery, Jr., J. E. Peralta, 
 F. Ogliaro, M. J. Bearpark, J. J. Heyd, E. N. Brothers, K. N. Kudin, 
 V. N. Staroverov, T. A. Keith, R. Kobayashi, J. Normand, 
 K. Raghavachari, A. P. Rendell, J. C. Burant, S. S. Iyengar, 
 J. Tomasi, M. Cossi, J. M. Millam, M. Klene, C. Adamo, R. Cammi, 
 J. W. Ochterski, R. L. Martin, K. Morokuma, O. Farkas, 
 J. B. Foresman, and D. J. Fox, Gaussian, Inc., Wallingford CT, 2016.
 
 ******************************************
 Gaussian 16:  ES64L-G16RevA.03 25-Dec-2016
                 1-Jun-2021 
 ******************************************
 %chk=CCNCNCpCNpCCtN.chk
 %NProcShared=20
 Will use up to   20 processors via shared memory.
 -----------------------------
 # opt freq b3lyp/6-31g(2df,p)
 -----------------------------
 1/18=20,19=15,26=3,38=1/1,3;
 2/9=110,12=2,17=6,18=5,40=1/2;
 3/5=1,6=6,7=104,11=2,25=1,30=1,71=1,74=-5/1,2,3;
 4//1;
 5/5=2,38=5/2;
 6/7=2,8=2,9=2,10=2,28=1/1;
 7//1,2,3,16;
 1/18=20,19=15,26=3/3(2);
 2/9=110/2;
 99//99;
 2/9=110/2;
 3/5=1,6=6,7=104,11=2,25=1,30=1,71=1,74=-5/1,2,3;
 4/5=5,16=3,69=1/1;
 5/5=2,38=5/2;
 7//1,2,3,16;
 1/18=20,19=15,26=3/3(-5);
 2/9=110/2;
 6/7=2,8=2,9=2,10=2,19=2,28=1/1;
 99/9=1/99;
 -------------------
 Title Card Required
 -------------------
 Symbolic Z-matrix:
 Charge =  0 Multiplicity = 1
 C                     0.86456   0.06519  -0.01005 
 C                     2.37686   0.10704   0.01189 
 N                     2.85761   1.49653  -0.02025 
 C                     4.29976   1.44911  -0.09903 
 N                     4.83325   2.7927   -0.19531 
 C                     6.32623   2.77715  -0.24402 
 C                     6.91566   1.93967  -1.43893 
 N                     6.63981   0.50378  -1.37277 
 C                     6.85847   4.23515  -0.31368 
 C                     8.37847   4.23515  -0.31368 
 N                     9.63944   4.23515  -0.31368 
 H                     0.5203   -0.97272   0.04612 
 H                     0.47727   0.50105  -0.93635 
 H                     0.44613   0.61137   0.83973 
 H                     2.7492   -0.4562   -0.85522 
 H                     2.7439   -0.40046   0.91289 
 H                     2.55969   1.99144   0.81176 
 H                     4.50262   0.89628  -1.01143 
 H                     4.71605   0.93308   0.77543 
 H                     4.51116   3.32133   0.60999 
 H                     6.6933    2.33735   0.69461 
 H                     8.00426   2.0358   -1.47386 
 H                     6.52547   2.34248  -2.3805 
 H                     7.02575   0.08633  -0.53468 
 H                     7.02059   0.02281  -2.18752 
 H                     6.50343   4.81749   0.54433 
 H                     6.50445   4.72909  -1.22632 
 

 GradGradGradGradGradGradGradGradGradGradGradGradGradGradGradGradGradGrad
 Berny optimization.
 Initialization pass.
                           ----------------------------
                           !    Initial Parameters    !
                           ! (Angstroms and Degrees)  !
 --------------------------                            --------------------------
 ! Name  Definition              Value          Derivative Info.                !
 --------------------------------------------------------------------------------
 ! R1    R(1,2)                  1.513          estimate D2E/DX2                !
 ! R2    R(1,12)                 1.095          estimate D2E/DX2                !
 ! R3    R(1,13)                 1.0945         estimate D2E/DX2                !
 ! R4    R(1,14)                 1.0934         estimate D2E/DX2                !
 ! R5    R(2,3)                  1.4707         estimate D2E/DX2                !
 ! R6    R(2,15)                 1.099          estimate D2E/DX2                !
 ! R7    R(2,16)                 1.0973         estimate D2E/DX2                !
 ! R8    R(3,4)                  1.4451         estimate D2E/DX2                !
 ! R9    R(3,17)                 1.0129         estimate D2E/DX2                !
 ! R10   R(4,5)                  1.4488         estimate D2E/DX2                !
 ! R11   R(4,18)                 1.0859         estimate D2E/DX2                !
 ! R12   R(4,19)                 1.0974         estimate D2E/DX2                !
 ! R13   R(5,6)                  1.4939         estimate D2E/DX2                !
 ! R14   R(5,20)                 1.0157         estimate D2E/DX2                !
 ! R15   R(6,7)                  1.5737         estimate D2E/DX2                !
 ! R16   R(6,9)                  1.5537         estimate D2E/DX2                !
 ! R17   R(6,21)                 1.0996         estimate D2E/DX2                !
 ! R18   R(7,8)                  1.4636         estimate D2E/DX2                !
 ! R19   R(7,22)                 1.0934         estimate D2E/DX2                !
 ! R20   R(7,23)                 1.0959         estimate D2E/DX2                !
 ! R21   R(8,24)                 1.0127         estimate D2E/DX2                !
 ! R22   R(8,25)                 1.0199         estimate D2E/DX2                !
 ! R23   R(9,10)                 1.52           estimate D2E/DX2                !
 ! R24   R(9,26)                 1.0961         estimate D2E/DX2                !
 ! R25   R(9,27)                 1.0965         estimate D2E/DX2                !
 ! R26   R(10,11)                1.261          estimate D2E/DX2                !
 ! A1    A(2,1,12)             109.8602         estimate D2E/DX2                !
 ! A2    A(2,1,13)             110.7889         estimate D2E/DX2                !
 ! A3    A(2,1,14)             110.9415         estimate D2E/DX2                !
 ! A4    A(12,1,13)            108.0372         estimate D2E/DX2                !
 ! A5    A(12,1,14)            108.259          estimate D2E/DX2                !
 ! A6    A(13,1,14)            108.869          estimate D2E/DX2                !
 ! A7    A(1,2,3)              110.6434         estimate D2E/DX2                !
 ! A8    A(1,2,15)             108.2415         estimate D2E/DX2                !
 ! A9    A(1,2,16)             109.4779         estimate D2E/DX2                !
 ! A10   A(3,2,15)             110.8688         estimate D2E/DX2                !
 ! A11   A(3,2,16)             110.2167         estimate D2E/DX2                !
 ! A12   A(15,2,16)            107.3074         estimate D2E/DX2                !
 ! A13   A(2,3,4)              107.2427         estimate D2E/DX2                !
 ! A14   A(2,3,17)             110.3373         estimate D2E/DX2                !
 ! A15   A(4,3,17)             110.7536         estimate D2E/DX2                !
 ! A16   A(3,4,5)              109.9175         estimate D2E/DX2                !
 ! A17   A(3,4,18)             104.4147         estimate D2E/DX2                !
 ! A18   A(3,4,19)             110.5219         estimate D2E/DX2                !
 ! A19   A(5,4,18)             110.3335         estimate D2E/DX2                !
 ! A20   A(5,4,19)             110.4474         estimate D2E/DX2                !
 ! A21   A(18,4,19)            111.055          estimate D2E/DX2                !
 ! A22   A(4,5,6)              111.132          estimate D2E/DX2                !
 ! A23   A(4,5,20)             108.2516         estimate D2E/DX2                !
 ! A24   A(6,5,20)             110.3764         estimate D2E/DX2                !
 ! A25   A(5,6,7)              113.8675         estimate D2E/DX2                !
 ! A26   A(5,6,9)              109.5155         estimate D2E/DX2                !
 ! A27   A(5,6,21)             108.056          estimate D2E/DX2                !
 ! A28   A(7,6,9)              109.6969         estimate D2E/DX2                !
 ! A29   A(7,6,21)             108.0743         estimate D2E/DX2                !
 ! A30   A(9,6,21)             107.412          estimate D2E/DX2                !
 ! A31   A(6,7,8)              114.6556         estimate D2E/DX2                !
 ! A32   A(6,7,22)             110.51           estimate D2E/DX2                !
 ! A33   A(6,7,23)             108.8684         estimate D2E/DX2                !
 ! A34   A(8,7,22)             105.9821         estimate D2E/DX2                !
 ! A35   A(8,7,23)             109.4094         estimate D2E/DX2                !
 ! A36   A(22,7,23)            107.1404         estimate D2E/DX2                !
 ! A37   A(7,8,24)             111.714          estimate D2E/DX2                !
 ! A38   A(7,8,25)             110.8657         estimate D2E/DX2                !
 ! A39   A(24,8,25)            108.9315         estimate D2E/DX2                !
 ! A40   A(6,9,10)             110.0335         estimate D2E/DX2                !
 ! A41   A(6,9,26)             110.6416         estimate D2E/DX2                !
 ! A42   A(6,9,27)             110.4542         estimate D2E/DX2                !
 ! A43   A(10,9,26)            108.9003         estimate D2E/DX2                !
 ! A44   A(10,9,27)            108.837          estimate D2E/DX2                !
 ! A45   A(26,9,27)            107.9173         estimate D2E/DX2                !
 ! A46   L(9,10,11,22,-1)      180.0            estimate D2E/DX2                !
 ! A47   L(9,10,11,22,-2)      180.0            estimate D2E/DX2                !
 ! D1    D(12,1,2,3)          -178.2239         estimate D2E/DX2                !
 ! D2    D(12,1,2,15)           60.1091         estimate D2E/DX2                !
 ! D3    D(12,1,2,16)          -56.5592         estimate D2E/DX2                !
 ! D4    D(13,1,2,3)            62.4834         estimate D2E/DX2                !
 ! D5    D(13,1,2,15)          -59.1836         estimate D2E/DX2                !
 ! D6    D(13,1,2,16)         -175.8519         estimate D2E/DX2                !
 ! D7    D(14,1,2,3)           -58.5595         estimate D2E/DX2                !
 ! D8    D(14,1,2,15)          179.7735         estimate D2E/DX2                !
 ! D9    D(14,1,2,16)           63.1051         estimate D2E/DX2                !
 ! D10   D(1,2,3,4)           -175.7562         estimate D2E/DX2                !
 ! D11   D(1,2,3,17)            63.5314         estimate D2E/DX2                !
 ! D12   D(15,2,3,4)           -55.6494         estimate D2E/DX2                !
 ! D13   D(15,2,3,17)         -176.3618         estimate D2E/DX2                !
 ! D14   D(16,2,3,4)            63.0152         estimate D2E/DX2                !
 ! D15   D(16,2,3,17)          -57.6971         estimate D2E/DX2                !
 ! D16   D(2,3,4,5)            177.4186         estimate D2E/DX2                !
 ! D17   D(2,3,4,18)            59.0764         estimate D2E/DX2                !
 ! D18   D(2,3,4,19)           -60.4148         estimate D2E/DX2                !
 ! D19   D(17,3,4,5)           -62.1331         estimate D2E/DX2                !
 ! D20   D(17,3,4,18)          179.5247         estimate D2E/DX2                !
 ! D21   D(17,3,4,19)           60.0336         estimate D2E/DX2                !
 ! D22   D(3,4,5,6)            178.5851         estimate D2E/DX2                !
 ! D23   D(3,4,5,20)            57.2174         estimate D2E/DX2                !
 ! D24   D(18,4,5,6)           -66.7918         estimate D2E/DX2                !
 ! D25   D(18,4,5,20)          171.8405         estimate D2E/DX2                !
 ! D26   D(19,4,5,6)            56.3743         estimate D2E/DX2                !
 ! D27   D(19,4,5,20)          -64.9934         estimate D2E/DX2                !
 ! D28   D(4,5,6,7)             58.0795         estimate D2E/DX2                !
 ! D29   D(4,5,6,9)           -178.7012         estimate D2E/DX2                !
 ! D30   D(4,5,6,21)           -61.9917         estimate D2E/DX2                !
 ! D31   D(20,5,6,7)           178.195          estimate D2E/DX2                !
 ! D32   D(20,5,6,9)           -58.5858         estimate D2E/DX2                !
 ! D33   D(20,5,6,21)           58.1237         estimate D2E/DX2                !
 ! D34   D(5,6,7,8)            -65.2151         estimate D2E/DX2                !
 ! D35   D(5,6,7,22)           175.104          estimate D2E/DX2                !
 ! D36   D(5,6,7,23)            57.6926         estimate D2E/DX2                !
 ! D37   D(9,6,7,8)            171.6645         estimate D2E/DX2                !
 ! D38   D(9,6,7,22)            51.9836         estimate D2E/DX2                !
 ! D39   D(9,6,7,23)           -65.4278         estimate D2E/DX2                !
 ! D40   D(21,6,7,8)            54.8459         estimate D2E/DX2                !
 ! D41   D(21,6,7,22)          -64.8351         estimate D2E/DX2                !
 ! D42   D(21,6,7,23)          177.7536         estimate D2E/DX2                !
 ! D43   D(5,6,9,10)           177.9895         estimate D2E/DX2                !
 ! D44   D(5,6,9,26)            57.6054         estimate D2E/DX2                !
 ! D45   D(5,6,9,27)           -61.8254         estimate D2E/DX2                !
 ! D46   D(7,6,9,10)           -56.3597         estimate D2E/DX2                !
 ! D47   D(7,6,9,26)          -176.7439         estimate D2E/DX2                !
 ! D48   D(7,6,9,27)            63.8254         estimate D2E/DX2                !
 ! D49   D(21,6,9,10)           60.8743         estimate D2E/DX2                !
 ! D50   D(21,6,9,26)          -59.5098         estimate D2E/DX2                !
 ! D51   D(21,6,9,27)         -178.9406         estimate D2E/DX2                !
 ! D52   D(6,7,8,24)           -60.1232         estimate D2E/DX2                !
 ! D53   D(6,7,8,25)           178.1734         estimate D2E/DX2                !
 ! D54   D(22,7,8,24)           62.0502         estimate D2E/DX2                !
 ! D55   D(22,7,8,25)          -59.6532         estimate D2E/DX2                !
 ! D56   D(23,7,8,24)          177.2609         estimate D2E/DX2                !
 ! D57   D(23,7,8,25)           55.5575         estimate D2E/DX2                !
 --------------------------------------------------------------------------------
 Trust Radius=3.00D-01 FncErr=1.00D-07 GrdErr=1.00D-06 EigMax=2.50D+02 EigMin=1.00D-04
 Number of steps in this run=    140 maximum allowed number of steps=    162.
 GradGradGradGradGradGradGradGradGradGradGradGradGradGradGradGradGradGrad

                          Input orientation:                          
 ---------------------------------------------------------------------
 Center     Atomic      Atomic             Coordinates (Angstroms)
 Number     Number       Type             X           Y           Z
 ---------------------------------------------------------------------
      1          6           0        0.864560    0.065190   -0.010050
      2          6           0        2.376860    0.107040    0.011890
      3          7           0        2.857610    1.496530   -0.020250
      4          6           0        4.299760    1.449110   -0.099030
      5          7           0        4.833250    2.792700   -0.195310
      6          6           0        6.326230    2.777150   -0.244020
      7          6           0        6.915660    1.939670   -1.438930
      8          7           0        6.639810    0.503780   -1.372770
      9          6           0        6.858470    4.235150   -0.313680
     10          6           0        8.378470    4.235150   -0.313680
     11          7           0        9.639440    4.235150   -0.313680
     12          1           0        0.520300   -0.972720    0.046120
     13          1           0        0.477270    0.501050   -0.936350
     14          1           0        0.446130    0.611370    0.839730
     15          1           0        2.749200   -0.456200   -0.855220
     16          1           0        2.743900   -0.400460    0.912890
     17          1           0        2.559690    1.991440    0.811760
     18          1           0        4.502620    0.896280   -1.011430
     19          1           0        4.716050    0.933080    0.775430
     20          1           0        4.511160    3.321330    0.609990
     21          1           0        6.693300    2.337350    0.694610
     22          1           0        8.004260    2.035800   -1.473860
     23          1           0        6.525470    2.342480   -2.380500
     24          1           0        7.025750    0.086330   -0.534680
     25          1           0        7.020590    0.022810   -2.187520
     26          1           0        6.503430    4.817490    0.544330
     27          1           0        6.504450    4.729090   -1.226320
 ---------------------------------------------------------------------
                    Distance matrix (angstroms):
                    1          2          3          4          5
     1  C    0.000000
     2  C    1.513038   0.000000
     3  N    2.453790   1.470658   0.000000
     4  C    3.704558   2.347552   1.445078   0.000000
     5  N    4.819142   3.645484   2.369358   1.448832   0.000000
     6  C    6.102402   4.774149   3.704239   2.427199   1.493855
     7  C    6.493934   5.105303   4.321666   2.979751   2.571125
     8  N    5.950032   4.499714   4.137620   2.826994   3.144714
     9  C    7.308058   6.101813   4.857265   3.788811   2.489215
    10  C    8.598814   7.291544   6.169768   4.944084   3.829263
    11  N    9.720045   8.360165   7.319792   6.026631   5.019376
    12  H    1.094955   2.147992   3.400679   4.491174   5.730464
    13  H    1.094531   2.159362   2.737926   4.026332   4.977485
    14  H    1.093399   2.160413   2.708931   4.053831   5.007627
    15  H    2.130265   1.098980   2.126519   2.570266   3.915878
    16  H    2.144893   1.097304   2.117133   2.620227   3.973633
    17  H    2.694304   2.055282   1.012883   2.037524   2.612524
    18  H    3.863800   2.487758   2.012162   1.085931   2.090879
    19  H    4.025442   2.595601   2.098662   1.097390   2.101014
    20  H    4.927940   3.904436   2.541914   2.013109   1.015726
    21  H    6.295512   4.906327   3.991306   2.673550   2.111655
    22  H    7.549924   6.131492   5.375109   3.994707   3.501841
    23  H    6.546066   5.285044   4.442928   3.310136   2.800243
    24  H    6.183522   4.680956   4.430202   3.078633   3.499524
    25  H    6.529922   5.138942   4.919280   3.714706   4.052857
    26  H    7.395171   6.284935   4.963822   4.076280   2.726966
    27  H    7.418870   6.319297   5.020308   4.109709   2.757807
                    6          7          8          9         10
     6  C    0.000000
     7  C    1.573725   0.000000
     8  N    2.557464   1.463643   0.000000
     9  C    1.553672   2.557086   3.884920   0.000000
    10  C    2.518393   2.945374   4.250616   1.520000   0.000000
    11  N    3.620494   3.735558   4.903323   2.780970   1.260970
    12  H    6.917697   7.182480   6.453038   8.211198   9.434098
    13  H    6.314292   6.616274   6.177975   7.419632   8.761289
    14  H    6.359300   6.986522   6.577872   7.455216   8.796826
    15  H    4.860377   4.841518   4.040577   6.260042   7.347837
    16  H    4.926331   5.330183   4.606518   6.318468   7.398766
    17  H    3.989841   4.903342   4.861346   4.977987   6.337117
    18  H    2.729861   2.663490   2.202772   4.145472   5.163053
    19  H    2.651896   3.279466   2.915461   4.084090   5.050064
    20  H    2.078448   3.447996   4.049824   2.682927   4.079745
    21  H    1.099632   2.181648   2.763856   2.155360   2.730951
    22  H    2.208595   1.093394   2.054027   2.737881   2.514596
    23  H    2.189334   1.095928   2.099860   2.822204   3.359695
    24  H    2.795411   2.065105   1.012724   4.158068   4.369371
    25  H    3.441761   2.060522   1.019874   4.613173   4.806134
    26  H    2.194512   3.519247   4.722496   1.096063   2.142680
    27  H    2.192429   2.827572   4.230014   1.096457   2.142158
                   11         12         13         14         15
    11  N    0.000000
    12  H   10.507620   0.000000
    13  H    9.913454   1.771750   0.000000
    14  H    9.948823   1.773319   1.779775   0.000000
    15  H    8.353289   2.459106   2.466693   3.052326   0.000000
    16  H    8.398918   2.454214   3.061049   2.511752   1.768996
    17  H    7.511572   3.678527   3.100584   2.524383   2.967436
    18  H    6.166184   4.524428   4.045403   4.468006   2.219929
    19  H    6.027404   4.665649   4.591742   4.282505   2.908198
    20  H    5.290320   5.889294   5.159207   4.890923   4.418266
    21  H    3.646647   7.034418   6.683641   6.482839   5.075610
    22  H    2.976066   8.207995   7.700646   8.031627   5.848798
    23  H    4.189362   7.276064   6.485149   7.094011   4.941589
    24  H    4.908454   6.616630   6.573882   6.742112   4.322727
    25  H    5.302213   6.945070   6.679010   7.261830   4.499916
    26  H    3.303008   8.341019   7.559013   7.380352   6.623050
    27  H    3.302280   8.363001   7.367992   7.611007   6.413022
                   16         17         18         19         20
    16  H    0.000000
    17  H    2.401114   0.000000
    18  H    2.911638   2.880690   0.000000
    19  H    2.384659   2.402360   1.799938   0.000000
    20  H    4.131184   2.370138   2.917181   2.402725   0.000000
    21  H    4.810510   4.149712   3.128312   2.426525   2.395227
    22  H    6.269236   5.905029   3.711311   4.133718   4.265767
    23  H    5.715803   5.103054   2.838621   3.901321   3.736124
    24  H    4.546060   5.038654   2.692489   2.787129   4.254252
    25  H    5.299224   5.724580   2.913127   3.862456   5.000354
    26  H    6.441809   4.859132   4.668995   4.282146   2.492378
    27  H    6.710457   5.216285   4.329426   4.649201   3.054018
                   21         22         23         24         25
    21  H    0.000000
    22  H    2.551825   0.000000
    23  H    3.079691   1.761496   0.000000
    24  H    2.586265   2.374863   2.957625   0.000000
    25  H    3.710915   2.351392   2.379759   1.654068   0.000000
    26  H    2.491933   3.750117   3.831552   4.880672   5.542510
    27  H    3.073444   3.092655   2.651128   4.722853   4.831084
                   26         27
    26  H    0.000000
    27  H    1.772856   0.000000
 Stoichiometry    C7H16N4
 Framework group  C1[X(C7H16N4)]
 Deg. of freedom    75
 Full point group                 C1      NOp   1
 Largest Abelian subgroup         C1      NOp   1
 Largest concise Abelian subgroup C1      NOp   1
                         Standard orientation:                         
 ---------------------------------------------------------------------
 Center     Atomic      Atomic             Coordinates (Angstroms)
 Number     Number       Type             X           Y           Z
 ---------------------------------------------------------------------
      1          6           0       -4.852748   -0.287455    0.122125
      2          6           0       -3.498942    0.257143   -0.277759
      3          7           0       -2.429084   -0.670768    0.118749
      4          6           0       -1.171078   -0.037169   -0.204089
      5          7           0       -0.071100   -0.879415    0.219923
      6          6           0        1.244325   -0.265003   -0.131872
      7          6           0        1.466295    1.163731    0.489463
      8          7           0        0.553473    2.194244   -0.007578
      9          6           0        2.394147   -1.212248    0.309185
     10          6           0        3.737023   -0.621124   -0.087872
     11          7           0        4.851054   -0.130736   -0.417265
     12          1           0       -5.641171    0.397470   -0.206804
     13          1           0       -4.924586   -0.389738    1.209497
     14          1           0       -5.032796   -1.263091   -0.337483
     15          1           0       -3.366220    1.236244    0.203389
     16          1           0       -3.476257    0.420744   -1.362561
     17          1           0       -2.525063   -1.550166   -0.374587
     18          1           0       -1.179912    0.887240    0.365680
     19          1           0       -1.106859    0.164045   -1.280961
     20          1           0       -0.170854   -1.784002   -0.231154
     21          1           0        1.295562   -0.172740   -1.226428
     22          1           0        2.475101    1.524163    0.270576
     23          1           0        1.377739    1.093804    1.579567
     24          1           0        0.639178    2.319368   -1.008881
     25          1           0        0.727825    3.087041    0.453569
     26          1           0        2.286218   -2.196184   -0.161533
     27          1           0        2.377555   -1.354712    1.396221
 ---------------------------------------------------------------------
 Rotational constants (GHZ):           2.7561923           0.3887284           0.3511206
 Standard basis: 6-31G(2df,p) (6D, 7F)
 There are   421 symmetry adapted cartesian basis functions of A   symmetry.
 There are   388 symmetry adapted basis functions of A   symmetry.
   388 basis functions,   596 primitive gaussians,   421 cartesian basis functions
    43 alpha electrons       43 beta electrons
       nuclear repulsion energy       608.9717479643 Hartrees.
 NAtoms=   27 NActive=   27 NUniq=   27 SFac= 1.00D+00 NAtFMM=   60 NAOKFM=F Big=F
 Integral buffers will be    131072 words long.
 Raffenetti 2 integral format.
 Two-electron integral symmetry is turned on.
 One-electron integrals computed using PRISM.
 PrsmSu:  requested number of processors reduced to:  13 ShMem   1 Linda.
 NBasis=   388 RedAO= T EigKep=  2.18D-04  NBF=   388
 NBsUse=   388 1.00D-06 EigRej= -1.00D+00 NBFU=   388
 ExpMin= 1.61D-01 ExpMax= 4.17D+03 ExpMxC= 6.27D+02 IAcc=3 IRadAn=         5 AccDes= 0.00D+00
 Harris functional with IExCor=  402 and IRadAn=       5 diagonalized for initial guess.
 HarFok:  IExCor=  402 AccDes= 0.00D+00 IRadAn=         5 IDoV= 1 UseB2=F ITyADJ=14
 ICtDFT=  3500011 ScaDFX=  1.000000  1.000000  1.000000  1.000000
 FoFCou: FMM=F IPFlag=           0 FMFlag=      100000 FMFlg1=           0
         NFxFlg=           0 DoJE=T BraDBF=F KetDBF=T FulRan=T
         wScrn=  0.000000 ICntrl=       500 IOpCl=  0 I1Cent=   200000004 NGrid=           0
         NMat0=    1 NMatS0=      1 NMatT0=    0 NMatD0=    1 NMtDS0=    0 NMtDT0=    0
 Petite list used in FoFCou.
 Requested convergence on RMS density matrix=1.00D-08 within 128 cycles.
 Requested convergence on MAX density matrix=1.00D-06.
 Requested convergence on             energy=1.00D-06.
 No special actions if energy rises.
 Integral accuracy reduced to 1.0D-05 until final iterations.
 Initial convergence to 1.0D-05 achieved.  Increase integral accuracy.
 SCF Done:  E(RB3LYP) =  -495.342927847     A.U. after   14 cycles
            NFock= 14  Conv=0.69D-08     -V/T= 2.0088

 **********************************************************************

            Population analysis using the SCF density.

 **********************************************************************

 Orbital symmetries:
       Occupied  (A) (A) (A) (A) (A) (A) (A) (A) (A) (A) (A) (A)
                 (A) (A) (A) (A) (A) (A) (A) (A) (A) (A) (A) (A)
                 (A) (A) (A) (A) (A) (A) (A) (A) (A) (A) (A) (A)
                 (A) (A) (A) (A) (A) (A) (A)
       Virtual   (A) (A) (A) (A) (A) (A) (A) (A) (A) (A) (A) (A)
                 (A) (A) (A) (A) (A) (A) (A) (A) (A) (A) (A) (A)
                 (A) (A) (A) (A) (A) (A) (A) (A) (A) (A) (A) (A)
                 (A) (A) (A) (A) (A) (A) (A) (A) (A) (A) (A) (A)
                 (A) (A) (A) (A) (A) (A) (A) (A) (A) (A) (A) (A)
                 (A) (A) (A) (A) (A) (A) (A) (A) (A) (A) (A) (A)
                 (A) (A) (A) (A) (A) (A) (A) (A) (A) (A) (A) (A)
                 (A) (A) (A) (A) (A) (A) (A) (A) (A) (A) (A) (A)
                 (A) (A) (A) (A) (A) (A) (A) (A) (A) (A) (A) (A)
                 (A) (A) (A) (A) (A) (A) (A) (A) (A) (A) (A) (A)
                 (A) (A) (A) (A) (A) (A) (A) (A) (A) (A) (A) (A)
                 (A) (A) (A) (A) (A) (A) (A) (A) (A) (A) (A) (A)
                 (A) (A) (A) (A) (A) (A) (A) (A) (A) (A) (A) (A)
                 (A) (A) (A) (A) (A) (A) (A) (A) (A) (A) (A) (A)
                 (A) (A) (A) (A) (A) (A) (A) (A) (A) (A) (A) (A)
                 (A) (A) (A) (A) (A) (A) (A) (A) (A) (A) (A) (A)
                 (A) (A) (A) (A) (A) (A) (A) (A) (A) (A) (A) (A)
                 (A) (A) (A) (A) (A) (A) (A) (A) (A) (A) (A) (A)
                 (A) (A) (A) (A) (A) (A) (A) (A) (A) (A) (A) (A)
                 (A) (A) (A) (A) (A) (A) (A) (A) (A) (A) (A) (A)
                 (A) (A) (A) (A) (A) (A) (A) (A) (A) (A) (A) (A)
                 (A) (A) (A) (A) (A) (A) (A) (A) (A) (A) (A) (A)
                 (A) (A) (A) (A) (A) (A) (A) (A) (A) (A) (A) (A)
                 (A) (A) (A) (A) (A) (A) (A) (A) (A) (A) (A) (A)
                 (A) (A) (A) (A) (A) (A) (A) (A) (A) (A) (A) (A)
                 (A) (A) (A) (A) (A) (A) (A) (A) (A) (A) (A) (A)
                 (A) (A) (A) (A) (A) (A) (A) (A) (A) (A) (A) (A)
                 (A) (A) (A) (A) (A) (A) (A) (A) (A) (A) (A) (A)
                 (A) (A) (A) (A) (A) (A) (A) (A) (A)
 The electronic state is 1-A.
 Alpha  occ. eigenvalues --  -14.35050 -14.32018 -14.31387 -14.30475 -10.24859
 Alpha  occ. eigenvalues --  -10.24460 -10.24055 -10.21788 -10.21065 -10.20045
 Alpha  occ. eigenvalues --  -10.16977  -0.93335  -0.89140  -0.87007  -0.86117
 Alpha  occ. eigenvalues --   -0.78791  -0.73525  -0.68948  -0.63559  -0.60718
 Alpha  occ. eigenvalues --   -0.59092  -0.52690  -0.50116  -0.49019  -0.48537
 Alpha  occ. eigenvalues --   -0.47886  -0.45076  -0.43816  -0.43191  -0.41837
 Alpha  occ. eigenvalues --   -0.40812  -0.39247  -0.37427  -0.36240  -0.35843
 Alpha  occ. eigenvalues --   -0.35533  -0.34543  -0.33970  -0.30638  -0.30520
 Alpha  occ. eigenvalues --   -0.23903  -0.22866  -0.21559
 Alpha virt. eigenvalues --    0.00522   0.00877   0.06228   0.07499   0.08645
 Alpha virt. eigenvalues --    0.10290   0.11223   0.13031   0.13390   0.14052
 Alpha virt. eigenvalues --    0.15508   0.15903   0.16073   0.16877   0.17184
 Alpha virt. eigenvalues --    0.17526   0.19339   0.19382   0.20029   0.21890
 Alpha virt. eigenvalues --    0.22087   0.23256   0.24592   0.25343   0.26501
 Alpha virt. eigenvalues --    0.28311   0.30702   0.34635   0.41691   0.44732
 Alpha virt. eigenvalues --    0.46081   0.47622   0.48598   0.49507   0.50892
 Alpha virt. eigenvalues --    0.51065   0.52266   0.54497   0.55532   0.56523
 Alpha virt. eigenvalues --    0.56832   0.57845   0.58455   0.59792   0.61213
 Alpha virt. eigenvalues --    0.61798   0.62590   0.63536   0.65298   0.67482
 Alpha virt. eigenvalues --    0.67594   0.68993   0.69431   0.71170   0.72153
 Alpha virt. eigenvalues --    0.73075   0.73241   0.73896   0.74560   0.74753
 Alpha virt. eigenvalues --    0.75733   0.76489   0.76610   0.77294   0.78298
 Alpha virt. eigenvalues --    0.79017   0.79359   0.80116   0.81356   0.81635
 Alpha virt. eigenvalues --    0.82239   0.82977   0.83544   0.84404   0.84769
 Alpha virt. eigenvalues --    0.86677   0.87268   0.87547   0.88984   0.89836
 Alpha virt. eigenvalues --    0.90361   0.93146   0.97175   1.00435   1.05613
 Alpha virt. eigenvalues --    1.07596   1.07972   1.08728   1.11422   1.13558
 Alpha virt. eigenvalues --    1.14874   1.18328   1.20698   1.21298   1.22692
 Alpha virt. eigenvalues --    1.24976   1.26168   1.27307   1.27992   1.30590
 Alpha virt. eigenvalues --    1.31128   1.32104   1.35029   1.36337   1.37016
 Alpha virt. eigenvalues --    1.39085   1.39878   1.45568   1.47439   1.48560
 Alpha virt. eigenvalues --    1.50075   1.51202   1.53404   1.54867   1.56683
 Alpha virt. eigenvalues --    1.57314   1.58947   1.60633   1.60806   1.63362
 Alpha virt. eigenvalues --    1.65242   1.66882   1.67385   1.70372   1.72071
 Alpha virt. eigenvalues --    1.76465   1.77859   1.78300   1.79943   1.83157
 Alpha virt. eigenvalues --    1.84569   1.85554   1.87811   1.89713   1.91781
 Alpha virt. eigenvalues --    1.93354   1.95636   1.97790   2.02333   2.03206
 Alpha virt. eigenvalues --    2.05424   2.06662   2.11834   2.18296   2.18633
 Alpha virt. eigenvalues --    2.21071   2.23578   2.25260   2.25905   2.28684
 Alpha virt. eigenvalues --    2.30522   2.32063   2.35609   2.38520   2.42304
 Alpha virt. eigenvalues --    2.43587   2.45272   2.46011   2.47819   2.49558
 Alpha virt. eigenvalues --    2.52028   2.53532   2.60068   2.61418   2.62435
 Alpha virt. eigenvalues --    2.65183   2.68158   2.69809   2.70963   2.72054
 Alpha virt. eigenvalues --    2.75654   2.76843   2.77668   2.78313   2.78932
 Alpha virt. eigenvalues --    2.79487   2.81139   2.82612   2.83274   2.84497
 Alpha virt. eigenvalues --    2.86013   2.88610   2.89106   2.89778   2.91207
 Alpha virt. eigenvalues --    2.92770   2.94301   2.95640   2.96888   2.98889
 Alpha virt. eigenvalues --    3.00142   3.01438   3.01767   3.02089   3.04109
 Alpha virt. eigenvalues --    3.05201   3.07265   3.10766   3.15264   3.17548
 Alpha virt. eigenvalues --    3.18598   3.21081   3.21901   3.25242   3.27162
 Alpha virt. eigenvalues --    3.30050   3.31625   3.32939   3.34525   3.36431
 Alpha virt. eigenvalues --    3.38777   3.40459   3.42483   3.43842   3.45952
 Alpha virt. eigenvalues --    3.49150   3.51016   3.52871   3.54427   3.57706
 Alpha virt. eigenvalues --    3.60262   3.61644   3.61898   3.63099   3.64135
 Alpha virt. eigenvalues --    3.64695   3.65538   3.67404   3.69098   3.70716
 Alpha virt. eigenvalues --    3.72019   3.76571   3.77543   3.80281   3.81859
 Alpha virt. eigenvalues --    3.85618   3.88583   3.90933   3.92093   3.92997
 Alpha virt. eigenvalues --    3.96935   3.98601   3.99515   4.03404   4.07954
 Alpha virt. eigenvalues --    4.11737   4.12777   4.13307   4.14795   4.15635
 Alpha virt. eigenvalues --    4.15977   4.18958   4.21333   4.23042   4.24687
 Alpha virt. eigenvalues --    4.27666   4.28402   4.29619   4.30411   4.33146
 Alpha virt. eigenvalues --    4.35138   4.37007   4.38996   4.40399   4.41165
 Alpha virt. eigenvalues --    4.43397   4.45970   4.46478   4.48381   4.49682
 Alpha virt. eigenvalues --    4.50224   4.52159   4.54000   4.55015   4.56653
 Alpha virt. eigenvalues --    4.57209   4.59280   4.60776   4.61824   4.62060
 Alpha virt. eigenvalues --    4.63496   4.64374   4.66509   4.67652   4.68615
 Alpha virt. eigenvalues --    4.71022   4.71545   4.72019   4.73090   4.74787
 Alpha virt. eigenvalues --    4.74934   4.75939   4.77272   4.78399   4.78667
 Alpha virt. eigenvalues --    4.80231   4.80314   4.83260   4.86050   4.88315
 Alpha virt. eigenvalues --    4.89014   4.90364   4.91536   4.94684   4.97173
 Alpha virt. eigenvalues --    4.98667   5.00476   5.02826   5.05037   5.08317
 Alpha virt. eigenvalues --    5.09244   5.10919   5.13433   5.14647   5.18038
 Alpha virt. eigenvalues --    5.20631   5.23524   5.26339   5.33302   5.37037
 Alpha virt. eigenvalues --    5.40245   5.42812   5.47863   5.50886   5.54506
 Alpha virt. eigenvalues --    5.60070   5.63368   5.76787   5.78515   6.10334
 Alpha virt. eigenvalues --   10.40191  10.81171  11.01364  11.17366  11.30575
 Alpha virt. eigenvalues --   11.42121  11.46248  11.59587  11.70937  12.03543
 Alpha virt. eigenvalues --   12.14575  12.82471  13.53213  15.00988  17.48883
          Condensed to atoms (all electrons):
               1          2          3          4          5          6
     1  C    4.966928   0.415447  -0.039366   0.002280  -0.000125  -0.000000
     2  C    0.415447   4.760426   0.375838  -0.065380   0.003362  -0.000356
     3  N   -0.039366   0.375838   6.436632   0.376973  -0.025848   0.002344
     4  C    0.002280  -0.065380   0.376973   4.843278   0.380829  -0.052492
     5  N   -0.000125   0.003362  -0.025848   0.380829   6.479056   0.335510
     6  C   -0.000000  -0.000356   0.002344  -0.052492   0.335510   4.769217
     7  C    0.000000   0.000004   0.000057  -0.004578  -0.021461   0.375853
     8  N   -0.000000  -0.000044   0.001157  -0.031442   0.000434  -0.025433
     9  C   -0.000000   0.000001  -0.000068   0.001998  -0.031270   0.376279
    10  C    0.000000   0.000000  -0.000000  -0.000147   0.002233  -0.036346
    11  N   -0.000000  -0.000000  -0.000000  -0.000000  -0.000007  -0.001554
    12  H    0.365730  -0.022846   0.003173  -0.000191   0.000001   0.000000
    13  H    0.374638  -0.025344   0.003470   0.000391  -0.000002   0.000000
    14  H    0.377994  -0.028619  -0.004199   0.000068   0.000007   0.000000
    15  H   -0.031406   0.372934  -0.024702  -0.005535   0.000393  -0.000011
    16  H   -0.046771   0.360545  -0.045901   0.000360  -0.000167   0.000089
    17  H    0.000319  -0.043425   0.328841  -0.051816   0.000674  -0.000425
    18  H    0.000378  -0.008340  -0.012665   0.345653  -0.005718  -0.009257
    19  H   -0.000011   0.000073  -0.061805   0.356436  -0.069622   0.005826
    20  H    0.000013  -0.000342  -0.002171  -0.053779   0.335213  -0.040538
    21  H    0.000000   0.000059  -0.000168  -0.000424  -0.052363   0.353377
    22  H    0.000000  -0.000000   0.000006  -0.000164   0.002411  -0.033736
    23  H    0.000000   0.000006  -0.000074   0.001013  -0.000510  -0.020958
    24  H    0.000000   0.000010  -0.000071   0.000987  -0.000513  -0.001390
    25  H    0.000000  -0.000001  -0.000016   0.000619   0.000011   0.004256
    26  H    0.000000   0.000000   0.000001  -0.000059  -0.001642  -0.022214
    27  H    0.000000   0.000000  -0.000000   0.000169   0.003799  -0.020363
               7          8          9         10         11         12
     1  C    0.000000  -0.000000  -0.000000   0.000000  -0.000000   0.365730
     2  C    0.000004  -0.000044   0.000001   0.000000  -0.000000  -0.022846
     3  N    0.000057   0.001157  -0.000068  -0.000000  -0.000000   0.003173
     4  C   -0.004578  -0.031442   0.001998  -0.000147  -0.000000  -0.000191
     5  N   -0.021461   0.000434  -0.031270   0.002233  -0.000007   0.000001
     6  C    0.375853  -0.025433   0.376279  -0.036346  -0.001554   0.000000
     7  C    4.894699   0.368667  -0.023720  -0.010971  -0.002428  -0.000000
     8  N    0.368667   6.556322   0.001766  -0.000019   0.000051  -0.000000
     9  C   -0.023720   0.001766   5.078651   0.329781  -0.042552   0.000000
    10  C   -0.010971  -0.000019   0.329781   4.510844   0.931627   0.000000
    11  N   -0.002428   0.000051  -0.042552   0.931627   6.495809  -0.000000
    12  H   -0.000000  -0.000000   0.000000   0.000000  -0.000000   0.608486
    13  H   -0.000000  -0.000000   0.000000  -0.000000   0.000000  -0.029844
    14  H   -0.000000  -0.000000   0.000000   0.000000   0.000000  -0.031029
    15  H   -0.000004   0.000021   0.000000  -0.000000  -0.000000  -0.002225
    16  H   -0.000005   0.000001   0.000000   0.000000  -0.000000   0.000650
    17  H    0.000011  -0.000042   0.000001   0.000000   0.000000  -0.000306
    18  H    0.002116   0.020804   0.000076  -0.000005  -0.000000  -0.000013
    19  H   -0.003790   0.001734   0.000081   0.000072  -0.000000   0.000037
    20  H    0.005171  -0.000255  -0.002811  -0.000064   0.000003  -0.000000
    21  H   -0.061120  -0.003244  -0.048724   0.005264   0.000281   0.000000
    22  H    0.383535  -0.042380  -0.008072   0.017473   0.001476  -0.000000
    23  H    0.344046  -0.021577  -0.003642   0.000120   0.000097   0.000000
    24  H   -0.052009   0.344245  -0.000029  -0.000019   0.000009   0.000000
    25  H   -0.041313   0.342029  -0.000149  -0.000014   0.000003   0.000000
    26  H    0.003926  -0.000046   0.358648  -0.020123  -0.000000   0.000000
    27  H   -0.008570   0.000012   0.352865  -0.020429  -0.000353   0.000000
              13         14         15         16         17         18
     1  C    0.374638   0.377994  -0.031406  -0.046771   0.000319   0.000378
     2  C   -0.025344  -0.028619   0.372934   0.360545  -0.043425  -0.008340
     3  N    0.003470  -0.004199  -0.024702  -0.045901   0.328841  -0.012665
     4  C    0.000391   0.000068  -0.005535   0.000360  -0.051816   0.345653
     5  N   -0.000002   0.000007   0.000393  -0.000167   0.000674  -0.005718
     6  C    0.000000   0.000000  -0.000011   0.000089  -0.000425  -0.009257
     7  C   -0.000000  -0.000000  -0.000004  -0.000005   0.000011   0.002116
     8  N   -0.000000  -0.000000   0.000021   0.000001  -0.000042   0.020804
     9  C    0.000000   0.000000   0.000000   0.000000   0.000001   0.000076
    10  C   -0.000000   0.000000  -0.000000   0.000000   0.000000  -0.000005
    11  N    0.000000   0.000000  -0.000000  -0.000000   0.000000  -0.000000
    12  H   -0.029844  -0.031029  -0.002225   0.000650  -0.000306  -0.000013
    13  H    0.584513  -0.032897  -0.006244   0.006498  -0.000554  -0.000045
    14  H   -0.032897   0.606653   0.005531  -0.005192   0.004678   0.000016
    15  H   -0.006244   0.005531   0.620645  -0.052377   0.006501   0.007745
    16  H    0.006498  -0.005192  -0.052377   0.701923  -0.007774  -0.002263
    17  H   -0.000554   0.004678   0.006501  -0.007774   0.559481   0.007026
    18  H   -0.000045   0.000016   0.007745  -0.002263   0.007026   0.558898
    19  H    0.000038  -0.000014  -0.002222   0.014935  -0.008913  -0.057055
    20  H    0.000001  -0.000004   0.000018  -0.000007   0.007505   0.006037
    21  H   -0.000000   0.000000   0.000000   0.000001  -0.000028  -0.001326
    22  H   -0.000000  -0.000000   0.000000  -0.000000  -0.000000   0.000379
    23  H   -0.000000   0.000000   0.000001  -0.000000   0.000002  -0.000887
    24  H    0.000000   0.000000  -0.000003   0.000009   0.000002  -0.001854
    25  H    0.000000  -0.000000   0.000001   0.000001   0.000001   0.000213
    26  H    0.000000  -0.000000  -0.000000   0.000000  -0.000001   0.000003
    27  H   -0.000000   0.000000   0.000000  -0.000000   0.000000  -0.000013
              19         20         21         22         23         24
     1  C   -0.000011   0.000013   0.000000   0.000000   0.000000   0.000000
     2  C    0.000073  -0.000342   0.000059  -0.000000   0.000006   0.000010
     3  N   -0.061805  -0.002171  -0.000168   0.000006  -0.000074  -0.000071
     4  C    0.356436  -0.053779  -0.000424  -0.000164   0.001013   0.000987
     5  N   -0.069622   0.335213  -0.052363   0.002411  -0.000510  -0.000513
     6  C    0.005826  -0.040538   0.353377  -0.033736  -0.020958  -0.001390
     7  C   -0.003790   0.005171  -0.061120   0.383535   0.344046  -0.052009
     8  N    0.001734  -0.000255  -0.003244  -0.042380  -0.021577   0.344245
     9  C    0.000081  -0.002811  -0.048724  -0.008072  -0.003642  -0.000029
    10  C    0.000072  -0.000064   0.005264   0.017473   0.000120  -0.000019
    11  N   -0.000000   0.000003   0.000281   0.001476   0.000097   0.000009
    12  H    0.000037  -0.000000   0.000000  -0.000000   0.000000   0.000000
    13  H    0.000038   0.000001  -0.000000  -0.000000  -0.000000   0.000000
    14  H   -0.000014  -0.000004   0.000000  -0.000000   0.000000   0.000000
    15  H   -0.002222   0.000018   0.000000   0.000000   0.000001  -0.000003
    16  H    0.014935  -0.000007   0.000001  -0.000000  -0.000000   0.000009
    17  H   -0.008913   0.007505  -0.000028  -0.000000   0.000002   0.000002
    18  H   -0.057055   0.006037  -0.001326   0.000379  -0.000887  -0.001854
    19  H    0.777676  -0.007007   0.015107  -0.000002   0.000261   0.001683
    20  H   -0.007007   0.550468  -0.006465  -0.000172  -0.000115  -0.000001
    21  H    0.015107  -0.006465   0.711284  -0.001050   0.006523   0.005302
    22  H   -0.000002  -0.000172  -0.001050   0.601060  -0.040026  -0.003798
    23  H    0.000261  -0.000115   0.006523  -0.040026   0.610127   0.006112
    24  H    0.001683  -0.000001   0.005302  -0.003798   0.006112   0.501392
    25  H   -0.000044   0.000013  -0.000151  -0.002792  -0.003054  -0.029394
    26  H   -0.000031   0.004397  -0.005617   0.000160  -0.000149   0.000001
    27  H    0.000034  -0.000575   0.006517  -0.000001   0.004696   0.000016
              25         26         27
     1  C    0.000000   0.000000   0.000000
     2  C   -0.000001   0.000000   0.000000
     3  N   -0.000016   0.000001  -0.000000
     4  C    0.000619  -0.000059   0.000169
     5  N    0.000011  -0.001642   0.003799
     6  C    0.004256  -0.022214  -0.020363
     7  C   -0.041313   0.003926  -0.008570
     8  N    0.342029  -0.000046   0.000012
     9  C   -0.000149   0.358648   0.352865
    10  C   -0.000014  -0.020123  -0.020429
    11  N    0.000003  -0.000000  -0.000353
    12  H    0.000000   0.000000   0.000000
    13  H    0.000000   0.000000  -0.000000
    14  H   -0.000000  -0.000000   0.000000
    15  H    0.000001  -0.000000   0.000000
    16  H    0.000001   0.000000  -0.000000
    17  H    0.000001  -0.000001   0.000000
    18  H    0.000213   0.000003  -0.000013
    19  H   -0.000044  -0.000031   0.000034
    20  H    0.000013   0.004397  -0.000575
    21  H   -0.000151  -0.005617   0.006517
    22  H   -0.002792   0.000160  -0.000001
    23  H   -0.003054  -0.000149   0.004696
    24  H   -0.029394   0.000001   0.000016
    25  H    0.496681   0.000002  -0.000002
    26  H    0.000002   0.565088  -0.034414
    27  H   -0.000002  -0.034414   0.548587
 Mulliken charges:
               1
     1  C   -0.386049
     2  C   -0.094008
     3  N   -0.311437
     4  C   -0.045047
     5  N   -0.334685
     6  C    0.042320
     7  C   -0.148115
     8  N   -0.512760
     9  C   -0.339110
    10  C    0.290722
    11  N   -0.382461
    12  H    0.108377
    13  H    0.125380
    14  H    0.107005
    15  H    0.110937
    16  H    0.075446
    17  H    0.198245
    18  H    0.150097
    19  H    0.036525
    20  H    0.205467
    21  H    0.076966
    22  H    0.125692
    23  H    0.117989
    24  H    0.229311
    25  H    0.233100
    26  H    0.152068
    27  H    0.168025
 Sum of Mulliken charges =  -0.00000
 Mulliken charges with hydrogens summed into heavy atoms:
               1
     1  C   -0.045287
     2  C    0.092375
     3  N   -0.113192
     4  C    0.141575
     5  N   -0.129218
     6  C    0.119286
     7  C    0.095567
     8  N   -0.050349
     9  C   -0.019017
    10  C    0.290722
    11  N   -0.382461
 Electronic spatial extent (au):  <R**2>=           3101.3573
 Charge=              0.0000 electrons
 Dipole moment (field-independent basis, Debye):
    X=             -2.7007    Y=             -0.2413    Z=             -0.9174  Tot=              2.8624
 Quadrupole moment (field-independent basis, Debye-Ang):
   XX=            -93.5967   YY=            -59.2186   ZZ=            -68.4712
   XY=             -1.1583   XZ=              6.8454   YZ=              2.5724
 Traceless Quadrupole moment (field-independent basis, Debye-Ang):
   XX=            -19.8345   YY=             14.5436   ZZ=              5.2909
   XY=             -1.1583   XZ=              6.8454   YZ=              2.5724
 Octapole moment (field-independent basis, Debye-Ang**2):
  XXX=           -164.3537  YYY=              9.3219  ZZZ=              1.5308  XYY=              7.1480
  XXY=             -3.1758  XXZ=             15.5339  XZZ=              1.2024  YZZ=              4.6839
  YYZ=             -2.8619  XYZ=             -5.3108
 Hexadecapole moment (field-independent basis, Debye-Ang**3):
 XXXX=          -4406.1533 YYYY=           -415.5236 ZZZZ=           -142.9653 XXXY=            -24.4496
 XXXZ=            106.9286 YYYX=             26.6117 YYYZ=             12.1797 ZZZX=              4.2159
 ZZZY=             -1.4776 XXYY=           -648.1401 XXZZ=           -624.7988 YYZZ=           -100.8296
 XXYZ=              8.2808 YYXZ=              7.7058 ZZXY=              2.0753
 N-N= 6.089717479643D+02 E-N=-2.368265129773D+03  KE= 4.910113512780D+02
 PrsmSu:  requested number of processors reduced to:  13 ShMem   1 Linda.
 Calling FoFJK, ICntrl=      2127 FMM=F ISym2X=0 I1Cent= 0 IOpClX= 0 NMat=1 NMatS=1 NMatT=0.
 ***** Axes restored to original set *****
 -------------------------------------------------------------------
 Center     Atomic                   Forces (Hartrees/Bohr)
 Number     Number              X              Y              Z
 -------------------------------------------------------------------
      1        6          -0.005486476   -0.004372900   -0.001467515
      2        6          -0.009297815    0.009479226    0.005596739
      3        7          -0.001122314   -0.011179338   -0.010949190
      4        6          -0.019302422    0.012338034   -0.003322095
      5        7           0.023021508    0.003994887   -0.018463776
      6        6          -0.008268895   -0.005391709   -0.001824674
      7        6           0.001471908   -0.001494951    0.006287663
      8        7          -0.009607632   -0.006069177   -0.006784307
      9        6           0.024728974   -0.008756790   -0.002170020
     10        6           0.149569315    0.005457540    0.001560546
     11        7          -0.179281942   -0.000191646    0.000302690
     12        1          -0.001904210    0.000403318    0.000982410
     13        1          -0.000131758    0.001285387    0.001432558
     14        1          -0.002221392    0.000486076    0.000452586
     15        1           0.004046730    0.005789448    0.001138007
     16        1           0.002086277   -0.006593613    0.002123278
     17        1          -0.003298169   -0.001655629    0.004489705
     18        1           0.008850860   -0.000698005    0.004452769
     19        1           0.008184247   -0.010330187    0.003777697
     20        1           0.004654181    0.002348680    0.001532598
     21        1           0.007079047   -0.002413069    0.000946137
     22        1           0.002424551    0.015866135    0.003803095
     23        1          -0.003101054   -0.001094059    0.000578117
     24        1           0.003618186    0.000259836   -0.001067536
     25        1           0.000906835    0.003521243    0.006381296
     26        1           0.001669581   -0.000316848   -0.000582192
     27        1           0.000711878   -0.000671886    0.000793414
 -------------------------------------------------------------------
 Cartesian Forces:  Max     0.179281942 RMS     0.026843483

 GradGradGradGradGradGradGradGradGradGradGradGradGradGradGradGradGradGrad
 Berny optimization.
 FormGI is forming the generalized inverse of G from B-inverse, IUseBI=4.
 Internal  Forces:  Max     0.179281742 RMS     0.017237787
 Search for a local minimum.
 Step number   1 out of a maximum of  140
 All quantities printed in internal units (Hartrees-Bohrs-Radians)
 Mixed Optimization -- RFO/linear search
 Second derivative matrix not updated -- first step.
 ITU=  0
     Eigenvalues ---    0.00230   0.00230   0.00450   0.00593   0.00757
     Eigenvalues ---    0.00850   0.01046   0.01095   0.02867   0.03236
     Eigenvalues ---    0.03531   0.03531   0.03780   0.03907   0.03926
     Eigenvalues ---    0.04461   0.04790   0.05295   0.05552   0.05595
     Eigenvalues ---    0.05629   0.05666   0.05684   0.05809   0.05835
     Eigenvalues ---    0.06933   0.09058   0.09639   0.09785   0.10328
     Eigenvalues ---    0.10779   0.12651   0.13030   0.13059   0.16000
     Eigenvalues ---    0.16000   0.16000   0.16000   0.16000   0.16000
     Eigenvalues ---    0.16000   0.16503   0.18333   0.21925   0.21996
     Eigenvalues ---    0.22098   0.22326   0.23366   0.23427   0.25729
     Eigenvalues ---    0.27341   0.30367   0.31047   0.33031   0.33723
     Eigenvalues ---    0.33795   0.33972   0.33982   0.34077   0.34121
     Eigenvalues ---    0.34136   0.34246   0.34294   0.34423   0.34423
     Eigenvalues ---    0.35287   0.35662   0.36512   0.38398   0.38897
     Eigenvalues ---    0.44358   0.45027   0.45493   0.45520   0.79312
 RFO step:  Lambda=-6.29883232D-02 EMin= 2.30000000D-03
 Linear search not attempted -- first point.
 Maximum step size (   0.300) exceeded in Quadratic search.
    -- Step size scaled by   0.869
 Iteration  1 RMS(Cart)=  0.22915756 RMS(Int)=  0.00805711
 Iteration  2 RMS(Cart)=  0.01734205 RMS(Int)=  0.00040447
 Iteration  3 RMS(Cart)=  0.00004528 RMS(Int)=  0.00040346
 Iteration  4 RMS(Cart)=  0.00000005 RMS(Int)=  0.00040346
 Variable       Old X    -DE/DX   Delta X   Delta X   Delta X     New X
                                 (Linear)    (Quad)   (Total)
    R1        2.85923   0.00978   0.00000   0.02277   0.02277   2.88199
    R2        2.06917   0.00027   0.00000   0.00057   0.00057   2.06974
    R3        2.06836  -0.00065   0.00000  -0.00140  -0.00140   2.06696
    R4        2.06623   0.00145   0.00000   0.00309   0.00309   2.06931
    R5        2.77914  -0.00168   0.00000  -0.00347  -0.00347   2.77567
    R6        2.07677  -0.00249   0.00000  -0.00541  -0.00541   2.07136
    R7        2.07360   0.00549   0.00000   0.01185   0.01185   2.08545
    R8        2.73080   0.01729   0.00000   0.03326   0.03326   2.76407
    R9        1.91407   0.00385   0.00000   0.00646   0.00646   1.92053
   R10        2.73790   0.01247   0.00000   0.02426   0.02426   2.76216
   R11        2.05211  -0.00173   0.00000  -0.00362  -0.00362   2.04849
   R12        2.07377   0.01097   0.00000   0.02369   0.02369   2.09745
   R13        2.82298  -0.00833   0.00000  -0.01841  -0.01841   2.80457
   R14        1.91944   0.00096   0.00000   0.00163   0.00163   1.92107
   R15        2.97391  -0.01444   0.00000  -0.03919  -0.03919   2.93472
   R16        2.93601  -0.00509   0.00000  -0.01316  -0.01316   2.92286
   R17        2.07800   0.00414   0.00000   0.00898   0.00898   2.08699
   R18        2.76588   0.00314   0.00000   0.00637   0.00637   2.77225
   R19        2.06622   0.00369   0.00000   0.00787   0.00787   2.07409
   R20        2.07100   0.00021   0.00000   0.00044   0.00044   2.07145
   R21        1.91377   0.00039   0.00000   0.00065   0.00065   1.91442
   R22        1.92728  -0.00642   0.00000  -0.01102  -0.01102   1.91627
   R23        2.87238  -0.02971   0.00000  -0.07045  -0.07045   2.80193
   R24        2.07126  -0.00117   0.00000  -0.00251  -0.00251   2.06875
   R25        2.07200  -0.00119   0.00000  -0.00257  -0.00257   2.06944
   R26        2.38289  -0.17928   0.00000  -0.18206  -0.18206   2.20083
    A1        1.91742   0.00262   0.00000   0.01143   0.01140   1.92882
    A2        1.93363  -0.00036   0.00000  -0.00154  -0.00155   1.93208
    A3        1.93629   0.00176   0.00000   0.00576   0.00574   1.94204
    A4        1.88560  -0.00035   0.00000   0.00074   0.00072   1.88633
    A5        1.88948  -0.00218   0.00000  -0.00826  -0.00830   1.88118
    A6        1.90012  -0.00161   0.00000  -0.00856  -0.00856   1.89156
    A7        1.93109   0.00349   0.00000   0.01244   0.01236   1.94345
    A8        1.88917   0.00405   0.00000   0.01797   0.01807   1.90724
    A9        1.91075  -0.00248   0.00000  -0.00375  -0.00397   1.90678
   A10        1.93502  -0.00749   0.00000  -0.03878  -0.03872   1.89630
   A11        1.92364   0.00299   0.00000   0.01899   0.01891   1.94256
   A12        1.87287  -0.00068   0.00000  -0.00734  -0.00727   1.86559
   A13        1.87174   0.02477   0.00000   0.07247   0.07263   1.94437
   A14        1.92575  -0.01048   0.00000  -0.03646  -0.03654   1.88921
   A15        1.93301  -0.00562   0.00000  -0.01130  -0.01070   1.92232
   A16        1.91842  -0.00379   0.00000  -0.00658  -0.00654   1.91188
   A17        1.82238   0.00848   0.00000   0.04188   0.04188   1.86426
   A18        1.92897   0.00152   0.00000   0.00789   0.00787   1.93684
   A19        1.92568  -0.00290   0.00000  -0.01501  -0.01509   1.91060
   A20        1.92767   0.00250   0.00000   0.00672   0.00667   1.93434
   A21        1.93828  -0.00567   0.00000  -0.03354  -0.03379   1.90448
   A22        1.93962   0.03866   0.00000   0.11125   0.11192   2.05154
   A23        1.88935  -0.01045   0.00000  -0.02880  -0.02721   1.86213
   A24        1.92643  -0.01568   0.00000  -0.05731  -0.05679   1.86965
   A25        1.98736   0.01342   0.00000   0.05007   0.04852   2.03588
   A26        1.91141  -0.01447   0.00000  -0.06300  -0.06219   1.84921
   A27        1.88593   0.00403   0.00000   0.03523   0.03423   1.92016
   A28        1.91457  -0.00253   0.00000  -0.02032  -0.01959   1.89499
   A29        1.88625  -0.00343   0.00000  -0.00215  -0.00349   1.88276
   A30        1.87469   0.00283   0.00000  -0.00034   0.00006   1.87476
   A31        2.00112   0.00639   0.00000   0.02146   0.02165   2.02277
   A32        1.92876  -0.01322   0.00000  -0.06067  -0.06116   1.86760
   A33        1.90011  -0.00090   0.00000  -0.00744  -0.00775   1.89236
   A34        1.84974   0.00893   0.00000   0.05074   0.05125   1.90098
   A35        1.90955  -0.00312   0.00000  -0.00666  -0.00659   1.90297
   A36        1.86995   0.00182   0.00000   0.00252   0.00155   1.87151
   A37        1.94978  -0.00254   0.00000  -0.01470  -0.01490   1.93487
   A38        1.93497  -0.00238   0.00000  -0.01416  -0.01437   1.92060
   A39        1.90121  -0.00039   0.00000  -0.01040  -0.01080   1.89041
   A40        1.92045   0.01010   0.00000   0.03112   0.03108   1.95152
   A41        1.93106  -0.00106   0.00000  -0.00455  -0.00454   1.92652
   A42        1.92779  -0.00138   0.00000  -0.00274  -0.00282   1.92497
   A43        1.90067  -0.00531   0.00000  -0.01956  -0.01952   1.88115
   A44        1.89956  -0.00288   0.00000  -0.00407  -0.00419   1.89537
   A45        1.88351   0.00021   0.00000  -0.00117  -0.00119   1.88232
   A46        3.14159  -0.00007   0.00000  -0.00061  -0.00061   3.14098
   A47        3.14159   0.00084   0.00000   0.00744   0.00744   3.14903
    D1       -3.11059  -0.00276   0.00000  -0.01863  -0.01861  -3.12921
    D2        1.04910   0.00171   0.00000   0.00996   0.00994   1.05904
    D3       -0.98714   0.00160   0.00000   0.01068   0.01067  -0.97647
    D4        1.09054  -0.00377   0.00000  -0.02587  -0.02586   1.06469
    D5       -1.03295   0.00071   0.00000   0.00272   0.00270  -1.03025
    D6       -3.06920   0.00060   0.00000   0.00344   0.00343  -3.06576
    D7       -1.02206  -0.00267   0.00000  -0.01787  -0.01784  -1.03990
    D8        3.13764   0.00181   0.00000   0.01072   0.01072  -3.13483
    D9        1.10139   0.00170   0.00000   0.01144   0.01145   1.11284
   D10       -3.06752   0.00015   0.00000   0.00118   0.00108  -3.06644
   D11        1.10883  -0.00219   0.00000  -0.00850  -0.00812   1.10071
   D12       -0.97127   0.00262   0.00000   0.00648   0.00621  -0.96505
   D13       -3.07809   0.00028   0.00000  -0.00321  -0.00299  -3.08108
   D14        1.09982  -0.00103   0.00000  -0.01491  -0.01527   1.08455
   D15       -1.00701  -0.00337   0.00000  -0.02460  -0.02447  -1.03148
   D16        3.09654  -0.00029   0.00000   0.00208   0.00195   3.09848
   D17        1.03108   0.00028   0.00000  -0.00020  -0.00032   1.03075
   D18       -1.05444   0.00133   0.00000   0.01135   0.01115  -1.04329
   D19       -1.08443  -0.00092   0.00000  -0.00384  -0.00367  -1.08810
   D20        3.13330  -0.00035   0.00000  -0.00612  -0.00594   3.12736
   D21        1.04778   0.00070   0.00000   0.00544   0.00554   1.05332
   D22        3.11690  -0.00406   0.00000  -0.03340  -0.03321   3.08369
   D23        0.99863  -0.00184   0.00000  -0.01273  -0.01288   0.98575
   D24       -1.16574   0.00237   0.00000   0.00490   0.00498  -1.16075
   D25        2.99918   0.00459   0.00000   0.02557   0.02531   3.02449
   D26        0.98392  -0.00510   0.00000  -0.04337  -0.04313   0.94079
   D27       -1.13435  -0.00288   0.00000  -0.02270  -0.02280  -1.15715
   D28        1.01368   0.00554   0.00000   0.06387   0.06535   1.07903
   D29       -3.11892   0.00080   0.00000   0.02511   0.02552  -3.09340
   D30       -1.08196  -0.00144   0.00000   0.01024   0.00987  -1.07209
   D31        3.11009   0.00730   0.00000   0.06247   0.06293  -3.11016
   D32       -1.02251   0.00256   0.00000   0.02371   0.02311  -0.99941
   D33        1.01445   0.00033   0.00000   0.00884   0.00746   1.02191
   D34       -1.13822  -0.00740   0.00000  -0.06179  -0.06222  -1.20044
   D35        3.05614  -0.01364   0.00000  -0.09761  -0.09734   2.95880
   D36        1.00693  -0.00767   0.00000  -0.06110  -0.06160   0.94533
   D37        2.99611   0.00383   0.00000   0.00019   0.00029   2.99640
   D38        0.90728  -0.00241   0.00000  -0.03564  -0.03483   0.87245
   D39       -1.14193   0.00357   0.00000   0.00088   0.00091  -1.14102
   D40        0.95724   0.00378   0.00000   0.01292   0.01262   0.96986
   D41       -1.13159  -0.00246   0.00000  -0.02291  -0.02251  -1.15409
   D42        3.10239   0.00351   0.00000   0.01361   0.01323   3.11562
   D43        3.10650  -0.00366   0.00000  -0.01328  -0.01367   3.09283
   D44        1.00540  -0.00293   0.00000  -0.00620  -0.00654   0.99887
   D45       -1.07906  -0.00163   0.00000  -0.00006  -0.00038  -1.07943
   D46       -0.98366   0.00155   0.00000  -0.00764  -0.00713  -0.99079
   D47       -3.08476   0.00228   0.00000  -0.00056   0.00001  -3.08476
   D48        1.11396   0.00358   0.00000   0.00559   0.00616   1.12013
   D49        1.06246  -0.00230   0.00000  -0.02130  -0.02155   1.04091
   D50       -1.03864  -0.00157   0.00000  -0.01422  -0.01441  -1.05305
   D51       -3.12310  -0.00026   0.00000  -0.00808  -0.00825  -3.13135
   D52       -1.04935   0.00041   0.00000  -0.00817  -0.00831  -1.05766
   D53        3.10971   0.00435   0.00000   0.02531   0.02496   3.13467
   D54        1.08298  -0.00587   0.00000  -0.03489  -0.03457   1.04841
   D55       -1.04114  -0.00193   0.00000  -0.00141  -0.00130  -1.04245
   D56        3.09379  -0.00056   0.00000  -0.00857  -0.00844   3.08535
   D57        0.96966   0.00337   0.00000   0.02491   0.02483   0.99449
         Item               Value     Threshold  Converged?
 Maximum Force            0.179282     0.000450     NO 
 RMS     Force            0.017238     0.000300     NO 
 Maximum Displacement     0.917056     0.001800     NO 
 RMS     Displacement     0.227566     0.001200     NO 
 Predicted change in Energy=-3.503471D-02
 GradGradGradGradGradGradGradGradGradGradGradGradGradGradGradGradGradGrad

                          Input orientation:                          
 ---------------------------------------------------------------------
 Center     Atomic      Atomic             Coordinates (Angstroms)
 Number     Number       Type             X           Y           Z
 ---------------------------------------------------------------------
      1          6           0        0.677304    0.250654    0.059885
      2          6           0        2.195496    0.105829    0.058188
      3          7           0        2.857548    1.415315   -0.007876
      4          6           0        4.309736    1.274623   -0.111759
      5          7           0        4.921541    2.596466   -0.233856
      6          6           0        6.403459    2.665638   -0.275434
      7          6           0        7.101271    1.946629   -1.461965
      8          7           0        7.030087    0.481362   -1.454496
      9          6           0        6.757296    4.170183   -0.334200
     10          6           0        8.223075    4.392694   -0.313228
     11          7           0        9.374964    4.562851   -0.289559
     12          1           0        0.198069   -0.732226    0.122091
     13          1           0        0.334387    0.738041   -0.857306
     14          1           0        0.335807    0.843943    0.914568
     15          1           0        2.501573   -0.486002   -0.812173
     16          1           0        2.508331   -0.456769    0.954567
     17          1           0        2.615554    1.936820    0.830183
     18          1           0        4.505733    0.701357   -1.010669
     19          1           0        4.719675    0.729334    0.763765
     20          1           0        4.619387    3.133864    0.574449
     21          1           0        6.827143    2.262786    0.661513
     22          1           0        8.155455    2.251769   -1.447037
     23          1           0        6.668168    2.320783   -2.396845
     24          1           0        7.471296    0.102989   -0.624751
     25          1           0        7.505875    0.106158   -2.267596
     26          1           0        6.326878    4.696859    0.523589
     27          1           0        6.348583    4.621190   -1.244577
 ---------------------------------------------------------------------
                    Distance matrix (angstroms):
                    1          2          3          4          5
     1  C    0.000000
     2  C    1.525085   0.000000
     3  N    2.472750   1.468820   0.000000
     4  C    3.777901   2.421770   1.462681   0.000000
     5  N    4.858258   3.704036   2.388777   1.461671   0.000000
     6  C    6.223619   4.936686   3.769400   2.519006   1.484113
     7  C    6.816136   5.455825   4.517284   3.172903   2.584910
     8  N    6.534863   5.079617   4.513874   3.135684   3.226389
     9  C    7.244606   6.122333   4.785793   3.797934   2.420051
    10  C    8.615937   7.405867   6.143851   5.007712   3.759369
    11  N    9.714239   8.457584   7.243137   6.041572   4.868546
    12  H    1.095258   2.167057   3.420768   4.581259   5.789481
    13  H    1.093790   2.168305   2.747102   4.080093   4.988428
    14  H    1.095032   2.176384   2.745277   4.126857   5.041743
    15  H    2.152000   1.096118   2.094903   2.619127   3.961351
    16  H    2.157212   1.103575   2.133764   2.716584   4.069174
    17  H    2.682038   2.030998   1.016303   2.048417   2.623907
    18  H    4.000761   2.614250   2.057145   1.084015   2.089922
    19  H    4.131022   2.694081   2.129206   1.109925   2.126542
    20  H    4.910977   3.912898   2.529148   2.005877   1.016588
    21  H    6.498549   5.144765   4.113875   2.812784   2.131747
    22  H    7.886572   6.510903   5.553257   4.186566   3.471141
    23  H    6.797898   5.562194   4.587796   3.446487   2.793783
    24  H    6.829997   5.319819   4.836259   3.410476   3.587684
    25  H    7.215777   5.797361   5.331714   4.028430   4.125107
    26  H    7.204266   6.193744   4.804918   4.022963   2.638247
    27  H    7.277817   6.271668   4.898407   4.079178   2.675353
                    6          7          8          9         10
     6  C    0.000000
     7  C    1.552988   0.000000
     8  N    2.560061   1.467014   0.000000
     9  C    1.546709   2.516816   3.864825   0.000000
    10  C    2.509014   2.925966   4.245495   1.482720   0.000000
    11  N    3.525544   3.659075   4.849131   2.647331   1.164629
    12  H    7.085928   7.572298   7.115820   8.201541   9.531791
    13  H    6.394360   6.900508   6.727178   7.301164   8.711137
    14  H    6.446012   7.255021   7.110367   7.338857   8.735566
    15  H    5.044366   5.243771   4.675020   6.326111   7.535662
    16  H    5.141435   5.719357   5.208642   6.412746   7.601506
    17  H    4.012703   5.037429   5.179403   4.847445   6.227599
    18  H    2.828486   2.913964   2.572498   4.190454   5.284981
    19  H    2.768454   3.479609   3.212503   4.146911   5.182078
    20  H    2.030873   3.422901   4.118720   2.543669   3.919080
    21  H    1.104386   2.164315   2.773472   2.152786   2.726767
    22  H    2.147890   1.097560   2.097820   2.621749   2.423563
    23  H    2.165497   1.096162   2.098208   2.771773   3.324456
    24  H    2.798119   2.058362   1.013068   4.139599   4.366210
    25  H    3.425634   2.049410   1.014044   4.562312   4.765325
    26  H    2.184070   3.479349   4.709324   1.094737   2.094836
    27  H    2.183216   2.786947   4.200797   1.095098   2.105549
                   11         12         13         14         15
    11  N    0.000000
    12  H   10.602957   0.000000
    13  H    9.832778   1.771859   0.000000
    14  H    9.848175   1.769548   1.775036   0.000000
    15  H    8.544444   2.497921   2.489380   3.072610   0.000000
    16  H    8.596225   2.471074   3.071886   2.532452   1.766994
    17  H    7.337539   3.670074   3.080327   2.529575   2.929230
    18  H    6.256241   4.679132   4.174325   4.595123   2.337921
    19  H    6.121851   4.795083   4.675328   4.387958   2.980032
    20  H    5.040240   5.890614   5.113816   4.869135   4.417157
    21  H    3.561773   7.294223   6.840141   6.649405   5.332741
    22  H    2.857981   8.642128   7.988007   8.288911   6.313859
    23  H    4.098080   7.584728   6.707610   7.296939   5.267802
    24  H    4.860728   7.359021   7.168880   7.337146   5.008011
    25  H    5.221900   7.734179   7.336105   7.879110   5.245183
    26  H    3.157529   8.197467   7.313621   7.133776   6.578697
    27  H    3.174026   8.267749   7.169336   7.421791   6.408578
                   16         17         18         19         20
    16  H    0.000000
    17  H    2.399216   0.000000
    18  H    3.032000   2.913397   0.000000
    19  H    2.516602   2.426882   1.787504   0.000000
    20  H    4.182546   2.348118   2.905617   2.414055   0.000000
    21  H    5.112142   4.227550   3.259325   2.608324   2.374982
    22  H    6.707748   5.997951   3.989319   4.360050   4.167526
    23  H    6.020881   5.194691   3.036470   4.039653   3.699620
    24  H    5.238186   5.390547   3.049842   3.145108   4.331012
    25  H    5.972827   6.071474   3.306808   4.164182   5.057275
    26  H    6.428602   4.635271   4.651296   4.287429   2.315397
    27  H    6.735684   5.044400   4.337731   4.672615   2.917381
                   21         22         23         24         25
    21  H    0.000000
    22  H    2.492091   0.000000
    23  H    3.063036   1.766047   0.000000
    24  H    2.595021   2.400309   2.950245   0.000000
    25  H    3.700190   2.387240   2.371292   1.643212   0.000000
    26  H    2.488775   3.633941   3.780363   4.871552   5.500480
    27  H    3.069897   2.986626   2.592630   4.696681   4.771940
                   26         27
    26  H    0.000000
    27  H    1.769917   0.000000
 Stoichiometry    C7H16N4
 Framework group  C1[X(C7H16N4)]
 Deg. of freedom    75
 Full point group                 C1      NOp   1
 Largest Abelian subgroup         C1      NOp   1
 Largest concise Abelian subgroup C1      NOp   1
                         Standard orientation:                         
 ---------------------------------------------------------------------
 Center     Atomic      Atomic             Coordinates (Angstroms)
 Number     Number       Type             X           Y           Z
 ---------------------------------------------------------------------
      1          6           0       -4.939901   -0.464412    0.208938
      2          6           0       -3.658731    0.229627   -0.241394
      3          7           0       -2.472330   -0.570666    0.089382
      4          6           0       -1.238702    0.138204   -0.249885
      5          7           0       -0.086264   -0.667581    0.148960
      6          6           0        1.263245   -0.146658   -0.182788
      7          6           0        1.662481    1.210912    0.457045
      8          7           0        0.934836    2.387690   -0.030661
      9          6           0        2.263981   -1.227231    0.289649
     10          6           0        3.663055   -0.865144   -0.041925
     11          7           0        4.759750   -0.579759   -0.310582
     12          1           0       -5.815832    0.137631   -0.055407
     13          1           0       -4.941299   -0.607827    1.293285
     14          1           0       -5.050391   -1.443444   -0.268956
     15          1           0       -3.577597    1.200692    0.260527
     16          1           0       -3.716230    0.432412   -1.324653
     17          1           0       -2.525597   -1.445925   -0.424385
     18          1           0       -1.244247    1.064424    0.313297
     19          1           0       -1.200365    0.372263   -1.334173
     20          1           0       -0.183034   -1.566101   -0.316603
     21          1           0        1.372816   -0.050680   -1.277526
     22          1           0        2.734447    1.351871    0.268218
     23          1           0        1.531369    1.134136    1.542626
     24          1           0        1.080621    2.515443   -1.025011
     25          1           0        1.259529    3.220299    0.448527
     26          1           0        2.044162   -2.186332   -0.190197
     27          1           0        2.187131   -1.368441    1.372882
 ---------------------------------------------------------------------
 Rotational constants (GHZ):           2.5144990           0.3812915           0.3403433
 Standard basis: 6-31G(2df,p) (6D, 7F)
 There are   421 symmetry adapted cartesian basis functions of A   symmetry.
 There are   388 symmetry adapted basis functions of A   symmetry.
   388 basis functions,   596 primitive gaussians,   421 cartesian basis functions
    43 alpha electrons       43 beta electrons
       nuclear repulsion energy       605.2344469387 Hartrees.
 NAtoms=   27 NActive=   27 NUniq=   27 SFac= 1.00D+00 NAtFMM=   60 NAOKFM=F Big=F
 Integral buffers will be    131072 words long.
 Raffenetti 2 integral format.
 Two-electron integral symmetry is turned on.
 One-electron integrals computed using PRISM.
 PrsmSu:  requested number of processors reduced to:  13 ShMem   1 Linda.
 NBasis=   388 RedAO= T EigKep=  1.60D-04  NBF=   388
 NBsUse=   388 1.00D-06 EigRej= -1.00D+00 NBFU=   388
 Initial guess from the checkpoint file:  "CCNCNCpCNpCCtN.chk"
 B after Tr=     0.000000   -0.000000    0.000000
         Rot=    0.999871    0.003101   -0.001205    0.015734 Ang=   1.84 deg.
 ExpMin= 1.61D-01 ExpMax= 4.17D+03 ExpMxC= 6.27D+02 IAcc=2 IRadAn=         4 AccDes= 0.00D+00
 Harris functional with IExCor=  402 and IRadAn=       4 diagonalized for initial guess.
 HarFok:  IExCor=  402 AccDes= 0.00D+00 IRadAn=         4 IDoV= 1 UseB2=F ITyADJ=14
 ICtDFT=  3500011 ScaDFX=  1.000000  1.000000  1.000000  1.000000
 FoFCou: FMM=F IPFlag=           0 FMFlag=      100000 FMFlg1=           0
         NFxFlg=           0 DoJE=T BraDBF=F KetDBF=T FulRan=T
         wScrn=  0.000000 ICntrl=       500 IOpCl=  0 I1Cent=   200000004 NGrid=           0
         NMat0=    1 NMatS0=      1 NMatT0=    0 NMatD0=    1 NMtDS0=    0 NMtDT0=    0
 Petite list used in FoFCou.
 Requested convergence on RMS density matrix=1.00D-08 within 128 cycles.
 Requested convergence on MAX density matrix=1.00D-06.
 Requested convergence on             energy=1.00D-06.
 No special actions if energy rises.
 Integral accuracy reduced to 1.0D-05 until final iterations.
 Initial convergence to 1.0D-05 achieved.  Increase integral accuracy.
 SCF Done:  E(RB3LYP) =  -495.374036243     A.U. after   12 cycles
            NFock= 12  Conv=0.63D-08     -V/T= 2.0082
 PrsmSu:  requested number of processors reduced to:  13 ShMem   1 Linda.
 Calling FoFJK, ICntrl=      2127 FMM=F ISym2X=0 I1Cent= 0 IOpClX= 0 NMat=1 NMatS=1 NMatT=0.
 ***** Axes restored to original set *****
 -------------------------------------------------------------------
 Center     Atomic                   Forces (Hartrees/Bohr)
 Number     Number              X              Y              Z
 -------------------------------------------------------------------
      1        6          -0.000552905   -0.001103743   -0.001591442
      2        6          -0.000900801    0.005114499    0.003697310
      3        7           0.001679643   -0.004126021   -0.005476799
      4        6          -0.006526285    0.005925131    0.004919254
      5        7           0.008521719    0.001674338   -0.009229138
      6        6          -0.008179070   -0.007762556    0.001962675
      7        6           0.001195421   -0.001391076    0.001732704
      8        7          -0.014220693    0.001579486    0.001876102
      9        6           0.015219193    0.000049916   -0.000087135
     10        6           0.008941669    0.004238696    0.002022181
     11        7          -0.020065085   -0.002706017   -0.000258545
     12        1           0.000174441    0.000398922    0.000666735
     13        1           0.000132575    0.001107615    0.000675984
     14        1          -0.000488277    0.000401315    0.000226266
     15        1           0.001598296    0.001163011   -0.000211781
     16        1           0.000550823   -0.003269883   -0.000107878
     17        1           0.000274624    0.000435137    0.000973333
     18        1           0.005388323   -0.003569892   -0.001811765
     19        1           0.003087846   -0.004637524   -0.000868809
     20        1           0.000856013    0.002501407   -0.000752256
     21        1           0.003697559   -0.001568054   -0.000150552
     22        1          -0.000504651    0.007303567    0.000445088
     23        1          -0.001726305   -0.001615810   -0.000213110
[...]
 05881,-0.00000121,0.00030584,0.00043286,0.00002367,0.00016095,0.000044
 54,-0.00010724,-0.00027323,0.00137268,-0.00011915,-0.00466853,-0.00442
 779,-0.00045534,-0.17464975,0.28015911,-0.00012453,-0.00007032,-0.0000
 9360,0.00126698,0.00024937,0.00024340,-0.00227782,-0.00022186,0.001169
 52,0.00400268,0.00385670,-0.00197763,0.05479551,-0.09158415,-0.0423095
 3,-0.02367726,0.02163842,-0.00284942,-0.00334071,-0.00236507,-0.002554
 42,0.00068922,0.00006055,0.00038867,0.00051848,0.00005407,0.00035425,-
 0.00010219,0.00018280,-0.00010744,0.00000796,-0.00000236,-0.00012156,-
 0.00006830,-0.00008679,0.00005633,0.00005558,0.00001551,-0.00000966,0.
 00002000,0.00001453,-0.00001219,-0.00016521,0.00005366,-0.00008380,-0.
 00018962,-0.00034823,-0.00019161,-0.00021035,0.00004582,-0.00018078,0.
 00003528,-0.00044617,-0.00031686,-0.00133696,-0.00201136,0.00099018,-0
 .02969498,0.06895606,0.04493926,-0.00004459,-0.00005590,-0.00001770,-0
 .00014881,0.00036187,0.00029718,0.00048545,-0.00056470,0.00145779,0.00
 279303,0.00343152,-0.00130603,0.00076129,-0.00276204,-0.03509578,-0.07
 538158,0.00519173,0.07505638,-0.00617928,0.00327497,0.02032500,0.00118
 443,-0.00184727,-0.00056965,-0.00648728,-0.00121020,0.01472392,0.00068
 718,0.00026306,0.00157731,-0.00014181,0.00009805,-0.00062049,-0.000024
 44,-0.00000852,0.00002182,-0.00001091,-0.00000026,0.00000416,-0.000001
 61,-0.00000217,0.00000321,0.00004541,0.00000847,-0.00002771,0.00015794
 ,0.00015455,-0.00000508,-0.00049070,-0.00069321,-0.00004995,-0.0002932
 1,-0.00019106,0.00019149,-0.00025726,-0.00044488,0.00006859,0.00152804
 ,-0.00088310,0.00033983,0.08430308,0.00001349,0.00002860,0.00001894,-0
 .00011123,0.00001659,0.00006889,0.00044874,-0.00005218,0.00048336,0.00
 058722,0.00039954,-0.00106833,0.00045907,0.00293358,-0.00347345,0.0045
 5231,-0.05055556,-0.01010511,0.01095982,-0.00497077,-0.02497987,-0.000
 94302,0.00251243,-0.00032107,-0.01401472,-0.00303799,0.02713597,0.0011
 5291,0.00106220,0.00167765,-0.00027518,-0.00000875,-0.00068913,0.00001
 348,0.00000497,-0.00001104,-0.00000694,-0.00000548,-0.00000526,-0.0000
 0400,-0.00001735,0.00000518,0.00004350,0.00003023,0.00000749,0.0000648
 0,0.00009676,0.00001637,-0.00062784,-0.00084343,-0.00021595,-0.0001153
 8,-0.00002650,0.00012266,-0.00000653,0.00007103,0.00005014,-0.00019255
 ,0.00033343,0.00093692,-0.00397608,0.05934922,-0.00013238,-0.00011764,
 -0.00008606,-0.00006669,-0.00025360,0.00072913,-0.00063573,-0.00025111
 ,0.00158417,0.00281788,0.00435057,-0.00123891,-0.00913669,-0.00248843,
 -0.02854736,0.07617939,-0.01015518,-0.25094611,0.00319874,0.00014685,-
 0.00485871,-0.00077727,0.00136766,0.00175614,0.00435244,0.00089168,-0.
 00617718,-0.00036449,0.00025209,-0.00043783,0.00027081,-0.00014304,0.0
 0074874,-0.00003155,-0.00000365,0.00007696,-0.00003356,0.00001475,0.00
 001746,0.00000799,-0.00003551,0.00002374,0.00013185,0.00006908,0.00001
 096,0.00004077,0.00010886,0.00001853,-0.00012182,-0.00112515,0.0000285
 0,-0.00030077,-0.00026382,0.00020867,-0.00020052,-0.00033782,0.0000937
 4,-0.00050297,-0.00073765,0.00133268,-0.07537185,0.00923741,0.28359795
 ,-0.00000439,-0.00003545,-0.00001428,0.00020894,0.00014637,0.00000876,
 -0.00023668,-0.00010142,0.00003115,0.00063836,0.00051083,0.00016032,-0
 .00174001,0.00396037,0.00159361,-0.01930175,-0.00550343,-0.00909466,-0
 .25555609,-0.05915425,-0.05977693,-0.00642096,-0.01018692,0.00459560,0
 .00043257,-0.00130677,-0.00041425,-0.00007963,0.00063613,-0.00029576,0
 .00041982,-0.00103708,0.00021107,-0.00003134,-0.00001614,0.00001424,0.
 00000040,0.00001608,0.00000395,0.00000726,0.00001145,-0.00001168,-0.00
 004952,-0.00001002,-0.00002214,-0.00001618,-0.00005270,0.00000046,0.00
 035867,-0.00010510,-0.00009159,-0.00007447,-0.00001688,-0.00003013,0.0
 0011519,-0.00008291,0.00007762,-0.00117581,-0.00018196,-0.00069108,0.0
 0004000,0.00019980,0.00069711,0.27913348,0.00005504,-0.00001262,0.0000
 3226,0.00006775,0.00016054,-0.00013417,-0.00027067,0.00049754,-0.00003
 744,-0.00057197,-0.00153377,0.00009252,0.00361958,-0.00420416,-0.00103
 890,0.02164074,0.00627222,0.00839735,-0.06177450,-0.06708818,-0.021142
 13,-0.02896166,-0.01736161,0.00317712,0.00180794,-0.00016607,0.0005404
 5,0.00069738,-0.00127371,0.00027478,-0.00045463,-0.00049445,-0.0005322
 0,-0.00001513,0.00000258,-0.00001565,-0.00000987,0.00001130,0.00000450
 ,-0.00000094,0.00002520,-0.00003950,-0.00009217,-0.00002668,-0.0000308
 4,0.00004150,0.00000778,0.00003693,0.00070219,-0.00033613,-0.00017953,
 0.00003387,0.00019501,-0.00004373,-0.00009200,0.00018416,0.00014456,0.
 00144157,0.00015251,0.00110742,-0.00022168,-0.00009775,-0.00083298,0.0
 7180159,0.08548639,-0.00004070,0.00000377,-0.00003062,0.00008711,0.000
 02950,0.00009812,-0.00002834,-0.00020497,0.00061140,0.00062710,0.00013
 702,-0.00084778,-0.00078725,-0.00034699,0.00007555,0.00443301,0.000555
 33,0.00140605,-0.06094079,-0.02155294,-0.06957492,0.02241860,0.0151859
 5,0.00209864,-0.00076834,0.00019886,0.00066137,0.00031919,-0.00011652,
 0.00057774,-0.00016800,-0.00015802,-0.00035486,0.00000173,-0.00001066,
 0.00001352,0.00000903,-0.00000487,-0.00000045,0.00000401,-0.00001310,0
 .00002677,0.00003840,0.00001609,0.00000249,-0.00002027,-0.00001949,-0.
 00004118,-0.00057865,0.00025410,-0.00007381,-0.00006744,0.00010146,0.0
 0006240,-0.00001534,0.00038009,0.00002829,-0.00021620,-0.00008120,0.00
 049633,-0.00030150,0.00024717,-0.00008331,0.06305352,0.01480945,0.0696
 6215,0.00003081,0.00001151,0.00003521,-0.00013063,-0.00006510,-0.00009
 223,0.00011372,-0.00004113,-0.00048735,-0.00138064,0.00016968,0.001135
 39,0.00161200,-0.00147507,-0.00002009,-0.00205264,0.00876444,0.0221653
 9,-0.04850900,-0.00303830,-0.00220524,-0.00028397,0.00348431,0.0114015
 8,-0.00057542,-0.00021003,-0.00017806,-0.00039648,-0.00007458,-0.00032
 047,0.00016637,-0.00034831,0.00011352,0.00001310,0.00001317,-0.0000209
 3,0.00000059,-0.00000556,-0.00000631,-0.00000571,0.00001166,-0.0000157
 4,-0.00002142,-0.00000980,0.00000293,0.00000534,0.00000194,0.00001489,
 0.00017132,0.00017745,0.00013291,0.00024448,-0.00017630,-0.00016828,-0
 .00089069,-0.00067468,-0.00015923,0.00050347,-0.00013398,-0.00013426,-
 0.00221073,0.00337966,0.00031165,0.00121528,-0.00971363,-0.02810439,0.
 05113073,0.00000943,-0.00002410,0.00000886,-0.00004393,0.00000156,0.00
 003444,0.00000674,0.00002652,0.00002016,0.00014674,0.00050616,0.000058
 28,-0.00219677,0.00176705,0.00064483,0.00173534,-0.00861475,-0.0260605
 1,-0.00072598,-0.07547491,-0.08189937,-0.00131841,0.00548865,0.0317688
 6,0.00063190,0.00076993,-0.00085130,0.00007769,0.00012976,-0.00009173,
 0.00005182,-0.00010919,0.00011900,-0.00000566,0.00000456,0.00000042,-0
 .00000704,0.00000223,-0.00000097,-0.00000068,0.00000682,-0.00000741,0.
 00000014,-0.00000139,-0.00000569,0.00000546,0.00001551,0.00000551,0.00
 014908,-0.00012961,0.00004904,0.00005722,0.00009136,-0.00001385,-0.000
 19224,0.00016677,-0.00003405,-0.00046591,-0.00006617,0.00014530,0.0027
 5086,-0.00367375,0.00034154,0.00078918,-0.00208583,-0.00863451,0.00089
 354,0.08378819,-0.00002423,0.00001218,-0.00002644,0.00011006,0.0000011
 6,0.00002762,-0.00026921,0.00020499,0.00052284,0.00009195,-0.00081932,
 -0.00062292,-0.00075836,0.00070855,0.00087889,0.00115170,-0.00206607,-
 0.00394565,0.00267726,-0.07371152,-0.27920379,0.00101695,-0.00265483,-
 0.02086890,0.00007953,-0.00025643,0.00001964,-0.00006679,-0.00003979,-
 0.00003264,0.00007853,-0.00005791,0.00009486,0.00000521,-0.00000651,0.
 00001180,-0.00000254,0.00000181,0.00000468,0.00000384,-0.00001823,0.00
 001514,0.00001859,0.00001371,0.00000967,-0.00000858,0.00000434,-0.0000
 2128,-0.00024774,-0.00008231,-0.00009522,-0.00004752,0.00023754,0.0000
 6450,-0.00027205,0.00062480,0.00029046,-0.00022682,0.00006297,0.000309
 78,0.00000883,-0.00071081,0.00057247,-0.00041654,-0.00332537,-0.006785
 52,-0.00407824,0.07903057,0.30883454,-0.00009260,0.00011542,-0.0001243
 3,0.00002119,-0.00019702,0.00009214,-0.00059759,0.00064873,0.00032375,
 0.00063818,-0.00066897,-0.00120436,-0.00026038,0.00012638,0.00059356,0
 .00036315,-0.00029795,-0.00208928,-0.00191327,-0.00288474,0.01853276,-
 0.04707560,-0.01924154,-0.13297779,-0.00015762,0.00010546,0.00051478,0
 .00024837,-0.00006371,0.00011338,-0.00019030,0.00025218,-0.00007010,0.
 00005889,-0.00000722,0.00005708,-0.00002020,-0.00000187,0.00001919,0.0
 0000573,-0.00011449,0.00007557,0.00009029,0.00003146,0.00007912,0.0000
 3752,0.00010306,0.00002718,-0.00053097,-0.00068179,-0.00141935,-0.0002
 1526,0.00023004,0.00022621,-0.00025762,0.00037066,0.00067744,0.0000063
 2,0.00011889,-0.00005739,-0.00027464,0.00076788,0.00040997,0.00169594,
 0.00149421,0.00082385,-0.00014717,-0.00238559,0.00180387,0.04787651,-0
 .00005244,0.00004120,-0.00005198,0.00009562,0.00003436,-0.00003815,-0.
 00013859,-0.00010620,0.00001800,0.00002540,0.00006693,-0.00003990,0.00
 018302,-0.00016561,-0.00069862,-0.00114768,0.00154533,0.00212109,0.006
 66148,0.00384181,0.03263313,-0.00965935,-0.07299317,-0.06553646,0.0000
 2843,-0.00018569,-0.00015915,0.00010552,-0.00001138,0.00018255,-0.0000
 2544,0.00011465,-0.00021799,0.00000250,-0.00001606,0.00001477,0.000021
 19,-0.00000958,0.00001112,0.00000479,-0.00001246,0.00003333,-0.0000108
 3,-0.00000891,0.00001210,-0.00001464,-0.00001635,-0.00000996,0.0000330
 0,0.00014815,-0.00004174,-0.00004773,-0.00000007,0.00002495,-0.0000359
 7,-0.00005396,0.00011504,0.00009568,0.00000655,-0.00005886,0.00067106,
 -0.00047601,-0.00100379,-0.00022574,0.00114793,-0.00015515,-0.00142303
 ,-0.00411811,0.00345922,0.01639271,0.07716647,0.00001528,-0.00000520,0
 .00002254,-0.00005354,-0.00005476,0.00003572,0.00005835,0.00007793,-0.
 00008390,0.00006797,-0.00021090,-0.00009628,0.00030482,-0.00003842,0.0
 0043164,-0.00001141,0.00007999,-0.00037651,-0.00764918,-0.00427167,-0.
 02246261,-0.07944809,-0.06268592,-0.37846439,0.00002008,0.00001253,0.0
 0013520,0.00001073,0.00014364,0.00002856,0.00002489,-0.00005749,-0.000
 03021,0.00000064,0.00000361,-0.00001265,0.00000390,-0.00000686,-0.0000
 0081,-0.00000729,0.00001297,-0.00000078,0.00001934,0.00001261,-0.00000
 133,0.00000701,0.00001591,-0.00000455,-0.00031762,0.00000101,0.0001265
 0,0.00000912,0.00000622,0.00004188,-0.00000809,0.00010186,-0.00006615,
 -0.00000710,0.00004256,0.00004263,-0.00040428,0.00041451,0.00034544,0.
 00023412,-0.00129705,0.00249237,0.00140814,0.00429533,-0.00055846,0.09
 286294,0.06437778,0.40975897,-0.00005571,-0.00005701,-0.00006317,-0.00
 004944,0.00073037,-0.00008071,-0.00096487,-0.00074986,-0.00036493,-0.0
 0029203,0.00077466,0.00100178,0.00004982,-0.00039994,-0.00016966,0.000
 40006,0.00068420,0.00046493,-0.00040441,-0.01684784,-0.00117185,-0.109
 92271,0.18819540,0.06742896,-0.00001677,-0.00004124,-0.00032320,-0.000
 02295,-0.00009344,-0.00005859,0.00002219,0.00008370,0.00006241,-0.0000
 1282,-0.00001387,0.00002304,0.00005545,-0.00002664,-0.00002046,0.00000
 230,0.00002303,0.00007728,-0.00009598,-0.00019579,-0.00004090,-0.00007
 623,-0.00027595,-0.00014516,0.00127322,0.00095007,0.00019450,0.0000210
 5,-0.00014171,-0.00008194,0.00003034,-0.00007523,-0.00046284,-0.000089
 08,-0.00011384,-0.00004587,0.00022887,-0.00037856,-0.00038370,0.000161
 97,-0.00097446,0.00028016,0.00090973,0.00054241,-0.00049958,0.00078082
 ,-0.01160724,-0.00708887,0.10794871,-0.00001243,-0.00001794,-0.0000215
 6,0.00004336,0.00025655,-0.00003650,-0.00052967,-0.00005170,-0.0000907
 7,-0.00001712,-0.00017780,0.00011932,0.00000798,-0.00009689,-0.0000683
 4,-0.00357788,-0.00286778,0.00331461,0.01639096,-0.02356365,-0.0079517
 5,0.14009648,-0.30105944,-0.08445839,0.00130021,-0.00080590,-0.0000306
 0,0.00019950,-0.00001300,0.00012965,-0.00011748,0.00008882,-0.00007835
 ,-0.00001382,-0.00000662,0.00000629,0.00001647,-0.00000745,-0.00000198
 ,0.00000355,0.00001456,0.00002005,-0.00005334,-0.00005513,-0.00002153,
 -0.00001651,-0.00007267,-0.00003946,0.00069756,0.00010834,0.00008498,-
 0.00000345,0.00005256,-0.00002669,0.00009801,0.00007388,0.00000236,0.0
 0003019,-0.00003329,0.00008155,-0.00037778,0.00033247,0.00025345,-0.00
 017244,0.00020955,-0.00079791,0.00042108,0.00199480,0.00001114,0.00587
 783,-0.00605299,-0.00084472,-0.16009719,0.33217762,0.00001657,-0.00002
 142,0.00001626,-0.00007430,0.00003576,0.00005787,-0.00009554,-0.000138
 61,-0.00018258,-0.00007490,0.00058543,0.00036295,0.00005444,-0.0002082
 0,0.00025058,0.00298574,0.00338177,-0.00283819,-0.01259173,0.02124050,
 0.00604224,0.04876789,-0.08143897,-0.08733251,-0.00104907,0.00114037,0
 .00026240,-0.00021199,-0.00007443,-0.00020370,0.00008434,0.00001947,0.
 00012784,0.00000419,0.00000669,0.00000088,-0.00000788,0.00000265,-0.00
 001468,-0.00000350,-0.00000649,-0.00001160,0.00000772,-0.00000378,-0.0
 0000361,0.00000419,-0.00003124,-0.00000541,0.00003972,0.00002583,-0.00
 012533,-0.00000331,-0.00011235,-0.00001829,0.00003007,-0.00017465,-0.0
 0014571,-0.00013961,-0.00005732,-0.00007534,-0.00004993,-0.00009497,0.
 00037519,0.00047610,-0.00007599,-0.00013216,-0.00054738,0.00007670,0.0
 0042251,0.02069563,-0.03479995,-0.01135735,-0.05851019,0.09032876,0.09
 458199,0.00000469,0.00000338,0.00000257,-0.00001331,-0.00000818,-0.000
 01816,0.00002289,0.00004440,0.00001565,0.00030587,-0.00004712,0.000057
 12,0.00134702,-0.00114474,0.00049473,0.00960310,-0.01208906,-0.0005298
 8,-0.00195174,-0.00199596,0.00015737,0.00040613,-0.00082514,-0.0000890
 1,-0.15980699,0.13112931,0.00089832,-0.02329694,0.01664155,-0.00429442
 ,0.00237304,-0.00215857,-0.00049979,0.00000290,0.00000343,-0.00000246,
 -0.00000234,-0.00000042,0.00000098,-0.00000034,0.00000048,-0.00000243,
 -0.00000390,-0.00000152,-0.00000082,0.00000331,0.00000901,0.00000464,0
 .00004237,-0.00000410,-0.00001437,0.00000868,0.00004688,-0.00001190,-0
 .00002668,0.00000571,-0.00001806,-0.00034469,-0.00000450,0.00003187,0.
 00065313,0.00074926,-0.00029689,0.00015666,-0.00005662,0.00015718,0.00
 013751,-0.00013642,-0.00004977,-0.00000913,-0.00001564,-0.00000740,0.0
 0003429,-0.00020417,0.00020987,0.17878001,0.00003366,0.00000620,0.0000
 1902,-0.00004836,-0.00000576,-0.00010558,0.00012468,0.00023340,-0.0000
 5781,-0.00043904,-0.00018803,-0.00003565,0.00209203,0.00240064,0.00066
 509,0.01806103,-0.02331517,-0.00093722,-0.00448215,-0.00206121,0.00196
 177,0.00072220,-0.00161439,-0.00061567,0.12968857,-0.18808849,-0.00217
 668,-0.00513357,0.00811157,0.00264700,-0.00087572,-0.00162403,-0.00237
 525,0.00000762,0.00000955,-0.00001293,-0.00000705,0.00000082,0.0000029
 1,-0.00000463,0.00000696,-0.00001267,-0.00002193,-0.00000817,-0.000005
 33,0.00000805,0.00002703,0.00002054,0.00018991,-0.00001423,-0.00003937
 ,-0.00002764,-0.00000299,0.00000242,0.00011578,0.00031085,0.00008164,-
 0.00180467,-0.00041993,-0.00004877,0.00001614,0.00135616,0.00005714,-0
 .00022474,0.00021962,0.00017083,0.00013934,-0.00014604,-0.00016753,0.0
 0006573,-0.00003750,-0.00002986,-0.00002576,-0.00041489,0.00047748,-0.
 13924988,0.20690737,-0.00000333,0.00000738,0.00000414,0.00001930,0.000
 01538,0.00000149,0.00002694,-0.00002847,-0.00007055,-0.00004912,0.0000
 6462,-0.00006837,-0.00045165,-0.00095727,-0.00063705,-0.00454678,0.007
 12148,-0.00020229,0.00075594,0.00053809,0.00050017,-0.00008889,0.00030
 061,0.00023180,0.00046340,-0.00123329,-0.04432723,-0.01928741,0.018682
 84,-0.00341208,0.00037325,-0.00308172,-0.00090630,-0.00000193,-0.00000
 484,-0.00000258,0.00000676,-0.00000161,-0.00000246,0.00000028,0.000002
 37,-0.00000110,-0.00000546,0.00000059,-0.00000162,-0.00000312,-0.00001
 077,-0.00000523,-0.00001291,0.00003062,0.00001188,-0.00002608,-0.00003
 175,-0.00001459,-0.00001442,-0.00000846,-0.00001893,-0.00017303,-0.000
 40059,0.00065779,-0.00061246,-0.00023197,0.00015244,0.00006248,-0.0000
 1258,-0.00018829,-0.00004881,0.00049340,0.00003402,-0.00004120,-0.0000
 5993,0.00003993,0.00000822,0.00008145,-0.00007514,0.00349169,0.0005356
 9,0.04796250,0.00001729,0.00001667,0.00001293,0.00003473,0.00004270,-0
 .00010627,0.00008131,0.00006903,-0.00016279,-0.00010466,-0.00042040,-0
 .00015486,0.00118104,0.00132806,-0.00015654,-0.00594881,-0.00000538,0.
 01461920,0.00031438,0.00096889,-0.00069674,-0.00020958,-0.00009622,-0.
 00005664,-0.08577309,0.00706575,0.09461432,0.01019872,-0.00183103,-0.0
 2802423,-0.00401829,-0.00055218,0.00126680,0.00000158,-0.00000166,-0.0
 0001024,0.00000612,-0.00000102,-0.00000187,-0.00000068,0.00000605,-0.0
 0000414,-0.00002122,-0.00000993,-0.00000344,-0.00001074,-0.00001750,-0
 .00000127,0.00006392,0.00014658,0.00000054,-0.00002680,-0.00002074,-0.
 00001236,0.00000623,0.00001346,0.00000120,-0.00002389,-0.00005815,0.00
 035315,-0.00092100,-0.00273993,-0.00006171,0.00010233,-0.00019343,-0.0
 0021568,0.00035004,-0.00036893,-0.00007837,-0.00008058,0.00008394,-0.0
 0004444,0.00008418,0.00001011,-0.00001714,-0.00842554,0.00108039,0.020
 15833,0.09312298,0.00001190,0.00001102,0.00000350,0.00004655,0.0000340
 5,-0.00010589,0.00001443,-0.00005986,-0.00014845,0.00000834,-0.0002481
 0,0.00010888,0.00226177,0.00162324,-0.00015990,-0.01295889,-0.00081859
 ,0.02855357,-0.00035883,0.00164612,0.00093516,0.00028688,0.00004979,-0
 .00039079,0.00709655,-0.04385563,-0.01523423,0.00247671,-0.00274011,-0
 .00732028,-0.00097456,0.00094487,0.00054987,0.00000172,-0.00000002,-0.
 00000604,0.00000585,-0.00000159,-0.00000140,0.00000020,0.00000472,0.00
 000087,-0.00001592,-0.00001226,-0.00000448,-0.00002069,-0.00003225,-0.
 00000558,-0.00000204,0.00021997,0.00003195,0.00001717,-0.00000612,-0.0
 0001855,0.00001716,-0.00002938,-0.00003719,0.00003584,-0.00008921,-0.0
 0015473,-0.00298342,-0.00476170,0.00065829,0.00034214,0.00010863,0.000
 00671,-0.00007830,-0.00031600,-0.00045635,-0.00015574,0.00015066,-0.00
 009561,0.00013171,-0.00001201,-0.00008303,0.00930861,-0.00164932,-0.02
 181127,-0.00451514,0.04983909,-0.00000591,-0.00000750,-0.00000557,-0.0
 0001547,-0.00004531,0.00003847,-0.00018878,-0.00002405,0.00000933,0.00
 004400,0.00013836,0.00020909,-0.00070676,-0.00103666,0.00129801,0.0039
 3191,0.00176530,-0.00836365,0.00026519,-0.00041815,0.00077727,-0.00019
 465,-0.00014045,0.00018583,0.09590736,-0.01463404,-0.26419587,0.001988
 78,-0.00317241,-0.02490104,-0.00001266,0.00034851,0.00296843,0.0000005
 5,0.00000178,0.00000509,-0.00000442,0.00000202,0.00000125,0.00000072,-
 0.00000348,-0.00000026,0.00000394,0.00000470,0.00000329,0.00000042,0.0
 0000628,0.00000432,0.00004322,-0.00007010,-0.00002841,0.00001076,0.000
 03353,-0.00000142,-0.00000066,0.00002267,0.00002081,-0.00005010,0.0000
 4968,-0.00009698,0.00035691,0.00148429,0.00070256,-0.00036107,0.000120
 70,-0.00020028,-0.00013461,0.00050713,0.00004743,0.00005536,-0.0001314
 8,0.00001458,-0.00002965,0.00003494,0.00002090,0.00031337,-0.00002123,
 0.00033764,-0.10121775,0.01518498,0.29114919\\0.00000153,0.00000082,0.
 00000052,-0.00000260,-0.00000513,0.00000021,0.00000692,0.00000779,-0.0
 0000391,-0.00000603,0.00000488,0.00000435,0.00000947,-0.00000738,-0.00
 000005,-0.00000083,0.00001009,-0.00000517,-0.00000666,-0.00000107,0.00
 000502,-0.00000056,0.00000261,-0.00000365,-0.00000572,-0.00000660,-0.0
 0000023,-0.00000611,-0.00000182,-0.00000522,0.00000910,0.00000101,0.00
 000924,-0.00000107,-0.00000007,-0.00000103,-0.00000024,-0.00000121,0.0
 0000019,-0.00000056,-0.00000051,-0.00000069,0.00000259,0.00000148,0.00
 000060,-0.00000024,0.00000102,-0.00000179,0.00000128,-0.00000232,0.000
 00432,-0.00000092,-0.00000216,-0.00000451,-0.00000150,0.00000174,-0.00
 000480,-0.00000556,0.00000304,0.00000183,0.00000375,-0.00000119,0.0000
 0480,0.00000222,0.00000014,-0.00000104,0.00000035,-0.00000360,-0.00000
 052,-0.00000039,-0.00000163,-0.00000102,0.00000094,-0.00000020,-0.0000
 0184,0.00000107,0.00000068,0.00000346,-0.00000023,-0.00000042,0.000000
 91\\\@


 Standing in the middle of the road is very dangerous;
 you get knocked down by the traffic from both sides.
                                -- Margaret Thatcher
 Job cpu time:       0 days  3 hours 19 minutes 12.5 seconds.
 Elapsed time:       0 days  0 hours 49 minutes 48.6 seconds.
 File lengths (MBytes):  RWF=    298 Int=      0 D2E=      0 Chk=     13 Scr=      1
 Normal termination of Gaussian 16 at Tue Jun  1 14:21:28 2021.
### All Done ###
