### Starting Gaussian ###
 Entering Gaussian System, Link 0=g16
 Initial command:
 /cluster/software/gaussian/gaussian-16-A.03/avx2/g16/l1.exe "/local/scratch/cz9n3/Gau-30245.inp" -scrdir="/local/scratch/cz9n3/"
 Entering Link 1 = /cluster/software/gaussian/gaussian-16-A.03/avx2/g16/l1.exe PID=     30246.
  
 Copyright (c) 1988,1990,1992,1993,1995,1998,2003,2009,2016,
            Gaussian, Inc.  All Rights Reserved.
  
 This is part of the Gaussian(R) 16 program.  It is based on
 the Gaussian(R) 09 system (copyright 2009, Gaussian, Inc.),
 the Gaussian(R) 03 system (copyright 2003, Gaussian, Inc.),
 the Gaussian(R) 98 system (copyright 1998, Gaussian, Inc.),
 the Gaussian(R) 94 system (copyright 1995, Gaussian, Inc.),
 the Gaussian 92(TM) system (copyright 1992, Gaussian, Inc.),
 the Gaussian 90(TM) system (copyright 1990, Gaussian, Inc.),
 the Gaussian 88(TM) system (copyright 1988, Gaussian, Inc.),
 the Gaussian 86(TM) system (copyright 1986, Carnegie Mellon
 University), and the Gaussian 82(TM) system (copyright 1983,
 Carnegie Mellon University). Gaussian is a federally registered
 trademark of Gaussian, Inc.
  
 This software contains proprietary and confidential information,
 including trade secrets, belonging to Gaussian, Inc.
  
 This software is provided under written license and may be
 used, copied, transmitted, or stored only in accord with that
 written license.
  
 The following legend is applicable only to US Government
 contracts under FAR:
  
                    RESTRICTED RIGHTS LEGEND
  
 Use, reproduction and disclosure by the US Government is
 subject to restrictions as set forth in subparagraphs (a)
 and (c) of the Commercial Computer Software - Restricted
 Rights clause in FAR 52.227-19.
  
 Gaussian, Inc.
 340 Quinnipiac St., Bldg. 40, Wallingford CT 06492
  
  
 ---------------------------------------------------------------
 Warning -- This program may not be used in any manner that
 competes with the business of Gaussian, Inc. or will provide
 assistance to any competitor of Gaussian, Inc.  The licensee
 of this program is prohibited from giving any competitor of
 Gaussian, Inc. access to this program.  By using this program,
 the user acknowledges that Gaussian, Inc. is engaged in the
 business of creating and licensing software in the field of
 computational chemistry and represents and warrants to the
 licensee that it is not a competitor of Gaussian, Inc. and that
 it will not use this program in any manner prohibited above.
 ---------------------------------------------------------------
  

 Cite this work as:
 Gaussian 16, Revision A.03,
 M. J. Frisch, G. W. Trucks, H. B. Schlegel, G. E. Scuseria, 
 M. A. Robb, J. R. Cheeseman, G. Scalmani, V. Barone, 
 G. A. Petersson, H. Nakatsuji, X. Li, M. Caricato, A. V. Marenich, 
 J. Bloino, B. G. Janesko, R. Gomperts, B. Mennucci, H. P. Hratchian, 
 J. V. Ortiz, A. F. Izmaylov, J. L. Sonnenberg, D. Williams-Young, 
 F. Ding, F. Lipparini, F. Egidi, J. Goings, B. Peng, A. Petrone, 
 T. Henderson, D. Ranasinghe, V. G. Zakrzewski, J. Gao, N. Rega, 
 G. Zheng, W. Liang, M. Hada, M. Ehara, K. Toyota, R. Fukuda, 
 J. Hasegawa, M. Ishida, T. Nakajima, Y. Honda, O. Kitao, H. Nakai, 
 T. Vreven, K. Throssell, J. A. Montgomery, Jr., J. E. Peralta, 
 F. Ogliaro, M. J. Bearpark, J. J. Heyd, E. N. Brothers, K. N. Kudin, 
 V. N. Staroverov, T. A. Keith, R. Kobayashi, J. Normand, 
 K. Raghavachari, A. P. Rendell, J. C. Burant, S. S. Iyengar, 
 J. Tomasi, M. Cossi, J. M. Millam, M. Klene, C. Adamo, R. Cammi, 
 J. W. Ochterski, R. L. Martin, K. Morokuma, O. Farkas, 
 J. B. Foresman, and D. J. Fox, Gaussian, Inc., Wallingford CT, 2016.
 
 ******************************************
 Gaussian 16:  ES64L-G16RevA.03 25-Dec-2016
                 1-Jun-2021 
 ******************************************
 %chk=CCNNpCpCNdN.chk
 %NProcShared=20
 Will use up to   20 processors via shared memory.
 -----------------------------
 # opt freq b3lyp/6-31g(2df,p)
 -----------------------------
 1/18=20,19=15,26=3,38=1/1,3;
 2/9=110,12=2,17=6,18=5,40=1/2;
 3/5=1,6=6,7=104,11=2,25=1,30=1,71=1,74=-5/1,2,3;
 4//1;
 5/5=2,38=5/2;
 6/7=2,8=2,9=2,10=2,28=1/1;
 7//1,2,3,16;
 1/18=20,19=15,26=3/3(2);
 2/9=110/2;
 99//99;
 2/9=110/2;
 3/5=1,6=6,7=104,11=2,25=1,30=1,71=1,74=-5/1,2,3;
 4/5=5,16=3,69=1/1;
 5/5=2,38=5/2;
 7//1,2,3,16;
 1/18=20,19=15,26=3/3(-5);
 2/9=110/2;
 6/7=2,8=2,9=2,10=2,19=2,28=1/1;
 99/9=1/99;
 -------------------
 Title Card Required
 -------------------
 Symbolic Z-matrix:
 Charge =  0 Multiplicity = 1
 C                     0.89846  -0.00145   0.07821 
 C                     2.41714  -0.02395   0.09248 
 N                     2.951     0.63624  -1.11048 
 N                     4.43093   0.64494  -1.07583 
 C                     4.94429  -0.73187  -1.18133 
 C                     4.93959   1.41391  -2.24439 
 N                     6.41533   1.51638  -2.24298 
 N                     6.88588   2.00544  -3.29226 
 H                     0.51498  -0.54337   0.94923 
 H                     0.51025  -0.49629  -0.81873 
 H                     0.51006   1.0203    0.11083 
 H                     2.70713  -1.07812   0.1222 
 H                     2.78943   0.46243   1.00157 
 H                     2.6075    1.60311  -1.09651 
 H                     4.69344  -1.31913  -0.29301 
 H                     6.03829  -0.74384  -1.2153 
 H                     4.5584   -1.25014  -2.06645 
 H                     4.53598   2.43446  -2.2086 
 H                     4.59234   0.95814  -3.18405 
 H                     7.91163   2.04076  -3.25258 
 

 GradGradGradGradGradGradGradGradGradGradGradGradGradGradGradGradGradGrad
 Berny optimization.
 Initialization pass.
                           ----------------------------
                           !    Initial Parameters    !
                           ! (Angstroms and Degrees)  !
 --------------------------                            --------------------------
 ! Name  Definition              Value          Derivative Info.                !
 --------------------------------------------------------------------------------
 ! R1    R(1,2)                  1.5189         estimate D2E/DX2                !
 ! R2    R(1,9)                  1.0952         estimate D2E/DX2                !
 ! R3    R(1,10)                 1.0955         estimate D2E/DX2                !
 ! R4    R(1,11)                 1.0936         estimate D2E/DX2                !
 ! R5    R(2,3)                  1.4724         estimate D2E/DX2                !
 ! R6    R(2,12)                 1.0937         estimate D2E/DX2                !
 ! R7    R(2,13)                 1.0962         estimate D2E/DX2                !
 ! R8    R(3,4)                  1.4804         estimate D2E/DX2                !
 ! R9    R(3,14)                 1.0262         estimate D2E/DX2                !
 ! R10   R(4,5)                  1.4732         estimate D2E/DX2                !
 ! R11   R(4,6)                  1.4885         estimate D2E/DX2                !
 ! R12   R(5,15)                 1.094          estimate D2E/DX2                !
 ! R13   R(5,16)                 1.0946         estimate D2E/DX2                !
 ! R14   R(5,17)                 1.0959         estimate D2E/DX2                !
 ! R15   R(6,7)                  1.4793         estimate D2E/DX2                !
 ! R16   R(6,18)                 1.098          estimate D2E/DX2                !
 ! R17   R(6,19)                 1.1006         estimate D2E/DX2                !
 ! R18   R(7,8)                  1.2496         estimate D2E/DX2                !
 ! R19   R(8,20)                 1.0271         estimate D2E/DX2                !
 ! A1    A(2,1,9)              109.5907         estimate D2E/DX2                !
 ! A2    A(2,1,10)             110.8131         estimate D2E/DX2                !
 ! A3    A(2,1,11)             111.6338         estimate D2E/DX2                !
 ! A4    A(9,1,10)             107.6728         estimate D2E/DX2                !
 ! A5    A(9,1,11)             108.315          estimate D2E/DX2                !
 ! A6    A(10,1,11)            108.6996         estimate D2E/DX2                !
 ! A7    A(1,2,3)              110.3775         estimate D2E/DX2                !
 ! A8    A(1,2,12)             106.2381         estimate D2E/DX2                !
 ! A9    A(1,2,13)             109.9251         estimate D2E/DX2                !
 ! A10   A(3,2,12)             110.9912         estimate D2E/DX2                !
 ! A11   A(3,2,13)             110.8226         estimate D2E/DX2                !
 ! A12   A(12,2,13)            108.3652         estimate D2E/DX2                !
 ! A13   A(2,3,4)              110.2419         estimate D2E/DX2                !
 ! A14   A(2,3,14)             106.8564         estimate D2E/DX2                !
 ! A15   A(4,3,14)             109.1951         estimate D2E/DX2                !
 ! A16   A(3,4,5)              109.95           estimate D2E/DX2                !
 ! A17   A(3,4,6)              109.0438         estimate D2E/DX2                !
 ! A18   A(5,4,6)              107.9094         estimate D2E/DX2                !
 ! A19   A(4,5,15)             111.3226         estimate D2E/DX2                !
 ! A20   A(4,5,16)             111.1446         estimate D2E/DX2                !
 ! A21   A(4,5,17)             112.1555         estimate D2E/DX2                !
 ! A22   A(15,5,16)            104.3884         estimate D2E/DX2                !
 ! A23   A(15,5,17)            108.7362         estimate D2E/DX2                !
 ! A24   A(16,5,17)            108.7658         estimate D2E/DX2                !
 ! A25   A(4,6,7)              112.0828         estimate D2E/DX2                !
 ! A26   A(4,6,18)             109.2053         estimate D2E/DX2                !
 ! A27   A(4,6,19)             110.3969         estimate D2E/DX2                !
 ! A28   A(7,6,18)             107.5944         estimate D2E/DX2                !
 ! A29   A(7,6,19)             110.1365         estimate D2E/DX2                !
 ! A30   A(18,6,19)            107.2623         estimate D2E/DX2                !
 ! A31   A(6,7,8)              113.7004         estimate D2E/DX2                !
 ! A32   A(7,8,20)             110.9201         estimate D2E/DX2                !
 ! D1    D(9,1,2,3)            176.8949         estimate D2E/DX2                !
 ! D2    D(9,1,2,12)            56.4837         estimate D2E/DX2                !
 ! D3    D(9,1,2,13)           -60.5576         estimate D2E/DX2                !
 ! D4    D(10,1,2,3)            58.2084         estimate D2E/DX2                !
 ! D5    D(10,1,2,12)          -62.2027         estimate D2E/DX2                !
 ! D6    D(10,1,2,13)         -179.244          estimate D2E/DX2                !
 ! D7    D(11,1,2,3)           -63.1065         estimate D2E/DX2                !
 ! D8    D(11,1,2,12)          176.4824         estimate D2E/DX2                !
 ! D9    D(11,1,2,13)           59.441          estimate D2E/DX2                !
 ! D10   D(1,2,3,4)            178.4802         estimate D2E/DX2                !
 ! D11   D(1,2,3,14)            59.9324         estimate D2E/DX2                !
 ! D12   D(12,2,3,4)           -64.0022         estimate D2E/DX2                !
 ! D13   D(12,2,3,14)          177.45           estimate D2E/DX2                !
 ! D14   D(13,2,3,4)            56.4602         estimate D2E/DX2                !
 ! D15   D(13,2,3,14)          -62.0876         estimate D2E/DX2                !
 ! D16   D(2,3,4,5)             66.46           estimate D2E/DX2                !
 ! D17   D(2,3,4,6)           -175.4161         estimate D2E/DX2                !
 ! D18   D(14,3,4,5)          -176.4342         estimate D2E/DX2                !
 ! D19   D(14,3,4,6)           -58.3103         estimate D2E/DX2                !
 ! D20   D(3,4,5,15)           -67.334          estimate D2E/DX2                !
 ! D21   D(3,4,5,16)           176.7548         estimate D2E/DX2                !
 ! D22   D(3,4,5,17)            54.7557         estimate D2E/DX2                !
 ! D23   D(6,4,5,15)           173.8431         estimate D2E/DX2                !
 ! D24   D(6,4,5,16)            57.9319         estimate D2E/DX2                !
 ! D25   D(6,4,5,17)           -64.0672         estimate D2E/DX2                !
 ! D26   D(3,4,6,7)            177.4649         estimate D2E/DX2                !
 ! D27   D(3,4,6,18)            58.3373         estimate D2E/DX2                !
 ! D28   D(3,4,6,19)           -59.3587         estimate D2E/DX2                !
 ! D29   D(5,4,6,7)            -63.1361         estimate D2E/DX2                !
 ! D30   D(5,4,6,18)           177.7363         estimate D2E/DX2                !
 ! D31   D(5,4,6,19)            60.0404         estimate D2E/DX2                !
 ! D32   D(4,6,7,8)            171.399          estimate D2E/DX2                !
 ! D33   D(18,6,7,8)           -68.53           estimate D2E/DX2                !
 ! D34   D(19,6,7,8)            48.0759         estimate D2E/DX2                !
 ! D35   D(6,7,8,20)          -178.9572         estimate D2E/DX2                !
 --------------------------------------------------------------------------------
 Trust Radius=3.00D-01 FncErr=1.00D-07 GrdErr=1.00D-06 EigMax=2.50D+02 EigMin=1.00D-04
 Number of steps in this run=     96 maximum allowed number of steps=    120.
 GradGradGradGradGradGradGradGradGradGradGradGradGradGradGradGradGradGrad

                          Input orientation:                          
 ---------------------------------------------------------------------
 Center     Atomic      Atomic             Coordinates (Angstroms)
 Number     Number       Type             X           Y           Z
 ---------------------------------------------------------------------
      1          6           0        0.898460   -0.001450    0.078210
      2          6           0        2.417140   -0.023950    0.092480
      3          7           0        2.951000    0.636240   -1.110480
      4          7           0        4.430930    0.644940   -1.075830
      5          6           0        4.944290   -0.731870   -1.181330
      6          6           0        4.939590    1.413910   -2.244390
      7          7           0        6.415330    1.516380   -2.242980
      8          7           0        6.885880    2.005440   -3.292260
      9          1           0        0.514980   -0.543370    0.949230
     10          1           0        0.510250   -0.496290   -0.818730
     11          1           0        0.510060    1.020300    0.110830
     12          1           0        2.707130   -1.078120    0.122200
     13          1           0        2.789430    0.462430    1.001570
     14          1           0        2.607500    1.603110   -1.096510
     15          1           0        4.693440   -1.319130   -0.293010
     16          1           0        6.038290   -0.743840   -1.215300
     17          1           0        4.558400   -1.250140   -2.066450
     18          1           0        4.535980    2.434460   -2.208600
     19          1           0        4.592340    0.958140   -3.184050
     20          1           0        7.911630    2.040760   -3.252580
 ---------------------------------------------------------------------
                    Distance matrix (angstroms):
                    1          2          3          4          5
     1  C    0.000000
     2  C    1.518914   0.000000
     3  N    2.456126   1.472403   0.000000
     4  N    3.771998   2.422336   1.480361   0.000000
     5  C    4.299848   2.917230   2.418667   1.473185   0.000000
     6  C    4.871185   3.727084   2.417646   1.488483   2.394680
     7  N    6.174754   4.879807   3.749505   2.461603   2.888890
     8  N    7.157994   5.961923   4.702994   3.576353   3.964677
     9  H    1.095176   2.149891   3.401188   4.565919   4.918700
    10  H    1.095479   2.165557   2.706474   4.091484   4.455074
    11  H    1.093568   2.174339   2.756318   4.113670   4.939856
    12  H    2.105336   1.093733   2.125559   2.715824   2.612272
    13  H    2.154889   1.096180   2.125340   2.653945   3.291630
    14  H    2.622098   2.024169   1.026170   2.059955   3.304529
    15  H    4.034347   2.647194   2.743688   2.130561   1.094035
    16  H    5.351837   3.916792   3.383337   2.128795   1.094593
    17  H    4.421985   3.278645   2.656321   2.142173   1.095880
    18  H    4.939100   3.978471   2.636593   2.120515   3.353751
    19  H    5.020747   4.053597   2.664078   2.137461   2.644029
    20  H    8.028034   6.755877   5.582931   4.336107   4.558800
                    6          7          8          9         10
     6  C    0.000000
     7  N    1.479294   0.000000
     8  N    2.288227   1.249634   0.000000
     9  H    5.797183   7.017614   8.066910   0.000000
    10  H    5.029953   6.399164   7.281872   1.768593   0.000000
    11  H    5.032169   6.376420   7.294011   1.774261   1.778799
    12  H    4.098151   5.106491   6.215210   2.403218   2.459707
    13  H    4.008087   4.978460   6.131783   2.487468   3.070390
    14  H    2.606160   3.977623   4.825735   3.629197   2.980453
    15  H    3.367192   3.848039   4.985485   4.427696   4.295640
    16  H    2.630979   2.511350   3.548339   5.935683   5.547772
    17  H    2.697060   3.336613   4.185520   5.093436   4.302629
    18  H    1.098046   2.091891   2.623053   5.916739   5.169868
    19  H    1.100577   2.126155   2.523663   5.996949   4.936959
    20  H    3.200377   1.879676   1.027125   8.890634   8.193941
                   11         12         13         14         15
    11  H    0.000000
    12  H    3.038192   0.000000
    13  H    2.510013   1.775770   0.000000
    14  H    2.489295   2.946892   2.395034   0.000000
    15  H    4.810061   2.043505   2.911211   3.679164   0.000000
    16  H    5.952490   3.605174   4.113963   4.158438   1.729219
    17  H    5.126841   2.871756   3.933815   3.589962   1.779911
    18  H    4.856710   4.595165   4.152653   2.376325   4.217074
    19  H    5.246438   4.316441   4.584280   2.951847   3.681615
    20  H    8.193723   6.942865   6.842942   5.742297   5.514042
                   16         17         18         19         20
    16  H    0.000000
    17  H    1.780694   0.000000
    18  H    3.653104   3.687409   0.000000
    19  H    2.977160   2.475214   1.770367   0.000000
    20  H    3.926055   4.845728   3.555265   3.492055   0.000000
 Stoichiometry    C4H12N4
 Framework group  C1[X(C4H12N4)]
 Deg. of freedom    54
 Full point group                 C1      NOp   1
 Largest Abelian subgroup         C1      NOp   1
 Largest concise Abelian subgroup C1      NOp   1
                         Standard orientation:                         
 ---------------------------------------------------------------------
 Center     Atomic      Atomic             Coordinates (Angstroms)
 Number     Number       Type             X           Y           Z
 ---------------------------------------------------------------------
      1          6           0       -3.569683   -0.501390    0.142826
      2          6           0       -2.311238    0.197175   -0.342377
      3          7           0       -1.114280   -0.471537    0.194358
      4          7           0        0.110862    0.189196   -0.309554
      5          6           0        0.205474    1.554933    0.234584
      6          6           0        1.300952   -0.573090    0.157552
      7          7           0        2.564418   -0.003320   -0.359485
      8          7           0        3.588304   -0.510814    0.146177
      9          1           0       -4.451646    0.038365   -0.218028
     10          1           0       -3.611333   -0.512412    1.237458
     11          1           0       -3.624644   -1.531369   -0.220512
     12          1           0       -2.377033    1.228827    0.014860
     13          1           0       -2.290993    0.211789   -1.438272
     14          1           0       -1.138220   -1.440366   -0.143017
     15          1           0       -0.586255    2.197105   -0.162522
     16          1           0        1.133996    2.041825   -0.079924
     17          1           0        0.153662    1.568217    1.329157
     18          1           0        1.231432   -1.607903   -0.203050
     19          1           0        1.324596   -0.611329    1.257210
     20          1           0        4.438280   -0.073191   -0.229338
 ---------------------------------------------------------------------
 Rotational constants (GHZ):           6.4536890           0.8095659           0.7487694
 Standard basis: 6-31G(2df,p) (6D, 7F)
 There are   308 symmetry adapted cartesian basis functions of A   symmetry.
 There are   284 symmetry adapted basis functions of A   symmetry.
   284 basis functions,   436 primitive gaussians,   308 cartesian basis functions
    32 alpha electrons       32 beta electrons
       nuclear repulsion energy       385.5150952311 Hartrees.
 NAtoms=   20 NActive=   20 NUniq=   20 SFac= 1.00D+00 NAtFMM=   60 NAOKFM=F Big=F
 Integral buffers will be    131072 words long.
 Raffenetti 2 integral format.
 Two-electron integral symmetry is turned on.
 One-electron integrals computed using PRISM.
 PrsmSu:  requested number of processors reduced to:  13 ShMem   1 Linda.
 NBasis=   284 RedAO= T EigKep=  2.68D-04  NBF=   284
 NBsUse=   284 1.00D-06 EigRej= -1.00D+00 NBFU=   284
 ExpMin= 1.61D-01 ExpMax= 4.17D+03 ExpMxC= 6.27D+02 IAcc=3 IRadAn=         5 AccDes= 0.00D+00
 Harris functional with IExCor=  402 and IRadAn=       5 diagonalized for initial guess.
 HarFok:  IExCor=  402 AccDes= 0.00D+00 IRadAn=         5 IDoV= 1 UseB2=F ITyADJ=14
 ICtDFT=  3500011 ScaDFX=  1.000000  1.000000  1.000000  1.000000
 FoFCou: FMM=F IPFlag=           0 FMFlag=      100000 FMFlg1=           0
         NFxFlg=           0 DoJE=T BraDBF=F KetDBF=T FulRan=T
         wScrn=  0.000000 ICntrl=       500 IOpCl=  0 I1Cent=   200000004 NGrid=           0
         NMat0=    1 NMatS0=      1 NMatT0=    0 NMatD0=    1 NMtDS0=    0 NMtDT0=    0
 Petite list used in FoFCou.
 Requested convergence on RMS density matrix=1.00D-08 within 128 cycles.
 Requested convergence on MAX density matrix=1.00D-06.
 Requested convergence on             energy=1.00D-06.
 No special actions if energy rises.
 Integral accuracy reduced to 1.0D-05 until final iterations.
 Initial convergence to 1.0D-05 achieved.  Increase integral accuracy.
 SCF Done:  E(RB3LYP) =  -378.564034555     A.U. after   13 cycles
            NFock= 13  Conv=0.69D-08     -V/T= 2.0083

 **********************************************************************

            Population analysis using the SCF density.

 **********************************************************************

 Orbital symmetries:
       Occupied  (A) (A) (A) (A) (A) (A) (A) (A) (A) (A) (A) (A)
                 (A) (A) (A) (A) (A) (A) (A) (A) (A) (A) (A) (A)
                 (A) (A) (A) (A) (A) (A) (A) (A)
       Virtual   (A) (A) (A) (A) (A) (A) (A) (A) (A) (A) (A) (A)
                 (A) (A) (A) (A) (A) (A) (A) (A) (A) (A) (A) (A)
                 (A) (A) (A) (A) (A) (A) (A) (A) (A) (A) (A) (A)
                 (A) (A) (A) (A) (A) (A) (A) (A) (A) (A) (A) (A)
                 (A) (A) (A) (A) (A) (A) (A) (A) (A) (A) (A) (A)
                 (A) (A) (A) (A) (A) (A) (A) (A) (A) (A) (A) (A)
                 (A) (A) (A) (A) (A) (A) (A) (A) (A) (A) (A) (A)
                 (A) (A) (A) (A) (A) (A) (A) (A) (A) (A) (A) (A)
                 (A) (A) (A) (A) (A) (A) (A) (A) (A) (A) (A) (A)
                 (A) (A) (A) (A) (A) (A) (A) (A) (A) (A) (A) (A)
                 (A) (A) (A) (A) (A) (A) (A) (A) (A) (A) (A) (A)
                 (A) (A) (A) (A) (A) (A) (A) (A) (A) (A) (A) (A)
                 (A) (A) (A) (A) (A) (A) (A) (A) (A) (A) (A) (A)
                 (A) (A) (A) (A) (A) (A) (A) (A) (A) (A) (A) (A)
                 (A) (A) (A) (A) (A) (A) (A) (A) (A) (A) (A) (A)
                 (A) (A) (A) (A) (A) (A) (A) (A) (A) (A) (A) (A)
                 (A) (A) (A) (A) (A) (A) (A) (A) (A) (A) (A) (A)
                 (A) (A) (A) (A) (A) (A) (A) (A) (A) (A) (A) (A)
                 (A) (A) (A) (A) (A) (A) (A) (A) (A) (A) (A) (A)
                 (A) (A) (A) (A) (A) (A) (A) (A) (A) (A) (A) (A)
                 (A) (A) (A) (A) (A) (A) (A) (A) (A) (A) (A) (A)
 The electronic state is 1-A.
 Alpha  occ. eigenvalues --  -14.38958 -14.37498 -14.34704 -14.34031 -10.23513
 Alpha  occ. eigenvalues --  -10.20379 -10.19483 -10.17693  -1.02467  -0.95740
 Alpha  occ. eigenvalues --   -0.83181  -0.74679  -0.72660  -0.65783  -0.59768
 Alpha  occ. eigenvalues --   -0.58252  -0.51349  -0.48179  -0.47640  -0.45232
 Alpha  occ. eigenvalues --   -0.44540  -0.42157  -0.40634  -0.39011  -0.38235
 Alpha  occ. eigenvalues --   -0.36418  -0.35533  -0.35202  -0.34064  -0.28701
 Alpha  occ. eigenvalues --   -0.22711  -0.18512
 Alpha virt. eigenvalues --   -0.05075   0.08199   0.10032   0.10857   0.11003
 Alpha virt. eigenvalues --    0.13684   0.14838   0.15769   0.16054   0.17026
 Alpha virt. eigenvalues --    0.17914   0.18858   0.19240   0.20962   0.21305
 Alpha virt. eigenvalues --    0.22412   0.23765   0.25282   0.26419   0.34266
 Alpha virt. eigenvalues --    0.41578   0.45107   0.46113   0.48307   0.49004
 Alpha virt. eigenvalues --    0.50391   0.52102   0.53012   0.55547   0.57691
 Alpha virt. eigenvalues --    0.59569   0.60539   0.61951   0.63634   0.64530
 Alpha virt. eigenvalues --    0.65438   0.66342   0.68766   0.70946   0.71686
 Alpha virt. eigenvalues --    0.72507   0.72789   0.73522   0.74095   0.74196
 Alpha virt. eigenvalues --    0.75694   0.77181   0.77661   0.78419   0.81215
 Alpha virt. eigenvalues --    0.81985   0.83968   0.84521   0.85428   0.86751
 Alpha virt. eigenvalues --    0.88141   0.89155   0.90612   0.93101   0.96229
 Alpha virt. eigenvalues --    0.97540   0.99158   1.01100   1.09112   1.12124
 Alpha virt. eigenvalues --    1.16198   1.17987   1.18441   1.22609   1.25149
 Alpha virt. eigenvalues --    1.25844   1.29083   1.31438   1.33976   1.38057
 Alpha virt. eigenvalues --    1.39121   1.40259   1.43842   1.46693   1.47712
 Alpha virt. eigenvalues --    1.50831   1.51212   1.53401   1.55417   1.57923
 Alpha virt. eigenvalues --    1.59547   1.64025   1.66583   1.68949   1.69132
 Alpha virt. eigenvalues --    1.70679   1.73812   1.76208   1.80636   1.86435
 Alpha virt. eigenvalues --    1.87110   1.89990   1.91870   1.95323   1.95604
 Alpha virt. eigenvalues --    1.97224   1.98712   2.01201   2.02286   2.03574
 Alpha virt. eigenvalues --    2.14137   2.19970   2.23086   2.26457   2.30068
 Alpha virt. eigenvalues --    2.32071   2.35795   2.39219   2.41433   2.41642
 Alpha virt. eigenvalues --    2.46621   2.50524   2.52081   2.54612   2.56597
 Alpha virt. eigenvalues --    2.62669   2.68274   2.70565   2.73650   2.74652
 Alpha virt. eigenvalues --    2.78674   2.80672   2.82351   2.84304   2.85777
 Alpha virt. eigenvalues --    2.86985   2.88826   2.90657   2.92638   2.93040
 Alpha virt. eigenvalues --    2.95722   2.97512   2.98381   3.01594   3.04841
 Alpha virt. eigenvalues --    3.07827   3.11804   3.14133   3.19890   3.20173
 Alpha virt. eigenvalues --    3.22923   3.24237   3.29218   3.30898   3.32320
 Alpha virt. eigenvalues --    3.34860   3.37096   3.37368   3.43224   3.44614
 Alpha virt. eigenvalues --    3.45940   3.49487   3.53790   3.54848   3.57105
 Alpha virt. eigenvalues --    3.59962   3.61999   3.63571   3.64221   3.65688
 Alpha virt. eigenvalues --    3.67085   3.69400   3.76325   3.77593   3.80184
 Alpha virt. eigenvalues --    3.85621   3.91585   3.92765   3.93030   3.97712
 Alpha virt. eigenvalues --    4.01057   4.01715   4.07175   4.08071   4.10707
 Alpha virt. eigenvalues --    4.13942   4.14110   4.19056   4.22421   4.23396
 Alpha virt. eigenvalues --    4.28107   4.29933   4.32220   4.33807   4.38115
 Alpha virt. eigenvalues --    4.40167   4.41328   4.42495   4.43491   4.44442
 Alpha virt. eigenvalues --    4.47069   4.49089   4.50655   4.53414   4.55368
 Alpha virt. eigenvalues --    4.55825   4.57144   4.58752   4.60369   4.62199
 Alpha virt. eigenvalues --    4.62582   4.64706   4.66783   4.69157   4.72280
 Alpha virt. eigenvalues --    4.73529   4.76804   4.76999   4.79322   4.80125
 Alpha virt. eigenvalues --    4.80492   4.84417   4.89253   4.90680   4.91855
 Alpha virt. eigenvalues --    4.98077   4.99589   5.00515   5.02852   5.06001
 Alpha virt. eigenvalues --    5.12661   5.14490   5.18528   5.21853   5.26091
 Alpha virt. eigenvalues --    5.34549   5.36007   5.39169   5.44653   5.46546
 Alpha virt. eigenvalues --    5.52133   5.56389   5.57609   5.67897   5.75545
 Alpha virt. eigenvalues --    6.46478   9.53473  10.54018  11.20119  11.25819
 Alpha virt. eigenvalues --   11.42760  11.50307  11.56676  11.69774  11.88860
 Alpha virt. eigenvalues --   12.59415  16.92875
          Condensed to atoms (all electrons):
               1          2          3          4          5          6
     1  C    4.971260   0.401931  -0.038619   0.002622   0.000101  -0.000197
     2  C    0.401931   4.757440   0.374775  -0.050873  -0.007523   0.002435
     3  N   -0.038619   0.374775   6.542905   0.235537  -0.055483  -0.041349
     4  N    0.002622  -0.050873   0.235537   6.372130   0.380849   0.388599
     5  C    0.000101  -0.007523  -0.055483   0.380849   4.960400  -0.069558
     6  C   -0.000197   0.002435  -0.041349   0.388599  -0.069558   4.804065
     7  N    0.000000  -0.000120   0.000793  -0.022645  -0.006383   0.342436
     8  N   -0.000000   0.000000  -0.000012   0.000996   0.000239  -0.078999
     9  H    0.372453  -0.022637   0.002775  -0.000080   0.000017   0.000002
    10  H    0.373901  -0.026214   0.004143   0.000086   0.000006   0.000011
    11  H    0.377613  -0.029265  -0.003297   0.000027  -0.000001  -0.000009
    12  H   -0.029534   0.372735  -0.025769  -0.004281   0.000389   0.000113
    13  H   -0.039420   0.358786  -0.045092   0.013112   0.000471   0.000430
    14  H    0.000415  -0.048063   0.326595  -0.033592   0.005613  -0.005205
    15  H   -0.000164  -0.000507  -0.001747  -0.025535   0.380749   0.003849
    16  H   -0.000007   0.000081   0.003083  -0.021067   0.374877  -0.005829
    17  H    0.000029   0.001163   0.008042  -0.044235   0.345288  -0.003271
    18  H   -0.000010   0.000098  -0.001021  -0.027812   0.006273   0.345423
    19  H    0.000036   0.000200   0.011485  -0.051943  -0.009340   0.338242
    20  H    0.000000  -0.000000  -0.000001  -0.000232   0.000050   0.007090
               7          8          9         10         11         12
     1  C    0.000000  -0.000000   0.372453   0.373901   0.377613  -0.029534
     2  C   -0.000120   0.000000  -0.022637  -0.026214  -0.029265   0.372735
     3  N    0.000793  -0.000012   0.002775   0.004143  -0.003297  -0.025769
     4  N   -0.022645   0.000996  -0.000080   0.000086   0.000027  -0.004281
     5  C   -0.006383   0.000239   0.000017   0.000006  -0.000001   0.000389
     6  C    0.342436  -0.078999   0.000002   0.000011  -0.000009   0.000113
     7  N    6.490594   0.461099  -0.000000   0.000000  -0.000000  -0.000002
     8  N    0.461099   6.561803   0.000000   0.000000  -0.000000  -0.000000
     9  H   -0.000000   0.000000   0.592006  -0.029263  -0.030606  -0.003340
    10  H    0.000000   0.000000  -0.029263   0.583258  -0.033519  -0.006216
    11  H   -0.000000  -0.000000  -0.030606  -0.033519   0.603263   0.005574
    12  H   -0.000002  -0.000000  -0.003340  -0.006216   0.005574   0.622716
    13  H    0.000019   0.000000   0.000840   0.006370  -0.005793  -0.053469
    14  H   -0.000059  -0.000001  -0.000375  -0.000717   0.005355   0.006441
    15  H    0.000249  -0.000012   0.000004   0.000006   0.000001   0.003267
    16  H    0.012725  -0.000363  -0.000000  -0.000000   0.000000  -0.000161
    17  H   -0.001266   0.000187   0.000005   0.000069  -0.000001  -0.000544
    18  H   -0.017141  -0.000073  -0.000000  -0.000002   0.000000   0.000010
    19  H   -0.042934   0.011297   0.000000   0.000008  -0.000001  -0.000065
    20  H   -0.082256   0.314084  -0.000000   0.000000   0.000000   0.000000
              13         14         15         16         17         18
     1  C   -0.039420   0.000415  -0.000164  -0.000007   0.000029  -0.000010
     2  C    0.358786  -0.048063  -0.000507   0.000081   0.001163   0.000098
     3  N   -0.045092   0.326595  -0.001747   0.003083   0.008042  -0.001021
     4  N    0.013112  -0.033592  -0.025535  -0.021067  -0.044235  -0.027812
     5  C    0.000471   0.005613   0.380749   0.374877   0.345288   0.006273
     6  C    0.000430  -0.005205   0.003849  -0.005829  -0.003271   0.345423
     7  N    0.000019  -0.000059   0.000249   0.012725  -0.001266  -0.017141
     8  N    0.000000  -0.000001  -0.000012  -0.000363   0.000187  -0.000073
     9  H    0.000840  -0.000375   0.000004  -0.000000   0.000005  -0.000000
    10  H    0.006370  -0.000717   0.000006  -0.000000   0.000069  -0.000002
    11  H   -0.005793   0.005355   0.000001   0.000000  -0.000001   0.000000
    12  H   -0.053469   0.006441   0.003267  -0.000161  -0.000544   0.000010
    13  H    0.680945  -0.007613  -0.000187  -0.000020   0.000617  -0.000113
    14  H   -0.007613   0.520562   0.000014  -0.000161  -0.000235   0.006429
    15  H   -0.000187   0.000014   0.592312  -0.028952  -0.044338  -0.000200
    16  H   -0.000020  -0.000161  -0.028952   0.558790  -0.034696   0.000492
    17  H    0.000617  -0.000235  -0.044338  -0.034696   0.657873  -0.000337
    18  H   -0.000113   0.006429  -0.000200   0.000492  -0.000337   0.608232
    19  H    0.000100  -0.000910  -0.000313   0.000536   0.016457  -0.038040
    20  H    0.000000  -0.000000  -0.000001  -0.000148   0.000001  -0.000631
              19         20
     1  C    0.000036   0.000000
     2  C    0.000200  -0.000000
     3  N    0.011485  -0.000001
     4  N   -0.051943  -0.000232
     5  C   -0.009340   0.000050
     6  C    0.338242   0.007090
     7  N   -0.042934  -0.082256
     8  N    0.011297   0.314084
     9  H    0.000000  -0.000000
    10  H    0.000008   0.000000
    11  H   -0.000001   0.000000
    12  H   -0.000065   0.000000
    13  H    0.000100   0.000000
    14  H   -0.000910  -0.000000
    15  H   -0.000313  -0.000001
    16  H    0.000536  -0.000148
    17  H    0.016457   0.000001
    18  H   -0.038040  -0.000631
    19  H    0.656012  -0.000698
    20  H   -0.000698   0.510209
 Mulliken charges:
               1
     1  C   -0.392411
     2  C   -0.084441
     3  N   -0.297746
     4  N   -0.111665
     5  C   -0.307036
     6  C   -0.028276
     7  N   -0.135110
     8  N   -0.270243
     9  H    0.118198
    10  H    0.128072
    11  H    0.110657
    12  H    0.112136
    13  H    0.090016
    14  H    0.225508
    15  H    0.121504
    16  H    0.140820
    17  H    0.099191
    18  H    0.118421
    19  H    0.109869
    20  H    0.252534
 Sum of Mulliken charges =  -0.00000
 Mulliken charges with hydrogens summed into heavy atoms:
               1
     1  C   -0.035483
     2  C    0.117711
     3  N   -0.072237
     4  N   -0.111665
     5  C    0.054479
     6  C    0.200014
     7  N   -0.135110
     8  N   -0.017710
 Electronic spatial extent (au):  <R**2>=           1535.1072
 Charge=              0.0000 electrons
 Dipole moment (field-independent basis, Debye):
    X=             -0.5455    Y=              0.0378    Z=             -0.2447  Tot=              0.5990
 Quadrupole moment (field-independent basis, Debye-Ang):
   XX=            -44.3667   YY=            -47.3901   ZZ=            -53.3294
   XY=              1.7751   XZ=             -0.1802   YZ=              2.2824
 Traceless Quadrupole moment (field-independent basis, Debye-Ang):
   XX=              3.9953   YY=              0.9719   ZZ=             -4.9673
   XY=              1.7751   XZ=             -0.1802   YZ=              2.2824
 Octapole moment (field-independent basis, Debye-Ang**2):
  XXX=             31.8664  YYY=             -2.1368  ZZZ=              0.6698  XYY=             -2.8148
  XXY=             10.6790  XXZ=            -11.0295  XZZ=              0.6099  YZZ=             -0.5796
  YYZ=             -2.8040  XYZ=              2.8451
 Hexadecapole moment (field-independent basis, Debye-Ang**3):
 XXXX=          -1461.9056 YYYY=           -237.8618 ZZZZ=            -99.6482 XXXY=             28.2717
 XXXZ=            -41.2120 YYYX=              6.2168 YYYZ=              2.2220 ZZZX=             -1.5922
 ZZZY=              1.9020 XXYY=           -331.0345 XXZZ=           -305.1156 YYZZ=            -60.2340
 XXYZ=             14.4609 YYXZ=             -1.9678 ZZXY=             -0.4367
 N-N= 3.855150952311D+02 E-N=-1.651389321599D+03  KE= 3.754426128431D+02
 PrsmSu:  requested number of processors reduced to:  13 ShMem   1 Linda.
 Calling FoFJK, ICntrl=      2127 FMM=F ISym2X=0 I1Cent= 0 IOpClX= 0 NMat=1 NMatS=1 NMatT=0.
 ***** Axes restored to original set *****
 -------------------------------------------------------------------
 Center     Atomic                   Forces (Hartrees/Bohr)
 Number     Number              X              Y              Z
 -------------------------------------------------------------------
      1        6          -0.003964472   -0.000713003   -0.001440277
      2        6          -0.001491502    0.005346410   -0.001604734
      3        7           0.002360977   -0.013957008   -0.009477320
      4        7           0.019494603    0.009815728   -0.000613926
      5        6          -0.003199115   -0.000476994    0.005438421
      6        6          -0.014363535   -0.001635207    0.002060667
      7        7           0.014263844   -0.000267348   -0.002717743
      8        7          -0.028042869   -0.004716173    0.002484634
      9        1          -0.000394060    0.001939933    0.000169103
     10        1           0.000402559    0.001828874    0.000076742
     11        1          -0.002007797    0.000936896   -0.000052696
     12        1           0.005020226    0.002449042   -0.002332434
     13        1           0.002834363   -0.001739522    0.004241021
     14        1           0.011593587   -0.003542027    0.001630714
     15        1          -0.002885358    0.002140392   -0.001133856
     16        1          -0.001856412    0.008321785   -0.002711471
     17        1          -0.002379910   -0.002717732   -0.003557031
     18        1          -0.000267164   -0.000637010    0.001844760
     19        1           0.001619883    0.000423206   -0.003878482
     20        1           0.003262150   -0.002800243    0.011573906
 -------------------------------------------------------------------
 Cartesian Forces:  Max     0.028042869 RMS     0.006607354

 GradGradGradGradGradGradGradGradGradGradGradGradGradGradGradGradGradGrad
 Berny optimization.
 FormGI is forming the generalized inverse of G from B-inverse, IUseBI=4.
 Internal  Forces:  Max     0.024077359 RMS     0.006663442
 Search for a local minimum.
 Step number   1 out of a maximum of   96
 All quantities printed in internal units (Hartrees-Bohrs-Radians)
 Mixed Optimization -- RFO/linear search
 Second derivative matrix not updated -- first step.
 ITU=  0
     Eigenvalues ---    0.00232   0.00516   0.00521   0.00643   0.00724
     Eigenvalues ---    0.00734   0.03284   0.03355   0.03414   0.04477
     Eigenvalues ---    0.05558   0.05714   0.05799   0.05801   0.06920
     Eigenvalues ---    0.07213   0.07275   0.08917   0.11123   0.11570
     Eigenvalues ---    0.12585   0.14055   0.15790   0.16000   0.16000
     Eigenvalues ---    0.16000   0.16000   0.16000   0.16000   0.16000
     Eigenvalues ---    0.17630   0.21961   0.22063   0.23618   0.25000
     Eigenvalues ---    0.30471   0.33616   0.33618   0.33899   0.34108
     Eigenvalues ---    0.34142   0.34187   0.34221   0.34287   0.34350
     Eigenvalues ---    0.34385   0.34404   0.34528   0.34651   0.35362
     Eigenvalues ---    0.35454   0.43221   0.43368   0.83372
 RFO step:  Lambda=-1.83905815D-02 EMin= 2.31781086D-03
 Linear search not attempted -- first point.
 Iteration  1 RMS(Cart)=  0.12943690 RMS(Int)=  0.00405417
 Iteration  2 RMS(Cart)=  0.01000343 RMS(Int)=  0.00039169
 Iteration  3 RMS(Cart)=  0.00003387 RMS(Int)=  0.00039137
 Iteration  4 RMS(Cart)=  0.00000001 RMS(Int)=  0.00039137
 Variable       Old X    -DE/DX   Delta X   Delta X   Delta X     New X
                                 (Linear)    (Quad)   (Total)
    R1        2.87033   0.00603   0.00000   0.01867   0.01867   2.88900
    R2        2.06958  -0.00069   0.00000  -0.00191  -0.00191   2.06768
    R3        2.07016  -0.00103   0.00000  -0.00286  -0.00286   2.06729
    R4        2.06654   0.00159   0.00000   0.00438   0.00438   2.07092
    R5        2.78244  -0.00542   0.00000  -0.01454  -0.01454   2.76790
    R6        2.06686  -0.00109   0.00000  -0.00302  -0.00302   2.06384
    R7        2.07148   0.00371   0.00000   0.01032   0.01032   2.08179
    R8        2.79748  -0.01410   0.00000  -0.03877  -0.03877   2.75870
    R9        1.93918  -0.00720   0.00000  -0.01592  -0.01592   1.92326
   R10        2.78392  -0.01025   0.00000  -0.02755  -0.02755   2.75637
   R11        2.81283  -0.02194   0.00000  -0.06188  -0.06188   2.75094
   R12        2.06743  -0.00141   0.00000  -0.00389  -0.00389   2.06354
   R13        2.06848  -0.00186   0.00000  -0.00516  -0.00516   2.06333
   R14        2.07091   0.00500   0.00000   0.01389   0.01389   2.08480
   R15        2.79546  -0.01102   0.00000  -0.03020  -0.03020   2.76526
   R16        2.07501  -0.00043   0.00000  -0.00121  -0.00121   2.07379
   R17        2.07979   0.00263   0.00000   0.00740   0.00740   2.08719
   R18        2.36147  -0.02408   0.00000  -0.02826  -0.02826   2.33321
   R19        1.94098   0.00361   0.00000   0.00801   0.00801   1.94899
    A1        1.91272   0.00087   0.00000   0.00662   0.00660   1.91932
    A2        1.93405  -0.00039   0.00000  -0.00138  -0.00138   1.93267
    A3        1.94838   0.00170   0.00000   0.00693   0.00693   1.95530
    A4        1.87924   0.00060   0.00000   0.00853   0.00851   1.88775
    A5        1.89045  -0.00163   0.00000  -0.01084  -0.01085   1.87960
    A6        1.89717  -0.00123   0.00000  -0.01010  -0.01009   1.88707
    A7        1.92645  -0.00457   0.00000  -0.01659  -0.01648   1.90997
    A8        1.85420   0.00660   0.00000   0.04346   0.04322   1.89743
    A9        1.91855   0.00072   0.00000   0.00871   0.00862   1.92717
   A10        1.93716  -0.00361   0.00000  -0.03659  -0.03630   1.90086
   A11        1.93422   0.00323   0.00000   0.01801   0.01808   1.95230
   A12        1.89133  -0.00221   0.00000  -0.01607  -0.01641   1.87492
   A13        1.92408   0.00930   0.00000   0.02008   0.01954   1.94363
   A14        1.86500  -0.00066   0.00000  -0.02726  -0.02873   1.83627
   A15        1.90581  -0.01080   0.00000  -0.10859  -0.10931   1.79650
   A16        1.91899   0.00132   0.00000  -0.00928  -0.00988   1.90910
   A17        1.90317  -0.01141   0.00000  -0.08077  -0.08085   1.82232
   A18        1.88337   0.00670   0.00000   0.01605   0.01470   1.89807
   A19        1.94295  -0.00155   0.00000  -0.00497  -0.00507   1.93788
   A20        1.93984  -0.01119   0.00000  -0.06463  -0.06486   1.87498
   A21        1.95748   0.00227   0.00000   0.01085   0.01071   1.96819
   A22        1.82192   0.00725   0.00000   0.04432   0.04414   1.86606
   A23        1.89780   0.00033   0.00000   0.00515   0.00513   1.90294
   A24        1.89832   0.00346   0.00000   0.01272   0.01245   1.91077
   A25        1.95621  -0.01481   0.00000  -0.06609  -0.06627   1.88995
   A26        1.90599   0.00073   0.00000  -0.00765  -0.00842   1.89757
   A27        1.92679   0.00801   0.00000   0.04676   0.04682   1.97361
   A28        1.87788   0.00465   0.00000   0.00903   0.00803   1.88591
   A29        1.92224   0.00259   0.00000   0.00758   0.00822   1.93047
   A30        1.87208  -0.00069   0.00000   0.01251   0.01219   1.88427
   A31        1.98445  -0.01749   0.00000  -0.06515  -0.06515   1.91929
   A32        1.93592  -0.02260   0.00000  -0.12667  -0.12667   1.80925
    D1        3.08740  -0.00094   0.00000  -0.00641  -0.00651   3.08089
    D2        0.98583   0.00198   0.00000   0.02067   0.02089   1.00671
    D3       -1.05693   0.00055   0.00000   0.01103   0.01093  -1.04600
    D4        1.01593  -0.00199   0.00000  -0.02025  -0.02036   0.99557
    D5       -1.08564   0.00092   0.00000   0.00683   0.00703  -1.07861
    D6       -3.12840  -0.00050   0.00000  -0.00281  -0.00292  -3.13132
    D7       -1.10142  -0.00132   0.00000  -0.01116  -0.01126  -1.11267
    D8        3.08020   0.00160   0.00000   0.01592   0.01614   3.09634
    D9        1.03744   0.00018   0.00000   0.00628   0.00618   1.04362
   D10        3.11507  -0.00616   0.00000  -0.10980  -0.10990   3.00516
   D11        1.04602   0.00208   0.00000   0.02520   0.02504   1.07106
   D12       -1.11705  -0.00310   0.00000  -0.08907  -0.08893  -1.20598
   D13        3.09709   0.00514   0.00000   0.04593   0.04602  -3.14008
   D14        0.98542  -0.00614   0.00000  -0.12170  -0.12166   0.86376
   D15       -1.08363   0.00210   0.00000   0.01330   0.01329  -1.07035
   D16        1.15995   0.00194   0.00000   0.16116   0.15986   1.31980
   D17       -3.06159   0.00405   0.00000   0.12707   0.12712  -2.93446
   D18       -3.07936   0.00014   0.00000   0.07539   0.07533  -3.00403
   D19       -1.01771   0.00225   0.00000   0.04130   0.04260  -0.97511
   D20       -1.17520  -0.00506   0.00000  -0.06906  -0.06921  -1.24441
   D21        3.08495  -0.00613   0.00000  -0.08072  -0.08091   3.00404
   D22        0.95567  -0.00413   0.00000  -0.05822  -0.05854   0.89713
   D23        3.03413   0.00399   0.00000   0.02414   0.02443   3.05856
   D24        1.01110   0.00292   0.00000   0.01248   0.01273   1.02383
   D25       -1.11818   0.00492   0.00000   0.03498   0.03510  -1.08308
   D26        3.09735  -0.00045   0.00000  -0.00402  -0.00344   3.09390
   D27        1.01818   0.00252   0.00000   0.03106   0.03071   1.04889
   D28       -1.03600  -0.00179   0.00000  -0.00709  -0.00759  -1.04359
   D29       -1.10193  -0.00145   0.00000  -0.05153  -0.05077  -1.15271
   D30        3.10208   0.00153   0.00000  -0.01645  -0.01662   3.08547
   D31        1.04790  -0.00278   0.00000  -0.05461  -0.05492   0.99298
   D32        2.99148   0.00227   0.00000   0.02194   0.02191   3.01339
   D33       -1.19607  -0.00270   0.00000  -0.02137  -0.02123  -1.21730
   D34        0.83908   0.00051   0.00000   0.00278   0.00266   0.84175
   D35       -3.12339  -0.00357   0.00000  -0.06975  -0.06975   3.09004
         Item               Value     Threshold  Converged?
 Maximum Force            0.024077     0.000450     NO 
 RMS     Force            0.006663     0.000300     NO 
 Maximum Displacement     0.394428     0.001800     NO 
 RMS     Displacement     0.132967     0.001200     NO 
 Predicted change in Energy=-1.088260D-02
 GradGradGradGradGradGradGradGradGradGradGradGradGradGradGradGradGradGrad

                          Input orientation:                          
 ---------------------------------------------------------------------
 Center     Atomic      Atomic             Coordinates (Angstroms)
 Number     Number       Type             X           Y           Z
 ---------------------------------------------------------------------
      1          6           0        0.916864    0.112754    0.046441
      2          6           0        2.438156   -0.030198    0.095972
      3          7           0        3.017741    0.497302   -1.141446
      4          7           0        4.474597    0.551465   -1.065417
      5          6           0        5.017594   -0.793839   -1.216584
      6          6           0        4.868261    1.347363   -2.218995
      7          7           0        6.322016    1.511611   -2.188959
      8          7           0        6.706496    2.055084   -3.228792
      9          1           0        0.470233   -0.334648    0.939500
     10          1           0        0.508325   -0.397060   -0.831022
     11          1           0        0.603649    1.162203    0.007486
     12          1           0        2.687968   -1.090042    0.180159
     13          1           0        2.842943    0.475918    0.986814
     14          1           0        2.754047    1.480078   -1.162074
     15          1           0        4.815353   -1.399886   -0.331023
     16          1           0        6.102539   -0.701425   -1.297344
     17          1           0        4.625525   -1.315034   -2.106387
     18          1           0        4.411807    2.341646   -2.133290
     19          1           0        4.546602    0.906560   -3.179274
     20          1           0        7.721335    2.168097   -3.083746
 ---------------------------------------------------------------------
                    Distance matrix (angstroms):
                    1          2          3          4          5
     1  C    0.000000
     2  C    1.528795   0.000000
     3  N    2.443897   1.464711   0.000000
     4  N    3.753153   2.415419   1.459844   0.000000
     5  C    4.385558   2.993234   2.381617   1.458608   0.000000
     6  C    4.719109   3.627969   2.303940   1.455736   2.368939
     7  N    6.014107   4.762610   3.611695   2.365837   2.821724
     8  N    6.929620   5.798378   4.515596   3.452887   3.875272
     9  H    1.094167   2.162626   3.392974   4.565065   5.053518
    10  H    1.093964   2.172131   2.682054   4.084844   4.543082
    11  H    1.095886   2.189763   2.754991   4.063048   4.980698
    12  H    2.145089   1.092137   2.091662   2.727278   2.732358
    13  H    2.173930   1.101638   2.135533   2.622909   3.346095
    14  H    2.589464   1.990829   1.017747   1.957538   3.208942
    15  H    4.198663   2.776587   2.736332   2.112633   1.091976
    16  H    5.418474   3.977383   3.313190   2.067297   1.091865
    17  H    4.519669   3.359430   2.607804   2.142479   1.103228
    18  H    4.683355   3.806646   2.515707   2.085436   3.322438
    19  H    4.920403   4.006283   2.580243   2.144684   2.639194
    20  H    7.766810   6.546380   5.356107   4.150718   4.423752
                    6          7          8          9         10
     6  C    0.000000
     7  N    1.463313   0.000000
     8  N    2.213519   1.234682   0.000000
     9  H    5.669912   6.887619   7.872512   0.000000
    10  H    4.896787   6.267857   7.083758   1.772031   0.000000
    11  H    4.814396   6.135648   6.965304   1.768336   1.772988
    12  H    4.055929   5.058421   6.136882   2.462838   2.500711
    13  H    3.890827   4.823084   5.932296   2.507790   3.084974
    14  H    2.367402   3.712936   4.497088   3.595226   2.945592
    15  H    3.333859   3.768126   4.889816   4.650702   4.450410
    16  H    2.563282   2.395970   3.419590   6.071315   5.621861
    17  H    2.675810   3.297699   4.116786   5.244524   4.406877
    18  H    1.097403   2.083497   2.558875   5.669267   4.943034
    19  H    1.104495   2.121062   2.446773   5.926355   4.849887
    20  H    3.092157   1.785976   1.031363   8.661912   7.980120
                   11         12         13         14         15
    11  H    0.000000
    12  H    3.073566   0.000000
    13  H    2.538603   1.768316   0.000000
    14  H    2.468426   2.900253   2.373596   0.000000
    15  H    4.941390   2.209769   3.024192   3.637831   0.000000
    16  H    5.950922   3.740766   4.150720   3.998706   1.754557
    17  H    5.175002   3.005502   3.994120   3.493824   1.787498
    18  H    4.525049   4.483319   3.959460   2.105642   4.172539
    19  H    5.076187   4.327440   4.521526   2.758854   3.674841
    20  H    7.824895   6.826663   6.575077   5.370302   5.362156
                   16         17         18         19         20
    16  H    0.000000
    17  H    1.792383   0.000000
    18  H    3.580176   3.663019   0.000000
    19  H    2.923733   2.468359   1.780934   0.000000
    20  H    3.747785   4.761458   3.447675   3.417533   0.000000
 Stoichiometry    C4H12N4
 Framework group  C1[X(C4H12N4)]
 Deg. of freedom    54
 Full point group                 C1      NOp   1
 Largest Abelian subgroup         C1      NOp   1
 Largest concise Abelian subgroup C1      NOp   1
                         Standard orientation:                         
 ---------------------------------------------------------------------
 Center     Atomic      Atomic             Coordinates (Angstroms)
 Number     Number       Type             X           Y           Z
 ---------------------------------------------------------------------
      1          6           0       -3.490636   -0.602241    0.111463
      2          6           0       -2.278285    0.201738   -0.358685
      3          7           0       -1.065241   -0.340225    0.257901
      4          7           0        0.135334    0.274581   -0.300469
      5          6           0        0.288304    1.619317    0.243427
      6          6           0        1.227618   -0.554725    0.187724
      7          7           0        2.477720   -0.048131   -0.379632
      8          7           0        3.438892   -0.634144    0.127494
      9          1           0       -4.408360   -0.166600   -0.294987
     10          1           0       -3.562616   -0.591840    1.203006
     11          1           0       -3.443805   -1.646661   -0.217107
     12          1           0       -2.402380    1.239842   -0.042927
     13          1           0       -2.216755    0.196588   -1.458592
     14          1           0       -1.003996   -1.300848   -0.072643
     15          1           0       -0.465040    2.295630   -0.165822
     16          1           0        1.261328    1.994284   -0.080293
     17          1           0        0.232766    1.643217    1.344997
     18          1           0        1.080555   -1.580081   -0.174647
     19          1           0        1.286487   -0.588254    1.290139
     20          1           0        4.252863   -0.244389   -0.371756
 ---------------------------------------------------------------------
 Rotational constants (GHZ):           5.9903650           0.8589733           0.7855762
 Standard basis: 6-31G(2df,p) (6D, 7F)
 There are   308 symmetry adapted cartesian basis functions of A   symmetry.
 There are   284 symmetry adapted basis functions of A   symmetry.
   284 basis functions,   436 primitive gaussians,   308 cartesian basis functions
    32 alpha electrons       32 beta electrons
       nuclear repulsion energy       391.0636276020 Hartrees.
 NAtoms=   20 NActive=   20 NUniq=   20 SFac= 1.00D+00 NAtFMM=   60 NAOKFM=F Big=F
 Integral buffers will be    131072 words long.
 Raffenetti 2 integral format.
 Two-electron integral symmetry is turned on.
 One-electron integrals computed using PRISM.
 PrsmSu:  requested number of processors reduced to:  13 ShMem   1 Linda.
 NBasis=   284 RedAO= T EigKep=  2.45D-04  NBF=   284
 NBsUse=   284 1.00D-06 EigRej= -1.00D+00 NBFU=   284
 Initial guess from the checkpoint file:  "CCNNpCpCNdN.chk"
 B after Tr=    -0.000000   -0.000000    0.000000
         Rot=    0.999982    0.003663   -0.000403    0.004637 Ang=   0.68 deg.
 ExpMin= 1.61D-01 ExpMax= 4.17D+03 ExpMxC= 6.27D+02 IAcc=2 IRadAn=         4 AccDes= 0.00D+00
 Harris functional with IExCor=  402 and IRadAn=       4 diagonalized for initial guess.
 HarFok:  IExCor=  402 AccDes= 0.00D+00 IRadAn=         4 IDoV= 1 UseB2=F ITyADJ=14
 ICtDFT=  3500011 ScaDFX=  1.000000  1.000000  1.000000  1.000000
 FoFCou: FMM=F IPFlag=           0 FMFlag=      100000 FMFlg1=           0
         NFxFlg=           0 DoJE=T BraDBF=F KetDBF=T FulRan=T
         wScrn=  0.000000 ICntrl=       500 IOpCl=  0 I1Cent=   200000004 NGrid=           0
         NMat0=    1 NMatS0=      1 NMatT0=    0 NMatD0=    1 NMtDS0=    0 NMtDT0=    0
 Petite list used in FoFCou.
 Requested convergence on RMS density matrix=1.00D-08 within 128 cycles.
 Requested convergence on MAX density matrix=1.00D-06.
 Requested convergence on             energy=1.00D-06.
 No special actions if energy rises.
 Integral accuracy reduced to 1.0D-05 until final iterations.
 Initial convergence to 1.0D-05 achieved.  Increase integral accuracy.
 SCF Done:  E(RB3LYP) =  -378.570581948     A.U. after   13 cycles
            NFock= 13  Conv=0.17D-08     -V/T= 2.0074
 PrsmSu:  requested number of processors reduced to:  13 ShMem   1 Linda.
 Calling FoFJK, ICntrl=      2127 FMM=F ISym2X=0 I1Cent= 0 IOpClX= 0 NMat=1 NMatS=1 NMatT=0.
 ***** Axes restored to original set *****
 -------------------------------------------------------------------
 Center     Atomic                   Forces (Hartrees/Bohr)
 Number     Number              X              Y              Z
 -------------------------------------------------------------------
      1        6           0.000151360   -0.001969101    0.000882803
      2        6          -0.003367409    0.002113098    0.001431708
      3        7          -0.003948138   -0.002446040    0.000850232
      4        7           0.000241234    0.000762712   -0.003035189
      5        6           0.002681380   -0.002660789    0.001545955
      6        6          -0.003174763   -0.004981639    0.007636017
      7        7          -0.009900069    0.001181089    0.001496496
      8        7           0.013709230    0.004630265   -0.001195158
      9        1          -0.000333192    0.000678712    0.000052220
     10        1           0.000339009    0.000500455   -0.000228130
     11        1           0.000665675    0.000229185   -0.000069677
     12        1           0.001066749   -0.001446082   -0.000019864
     13        1           0.000895791   -0.000797134    0.000280787
     14        1          -0.002182622    0.001452144   -0.001435297
     15        1          -0.001808293    0.000392443    0.000312591
     16        1           0.000171093   -0.000425459   -0.000816831
     17        1          -0.000754062    0.000362532    0.000079247
     18        1           0.000754683    0.000419553   -0.000101864
     19        1           0.000474317    0.000096163   -0.000034708
     20        1           0.004318026    0.001907894   -0.007631338
 -------------------------------------------------------------------
 Cartesian Forces:  Max     0.013709230 RMS     0.003105886

 GradGradGradGradGradGradGradGradGradGradGradGradGradGradGradGradGradGrad
 Berny optimization.
 Using GEDIIS/GDIIS optimizer.
 FormGI is forming the generalized inverse of G from B-inverse, IUseBI=4.
 Internal  Forces:  Max     0.016733892 RMS     0.003600399
 Search for a local minimum.
 Step number   2 out of a maximum of   96
 All quantities printed in internal units (Hartrees-Bohrs-Radians)
 Mixed Optimization -- RFO/linear search
 Update second derivatives using D2CorX and points    1    2
 DE= -6.55D-03 DEPred=-1.09D-02 R= 6.02D-01
 TightC=F SS=  1.41D+00  RLast= 4.30D-01 DXNew= 5.0454D-01 1.2910D+00
 Trust test= 6.02D-01 RLast= 4.30D-01 DXMaxT set to 5.05D-01
 ITU=  1  0
 Use linear search instead of GDIIS.
     Eigenvalues ---    0.00243   0.00516   0.00521   0.00643   0.00726
     Eigenvalues ---    0.00739   0.03313   0.03807   0.04192   0.04501
     Eigenvalues ---    0.05535   0.05644   0.05728   0.06161   0.06997
     Eigenvalues ---    0.07277   0.07614   0.08822   0.10919   0.11183
     Eigenvalues ---    0.12435   0.13759   0.15320   0.15654   0.16000
     Eigenvalues ---    0.16000   0.16000   0.16000   0.16000   0.16682
     Eigenvalues ---    0.18154   0.21860   0.22470   0.24040   0.28438
     Eigenvalues ---    0.30500   0.33260   0.33619   0.33899   0.34082
     Eigenvalues ---    0.34127   0.34186   0.34221   0.34285   0.34350
     Eigenvalues ---    0.34386   0.34401   0.34552   0.35250   0.35424
     Eigenvalues ---    0.38123   0.43120   0.43628   0.86851
 RFO step:  Lambda=-2.57162895D-03 EMin= 2.42612004D-03
 Quartic linear search produced a step of -0.23124.
 Iteration  1 RMS(Cart)=  0.11867833 RMS(Int)=  0.00507645
 Iteration  2 RMS(Cart)=  0.00893922 RMS(Int)=  0.00010236
 Iteration  3 RMS(Cart)=  0.00003098 RMS(Int)=  0.00010137
 Iteration  4 RMS(Cart)=  0.00000000 RMS(Int)=  0.00010137
 Variable       Old X    -DE/DX   Delta X   Delta X   Delta X     New X
                                 (Linear)    (Quad)   (Total)
    R1        2.88900  -0.00089  -0.00432   0.00277  -0.00155   2.88746
    R2        2.06768  -0.00010   0.00044  -0.00072  -0.00028   2.06740
    R3        2.06729  -0.00018   0.00066  -0.00114  -0.00048   2.06681
    R4        2.07092   0.00003  -0.00101   0.00122   0.00021   2.07114
    R5        2.76790   0.00245   0.00336   0.00136   0.00472   2.77262
    R6        2.06384   0.00165   0.00070   0.00280   0.00350   2.06734
    R7        2.08179   0.00019  -0.00239   0.00314   0.00076   2.08255
    R8        2.75870   0.00667   0.00897   0.00429   0.01325   2.77196
    R9        1.92326   0.00200   0.00368  -0.00068   0.00300   1.92627
   R10        2.75637   0.00214   0.00637  -0.00270   0.00367   2.76004
   R11        2.75094   0.00332   0.01431  -0.00894   0.00537   2.75631
   R12        2.06354   0.00037   0.00090  -0.00022   0.00068   2.06422
   R13        2.06333   0.00019   0.00119  -0.00093   0.00026   2.06358
   R14        2.08480   0.00003  -0.00321   0.00374   0.00053   2.08533
   R15        2.76526   0.00879   0.00698   0.01110   0.01808   2.78334
   R16        2.07379   0.00006   0.00028  -0.00019   0.00009   2.07388
   R17        2.08719  -0.00015  -0.00171   0.00163  -0.00008   2.08711
   R18        2.33321   0.01593   0.00653   0.00725   0.01379   2.34700
   R19        1.94899   0.00338  -0.00185   0.00798   0.00613   1.95512
    A1        1.91932   0.00102  -0.00153   0.00834   0.00681   1.92613
    A2        1.93267  -0.00020   0.00032  -0.00084  -0.00055   1.93212
    A3        1.95530  -0.00128  -0.00160  -0.00625  -0.00786   1.94744
    A4        1.88775   0.00018  -0.00197   0.00767   0.00568   1.89343
    A5        1.87960  -0.00003   0.00251  -0.00425  -0.00172   1.87787
    A6        1.88707   0.00035   0.00233  -0.00445  -0.00214   1.88493
    A7        1.90997   0.00036   0.00381  -0.00214   0.00164   1.91161
    A8        1.89743   0.00063  -0.00999   0.01717   0.00723   1.90466
    A9        1.92717   0.00021  -0.00199   0.00642   0.00444   1.93161
   A10        1.90086  -0.00065   0.00839  -0.01647  -0.00815   1.89271
   A11        1.95230  -0.00013  -0.00418   0.00523   0.00102   1.95331
   A12        1.87492  -0.00041   0.00380  -0.01018  -0.00634   1.86858
   A13        1.94363  -0.00289  -0.00452  -0.00349  -0.00791   1.93572
   A14        1.83627   0.00054   0.00664  -0.00772  -0.00080   1.83547
   A15        1.79650   0.00155   0.02528  -0.02620  -0.00079   1.79571
   A16        1.90910  -0.00347   0.00229  -0.01383  -0.01165   1.89745
   A17        1.82232   0.00356   0.01870   0.00005   0.01880   1.84113
   A18        1.89807   0.00187  -0.00340   0.01905   0.01599   1.91407
   A19        1.93788  -0.00187   0.00117  -0.01098  -0.00983   1.92805
   A20        1.87498   0.00159   0.01500  -0.00816   0.00691   1.88188
   A21        1.96819  -0.00117  -0.00248  -0.00468  -0.00717   1.96102
   A22        1.86606   0.00112  -0.01021   0.02247   0.01232   1.87838
   A23        1.90294   0.00048  -0.00119  -0.00142  -0.00270   1.90024
   A24        1.91077   0.00000  -0.00288   0.00448   0.00168   1.91245
   A25        1.88995   0.00704   0.01532   0.00673   0.02208   1.91202
   A26        1.89757  -0.00101   0.00195  -0.00561  -0.00343   1.89414
   A27        1.97361  -0.00151  -0.01083   0.01172   0.00083   1.97445
   A28        1.88591  -0.00296  -0.00186  -0.01231  -0.01394   1.87197
   A29        1.93047  -0.00229  -0.00190  -0.00324  -0.00540   1.92507
   A30        1.88427   0.00055  -0.00282   0.00145  -0.00134   1.88293
   A31        1.91929   0.01673   0.01507   0.03253   0.04760   1.96689
   A32        1.80925   0.01567   0.02929   0.03700   0.06629   1.87554
    D1        3.08089   0.00019   0.00151   0.00383   0.00537   3.08625
    D2        1.00671   0.00040  -0.00483   0.01487   0.01001   1.01672
    D3       -1.04600   0.00041  -0.00253   0.01327   0.01077  -1.03523
    D4        0.99557  -0.00055   0.00471  -0.01050  -0.00576   0.98980
    D5       -1.07861  -0.00035  -0.00163   0.00055  -0.00112  -1.07973
    D6       -3.13132  -0.00034   0.00068  -0.00106  -0.00036  -3.13168
    D7       -1.11267   0.00001   0.00260   0.00003   0.00264  -1.11003
    D8        3.09634   0.00022  -0.00373   0.01108   0.00729   3.10362
    D9        1.04362   0.00023  -0.00143   0.00947   0.00805   1.05167
   D10        3.00516  -0.00002   0.02541  -0.07995  -0.05451   2.95065
   D11        1.07106  -0.00083  -0.00579  -0.04398  -0.04973   1.02132
   D12       -1.20598   0.00057   0.02056  -0.07014  -0.04962  -1.25560
   D13       -3.14008  -0.00024  -0.01064  -0.03417  -0.04485   3.09826
   D14        0.86376  -0.00044   0.02813  -0.09015  -0.06202   0.80174
   D15       -1.07035  -0.00125  -0.00307  -0.05419  -0.05725  -1.12759
   D16        1.31980  -0.00099  -0.03697   0.20825   0.17161   1.49141
   D17       -2.93446   0.00142  -0.02940   0.22393   0.19445  -2.74001
   D18       -3.00403  -0.00074  -0.01742   0.18442   0.16709  -2.83694
   D19       -0.97511   0.00167  -0.00985   0.20010   0.18993  -0.78517
   D20       -1.24441   0.00267   0.01600  -0.00704   0.00890  -1.23551
   D21        3.00404   0.00141   0.01871  -0.02327  -0.00456   2.99948
   D22        0.89713   0.00105   0.01354  -0.02048  -0.00687   0.89025
   D23        3.05856  -0.00071  -0.00565  -0.00999  -0.01571   3.04286
   D24        1.02383  -0.00198  -0.00294  -0.02622  -0.02917   0.99466
   D25       -1.08308  -0.00233  -0.00812  -0.02342  -0.03148  -1.11456
   D26        3.09390  -0.00006   0.00080  -0.04826  -0.04773   3.04617
   D27        1.04889   0.00013  -0.00710  -0.03427  -0.04140   1.00749
   D28       -1.04359   0.00110   0.00176  -0.03969  -0.03789  -1.08148
   D29       -1.15271  -0.00139   0.01174  -0.05542  -0.04378  -1.19649
   D30        3.08547  -0.00120   0.00384  -0.04143  -0.03745   3.04802
   D31        0.99298  -0.00023   0.01270  -0.04685  -0.03394   0.95904
   D32        3.01339   0.00011  -0.00507   0.00751   0.00249   3.01588
   D33       -1.21730   0.00111   0.00491  -0.00219   0.00260  -1.21471
   D34        0.84175  -0.00130  -0.00062  -0.00966  -0.01020   0.83155
   D35        3.09004   0.00399   0.01613   0.05602   0.07215  -3.12100
         Item               Value     Threshold  Converged?
 Maximum Force            0.016734     0.000450     NO 
 RMS     Force            0.003600     0.000300     NO 
 Maximum Displacement     0.350713     0.001800     NO 
 RMS     Displacement     0.118956     0.001200     NO 
 Predicted change in Energy=-2.061101D-03
 GradGradGradGradGradGradGradGradGradGradGradGradGradGradGradGradGradGrad

                          Input orientation:                          
 ---------------------------------------------------------------------
 Center     Atomic      Atomic             Coordinates (Angstroms)
 Number     Number       Type             X           Y           Z
 ---------------------------------------------------------------------
      1          6           0        0.914030    0.168644    0.082250
      2          6           0        2.431713   -0.002966    0.125888
      3          7           0        3.003516    0.356080   -1.176736
      4          7           0        4.465015    0.453488   -1.097971
      5          6           0        5.034375   -0.878022   -1.288005
      6          6           0        4.858000    1.318020   -2.205034
      7          7           0        6.304837    1.584191   -2.132967
      8          7           0        6.729348    2.197168   -3.126222
      9          1           0        0.467682   -0.149058    1.029201
     10          1           0        0.480241   -0.430056   -0.723718
     11          1           0        0.631196    1.214560   -0.082904
     12          1           0        2.668215   -1.051284    0.330598
     13          1           0        2.867213    0.592571    0.944523
     14          1           0        2.719515    1.322098   -1.335477
     15          1           0        4.832395   -1.507506   -0.418433
     16          1           0        6.117623   -0.769335   -1.373019
     17          1           0        4.641061   -1.377959   -2.189723
     18          1           0        4.343883    2.281301   -2.094714
     19          1           0        4.593446    0.903689   -3.194050
     20          1           0        7.748748    2.322328   -3.001468
 ---------------------------------------------------------------------
                    Distance matrix (angstroms):
                    1          2          3          4          5
     1  C    0.000000
     2  C    1.527977   0.000000
     3  N    2.446657   1.467209   0.000000
     4  N    3.752806   2.416712   1.466858   0.000000
     5  C    4.466582   3.088473   2.379029   1.460549   0.000000
     6  C    4.701876   3.614564   2.328484   1.458576   2.386347
     7  N    5.997646   4.756321   3.649843   2.394714   2.896641
     8  N    6.944575   5.821209   4.590417   3.504487   3.963429
     9  H    1.094019   2.166733   3.398790   4.567996   5.172574
    10  H    1.093708   2.170824   2.681445   4.098675   4.610773
    11  H    1.095998   2.183535   2.749793   4.038287   5.021868
    12  H    2.151061   1.093987   2.089295   2.744747   2.872040
    13  H    2.176730   1.102039   2.138748   2.596939   3.441426
    14  H    2.569082   1.993543   1.019336   1.964093   3.193957
    15  H    4.291124   2.884996   2.718966   2.107662   1.092338
    16  H    5.484067   4.052157   3.317039   2.074141   1.092001
    17  H    4.630831   3.483372   2.591252   2.139419   1.103507
    18  H    4.578906   3.715554   2.519076   2.085443   3.332999
    19  H    4.981218   4.064124   2.626273   2.147726   2.646115
    20  H    7.801349   6.592285   5.450964   4.230694   4.532772
                    6          7          8          9         10
     6  C    0.000000
     7  N    1.472881   0.000000
     8  N    2.263500   1.241977   0.000000
     9  H    5.646901   6.861183   7.872787   0.000000
    10  H    4.941137   6.322111   7.192056   1.775343   0.000000
    11  H    4.730752   6.043972   6.885838   1.767192   1.771494
    12  H    4.103437   5.122490   6.244586   2.478790   2.506937
    13  H    3.795947   4.719270   5.836247   2.512954   3.086491
    14  H    2.308520   3.682284   4.477865   3.581446   2.908374
    15  H    3.343082   3.829662   4.965397   4.794970   4.493922
    16  H    2.576033   2.480253   3.499724   6.170676   5.684784
    17  H    2.704736   3.397897   4.244939   5.411909   4.512218
    18  H    1.097451   2.081530   2.600295   5.539894   4.915161
    19  H    1.104451   2.125521   2.497952   5.997171   4.979947
    20  H    3.162177   1.839571   1.034604   8.681473   8.099071
                   11         12         13         14         15
    11  H    0.000000
    12  H    3.074813   0.000000
    13  H    2.538159   1.766002   0.000000
    14  H    2.437536   2.900238   2.398421   0.000000
    15  H    5.017200   2.335136   3.182752   3.648547   0.000000
    16  H    5.975041   3.857490   4.217932   3.990318   1.762936
    17  H    5.219086   3.217275   4.105243   3.422336   1.786298
    18  H    4.355383   4.449283   3.777475   2.033490   4.171765
    19  H    5.047306   4.466720   4.494937   2.672261   3.684429
    20  H    7.772047   6.949514   6.510935   5.391583   5.463041
                   16         17         18         19         20
    16  H    0.000000
    17  H    1.793785   0.000000
    18  H    3.601857   3.672536   0.000000
    19  H    2.904872   2.493363   1.780066   0.000000
    20  H    3.856267   4.899875   3.523776   3.464903   0.000000
 Stoichiometry    C4H12N4
 Framework group  C1[X(C4H12N4)]
 Deg. of freedom    54
 Full point group                 C1      NOp   1
 Largest Abelian subgroup         C1      NOp   1
 Largest concise Abelian subgroup C1      NOp   1
                         Standard orientation:                         
 ---------------------------------------------------------------------
 Center     Atomic      Atomic             Coordinates (Angstroms)
 Number     Number       Type             X           Y           Z
 ---------------------------------------------------------------------
      1          6           0       -3.484123   -0.661777    0.073157
      2          6           0       -2.279385    0.134871   -0.425515
      3          7           0       -1.095242   -0.220735    0.364454
      4          7           0        0.123285    0.322471   -0.245293
      5          6           0        0.307030    1.695474    0.217635
      6          6           0        1.212059   -0.512363    0.249751
      7          7           0        2.469776   -0.125665   -0.412058
      8          7           0        3.460339   -0.700977    0.067845
      9          1           0       -4.386955   -0.366088   -0.469376
     10          1           0       -3.648091   -0.487379    1.140348
     11          1           0       -3.345339   -1.738586   -0.076621
     12          1           0       -2.476008    1.202838   -0.292873
     13          1           0       -2.120732   -0.033313   -1.503027
     14          1           0       -0.983314   -1.226152    0.239338
     15          1           0       -0.444377    2.352162   -0.226606
     16          1           0        1.286829    2.035252   -0.124435
     17          1           0        0.249556    1.779214    1.316458
     18          1           0        1.005853   -1.554291   -0.026407
     19          1           0        1.327520   -0.468875    1.347289
     20          1           0        4.294461   -0.357667   -0.438895
 ---------------------------------------------------------------------
 Rotational constants (GHZ):           5.5603927           0.8539880           0.7778494
 Standard basis: 6-31G(2df,p) (6D, 7F)
 There are   308 symmetry adapted cartesian basis functions of A   symmetry.
 There are   284 symmetry adapted basis functions of A   symmetry.
   284 basis functions,   436 primitive gaussians,   308 cartesian basis functions
    32 alpha electrons       32 beta electrons
       nuclear repulsion energy       388.7009193589 Hartrees.
 NAtoms=   20 NActive=   20 NUniq=   20 SFac= 1.00D+00 NAtFMM=   60 NAOKFM=F Big=F
 Integral buffers will be    131072 words long.
 Raffenetti 2 integral format.
 Two-electron integral symmetry is turned on.
 One-electron integrals computed using PRISM.
 PrsmSu:  requested number of processors reduced to:  13 ShMem   1 Linda.
 NBasis=   284 RedAO= T EigKep=  2.54D-04  NBF=   284
 NBsUse=   284 1.00D-06 EigRej= -1.00D+00 NBFU=   284
 Initial guess from the checkpoint file:  "CCNNpCpCNdN.chk"
 B after Tr=    -0.000000   -0.000000   -0.000000
         Rot=    0.999639    0.026842    0.000548    0.000336 Ang=   3.08 deg.
 ExpMin= 1.61D-01 ExpMax= 4.17D+03 ExpMxC= 6.27D+02 IAcc=2 IRadAn=         4 AccDes= 0.00D+00
 Harris functional with IExCor=  402 and IRadAn=       4 diagonalized for initial guess.
 HarFok:  IExCor=  402 AccDes= 0.00D+00 IRadAn=         4 IDoV= 1 UseB2=F ITyADJ=14
 ICtDFT=  3500011 ScaDFX=  1.000000  1.000000  1.000000  1.000000
 FoFCou: FMM=F IPFlag=           0 FMFlag=      100000 FMFlg1=           0
         NFxFlg=           0 DoJE=T BraDBF=F KetDBF=T FulRan=T
         wScrn=  0.000000 ICntrl=       500 IOpCl=  0 I1Cent=   200000004 NGrid=           0
         NMat0=    1 NMatS0=      1 NMatT0=    0 NMatD0=    1 NMtDS0=    0 NMtDT0=    0
 Petite list used in FoFCou.
 Requested convergence on RMS density matrix=1.00D-08 within 128 cycles.
 Requested convergence on MAX density matrix=1.00D-06.
 Requested convergence on             energy=1.00D-06.
 No special actions if energy rises.
 Integral accuracy reduced to 1.0D-05 until final iterations.
 Initial convergence to 1.0D-05 achieved.  Increase integral accuracy.
 SCF Done:  E(RB3LYP) =  -378.571841182     A.U. after   13 cycles
            NFock= 13  Conv=0.45D-08     -V/T= 2.0078
 PrsmSu:  requested number of processors reduced to:  13 ShMem   1 Linda.
 Calling FoFJK, ICntrl=      2127 FMM=F ISym2X=0 I1Cent= 0 IOpClX= 0 NMat=1 NMatS=1 NMatT=0.
 ***** Axes restored to original set *****
 -------------------------------------------------------------------
 Center     Atomic                   Forces (Hartrees/Bohr)
 Number     Number              X              Y              Z
 -------------------------------------------------------------------
      1        6           0.000568331   -0.001150908    0.000394260
      2        6          -0.000628466    0.000101397    0.001875730
      3        7          -0.000098145    0.002822566    0.000117845
      4        7           0.001039738    0.001943706   -0.003103729
      5        6           0.001093871   -0.001021352   -0.000285989
      6        6           0.000515872    0.002153802    0.002111821
      7        7           0.005319196   -0.001476695   -0.002416518
      8        7          -0.005314930   -0.003212468   -0.000078309
      9        1          -0.000006039    0.000174815   -0.000225188
     10        1          -0.000077529    0.000088450   -0.000073718
     11        1           0.000319682    0.000294735   -0.000048961
     12        1           0.000636741   -0.001105545    0.000323295
     13        1           0.000314804   -0.000314461   -0.000679522
     14        1          -0.002612705   -0.000696815   -0.001368017
     15        1          -0.001192456    0.000128031    0.000310847
     16        1           0.000434226   -0.000324220    0.000047926
     17        1          -0.000034652    0.000494522    0.000478208
     18        1          -0.000202554    0.000378789   -0.000166930
     19        1           0.000980893    0.000163633   -0.000552912
     20        1          -0.001055877    0.000558016    0.003339863
 -------------------------------------------------------------------
 Cartesian Forces:  Max     0.005319196 RMS     0.001544046

 GradGradGradGradGradGradGradGradGradGradGradGradGradGradGradGradGradGrad
 Berny optimization.
 Using GEDIIS/GDIIS optimizer.
 FormGI is forming the generalized inverse of G from B-inverse, IUseBI=4.
 Internal  Forces:  Max     0.006095794 RMS     0.001652960
 Search for a local minimum.
 Step number   3 out of a maximum of   96
 All quantities printed in internal units (Hartrees-Bohrs-Radians)
 Mixed Optimization -- RFO/linear search
 Update second derivatives using D2CorX and points    2    3
 DE= -1.26D-03 DEPred=-2.06D-03 R= 6.11D-01
 TightC=F SS=  1.41D+00  RLast= 4.19D-01 DXNew= 8.4853D-01 1.2581D+00
 Trust test= 6.11D-01 RLast= 4.19D-01 DXMaxT set to 8.49D-01
 ITU=  1  1  0
 Use linear search instead of GDIIS.
     Eigenvalues ---    0.00277   0.00516   0.00538   0.00643   0.00719
     Eigenvalues ---    0.00758   0.03636   0.03853   0.04138   0.04471
     Eigenvalues ---    0.05577   0.05610   0.05666   0.06058   0.07010
     Eigenvalues ---    0.07250   0.07566   0.08786   0.10896   0.11276
     Eigenvalues ---    0.12460   0.13772   0.14726   0.15822   0.15978
     Eigenvalues ---    0.16000   0.16000   0.16000   0.16000   0.16830
     Eigenvalues ---    0.18356   0.21855   0.22485   0.23638   0.30226
     Eigenvalues ---    0.30450   0.33465   0.33623   0.33895   0.34064
     Eigenvalues ---    0.34125   0.34186   0.34217   0.34270   0.34313
     Eigenvalues ---    0.34353   0.34401   0.34454   0.35284   0.35409
     Eigenvalues ---    0.39471   0.43194   0.43590   0.90613
 RFO step:  Lambda=-9.64444763D-04 EMin= 2.76997073D-03
 Quartic linear search produced a step of -0.24541.
 Iteration  1 RMS(Cart)=  0.05281846 RMS(Int)=  0.00077414
[...]
 002084,0.00012393,0.00004358,-0.00015912,-0.00031075,-0.00143441,-0.00
 140638,0.00119173,-0.00442094,0.00110791,-0.00056408,-0.00009035,0.000
 12778,-0.00020131,-0.01073881,-0.02996277,0.00869854,-0.11015524,-0.04
 796744,0.18282051,0.18486312,0.12394762,-0.00012043,0.00002910,-0.0000
 4028,-0.00026236,-0.00045123,0.00010799,0.00037266,0.00057728,0.000547
 57,-0.00212393,-0.00235954,0.00247155,0.00121810,-0.00113015,-0.000461
 95,0.02036200,-0.00026207,-0.00034553,0.17978116,0.17617763,-0.5069260
 1,-0.11133165,-0.16220993,0.58144732,-0.08538595,0.04099575,0.08415219
 ,-0.00983127,0.01544674,0.02859970,-0.00681503,-0.00173321,-0.00228270
 ,-0.00101879,0.00061686,0.00179549,-0.00046035,-0.00050075,0.00004521,
 -0.00029231,0.00050446,-0.00008861,0.00010841,-0.00015948,0.00005602,-
 0.00008637,-0.00005800,0.00005662,0.09407413,0.04214884,-0.09151338,-0
 .09105736,-0.00243240,0.00109994,0.00635834,-0.00059133,0.00000451,-0.
 00007070,-0.00047214,0.00111109,0.00007411,-0.00026149,-0.00008380,0.0
 0001612,0.00021562,0.00004976,0.00002276,-0.00002303,0.00004497,-0.000
 03820,0.00003326,0.00001946,-0.00001692,-0.04588620,0.09536390,0.08609
 229,-0.09085197,-0.22809494,-0.00151865,0.00016300,-0.00054384,0.00035
 668,0.00054556,0.00090790,-0.00035409,-0.00018481,0.00014894,0.0000341
 6,0.00012730,0.00004940,0.00000870,-0.00017349,0.00003686,-0.00004631,
 0.00004022,0.00000172,0.00003433,0.00002028,-0.00004164,-0.09361512,0.
 09974615,0.24598998,-0.05492608,-0.04511679,0.00001582,-0.00748029,-0.
 03583252,0.00009793,0.00255012,0.00034019,-0.00078072,0.00009192,0.000
 49531,-0.00021035,0.00004407,-0.00003812,0.00006478,0.00013035,-0.0002
 6710,-0.00012133,0.00007389,0.00020873,0.00002124,-0.00002626,0.000005
 43,0.00003601,0.00171360,0.01255005,-0.00135137,0.06084286,-0.04732371
 ,-0.30378606,0.00275370,-0.00143443,-0.00598163,-0.00054563,0.00096381
 ,0.00102531,0.00035410,-0.00016352,0.00044853,0.00012309,-0.00002617,-
 0.00013319,-0.00001687,0.00015117,-0.00005621,-0.00008864,0.00006713,0
 .00004329,-0.00002954,-0.00001594,-0.00000145,0.00003802,-0.00196084,-
 0.01122920,0.00109565,0.05336704,0.32959675,-0.00015997,0.00258297,-0.
 04795493,0.00006956,0.00028416,-0.00087458,-0.00030569,0.00078593,0.00
 047574,0.00005814,-0.00018232,-0.00005399,0.00001937,-0.00006622,0.000
 00969,-0.00006003,0.00006631,-0.00010706,0.00003348,-0.00006926,0.0000
 0379,-0.00003012,-0.00002201,0.00002738,-0.00587874,-0.02666580,0.0011
 2231,0.00079010,-0.00256396,0.04649018,-0.09945290,0.04698100,-0.09193
 179,-0.01662938,0.01477710,-0.02863461,0.00180654,-0.00039770,-0.00187
 087,0.00019234,-0.00020706,0.00080862,0.00012989,-0.00001227,0.0000352
 9,0.00003021,0.00005859,-0.00010531,0.00000488,0.00000219,0.00003612,0
 .00000636,-0.00000623,0.00001096,0.00571747,-0.00610667,0.01001771,0.0
 0221929,-0.00198675,0.00530835,0.11094498,0.04734222,-0.09101642,0.083
 73508,-0.00314926,0.00220467,-0.00609536,0.00053333,-0.00008927,0.0002
 4928,-0.00021035,-0.00009860,-0.00024774,0.00003978,-0.00005476,0.0000
 3174,0.00004710,0.00013579,0.00004705,-0.00002477,-0.00003099,-0.00002
 520,0.00000946,-0.00000473,0.00000419,-0.00701629,0.00522807,-0.010940
 86,0.01454020,-0.01182940,0.02618853,-0.05161915,0.09374887,-0.0922201
 0,0.08309515,-0.20824357,0.00072332,-0.00131816,0.00036920,0.00042231,
 -0.00010518,0.00137665,0.00011372,0.00001313,0.00014072,-0.00002572,-0
 .00004431,0.00000932,-0.00008083,0.00007804,-0.00012105,0.00002965,-0.
 00003155,0.00002876,-0.00001984,-0.00002517,0.00002636,-0.01239712,0.0
 1184558,-0.02082225,0.00084734,-0.00053600,-0.00004739,0.10307903,-0.0
 9210134,0.22546693,-0.01587536,0.01343916,-0.02553274,-0.10053438,0.04
 796814,-0.09681561,0.00544278,-0.00301048,0.01388107,0.00186502,-0.000
 32814,0.00024910,0.00028115,0.00037735,0.00041057,-0.00031222,-0.00052
 116,0.00007257,0.00009243,-0.00000613,-0.00008658,-0.00004841,-0.00004
 390,0.00003780,0.00113295,0.00032871,0.00040361,0.00162897,-0.00023676
 ,0.00010620,-0.00608489,-0.00162047,0.00055650,0.11011639,-0.00316793,
 0.00219927,-0.00539114,0.05030034,-0.09590605,0.08883375,-0.00800113,0
 .00643042,-0.01746861,-0.00065031,0.00044228,0.00016151,-0.00022372,0.
 00006599,-0.00008899,0.00001247,-0.00065336,0.00016815,0.00025879,0.00
 018433,0.00005305,-0.00013122,-0.00000027,0.00003248,0.00057124,0.0000
 2958,0.00007978,0.00036877,0.00070899,-0.00065323,-0.00152475,0.000955
 05,-0.00062241,-0.05351394,0.10003094,0.00132750,-0.00155356,0.0034640
 1,-0.09061494,0.08285732,-0.20569673,-0.01212524,0.00396922,-0.0333590
 1,-0.00161512,0.00025190,0.00255519,0.00023639,0.00002255,-0.00000102,
 0.00037754,0.00024014,-0.00022190,-0.00002170,0.00008013,0.00002494,0.
 00006951,0.00006471,-0.00001852,-0.00057899,-0.00010121,0.00055111,-0.
 00027397,-0.00026915,0.00001519,0.00139044,0.00009836,0.00115927,0.099
 63972,-0.08637038,0.23521294,-0.00800550,-0.03384592,0.00102214,-0.056
 97588,-0.03896458,-0.00156470,0.00153001,0.01525848,0.00607052,0.00215
 750,0.00120317,-0.00113566,-0.00012937,-0.00004528,-0.00021719,-0.0002
 0747,0.00019799,0.00093799,0.00038016,-0.00021753,-0.00029048,-0.00005
 675,-0.00003463,0.00011807,0.00115450,0.00049842,0.00032070,-0.0067328
 6,-0.00124738,0.00003683,0.00170511,0.00055570,-0.00044724,0.00341786,
 0.01423527,-0.00122779,0.06237448,-0.00097494,-0.00542499,0.00108584,-
 0.04089082,-0.26722903,0.00775449,0.00324898,-0.01852664,-0.01389915,-
 0.00243546,0.00212590,0.00034260,0.00039828,0.00027014,0.00015194,0.00
 042658,-0.00131893,0.00051202,0.00074654,0.00096481,-0.00019547,-0.000
 06446,0.00003082,0.00015710,-0.00065316,0.00019393,0.00046318,-0.00087
 356,0.00141167,-0.00010647,-0.00009020,0.00064815,-0.00053379,-0.00350
 305,-0.01473133,0.00200072,0.04397142,0.29932284,-0.00078899,0.0017459
 3,0.00050697,-0.00061444,0.00655564,-0.05268952,0.00080626,-0.03646821
 ,-0.00863659,-0.00306965,0.00084477,0.00091172,0.00023744,0.00036335,0
 .00017716,0.00076341,-0.00090532,-0.00032437,-0.00044170,0.00063190,0.
 00024787,0.00010325,0.00015030,-0.00018782,-0.00020543,0.00019877,0.00
 007154,0.00082289,-0.00034088,0.00093879,0.00033068,-0.00070483,0.0002
 8418,0.00455836,0.02487606,0.00015110,-0.00342893,0.00284733,0.0572770
 1,0.00212316,-0.00066349,0.00084979,0.00774864,-0.00399406,0.01190603,
 -0.11553097,0.04549513,-0.11284784,-0.04018654,0.01004596,-0.02858614,
 -0.00037969,-0.00343165,-0.00377752,0.00213936,0.00505095,-0.00332335,
 0.00009333,-0.00052502,0.00061608,-0.00008638,0.00025381,-0.00000759,0
 .00004452,0.00001209,-0.00039832,-0.00011157,-0.00013982,0.00004589,-0
 .00051587,0.00059044,-0.00057064,-0.00098779,0.00133338,0.00357467,-0.
 00014204,0.00058956,0.00011355,0.14586024,-0.00071592,0.00086516,0.000
 71833,-0.00527535,-0.00201803,-0.02119700,0.07313196,-0.05639390,0.119
 06168,-0.01252233,-0.00323040,-0.00581023,0.00164318,0.00063899,0.0029
 7752,-0.00133439,0.00195847,-0.00523614,-0.00030220,-0.00086441,0.0000
 7756,0.00012671,0.00022020,-0.00004750,-0.00032171,-0.00035125,-0.0001
 0238,-0.00008133,-0.00033968,0.00040004,0.00013150,0.00022952,0.000245
 46,0.00055659,0.00015713,-0.00108055,-0.00096957,0.00111188,-0.0006692
 9,-0.05460033,0.05737120,-0.00069020,0.00045967,0.00056339,-0.01422625
 ,0.01576877,-0.02794251,-0.11639224,0.07743201,-0.28853707,0.00028141,
 -0.00158616,0.00760716,-0.00033317,0.00109747,0.00228189,0.00261003,-0
 .00018098,0.00546028,-0.00011455,0.00046464,-0.00038550,0.00021904,0.0
 0004861,-0.00016711,0.00011227,-0.00033854,0.00065545,0.00012836,0.000
 01694,-0.00005083,0.00147971,-0.00020996,0.00037527,0.00283393,-0.0037
 0157,-0.00422562,-0.00068628,-0.00013338,0.00179690,0.12761746,-0.0878
 9199,0.30445512,-0.00000823,-0.00001986,-0.00012099,0.00017534,0.00038
 104,0.00036498,0.00120564,0.00049575,-0.00111962,0.00211237,0.01531846
 ,-0.00578186,-0.06128525,-0.05598376,0.03421421,-0.00189536,0.00254730
 ,0.00108783,-0.00016762,-0.00047890,0.00021326,0.00024332,0.00005826,-
 0.00028233,0.00006219,-0.00002189,-0.00001459,-0.00003449,-0.00001013,
 0.00001746,-0.00000313,-0.00000627,0.00001400,-0.00002111,0.00003889,-
 0.00005405,0.00004067,-0.00011266,-0.00014367,-0.00015175,-0.00024311,
 -0.00002405,0.06142040,0.00001924,-0.00002000,-0.00004365,0.00018785,-
 0.00001370,-0.00018395,-0.00227705,0.00254950,0.00056576,-0.00621389,-
 0.03031706,0.01060066,-0.04855140,-0.22434566,0.11462242,0.00371216,-0
 .00261502,-0.00304238,0.00092707,0.00045300,-0.00008495,-0.00020688,0.
 00006892,0.00022763,0.00001127,0.00000561,-0.00000006,0.00004729,0.000
 02339,-0.00000126,-0.00001707,0.00000920,-0.00001444,-0.00000582,-0.00
 006392,-0.00003288,-0.00006229,0.00026382,0.00013875,0.00022011,0.0000
 2457,0.00009365,0.05318688,0.25316453,-0.00000832,0.00008100,0.0000062
 6,-0.00030170,-0.00024671,0.00013528,-0.00060664,-0.00040882,0.0002656
 5,-0.00388684,-0.01743255,0.00884140,0.03362574,0.12296081,-0.12641468
 ,0.00197205,-0.00211814,-0.00088258,0.00036286,0.00008454,-0.00005973,
 -0.00015710,0.00018319,0.00006495,-0.00002024,-0.00001475,0.00000028,-
 0.00000064,-0.00000861,0.00001755,-0.00002299,0.00000183,-0.00000397,0
 .00001878,-0.00001814,-0.00007640,0.00000338,-0.00004455,-0.00004852,0
 .00014724,0.00025631,-0.00016554,-0.03759269,-0.12374310,0.13253179,-0
 .00000643,0.00017848,0.00025586,-0.00016573,0.00021599,-0.00134674,-0.
 00170242,0.00286111,0.00226524,-0.01431830,-0.00164049,0.00253673,-0.3
 0385865,-0.03444513,0.00125225,-0.00073973,-0.00060437,0.00015640,-0.0
 0006934,-0.00066420,0.00035269,0.00040360,-0.00028692,-0.00044638,-0.0
 0010903,-0.00002813,0.00002594,0.00002705,-0.00001643,-0.00003586,0.00
 001555,-0.00000810,-0.00001972,0.00006456,-0.00002329,0.00007883,-0.00
 014901,0.00030994,0.00031134,-0.00031321,0.00017789,-0.00003206,-0.004
 48102,-0.00074410,-0.00088304,0.33461750,0.00005585,-0.00029879,-0.000
 45753,0.00125342,0.00024509,0.00069124,0.00320306,-0.00306400,-0.00238
 641,0.02847088,0.00393180,-0.00308097,-0.04369383,-0.05706885,0.000668
 97,0.00045901,0.00049027,0.00076478,0.00026617,-0.00036940,0.00029229,
 -0.00065557,-0.00121675,0.00004259,0.00016872,0.00007021,-0.00003044,0
 .00000111,0.00002288,0.00000204,-0.00003273,0.00000249,0.00000872,-0.0
 0006505,-0.00001411,-0.00004207,-0.00002547,-0.00011625,0.00000861,0.0
 0066872,-0.00012976,0.00006844,-0.02530679,-0.00138006,-0.00194191,0.0
 3710052,0.05871551,0.00002784,-0.00015325,-0.00027394,0.00071021,-0.00
 000533,0.00078031,0.00310343,-0.00289354,-0.00016137,0.01687455,0.0038
 6143,-0.00200960,-0.00373346,-0.00111291,-0.04850016,0.00005985,0.0004
 0752,0.00062277,-0.00017389,0.00042448,0.00061435,-0.00002340,-0.00039
 991,-0.00035138,0.00010817,0.00003067,-0.00002832,-0.00001411,0.000015
 57,0.00000601,-0.00002277,-0.00000998,0.00000833,-0.00008550,0.0000699
 4,-0.00002418,0.00003287,-0.00012657,-0.00009481,0.00096141,-0.0009499
 0,-0.00039149,0.01667824,0.00121504,0.00012886,-0.00412125,0.00398296,
 0.04970290,-0.00006122,-0.00002329,-0.00001393,-0.00024343,-0.00006151
 ,0.00014980,0.00445789,-0.00074247,0.00139949,0.00460037,0.00649900,0.
 01746320,-0.07853546,-0.00651868,-0.07396525,-0.00035006,-0.00185251,0
 .00081425,0.00002944,-0.00022395,-0.00016813,0.00006616,0.00037667,-0.
 00002262,0.00000224,0.00000672,-0.00000740,-0.00001828,-0.00000295,0.0
 0001092,-0.00002430,0.00000706,-0.00000025,-0.00008628,0.00000269,-0.0
 0007788,0.00002890,-0.00013751,-0.00008697,0.00047368,0.00025100,-0.00
 113903,0.00243719,0.00023868,0.00732896,-0.00945275,-0.00180467,-0.030
 16081,0.07682460,0.00005837,-0.00008718,-0.00004980,0.00028309,0.00013
 777,0.00025497,-0.00371967,0.00032022,0.00119998,-0.00320306,-0.014027
 96,-0.03334761,-0.00594450,-0.05231970,-0.01501918,-0.00013216,0.00517
 451,-0.00585334,0.00014372,-0.00031101,0.00054243,-0.00035561,-0.00002
 229,0.00009072,0.00005387,-0.00000755,-0.00002062,0.00003400,0.0000187
 1,0.00001311,0.00003728,0.00001851,0.00000074,-0.00002894,-0.00005165,
 0.00011037,-0.00008462,0.00005559,0.00001936,0.00079781,0.00000191,0.0
 0070799,0.00947487,0.00360801,0.02386568,-0.00245927,-0.00012516,-0.00
 426123,0.00467079,0.05690331,0.00004046,-0.00016664,-0.00013345,0.0004
 1305,0.00050468,0.00023698,-0.00171819,0.00032796,0.00244292,0.0016909
 1,-0.01575826,-0.02000473,-0.07442246,-0.01420175,-0.24851342,0.001497
 08,0.00352589,0.00084867,0.00030988,-0.00057528,-0.00010832,-0.0003270
 2,0.00023694,0.00022988,0.00009457,0.00000874,-0.00001774,0.00002364,0
 .00003539,-0.00001564,0.00005933,-0.00001216,0.00002113,-0.00010859,0.
 00001649,0.00021179,-0.00012696,0.00007749,0.00015232,0.00157912,-0.00
 088016,-0.00056309,-0.00742130,-0.00107418,-0.01534105,-0.00019163,0.0
 0126827,0.00018717,0.07888284,0.02901762,0.27909963,-0.00008771,0.0001
 0220,-0.00013252,0.00000814,-0.00163286,0.00007001,0.00010236,-0.00074
 754,-0.00035081,0.00459900,-0.00459881,-0.00262596,-0.00008282,-0.0021
 5862,0.00095035,-0.11523310,0.09892223,0.05843064,-0.02279206,0.019146
 57,0.01706978,-0.00509806,0.00456665,-0.00136777,0.00004072,0.00001239
 ,-0.00001507,0.00003061,0.00003798,-0.00000953,-0.00004365,-0.00000563
 ,0.00000272,0.00006072,0.00018423,-0.00008468,-0.00037692,0.00014011,0
 .00074699,0.00003619,-0.00050001,0.00003856,0.00035358,-0.00042504,-0.
 00005566,0.00001693,-0.00000116,0.00002970,-0.00002483,0.00025307,0.00
 015811,0.13212834,-0.00016889,0.00043858,0.00013019,-0.00029962,-0.000
 56298,0.00013544,0.00248913,0.00220654,-0.00159925,0.01619383,-0.03146
 666,-0.00989863,-0.00327162,-0.00407057,0.00389942,0.09214370,-0.17232
 443,-0.08450839,-0.00282420,0.00749386,0.00338950,-0.00230757,0.000438
 95,0.00086391,-0.00003750,-0.00002200,-0.00000374,0.00021513,0.0000430
 4,-0.00001362,0.00002487,-0.00003281,0.00001963,0.00009223,0.00017814,
 -0.00004720,-0.00053924,0.00063058,0.00078649,-0.00066793,-0.00044116,
 -0.00036031,0.00080381,-0.00145694,-0.00087601,-0.00003103,0.00046159,
 0.00009822,-0.00005821,0.00008823,-0.00011226,-0.10337828,0.19921651,0
 .00018877,-0.00031367,0.00013037,-0.00012621,0.00168494,0.00019075,-0.
 00030577,-0.00145773,0.00038467,-0.01000345,0.01579178,0.00672656,0.00
 098201,0.00210201,-0.00040998,0.06115020,-0.09100956,-0.10613621,0.001
 04461,0.00433920,0.00085726,-0.00027290,0.00001191,0.00172325,-0.00003
 769,0.00001799,0.00001464,-0.00009879,-0.00002884,-0.00002153,-0.00005
 580,0.00000248,-0.00005108,-0.00003034,-0.00004352,0.00001571,0.000664
 47,-0.00026618,-0.00045935,0.00011157,-0.00014486,-0.00034401,-0.00001
 598,0.00067128,0.00055126,0.00007165,-0.00015403,-0.00015997,0.0000312
 6,0.00056467,0.00028657,-0.06869136,0.08881441,0.10863927,0.00004461,-
 0.00006301,-0.00000480,-0.00025884,0.00078406,0.00026884,0.00467526,0.
 00004835,0.00124770,0.00183944,-0.00341267,0.00800527,-0.00049614,0.00
 093920,-0.00013203,-0.05689316,0.00003039,-0.03479616,-0.02493962,-0.0
 0682111,-0.03579522,0.00577494,0.00182707,-0.00202710,-0.00000008,0.00
 000341,0.00000694,-0.00003914,-0.00002206,-0.00000206,-0.00002138,0.00
 000038,0.00000324,-0.00015077,-0.00008333,-0.00006379,-0.00003989,-0.0
 0023882,-0.00004498,-0.00020641,0.00071187,-0.00171431,-0.00002809,0.0
 0003373,0.00006778,0.00010081,-0.00006214,-0.00018227,-0.00020906,0.00
 015066,-0.00038142,0.00558362,0.00096129,0.01501001,0.06434897,-0.0001
 8830,0.00033941,0.00004544,-0.00022549,-0.00088592,-0.00066206,0.00530
 877,0.00060976,0.00028724,0.00224819,-0.01227270,0.03635478,-0.0011809
 7,0.00504632,0.00482976,-0.00136877,-0.05354383,-0.01044506,-0.0042103
 1,0.00429631,-0.00694802,0.00137416,-0.00156464,-0.00000288,-0.0000734
 0,-0.00000783,0.00003352,0.00008042,0.00002203,0.00000702,-0.00001450,
 -0.00003139,0.00001459,0.00010846,0.00008600,-0.00017955,0.00005301,0.
 00047243,0.00011046,-0.00103272,0.00115654,-0.00176886,-0.00011435,0.0
 0008377,-0.00052847,0.00023348,-0.00033187,-0.00029580,-0.00055388,0.0
 0063900,-0.00218644,-0.00484961,0.00062909,-0.02063146,0.00415044,0.05
 523778,0.00000063,-0.00007379,-0.00011718,0.00021145,-0.00000037,0.000
 26831,-0.00161555,-0.00046451,0.00121923,-0.00120075,0.01275348,-0.018
 64896,0.00155056,-0.00224006,0.00183319,-0.04411391,-0.01402799,-0.259
 96217,-0.00639277,0.00064719,-0.00941037,0.00424680,-0.00174882,0.0032
 7479,0.00007770,-0.00001231,-0.00000454,0.00001986,0.00000693,0.000015
 96,0.00009476,-0.00001283,0.00002588,-0.00012141,0.00006992,0.00028655
 ,-0.00008718,-0.00000066,-0.00004634,0.00204525,0.00024510,-0.00035562
 ,0.00001323,0.00009330,0.00042206,-0.00015033,0.00013361,-0.00011749,-
 0.00042364,0.00214123,0.00099014,-0.00363985,-0.00052200,-0.01227562,0
 .04951178,0.00170616,0.29176499,-0.00000145,0.00006298,0.00009079,0.00
 010679,-0.00032712,-0.00043781,-0.00057662,-0.00114512,0.00061924,-0.0
 0244274,0.00099712,0.00021871,-0.00037092,0.00030463,0.00007644,0.0052
 0554,-0.00969882,0.00312309,-0.03471433,-0.00436369,0.01233572,-0.3101
 5364,-0.06477272,-0.08400120,-0.00005156,0.00001379,0.00001985,0.00001
 624,-0.00000025,-0.00001428,0.00000288,-0.00000538,-0.00001036,-0.0000
 0161,0.00001356,0.00004356,0.00002648,0.00014322,0.00003060,0.00009310
 ,0.00013555,0.00003138,0.00002534,-0.00008072,0.00000906,0.00011961,-0
 .00000006,-0.00006879,0.00008522,-0.00002970,-0.00005143,0.00077895,0.
 00066009,0.00038376,0.00091494,0.00025536,-0.00002662,0.34093780,-0.00
 000850,-0.00008275,-0.00008541,0.00000270,0.00020120,0.00014688,0.0007
 2233,0.00042549,-0.00023943,0.00274449,-0.00042029,0.00021991,-0.00005
 304,-0.00023841,0.00010367,-0.00896341,0.02545508,0.00785205,-0.015805
 92,-0.03357033,-0.00593965,-0.05232714,-0.04367666,-0.01176043,0.00003
 163,-0.00000605,-0.00000627,-0.00004425,-0.00000778,0.00001403,0.00000
 256,0.00000803,0.00001132,0.00001319,-0.00004746,-0.00001886,0.0000630
 5,-0.00015538,-0.00018918,-0.00000294,0.00003303,0.00001355,-0.0000075
 5,-0.00004196,-0.00005160,-0.00012594,0.00017514,0.00010259,-0.0000729
 8,-0.00001328,-0.00005234,-0.00506788,-0.00144755,0.00004917,0.0010623
 0,0.00001973,0.00130643,0.07783729,0.05339019,0.00000135,-0.00001599,-
 0.00003138,-0.00004598,0.00011275,0.00013953,0.00063549,0.00072654,-0.
 00022865,0.00154542,-0.00048736,0.00065548,0.00002780,-0.00006590,-0.0
 0006739,0.00057824,0.00704954,-0.00199265,0.06134927,0.01206019,-0.002
 02955,-0.13203658,-0.02806867,-0.08138082,0.00000671,-0.00000344,0.000
 00313,-0.00001671,-0.00001128,0.00000335,-0.00000685,0.00000173,-0.000
 00267,0.00001256,-0.00000317,-0.00002440,0.00000547,-0.00008648,-0.000
 02825,-0.00005667,0.00002802,-0.00006707,-0.00003211,-0.00000763,0.000
 02712,-0.00007990,0.00016084,0.00006199,-0.00001479,0.00002289,-0.0000
 0976,-0.00052366,-0.00019579,0.00033744,0.00102259,0.00025964,0.000837
 17,0.06762833,0.00852357,0.08379737\\-0.00000046,0.00000070,-0.0000020
 3,0.00000038,0.00000310,-0.00000260,-0.00000337,0.00000433,-0.00000733
 ,-0.00000016,-0.00000178,0.00000097,0.00000102,0.00000428,0.00000099,-
 0.00000192,0.00000661,-0.00000301,0.00000709,0.00000046,0.00000008,-0.
 00000240,-0.00000078,0.00000277,-0.00000007,-0.00000104,0.00000014,-0.
 00000011,-0.00000101,0.00000079,-0.00000016,-0.00000070,-0.00000020,-0
 .00000073,0.00000043,0.00000327,0.00000174,-0.00000261,-0.00000128,-0.
 00000118,-0.00000529,0.00000648,0.00000033,-0.00000111,0.00000192,0.00
 000273,-0.00000091,0.00000157,0.00000078,-0.00000054,0.00000108,-0.000
 00137,-0.00000206,-0.00000236,-0.00000068,-0.00000198,-0.00000007,-0.0
 0000145,-0.00000008,-0.00000117\\\@


 ON INDUCTION, OR "WHY DO YOU BELIEVE THE SUN WILL RISE TOMORROW?":

 ... THE FARMER WHO HAS FED THE CHICKEN EVERY DAY THROUGHOUT ITS
 LIFE AT LAST WRINGS ITS NECK INSTEAD, SHOWING THAT MORE REFINED VIEWS
 AS TO THE UNIFORMITY OF NATURE WOULD HAVE BEEN USEFUL TO THE CHICKEN.

                               -- BERTRAND RUSSELL
 Job cpu time:       0 days  2 hours 15 minutes 56.5 seconds.
 Elapsed time:       0 days  0 hours 34 minutes  0.3 seconds.
 File lengths (MBytes):  RWF=    126 Int=      0 D2E=      0 Chk=      8 Scr=      1
 Normal termination of Gaussian 16 at Tue Jun  1 20:34:37 2021.
### All Done ###
