### Starting Gaussian ###
 Entering Gaussian System, Link 0=g16
 Initial command:
 /cluster/software/gaussian/gaussian-16-A.03/avx2/g16/l1.exe "/local/scratch/cz9n3/Gau-1490.inp" -scrdir="/local/scratch/cz9n3/"
 Entering Link 1 = /cluster/software/gaussian/gaussian-16-A.03/avx2/g16/l1.exe PID=      1491.
  
 Copyright (c) 1988,1990,1992,1993,1995,1998,2003,2009,2016,
            Gaussian, Inc.  All Rights Reserved.
  
 This is part of the Gaussian(R) 16 program.  It is based on
 the Gaussian(R) 09 system (copyright 2009, Gaussian, Inc.),
 the Gaussian(R) 03 system (copyright 2003, Gaussian, Inc.),
 the Gaussian(R) 98 system (copyright 1998, Gaussian, Inc.),
 the Gaussian(R) 94 system (copyright 1995, Gaussian, Inc.),
 the Gaussian 92(TM) system (copyright 1992, Gaussian, Inc.),
 the Gaussian 90(TM) system (copyright 1990, Gaussian, Inc.),
 the Gaussian 88(TM) system (copyright 1988, Gaussian, Inc.),
 the Gaussian 86(TM) system (copyright 1986, Carnegie Mellon
 University), and the Gaussian 82(TM) system (copyright 1983,
 Carnegie Mellon University). Gaussian is a federally registered
 trademark of Gaussian, Inc.
  
 This software contains proprietary and confidential information,
 including trade secrets, belonging to Gaussian, Inc.
  
 This software is provided under written license and may be
 used, copied, transmitted, or stored only in accord with that
 written license.
  
 The following legend is applicable only to US Government
 contracts under FAR:
  
                    RESTRICTED RIGHTS LEGEND
  
 Use, reproduction and disclosure by the US Government is
 subject to restrictions as set forth in subparagraphs (a)
 and (c) of the Commercial Computer Software - Restricted
 Rights clause in FAR 52.227-19.
  
 Gaussian, Inc.
 340 Quinnipiac St., Bldg. 40, Wallingford CT 06492
  
  
 ---------------------------------------------------------------
 Warning -- This program may not be used in any manner that
 competes with the business of Gaussian, Inc. or will provide
 assistance to any competitor of Gaussian, Inc.  The licensee
 of this program is prohibited from giving any competitor of
 Gaussian, Inc. access to this program.  By using this program,
 the user acknowledges that Gaussian, Inc. is engaged in the
 business of creating and licensing software in the field of
 computational chemistry and represents and warrants to the
 licensee that it is not a competitor of Gaussian, Inc. and that
 it will not use this program in any manner prohibited above.
 ---------------------------------------------------------------
  

 Cite this work as:
 Gaussian 16, Revision A.03,
 M. J. Frisch, G. W. Trucks, H. B. Schlegel, G. E. Scuseria, 
 M. A. Robb, J. R. Cheeseman, G. Scalmani, V. Barone, 
 G. A. Petersson, H. Nakatsuji, X. Li, M. Caricato, A. V. Marenich, 
 J. Bloino, B. G. Janesko, R. Gomperts, B. Mennucci, H. P. Hratchian, 
 J. V. Ortiz, A. F. Izmaylov, J. L. Sonnenberg, D. Williams-Young, 
 F. Ding, F. Lipparini, F. Egidi, J. Goings, B. Peng, A. Petrone, 
 T. Henderson, D. Ranasinghe, V. G. Zakrzewski, J. Gao, N. Rega, 
 G. Zheng, W. Liang, M. Hada, M. Ehara, K. Toyota, R. Fukuda, 
 J. Hasegawa, M. Ishida, T. Nakajima, Y. Honda, O. Kitao, H. Nakai, 
 T. Vreven, K. Throssell, J. A. Montgomery, Jr., J. E. Peralta, 
 F. Ogliaro, M. J. Bearpark, J. J. Heyd, E. N. Brothers, K. N. Kudin, 
 V. N. Staroverov, T. A. Keith, R. Kobayashi, J. Normand, 
 K. Raghavachari, A. P. Rendell, J. C. Burant, S. S. Iyengar, 
 J. Tomasi, M. Cossi, J. M. Millam, M. Klene, C. Adamo, R. Cammi, 
 J. W. Ochterski, R. L. Martin, K. Morokuma, O. Farkas, 
 J. B. Foresman, and D. J. Fox, Gaussian, Inc., Wallingford CT, 2016.
 
 ******************************************
 Gaussian 16:  ES64L-G16RevA.03 25-Dec-2016
                 1-Jun-2021 
 ******************************************
 %chk=CCNpCpNpNpCN.chk
 %NProcShared=20
 Will use up to   20 processors via shared memory.
 -----------------------------
 # opt freq b3lyp/6-31g(2df,p)
 -----------------------------
 1/18=20,19=15,26=3,38=1/1,3;
 2/9=110,12=2,17=6,18=5,40=1/2;
 3/5=1,6=6,7=104,11=2,25=1,30=1,71=1,74=-5/1,2,3;
 4//1;
 5/5=2,38=5/2;
 6/7=2,8=2,9=2,10=2,28=1/1;
 7//1,2,3,16;
 1/18=20,19=15,26=3/3(2);
 2/9=110/2;
 99//99;
 2/9=110/2;
 3/5=1,6=6,7=104,11=2,25=1,30=1,71=1,74=-5/1,2,3;
 4/5=5,16=3,69=1/1;
 5/5=2,38=5/2;
 7//1,2,3,16;
 1/18=20,19=15,26=3/3(-5);
 2/9=110/2;
 6/7=2,8=2,9=2,10=2,19=2,28=1/1;
 99/9=1/99;
 -------------------
 Title Card Required
 -------------------
 Symbolic Z-matrix:
 Charge =  0 Multiplicity = 1
 C                     0.84729  -0.04929   0.10547 
 C                     2.37214   0.01496   0.04274 
 N                     2.89017   0.40538  -1.2948 
 C                     2.4133    1.76786  -1.60351 
 N                     4.37225   0.39188  -1.28163 
 N                     4.85653  -0.94937  -0.99958 
 C                     4.9129    0.74373  -2.62553 
 N                     6.37829   0.72396  -2.58175 
 H                     0.52881  -0.42172   1.08391 
 H                     0.45834  -0.72781  -0.66073 
 H                     0.38187   0.93103  -0.0248 
 H                     2.70708  -0.99515   0.30509 
 H                     2.74778   0.69006   0.82329 
 H                     1.32156   1.81186  -1.63871 
 H                     2.70329   2.09154  -2.60657 
 H                     2.77268   2.50502  -0.87601 
 H                     4.69704  -1.18939  -0.0231 
 H                     5.87417  -0.93767  -1.11291 
 H                     4.64137   1.76427  -2.90752 
 H                     4.54602   0.06033  -3.40103 
 H                     6.65224   1.42256  -1.89553 
 H                     6.71103   1.06097  -3.48356 
 

 GradGradGradGradGradGradGradGradGradGradGradGradGradGradGradGradGradGrad
 Berny optimization.
 Initialization pass.
                           ----------------------------
                           !    Initial Parameters    !
                           ! (Angstroms and Degrees)  !
 --------------------------                            --------------------------
 ! Name  Definition              Value          Derivative Info.                !
 --------------------------------------------------------------------------------
 ! R1    R(1,2)                  1.5275         estimate D2E/DX2                !
 ! R2    R(1,9)                  1.0943         estimate D2E/DX2                !
 ! R3    R(1,10)                 1.0949         estimate D2E/DX2                !
 ! R4    R(1,11)                 1.093          estimate D2E/DX2                !
 ! R5    R(2,3)                  1.4865         estimate D2E/DX2                !
 ! R6    R(2,12)                 1.0961         estimate D2E/DX2                !
 ! R7    R(2,13)                 1.0982         estimate D2E/DX2                !
 ! R8    R(3,4)                  1.4762         estimate D2E/DX2                !
 ! R9    R(3,5)                  1.4822         estimate D2E/DX2                !
 ! R10   R(4,14)                 1.0932         estimate D2E/DX2                !
 ! R11   R(4,15)                 1.0932         estimate D2E/DX2                !
 ! R12   R(4,16)                 1.0963         estimate D2E/DX2                !
 ! R13   R(5,6)                  1.4536         estimate D2E/DX2                !
 ! R14   R(5,7)                  1.4907         estimate D2E/DX2                !
 ! R15   R(6,17)                 1.0181         estimate D2E/DX2                !
 ! R16   R(6,18)                 1.024          estimate D2E/DX2                !
 ! R17   R(7,8)                  1.4662         estimate D2E/DX2                !
 ! R18   R(7,19)                 1.093          estimate D2E/DX2                !
 ! R19   R(7,20)                 1.0968         estimate D2E/DX2                !
 ! R20   R(8,21)                 1.0169         estimate D2E/DX2                !
 ! R21   R(8,22)                 1.0186         estimate D2E/DX2                !
 ! A1    A(2,1,9)              109.9725         estimate D2E/DX2                !
 ! A2    A(2,1,10)             110.6074         estimate D2E/DX2                !
 ! A3    A(2,1,11)             112.4866         estimate D2E/DX2                !
 ! A4    A(9,1,10)             108.1445         estimate D2E/DX2                !
 ! A5    A(9,1,11)             106.732          estimate D2E/DX2                !
 ! A6    A(10,1,11)            108.7334         estimate D2E/DX2                !
 ! A7    A(1,2,3)              113.3206         estimate D2E/DX2                !
 ! A8    A(1,2,12)             104.8604         estimate D2E/DX2                !
 ! A9    A(1,2,13)             109.7621         estimate D2E/DX2                !
 ! A10   A(3,2,12)             110.5435         estimate D2E/DX2                !
 ! A11   A(3,2,13)             111.0297         estimate D2E/DX2                !
 ! A12   A(12,2,13)            106.9699         estimate D2E/DX2                !
 ! A13   A(2,3,4)              108.5422         estimate D2E/DX2                !
 ! A14   A(2,3,5)              109.7591         estimate D2E/DX2                !
 ! A15   A(4,3,5)              109.4683         estimate D2E/DX2                !
 ! A16   A(3,4,14)             111.5            estimate D2E/DX2                !
 ! A17   A(3,4,15)             112.3021         estimate D2E/DX2                !
 ! A18   A(3,4,16)             112.0834         estimate D2E/DX2                !
 ! A19   A(14,4,15)            102.9124         estimate D2E/DX2                !
 ! A20   A(14,4,16)            108.765          estimate D2E/DX2                !
 ! A21   A(15,4,16)            108.8355         estimate D2E/DX2                !
 ! A22   A(3,5,6)              110.0752         estimate D2E/DX2                !
 ! A23   A(3,5,7)              110.6399         estimate D2E/DX2                !
 ! A24   A(6,5,7)              105.7762         estimate D2E/DX2                !
 ! A25   A(5,6,17)             110.5749         estimate D2E/DX2                !
 ! A26   A(5,6,18)             107.4016         estimate D2E/DX2                !
 ! A27   A(17,6,18)            105.3385         estimate D2E/DX2                !
 ! A28   A(5,7,8)              109.4137         estimate D2E/DX2                !
 ! A29   A(5,7,19)             111.2759         estimate D2E/DX2                !
 ! A30   A(5,7,20)             111.6561         estimate D2E/DX2                !
 ! A31   A(8,7,19)             105.5795         estimate D2E/DX2                !
 ! A32   A(8,7,20)             110.3053         estimate D2E/DX2                !
 ! A33   A(19,7,20)            108.4357         estimate D2E/DX2                !
 ! A34   A(7,8,21)             106.2693         estimate D2E/DX2                !
 ! A35   A(7,8,22)             107.1929         estimate D2E/DX2                !
 ! A36   A(21,8,22)            106.3891         estimate D2E/DX2                !
 ! D1    D(9,1,2,3)            175.2393         estimate D2E/DX2                !
 ! D2    D(9,1,2,12)            54.5922         estimate D2E/DX2                !
 ! D3    D(9,1,2,13)           -60.0025         estimate D2E/DX2                !
 ! D4    D(10,1,2,3)            55.8561         estimate D2E/DX2                !
 ! D5    D(10,1,2,12)          -64.791          estimate D2E/DX2                !
 ! D6    D(10,1,2,13)         -179.3857         estimate D2E/DX2                !
 ! D7    D(11,1,2,3)           -65.9472         estimate D2E/DX2                !
 ! D8    D(11,1,2,12)          173.4057         estimate D2E/DX2                !
 ! D9    D(11,1,2,13)           58.811          estimate D2E/DX2                !
 ! D10   D(1,2,3,4)             62.5777         estimate D2E/DX2                !
 ! D11   D(1,2,3,5)           -177.8177         estimate D2E/DX2                !
 ! D12   D(12,2,3,4)           179.9519         estimate D2E/DX2                !
 ! D13   D(12,2,3,5)           -60.4434         estimate D2E/DX2                !
 ! D14   D(13,2,3,4)           -61.4926         estimate D2E/DX2                !
 ! D15   D(13,2,3,5)            58.1121         estimate D2E/DX2                !
 ! D16   D(2,3,4,14)           -61.1956         estimate D2E/DX2                !
 ! D17   D(2,3,4,15)          -176.1037         estimate D2E/DX2                !
 ! D18   D(2,3,4,16)            61.0084         estimate D2E/DX2                !
 ! D19   D(5,3,4,14)           179.0181         estimate D2E/DX2                !
 ! D20   D(5,3,4,15)            64.11           estimate D2E/DX2                !
 ! D21   D(5,3,4,16)           -58.7779         estimate D2E/DX2                !
 ! D22   D(2,3,5,6)             61.8622         estimate D2E/DX2                !
 ! D23   D(2,3,5,7)            178.4122         estimate D2E/DX2                !
 ! D24   D(4,3,5,6)           -179.1011         estimate D2E/DX2                !
 ! D25   D(4,3,5,7)            -62.5511         estimate D2E/DX2                !
 ! D26   D(3,5,6,17)           -72.351          estimate D2E/DX2                !
 ! D27   D(3,5,6,18)           173.2089         estimate D2E/DX2                !
 ! D28   D(7,5,6,17)           168.0955         estimate D2E/DX2                !
 ! D29   D(7,5,6,18)            53.6554         estimate D2E/DX2                !
 ! D30   D(3,5,7,8)            179.9313         estimate D2E/DX2                !
 ! D31   D(3,5,7,19)            63.6469         estimate D2E/DX2                !
 ! D32   D(3,5,7,20)           -57.6692         estimate D2E/DX2                !
 ! D33   D(6,5,7,8)            -60.8875         estimate D2E/DX2                !
 ! D34   D(6,5,7,19)          -177.172          estimate D2E/DX2                !
 ! D35   D(6,5,7,20)            61.512          estimate D2E/DX2                !
 ! D36   D(5,7,8,21)           -60.8039         estimate D2E/DX2                !
 ! D37   D(5,7,8,22)          -174.2556         estimate D2E/DX2                !
 ! D38   D(19,7,8,21)           59.0421         estimate D2E/DX2                !
 ! D39   D(19,7,8,22)          -54.4096         estimate D2E/DX2                !
 ! D40   D(20,7,8,21)          175.9928         estimate D2E/DX2                !
 ! D41   D(20,7,8,22)           62.5411         estimate D2E/DX2                !
 --------------------------------------------------------------------------------
 Trust Radius=3.00D-01 FncErr=1.00D-07 GrdErr=1.00D-06 EigMax=2.50D+02 EigMin=1.00D-04
 Number of steps in this run=    108 maximum allowed number of steps=    132.
 GradGradGradGradGradGradGradGradGradGradGradGradGradGradGradGradGradGrad

                          Input orientation:                          
 ---------------------------------------------------------------------
 Center     Atomic      Atomic             Coordinates (Angstroms)
 Number     Number       Type             X           Y           Z
 ---------------------------------------------------------------------
      1          6           0        0.847290   -0.049290    0.105470
      2          6           0        2.372140    0.014960    0.042740
      3          7           0        2.890170    0.405380   -1.294800
      4          6           0        2.413300    1.767860   -1.603510
      5          7           0        4.372250    0.391880   -1.281630
      6          7           0        4.856530   -0.949370   -0.999580
      7          6           0        4.912900    0.743730   -2.625530
      8          7           0        6.378290    0.723960   -2.581750
      9          1           0        0.528810   -0.421720    1.083910
     10          1           0        0.458340   -0.727810   -0.660730
     11          1           0        0.381870    0.931030   -0.024800
     12          1           0        2.707080   -0.995150    0.305090
     13          1           0        2.747780    0.690060    0.823290
     14          1           0        1.321560    1.811860   -1.638710
     15          1           0        2.703290    2.091540   -2.606570
     16          1           0        2.772680    2.505020   -0.876010
     17          1           0        4.697040   -1.189390   -0.023100
     18          1           0        5.874170   -0.937670   -1.112910
     19          1           0        4.641370    1.764270   -2.907520
     20          1           0        4.546020    0.060330   -3.401030
     21          1           0        6.652240    1.422560   -1.895530
     22          1           0        6.711030    1.060970   -3.483560
 ---------------------------------------------------------------------
                    Distance matrix (angstroms):
                    1          2          3          4          5
     1  C    0.000000
     2  C    1.527492   0.000000
     3  N    2.518102   1.486538   0.000000
     4  C    2.945341   2.405097   1.476163   0.000000
     5  N    3.813662   2.428264   1.482200   2.415453   0.000000
     6  N    4.255031   2.861565   2.406049   3.703707   1.453627
     7  C    4.961494   3.755826   2.444741   2.888143   1.490694
     8  N    6.197663   4.841474   3.731583   4.215190   2.413459
     9  H    1.094294   2.161617   3.452300   3.945604   4.585821
    10  H    1.094867   2.170071   2.756803   3.307427   4.117999
    11  H    1.092984   2.192013   2.860206   2.705424   4.218227
    12  H    2.096024   1.096054   2.134164   3.370947   2.685949
    13  H    2.161890   1.098237   2.141874   2.676357   2.675538
    14  H    2.594412   2.675788   2.134712   1.093193   3.383867
    15  H    3.922123   3.382409   2.144481   1.093157   2.725755
    16  H    3.345882   2.684201   2.144219   1.096273   2.681140
    17  H    4.017080   2.619151   2.724939   4.056907   2.046900
    18  H    5.248161   3.808838   3.277365   4.420204   2.012941
    19  H    5.173215   4.112606   2.741195   2.581618   2.144621
    20  H    5.097859   4.072759   2.701315   3.270356   2.152203
    21  H    6.314094   4.904843   3.943184   4.262994   2.576340
    22  H    6.963997   5.688136   4.451903   4.743919   3.281169
                    6          7          8          9         10
     6  N    0.000000
     7  C    2.348080   0.000000
     8  N    2.760262   1.466177   0.000000
     9  H    4.832029   5.859903   6.997575   0.000000
    10  H    4.416784   5.086155   6.390912   1.772689   0.000000
    11  H    4.950624   5.227725   6.522110   1.755210   1.778203
    12  H    2.514835   4.059295   4.976642   2.383326   2.461932
    13  H    3.233792   4.072467   4.977555   2.495557   3.074769
    14  H    4.530882   3.874589   5.257696   3.609708   2.855086
    15  H    4.057831   2.588306   3.921290   4.966335   4.095709
    16  H    4.036150   3.277729   4.368312   4.176368   3.981671
    17  H    1.018116   3.249029   3.610291   4.380517   4.311172
    18  H    1.023998   2.457471   2.274344   5.802163   5.438724
    19  H    3.324210   1.093046   2.050674   6.133777   5.362487
    20  H    2.623523   1.096830   2.113963   6.040284   4.983928
    21  H    3.106985   2.004748   1.016852   7.055128   6.671823
    22  H    3.694698   2.017456   1.018603   7.828154   7.089727
                   11         12         13         14         15
    11  H    0.000000
    12  H    3.037367   0.000000
    13  H    2.524847   1.763553   0.000000
    14  H    2.064845   3.684743   3.058428   0.000000
    15  H    3.660780   4.243281   3.705410   1.710015   0.000000
    16  H    2.986298   3.694657   2.486427   1.779868   1.780623
    17  H    4.808001   2.026173   2.836957   4.797037   4.627511
    18  H    5.902659   3.470517   4.021528   5.344403   4.632668
    19  H    5.210346   4.655829   4.319555   3.554333   1.988424
    20  H    5.431132   4.269785   4.634124   4.070721   2.855282
    21  H    6.561918   5.123703   4.813870   5.351043   4.067840
    22  H    7.213749   5.883291   5.864630   5.745754   4.230031
                   16         17         18         19         20
    16  H    0.000000
    17  H    4.251974   0.000000
    18  H    4.639771   1.623787   0.000000
    19  H    2.857927   4.128812   3.470000   0.000000
    20  H    3.936619   3.604860   2.827628   1.776529   0.000000
    21  H    4.154772   3.761793   2.605489   2.276947   2.925468
    22  H    4.939150   4.592936   3.211678   2.260519   2.386495
                   21         22
    21  H    0.000000
    22  H    1.629737   0.000000
 Stoichiometry    C4H14N4
 Framework group  C1[X(C4H14N4)]
 Deg. of freedom    60
 Full point group                 C1      NOp   1
 Largest Abelian subgroup         C1      NOp   1
 Largest concise Abelian subgroup C1      NOp   1
                         Standard orientation:                         
 ---------------------------------------------------------------------
 Center     Atomic      Atomic             Coordinates (Angstroms)
 Number     Number       Type             X           Y           Z
 ---------------------------------------------------------------------
      1          6           0       -3.124421   -0.215461   -0.192419
      2          6           0       -1.734023   -0.602193    0.308043
      3          7           0       -0.648318    0.236950   -0.263692
      4          6           0       -0.859897    1.633808    0.164188
      5          7           0        0.665528   -0.237808    0.231615
      6          7           0        0.896881   -1.606269   -0.200615
      7          6           0        1.772155    0.566725   -0.360224
      8          7           0        3.056992    0.076389    0.148146
      9          1           0       -3.869485   -0.917518    0.194198
     10          1           0       -3.162538   -0.245898   -1.286199
     11          1           0       -3.427029    0.780200    0.141796
     12          1           0       -1.608827   -1.649229    0.009083
     13          1           0       -1.714420   -0.577753    1.405832
     14          1           0       -1.814364    2.023888   -0.198992
     15          1           0       -0.131772    2.318235   -0.278967
     16          1           0       -0.827491    1.740192    1.254806
     17          1           0        0.301566   -2.250302    0.316473
     18          1           0        1.855308   -1.852672    0.062586
     19          1           0        1.712877    1.612631   -0.048269
     20          1           0        1.757629    0.530342   -1.456354
     21          1           0        3.029789    0.199418    1.157161
     22          1           0        3.778293    0.706361   -0.198860
 ---------------------------------------------------------------------
 Rotational constants (GHZ):           4.1145508           1.1259518           0.9333257
 Standard basis: 6-31G(2df,p) (6D, 7F)
 There are   318 symmetry adapted cartesian basis functions of A   symmetry.
 There are   294 symmetry adapted basis functions of A   symmetry.
   294 basis functions,   450 primitive gaussians,   318 cartesian basis functions
    33 alpha electrons       33 beta electrons
       nuclear repulsion energy       423.9775697849 Hartrees.
 NAtoms=   22 NActive=   22 NUniq=   22 SFac= 1.00D+00 NAtFMM=   60 NAOKFM=F Big=F
 Integral buffers will be    131072 words long.
 Raffenetti 2 integral format.
 Two-electron integral symmetry is turned on.
 One-electron integrals computed using PRISM.
 PrsmSu:  requested number of processors reduced to:  13 ShMem   1 Linda.
 NBasis=   294 RedAO= T EigKep=  2.80D-04  NBF=   294
 NBsUse=   294 1.00D-06 EigRej= -1.00D+00 NBFU=   294
 ExpMin= 1.61D-01 ExpMax= 4.17D+03 ExpMxC= 6.27D+02 IAcc=3 IRadAn=         5 AccDes= 0.00D+00
 Harris functional with IExCor=  402 and IRadAn=       5 diagonalized for initial guess.
 HarFok:  IExCor=  402 AccDes= 0.00D+00 IRadAn=         5 IDoV= 1 UseB2=F ITyADJ=14
 ICtDFT=  3500011 ScaDFX=  1.000000  1.000000  1.000000  1.000000
 FoFCou: FMM=F IPFlag=           0 FMFlag=      100000 FMFlg1=           0
         NFxFlg=           0 DoJE=T BraDBF=F KetDBF=T FulRan=T
         wScrn=  0.000000 ICntrl=       500 IOpCl=  0 I1Cent=   200000004 NGrid=           0
         NMat0=    1 NMatS0=      1 NMatT0=    0 NMatD0=    1 NMtDS0=    0 NMtDT0=    0
 Petite list used in FoFCou.
 Requested convergence on RMS density matrix=1.00D-08 within 128 cycles.
 Requested convergence on MAX density matrix=1.00D-06.
 Requested convergence on             energy=1.00D-06.
 No special actions if energy rises.
 Integral accuracy reduced to 1.0D-05 until final iterations.
 Initial convergence to 1.0D-05 achieved.  Increase integral accuracy.
 SCF Done:  E(RB3LYP) =  -379.779630108     A.U. after   12 cycles
            NFock= 12  Conv=0.68D-08     -V/T= 2.0082

 **********************************************************************

            Population analysis using the SCF density.

 **********************************************************************

 Orbital symmetries:
       Occupied  (A) (A) (A) (A) (A) (A) (A) (A) (A) (A) (A) (A)
                 (A) (A) (A) (A) (A) (A) (A) (A) (A) (A) (A) (A)
                 (A) (A) (A) (A) (A) (A) (A) (A) (A)
       Virtual   (A) (A) (A) (A) (A) (A) (A) (A) (A) (A) (A) (A)
                 (A) (A) (A) (A) (A) (A) (A) (A) (A) (A) (A) (A)
                 (A) (A) (A) (A) (A) (A) (A) (A) (A) (A) (A) (A)
                 (A) (A) (A) (A) (A) (A) (A) (A) (A) (A) (A) (A)
                 (A) (A) (A) (A) (A) (A) (A) (A) (A) (A) (A) (A)
                 (A) (A) (A) (A) (A) (A) (A) (A) (A) (A) (A) (A)
                 (A) (A) (A) (A) (A) (A) (A) (A) (A) (A) (A) (A)
                 (A) (A) (A) (A) (A) (A) (A) (A) (A) (A) (A) (A)
                 (A) (A) (A) (A) (A) (A) (A) (A) (A) (A) (A) (A)
                 (A) (A) (A) (A) (A) (A) (A) (A) (A) (A) (A) (A)
                 (A) (A) (A) (A) (A) (A) (A) (A) (A) (A) (A) (A)
                 (A) (A) (A) (A) (A) (A) (A) (A) (A) (A) (A) (A)
                 (A) (A) (A) (A) (A) (A) (A) (A) (A) (A) (A) (A)
                 (A) (A) (A) (A) (A) (A) (A) (A) (A) (A) (A) (A)
                 (A) (A) (A) (A) (A) (A) (A) (A) (A) (A) (A) (A)
                 (A) (A) (A) (A) (A) (A) (A) (A) (A) (A) (A) (A)
                 (A) (A) (A) (A) (A) (A) (A) (A) (A) (A) (A) (A)
                 (A) (A) (A) (A) (A) (A) (A) (A) (A) (A) (A) (A)
                 (A) (A) (A) (A) (A) (A) (A) (A) (A) (A) (A) (A)
                 (A) (A) (A) (A) (A) (A) (A) (A) (A) (A) (A) (A)
                 (A) (A) (A) (A) (A) (A) (A) (A) (A) (A) (A) (A)
                 (A) (A) (A) (A) (A) (A) (A) (A) (A)
 The electronic state is 1-A.
 Alpha  occ. eigenvalues --  -14.36105 -14.33967 -14.31807 -14.31376 -10.22513
 Alpha  occ. eigenvalues --  -10.20117 -10.19539 -10.17326  -0.98131  -0.88778
 Alpha  occ. eigenvalues --   -0.85960  -0.76203  -0.71860  -0.67446  -0.60845
 Alpha  occ. eigenvalues --   -0.56622  -0.51791  -0.49692  -0.46486  -0.45949
 Alpha  occ. eigenvalues --   -0.42998  -0.42015  -0.41235  -0.40284  -0.39398
 Alpha  occ. eigenvalues --   -0.37316  -0.35957  -0.34800  -0.33670  -0.32217
 Alpha  occ. eigenvalues --   -0.24230  -0.23616  -0.15903
 Alpha virt. eigenvalues --    0.07568   0.09349   0.10168   0.13282   0.13676
 Alpha virt. eigenvalues --    0.14201   0.14777   0.16031   0.16322   0.16913
 Alpha virt. eigenvalues --    0.17702   0.18343   0.19154   0.20040   0.21391
 Alpha virt. eigenvalues --    0.22310   0.23084   0.23516   0.25981   0.26585
 Alpha virt. eigenvalues --    0.27498   0.43365   0.44387   0.47142   0.48499
 Alpha virt. eigenvalues --    0.50179   0.51429   0.53066   0.53646   0.56134
 Alpha virt. eigenvalues --    0.57340   0.57745   0.59963   0.62211   0.65163
 Alpha virt. eigenvalues --    0.65781   0.66984   0.68764   0.70470   0.71491
 Alpha virt. eigenvalues --    0.72234   0.73302   0.73958   0.74256   0.75366
 Alpha virt. eigenvalues --    0.75411   0.76768   0.77672   0.78298   0.78786
 Alpha virt. eigenvalues --    0.80004   0.81192   0.82456   0.84664   0.86482
 Alpha virt. eigenvalues --    0.87856   0.89047   0.89339   0.90070   0.92421
 Alpha virt. eigenvalues --    0.93367   0.93953   0.98467   1.01147   1.04565
 Alpha virt. eigenvalues --    1.08431   1.13142   1.17997   1.20757   1.21669
 Alpha virt. eigenvalues --    1.23243   1.26357   1.28536   1.32224   1.34415
 Alpha virt. eigenvalues --    1.36453   1.39658   1.40833   1.41699   1.45870
 Alpha virt. eigenvalues --    1.47078   1.49258   1.51384   1.54086   1.57170
 Alpha virt. eigenvalues --    1.58711   1.59471   1.61325   1.63644   1.64388
 Alpha virt. eigenvalues --    1.67057   1.68838   1.73191   1.76610   1.78981
 Alpha virt. eigenvalues --    1.81133   1.81990   1.85742   1.87029   1.89157
 Alpha virt. eigenvalues --    1.92083   1.96336   1.97071   1.98776   1.99994
 Alpha virt. eigenvalues --    2.07258   2.07835   2.11575   2.17108   2.19761
 Alpha virt. eigenvalues --    2.20866   2.24321   2.27123   2.28958   2.31591
 Alpha virt. eigenvalues --    2.34257   2.36508   2.39432   2.39826   2.46597
 Alpha virt. eigenvalues --    2.49881   2.52151   2.53989   2.56395   2.59540
 Alpha virt. eigenvalues --    2.64648   2.68337   2.72524   2.75183   2.76487
 Alpha virt. eigenvalues --    2.79065   2.81568   2.83094   2.83823   2.85448
 Alpha virt. eigenvalues --    2.86358   2.88123   2.89016   2.90187   2.92387
 Alpha virt. eigenvalues --    2.93750   2.94118   2.95047   2.98740   2.99069
 Alpha virt. eigenvalues --    3.01894   3.05025   3.06519   3.07141   3.14865
 Alpha virt. eigenvalues --    3.16218   3.18307   3.22481   3.26618   3.29767
 Alpha virt. eigenvalues --    3.30705   3.34043   3.34643   3.36434   3.37515
 Alpha virt. eigenvalues --    3.39390   3.43373   3.45581   3.48785   3.54552
 Alpha virt. eigenvalues --    3.56220   3.56489   3.60807   3.62716   3.64259
 Alpha virt. eigenvalues --    3.67198   3.69182   3.72737   3.75362   3.79280
 Alpha virt. eigenvalues --    3.79908   3.85601   3.86103   3.93736   3.95816
 Alpha virt. eigenvalues --    3.96599   3.97650   4.03126   4.06994   4.09802
 Alpha virt. eigenvalues --    4.13990   4.15831   4.17757   4.20728   4.23727
 Alpha virt. eigenvalues --    4.26010   4.28836   4.32366   4.34896   4.35994
 Alpha virt. eigenvalues --    4.36594   4.40111   4.40713   4.42695   4.43978
 Alpha virt. eigenvalues --    4.46348   4.47431   4.48269   4.50111   4.50823
 Alpha virt. eigenvalues --    4.53130   4.55616   4.57148   4.59607   4.60328
 Alpha virt. eigenvalues --    4.62336   4.63280   4.64736   4.66544   4.67258
 Alpha virt. eigenvalues --    4.69881   4.71033   4.73113   4.74255   4.77307
 Alpha virt. eigenvalues --    4.80962   4.81595   4.83133   4.83819   4.86421
 Alpha virt. eigenvalues --    4.87586   4.88252   4.90195   4.93252   4.95555
 Alpha virt. eigenvalues --    5.00281   5.03509   5.06900   5.09047   5.13422
 Alpha virt. eigenvalues --    5.20171   5.20986   5.25934   5.31199   5.33191
 Alpha virt. eigenvalues --    5.37150   5.39970   5.42987   5.47561   5.49397
 Alpha virt. eigenvalues --    5.59522   5.62528   5.66773   5.76599   8.61967
 Alpha virt. eigenvalues --   10.25732  11.18687  11.20877  11.42902  11.44643
 Alpha virt. eigenvalues --   11.55487  11.61537  11.94200  12.34479  14.14217
 Alpha virt. eigenvalues --   17.04678
          Condensed to atoms (all electrons):
               1          2          3          4          5          6
     1  C    4.985427   0.402440  -0.035631  -0.003085   0.001961   0.000029
     2  C    0.402440   4.797866   0.387291  -0.071321  -0.046134  -0.005196
     3  N   -0.035631   0.387291   6.347471   0.372104   0.229318  -0.036163
     4  C   -0.003085  -0.071321   0.372104   4.968990  -0.047868   0.003069
     5  N    0.001961  -0.046134   0.229318  -0.047868   6.519318   0.256612
     6  N    0.000029  -0.005196  -0.036163   0.003069   0.256612   6.656099
     7  C   -0.000208   0.003036  -0.052335  -0.009998   0.377452  -0.062219
     8  N    0.000000  -0.000098   0.001866   0.000018  -0.039562  -0.014929
     9  H    0.370501  -0.022709   0.002298   0.000077  -0.000051   0.000007
    10  H    0.370584  -0.024743   0.003080  -0.000064   0.000030   0.000038
    11  H    0.379067  -0.028609  -0.002434  -0.000650  -0.000005  -0.000004
    12  H   -0.029845   0.365328  -0.024144   0.005567  -0.001705   0.003553
    13  H   -0.043309   0.335703  -0.047806  -0.008293   0.011388  -0.001010
    14  H   -0.000090  -0.004414  -0.022951   0.380912   0.002454  -0.000083
    15  H    0.000251   0.005209  -0.022664   0.375537  -0.002129   0.000091
    16  H   -0.000174  -0.008605  -0.044484   0.346983   0.008353  -0.000130
    17  H   -0.000284   0.003873  -0.001990  -0.000367  -0.045956   0.326419
    18  H    0.000001   0.000079   0.003868  -0.000242  -0.032549   0.328226
    19  H   -0.000000   0.000036  -0.001924  -0.001971  -0.031466   0.003338
    20  H    0.000014   0.000275   0.008121   0.002536  -0.038031   0.007956
    21  H    0.000000   0.000003  -0.000091   0.000025   0.009634  -0.000155
    22  H   -0.000000   0.000002  -0.000115   0.000009   0.003769   0.000385
               7          8          9         10         11         12
     1  C   -0.000208   0.000000   0.370501   0.370584   0.379067  -0.029845
     2  C    0.003036  -0.000098  -0.022709  -0.024743  -0.028609   0.365328
     3  N   -0.052335   0.001866   0.002298   0.003080  -0.002434  -0.024144
     4  C   -0.009998   0.000018   0.000077  -0.000064  -0.000650   0.005567
     5  N    0.377452  -0.039562  -0.000051   0.000030  -0.000005  -0.001705
     6  N   -0.062219  -0.014929   0.000007   0.000038  -0.000004   0.003553
     7  C    4.835860   0.357255   0.000002   0.000002   0.000000   0.000211
     8  N    0.357255   6.588655  -0.000000   0.000000   0.000000  -0.000005
     9  H    0.000002  -0.000000   0.596528  -0.028614  -0.030868  -0.003207
    10  H    0.000002   0.000000  -0.028614   0.582681  -0.034378  -0.005369
    11  H    0.000000   0.000000  -0.030868  -0.034378   0.596052   0.005438
    12  H    0.000211  -0.000005  -0.003207  -0.005369   0.005438   0.630912
    13  H    0.000276  -0.000001   0.001025   0.006650  -0.005153  -0.051607
    14  H   -0.000071  -0.000009  -0.000036   0.000769   0.002791   0.000182
    15  H   -0.000474  -0.000182  -0.000007  -0.000082  -0.000206  -0.000203
    16  H    0.000577  -0.000053   0.000027   0.000324   0.000536  -0.000269
    17  H    0.003779   0.000673   0.000003   0.000009   0.000007  -0.001004
    18  H   -0.012447   0.029356  -0.000000   0.000000   0.000000  -0.000252
    19  H    0.388857  -0.041435   0.000000  -0.000000   0.000001   0.000005
    20  H    0.330234  -0.031727   0.000000   0.000010  -0.000000  -0.000014
    21  H   -0.054776   0.328403   0.000000   0.000000   0.000000  -0.000001
    22  H   -0.045900   0.339361   0.000000   0.000000   0.000000   0.000000
              13         14         15         16         17         18
     1  C   -0.043309  -0.000090   0.000251  -0.000174  -0.000284   0.000001
     2  C    0.335703  -0.004414   0.005209  -0.008605   0.003873   0.000079
     3  N   -0.047806  -0.022951  -0.022664  -0.044484  -0.001990   0.003868
     4  C   -0.008293   0.380912   0.375537   0.346983  -0.000367  -0.000242
     5  N    0.011388   0.002454  -0.002129   0.008353  -0.045956  -0.032549
     6  N   -0.001010  -0.000083   0.000091  -0.000130   0.326419   0.328226
     7  C    0.000276  -0.000071  -0.000474   0.000577   0.003779  -0.012447
     8  N   -0.000001  -0.000009  -0.000182  -0.000053   0.000673   0.029356
     9  H    0.001025  -0.000036  -0.000007   0.000027   0.000003  -0.000000
    10  H    0.006650   0.000769  -0.000082   0.000324   0.000009   0.000000
    11  H   -0.005153   0.002791  -0.000206   0.000536   0.000007   0.000000
    12  H   -0.051607   0.000182  -0.000203  -0.000269  -0.001004  -0.000252
    13  H    0.707136  -0.000418  -0.000355   0.017186   0.000080   0.000018
    14  H   -0.000418   0.580206  -0.029307  -0.039179  -0.000006   0.000004
    15  H   -0.000355  -0.029307   0.597977  -0.045831   0.000003   0.000001
    16  H    0.017186  -0.039179  -0.045831   0.668379  -0.000034   0.000017
    17  H    0.000080  -0.000006   0.000003  -0.000034   0.509868  -0.028785
    18  H    0.000018   0.000004   0.000001   0.000017  -0.028785   0.459244
    19  H   -0.000022   0.000056   0.003040   0.000519  -0.000263   0.000752
    20  H    0.000107  -0.000041  -0.000584   0.000656  -0.000463  -0.000684
    21  H    0.000022  -0.000001  -0.000058   0.000153  -0.000145  -0.001140
    22  H    0.000000  -0.000000  -0.000027   0.000007   0.000004  -0.000596
              19         20         21         22
     1  C   -0.000000   0.000014   0.000000  -0.000000
     2  C    0.000036   0.000275   0.000003   0.000002
     3  N   -0.001924   0.008121  -0.000091  -0.000115
     4  C   -0.001971   0.002536   0.000025   0.000009
     5  N   -0.031466  -0.038031   0.009634   0.003769
     6  N    0.003338   0.007956  -0.000155   0.000385
     7  C    0.388857   0.330234  -0.054776  -0.045900
     8  N   -0.041435  -0.031727   0.328403   0.339361
     9  H    0.000000   0.000000   0.000000   0.000000
    10  H   -0.000000   0.000010   0.000000   0.000000
    11  H    0.000001  -0.000000   0.000000   0.000000
    12  H    0.000005  -0.000014  -0.000001   0.000000
    13  H   -0.000022   0.000107   0.000022   0.000000
    14  H    0.000056  -0.000041  -0.000001  -0.000000
    15  H    0.003040  -0.000584  -0.000058  -0.000027
    16  H    0.000519   0.000656   0.000153   0.000007
    17  H   -0.000263  -0.000463  -0.000145   0.000004
    18  H    0.000752  -0.000684  -0.001140  -0.000596
    19  H    0.650291  -0.052966  -0.006870  -0.003749
    20  H   -0.052966   0.663624   0.008364   0.000198
    21  H   -0.006870   0.008364   0.514354  -0.027108
    22  H   -0.003749   0.000198  -0.027108   0.501568
 Mulliken charges:
               1
     1  C   -0.397648
     2  C   -0.089311
     3  N   -0.062684
     4  C   -0.311968
     5  N   -0.134833
     6  N   -0.465933
     7  C   -0.059116
     8  N   -0.517587
     9  H    0.115024
    10  H    0.129074
    11  H    0.118418
    12  H    0.106429
    13  H    0.078383
    14  H    0.129234
    15  H    0.120000
    16  H    0.095041
    17  H    0.234580
    18  H    0.255128
    19  H    0.093772
    20  H    0.102416
    21  H    0.229390
    22  H    0.232193
 Sum of Mulliken charges =  -0.00000
 Mulliken charges with hydrogens summed into heavy atoms:
               1
     1  C   -0.035132
     2  C    0.095500
     3  N   -0.062684
     4  C    0.032307
     5  N   -0.134833
     6  N    0.023774
     7  C    0.137072
     8  N   -0.056004
 Electronic spatial extent (au):  <R**2>=           1310.4143
 Charge=             -0.0000 electrons
 Dipole moment (field-independent basis, Debye):
    X=              0.2149    Y=              1.2664    Z=              1.4183  Tot=              1.9135
 Quadrupole moment (field-independent basis, Debye-Ang):
   XX=            -45.5251   YY=            -47.0556   ZZ=            -53.6034
   XY=              4.4593   XZ=              1.0524   YZ=             -2.5949
 Traceless Quadrupole moment (field-independent basis, Debye-Ang):
   XX=              3.2029   YY=              1.6725   ZZ=             -4.8754
   XY=              4.4593   XZ=              1.0524   YZ=             -2.5949
 Octapole moment (field-independent basis, Debye-Ang**2):
  XXX=             21.5971  YYY=             -8.1739  ZZZ=              2.1155  XYY=              4.0693
  XXY=             12.7995  XXZ=              4.0591  XZZ=              6.2441  YZZ=              1.3469
  YYZ=              4.3345  XYZ=             -2.2542
 Hexadecapole moment (field-independent basis, Debye-Ang**3):
 XXXX=          -1187.7900 YYYY=           -337.6716 ZZZZ=           -105.2425 XXXY=             57.7786
 XXXZ=             10.8958 YYYX=             -5.9396 YYYZ=            -13.1999 ZZZX=              8.4472
 ZZZY=             -1.4834 XXYY=           -252.9122 XXZZ=           -216.1772 YYZZ=            -83.8302
 XXYZ=             -5.0533 YYXZ=              3.8343 ZZXY=              3.4508
 N-N= 4.239775697849D+02 E-N=-1.731342309066D+03  KE= 3.767061870584D+02
 PrsmSu:  requested number of processors reduced to:  13 ShMem   1 Linda.
 Calling FoFJK, ICntrl=      2127 FMM=F ISym2X=0 I1Cent= 0 IOpClX= 0 NMat=1 NMatS=1 NMatT=0.
 ***** Axes restored to original set *****
 -------------------------------------------------------------------
 Center     Atomic                   Forces (Hartrees/Bohr)
 Number     Number              X              Y              Z
 -------------------------------------------------------------------
      1        6          -0.002482238    0.002346809   -0.002816088
      2        6           0.003729960   -0.003075010   -0.003444568
      3        7          -0.011979367   -0.009423341   -0.006021872
      4        6           0.004386207   -0.002869537   -0.004667289
      5        7           0.016376796    0.026521881    0.007035803
      6        7          -0.007743319   -0.021182383   -0.008476302
      7        6          -0.002747467    0.002820968    0.004258699
      8        7           0.001558752   -0.007239955    0.004038573
      9        1           0.001771009   -0.000867787    0.000203534
     10        1          -0.000035578    0.001111600   -0.000150471
     11        1          -0.001086117   -0.000860468   -0.000025102
     12        1           0.004885103    0.002338735   -0.005332048
     13        1           0.002443418    0.003554762    0.002500780
     14        1           0.001746818   -0.006254487    0.005145589
     15        1           0.004337348   -0.002762029    0.001971556
     16        1           0.001896407    0.004182053    0.002119560
     17        1          -0.000277559    0.011047744   -0.000140436
     18        1          -0.007355482    0.008169898   -0.003916842
     19        1          -0.014299373   -0.001603393    0.005856669
     20        1           0.001366177   -0.004255878   -0.000405362
     21        1           0.002234375    0.001083167   -0.000146144
     22        1           0.001274130   -0.002783350    0.002411759
 -------------------------------------------------------------------
 Cartesian Forces:  Max     0.026521881 RMS     0.006553465

 GradGradGradGradGradGradGradGradGradGradGradGradGradGradGradGradGradGrad
 Berny optimization.
 FormGI is forming the generalized inverse of G from B-inverse, IUseBI=4.
 Internal  Forces:  Max     0.021113296 RMS     0.005694797
 Search for a local minimum.
 Step number   1 out of a maximum of  108
 All quantities printed in internal units (Hartrees-Bohrs-Radians)
 Mixed Optimization -- RFO/linear search
 Second derivative matrix not updated -- first step.
 ITU=  0
     Eigenvalues ---    0.00230   0.00402   0.00492   0.00547   0.00585
     Eigenvalues ---    0.00684   0.00816   0.03311   0.03743   0.04009
     Eigenvalues ---    0.05057   0.05283   0.05402   0.05548   0.05679
     Eigenvalues ---    0.05760   0.06542   0.06803   0.07174   0.09323
     Eigenvalues ---    0.09502   0.12899   0.12953   0.15993   0.16000
     Eigenvalues ---    0.16000   0.16000   0.16000   0.16000   0.16000
     Eigenvalues ---    0.16000   0.16000   0.16000   0.16000   0.16414
     Eigenvalues ---    0.17697   0.18302   0.21970   0.21971   0.29656
     Eigenvalues ---    0.33374   0.33832   0.33878   0.34035   0.34098
     Eigenvalues ---    0.34122   0.34256   0.34319   0.34321   0.34446
     Eigenvalues ---    0.34450   0.34463   0.34470   0.35013   0.36202
     Eigenvalues ---    0.37774   0.43706   0.44562   0.44640   0.44844
 RFO step:  Lambda=-2.15354879D-02 EMin= 2.30000000D-03
 Linear search not attempted -- first point.
 Iteration  1 RMS(Cart)=  0.10636440 RMS(Int)=  0.00502050
 Iteration  2 RMS(Cart)=  0.00734615 RMS(Int)=  0.00166060
 Iteration  3 RMS(Cart)=  0.00004072 RMS(Int)=  0.00166014
 Iteration  4 RMS(Cart)=  0.00000004 RMS(Int)=  0.00166014
 Variable       Old X    -DE/DX   Delta X   Delta X   Delta X     New X
                                 (Linear)    (Quad)   (Total)
    R1        2.88654   0.00164   0.00000   0.00516   0.00516   2.89170
    R2        2.06792  -0.00004   0.00000  -0.00010  -0.00010   2.06781
    R3        2.06900  -0.00057   0.00000  -0.00157  -0.00157   2.06743
    R4        2.06544  -0.00031   0.00000  -0.00084  -0.00084   2.06460
    R5        2.80915  -0.01256   0.00000  -0.03492  -0.03492   2.77423
    R6        2.07124  -0.00194   0.00000  -0.00534  -0.00534   2.06590
    R7        2.07537   0.00480   0.00000   0.01332   0.01332   2.08868
    R8        2.78954  -0.01206   0.00000  -0.03245  -0.03245   2.75709
    R9        2.80095  -0.00963   0.00000  -0.02641  -0.02641   2.77454
   R10        2.06584  -0.00216   0.00000  -0.00591  -0.00591   2.05993
   R11        2.06577  -0.00148   0.00000  -0.00403  -0.00403   2.06173
   R12        2.07166   0.00484   0.00000   0.01335   0.01335   2.08501
   R13        2.74696  -0.00574   0.00000  -0.01438  -0.01438   2.73258
   R14        2.81700  -0.02111   0.00000  -0.05943  -0.05943   2.75757
   R15        1.92396  -0.00270   0.00000  -0.00576  -0.00576   1.91820
   R16        1.93508  -0.00678   0.00000  -0.01479  -0.01479   1.92029
   R17        2.77067   0.00537   0.00000   0.01401   0.01401   2.78468
   R18        2.06556   0.00054   0.00000   0.00149   0.00149   2.06704
   R19        2.07271   0.00248   0.00000   0.00686   0.00686   2.07957
   R20        1.92157   0.00125   0.00000   0.00265   0.00265   1.92423
   R21        1.92488  -0.00264   0.00000  -0.00565  -0.00565   1.91923
    A1        1.91938  -0.00297   0.00000  -0.01707  -0.01705   1.90233
    A2        1.93046   0.00022   0.00000   0.00060   0.00056   1.93102
    A3        1.96326   0.00241   0.00000   0.01461   0.01463   1.97789
    A4        1.88748   0.00095   0.00000   0.00257   0.00252   1.89000
    A5        1.86282   0.00057   0.00000   0.00438   0.00445   1.86728
    A6        1.89776  -0.00120   0.00000  -0.00526  -0.00529   1.89247
    A7        1.97782   0.00014   0.00000   0.00055   0.00060   1.97841
    A8        1.83016   0.00481   0.00000   0.03181   0.03158   1.86174
    A9        1.91571   0.00063   0.00000   0.01543   0.01524   1.93095
   A10        1.92935  -0.00604   0.00000  -0.05429  -0.05423   1.87511
   A11        1.93783   0.00035   0.00000   0.00269   0.00256   1.94040
   A12        1.86698   0.00029   0.00000   0.00515   0.00444   1.87142
   A13        1.89442   0.00780   0.00000   0.02516   0.02391   1.91833
   A14        1.91566  -0.00705   0.00000  -0.05135  -0.05128   1.86437
   A15        1.91058  -0.00336   0.00000  -0.03119  -0.03116   1.87942
   A16        1.94604  -0.00931   0.00000  -0.05097  -0.05111   1.89493
   A17        1.96004  -0.00437   0.00000  -0.02222  -0.02234   1.93770
   A18        1.95622   0.00364   0.00000   0.01783   0.01790   1.97413
   A19        1.79616   0.00798   0.00000   0.04836   0.04801   1.84417
   A20        1.89831   0.00237   0.00000   0.00965   0.00971   1.90802
   A21        1.89954   0.00022   0.00000   0.00061   0.00069   1.90022
   A22        1.92118  -0.00922   0.00000  -0.09111  -0.09472   1.82646
   A23        1.93103   0.00163   0.00000  -0.02738  -0.03322   1.89781
   A24        1.84614  -0.00173   0.00000  -0.04804  -0.05286   1.79328
   A25        1.92990  -0.01603   0.00000  -0.10189  -0.10441   1.82548
   A26        1.87451  -0.01421   0.00000  -0.09295  -0.09576   1.77875
   A27        1.83850   0.00742   0.00000   0.00953   0.00090   1.83941
   A28        1.90963  -0.01177   0.00000  -0.05114  -0.05126   1.85837
   A29        1.94213  -0.00697   0.00000  -0.05125  -0.04985   1.89228
   A30        1.94877   0.00334   0.00000  -0.01054  -0.01201   1.93675
   A31        1.84271   0.01680   0.00000   0.12534   0.12496   1.96767
   A32        1.92519  -0.00012   0.00000  -0.01642  -0.01841   1.90678
   A33        1.89256  -0.00052   0.00000   0.01135   0.00955   1.90211
   A34        1.85475   0.00311   0.00000   0.02029   0.02009   1.87484
   A35        1.87087   0.00375   0.00000   0.02375   0.02355   1.89442
   A36        1.85684  -0.00153   0.00000  -0.00065  -0.00113   1.85571
    D1        3.05850  -0.00235   0.00000  -0.03703  -0.03707   3.02143
    D2        0.95281   0.00181   0.00000   0.00830   0.00853   0.96134
    D3       -1.04724  -0.00130   0.00000  -0.02113  -0.02122  -1.06846
    D4        0.97487  -0.00178   0.00000  -0.02973  -0.02981   0.94506
    D5       -1.13082   0.00238   0.00000   0.01560   0.01579  -1.11503
    D6       -3.13087  -0.00073   0.00000  -0.01383  -0.01396   3.13835
    D7       -1.15100  -0.00208   0.00000  -0.03360  -0.03370  -1.18470
    D8        3.02650   0.00208   0.00000   0.01173   0.01190   3.03840
    D9        1.02645  -0.00103   0.00000  -0.01771  -0.01785   1.00859
   D10        1.09219   0.00207   0.00000   0.05461   0.05469   1.14687
   D11       -3.10350  -0.00146   0.00000   0.00161   0.00141  -3.10210
   D12        3.14075   0.00414   0.00000   0.05834   0.05843  -3.08400
   D13       -1.05494   0.00061   0.00000   0.00534   0.00515  -1.04979
   D14       -1.07325   0.00085   0.00000   0.03163   0.03189  -1.04136
   D15        1.01425  -0.00268   0.00000  -0.02137  -0.02140   0.99285
   D16       -1.06807  -0.00170   0.00000  -0.00923  -0.00923  -1.07729
   D17       -3.07359  -0.00302   0.00000  -0.02335  -0.02370  -3.09729
   D18        1.06480  -0.00278   0.00000  -0.02092  -0.02108   1.04371
   D19        3.12445   0.00415   0.00000   0.05635   0.05669  -3.10204
   D20        1.11893   0.00283   0.00000   0.04222   0.04222   1.16115
   D21       -1.02587   0.00307   0.00000   0.04465   0.04483  -0.98104
   D22        1.07970   0.00035   0.00000   0.01629   0.01429   1.09398
   D23        3.11388  -0.00637   0.00000  -0.11385  -0.11334   3.00054
   D24       -3.12590   0.00359   0.00000  -0.00289  -0.00341  -3.12931
   D25       -1.09172  -0.00313   0.00000  -0.13304  -0.13103  -1.22275
   D26       -1.26276  -0.00858   0.00000  -0.20761  -0.20155  -1.46432
   D27        3.02307  -0.00124   0.00000  -0.11490  -0.11682   2.90624
   D28        2.93382  -0.00461   0.00000  -0.09868  -0.09675   2.83707
   D29        0.93646   0.00273   0.00000  -0.00596  -0.01202   0.92444
   D30        3.14039   0.00982   0.00000   0.09423   0.09382  -3.04897
   D31        1.11085   0.00052   0.00000   0.00213   0.00179   1.11263
   D32       -1.00652   0.00374   0.00000   0.03089   0.03076  -0.97575
   D33       -1.06269  -0.00134   0.00000  -0.05753  -0.05736  -1.12005
   D34       -3.09223  -0.01064   0.00000  -0.14964  -0.14940   3.04155
   D35        1.07359  -0.00742   0.00000  -0.12088  -0.12042   0.95317
   D36       -1.06123   0.00024   0.00000  -0.03206  -0.03079  -1.09201
   D37       -3.04133  -0.00116   0.00000  -0.05147  -0.05047  -3.09181
   D38        1.03048  -0.00465   0.00000  -0.04846  -0.04963   0.98085
   D39       -0.94963  -0.00605   0.00000  -0.06788  -0.06932  -1.01895
   D40        3.07165   0.00404   0.00000   0.02648   0.02678   3.09844
   D41        1.09155   0.00264   0.00000   0.00706   0.00709   1.09864
         Item               Value     Threshold  Converged?
 Maximum Force            0.021113     0.000450     NO 
 RMS     Force            0.005695     0.000300     NO 
 Maximum Displacement     0.409557     0.001800     NO 
 RMS     Displacement     0.108123     0.001200     NO 
 Predicted change in Energy=-1.321754D-02
 GradGradGradGradGradGradGradGradGradGradGradGradGradGradGradGradGradGrad

                          Input orientation:                          
 ---------------------------------------------------------------------
 Center     Atomic      Atomic             Coordinates (Angstroms)
 Number     Number       Type             X           Y           Z
 ---------------------------------------------------------------------
      1          6           0        0.892929   -0.108305    0.078695
      2          6           0        2.414636    0.029979   -0.004181
      3          7           0        2.888281    0.467476   -1.323068
      4          6           0        2.427421    1.825555   -1.591180
      5          7           0        4.354773    0.498671   -1.258993
      6          7           0        4.739154   -0.872825   -1.009566
      7          6           0        4.877485    0.740826   -2.599714
      8          7           0        6.343942    0.633745   -2.502221
      9          1           0        0.627627   -0.552174    1.043035
     10          1           0        0.521483   -0.763642   -0.714703
     11          1           0        0.367444    0.847221    0.011752
     12          1           0        2.830363   -0.964208    0.179956
     13          1           0        2.789475    0.694706    0.795372
     14          1           0        1.337404    1.826573   -1.601627
     15          1           0        2.731833    2.152837   -2.586443
     16          1           0        2.786065    2.558997   -0.849025
     17          1           0        4.661120   -0.981331   -0.003336
     18          1           0        5.736714   -0.849391   -1.201730
     19          1           0        4.546625    1.731035   -2.926039
     20          1           0        4.505052   -0.013005   -3.309673
     21          1           0        6.662021    1.368027   -1.872536
     22          1           0        6.744304    0.844242   -3.411546
 ---------------------------------------------------------------------
                    Distance matrix (angstroms):
                    1          2          3          4          5
     1  C    0.000000
     2  C    1.530223   0.000000
     3  N    2.505572   1.468062   0.000000
     4  C    2.980429   2.396418   1.458990   0.000000
     5  N    3.760611   2.357617   1.468223   2.363399   0.000000
     6  N    4.069674   2.688724   2.306604   3.600505   1.446017
     7  C    4.875611   3.647974   2.379386   2.862969   1.459246
     8  N    6.076620   4.695123   3.655084   4.193989   2.349607
     9  H    1.094239   2.151503   3.427636   3.978937   4.505023
    10  H    1.094038   2.172258   2.736328   3.332379   4.072321
    11  H    1.092541   2.204344   2.877597   2.787478   4.199413
    12  H    2.120490   1.093226   2.076573   3.328973   2.556250
    13  H    2.180674   1.105283   2.132881   2.665620   2.590174
    14  H    2.600921   2.634390   2.080855   1.090068   3.314398
    15  H    3.949340   3.357859   2.112116   1.091022   2.670640
    16  H    3.399871   2.692146   2.147003   1.103339   2.621805
    17  H    3.868871   2.463622   2.642667   3.922915   1.964925
    18  H    5.064677   3.639178   3.140452   4.272988   1.931402
    19  H    5.075538   3.997026   2.629867   2.506354   2.081963
    20  H    4.953539   3.911260   2.606033   3.263444   2.118887
    21  H    6.266521   4.829224   3.918421   4.268528   2.540789
    22  H    6.879514   5.569486   4.401432   4.786667   3.234619
                    6          7          8          9         10
     6  N    0.000000
     7  C    2.269708   0.000000
     8  N    2.659533   1.473590   0.000000
     9  H    4.606587   5.744803   6.830191   0.000000
    10  H    4.229374   4.979100   6.248915   1.773592   0.000000
    11  H    4.807649   5.212633   6.487230   1.757711   1.773793
    12  H    2.250954   3.850248   4.700294   2.401401   2.484264
    13  H    3.084834   3.986040   4.848924   2.507914   3.090452
    14  H    4.382828   3.834996   5.224876   3.627183   2.856847
    15  H    3.958599   2.568613   3.919447   4.991781   4.110341
    16  H    3.951927   3.277910   4.370142   4.232981   4.023220
    17  H    1.015067   3.123109   3.418302   4.189049   4.205950
    18  H    1.016171   2.285043   2.063902   5.588388   5.238624
    19  H    3.238830   1.093833   2.148026   6.027034   5.226393
    20  H    2.466695   1.100458   2.109924   5.854160   4.813122
    21  H    3.076289   2.026509   1.018257   6.971488   6.602333
    22  H    3.569097   2.038327   1.015613   7.694609   6.970061
                   11         12         13         14         15
    11  H    0.000000
    12  H    3.061950   0.000000
    13  H    2.550207   1.769860   0.000000
    14  H    2.122014   3.632000   3.022455   0.000000
    15  H    3.747744   4.168770   3.683224   1.738029   0.000000
    16  H    3.085586   3.670659   2.485886   1.789266   1.785086
    17  H    4.666849   1.839989   2.636302   4.635293   4.496398
    18  H    5.760216   3.220111   3.880576   5.164749   4.467674
    19  H    5.184332   4.456130   4.243872   3.473081   1.893861
    20  H    5.375095   3.985834   4.505047   4.041715   2.891061
    21  H    6.591167   4.932914   4.750548   5.351187   4.070869
    22  H    7.237632   5.611444   5.775914   5.785788   4.300365
                   16         17         18         19         20
    16  H    0.000000
    17  H    4.094501   0.000000
    18  H    4.521929   1.615692   0.000000
    19  H    2.845889   3.989013   3.323876   0.000000
    20  H    3.952834   3.448749   2.580689   1.786218   0.000000
    21  H    4.181988   3.607907   2.494617   2.390930   2.936857
    22  H    5.017425   4.391840   2.960897   2.419072   2.399896
                   21         22
    21  H    0.000000
    22  H    1.627782   0.000000
 Stoichiometry    C4H14N4
 Framework group  C1[X(C4H14N4)]
 Deg. of freedom    60
 Full point group                 C1      NOp   1
 Largest Abelian subgroup         C1      NOp   1
 Largest concise Abelian subgroup C1      NOp   1
                         Standard orientation:                         
 ---------------------------------------------------------------------
 Center     Atomic      Atomic             Coordinates (Angstroms)
 Number     Number       Type             X           Y           Z
 ---------------------------------------------------------------------
      1          6           0       -3.064721   -0.293514   -0.222027
      2          6           0       -1.660389   -0.595456    0.305482
      3          7           0       -0.626286    0.281537   -0.257297
      4          6           0       -0.846144    1.655054    0.182892
      5          7           0        0.657524   -0.164664    0.298054
      6          7           0        0.816632   -1.516737   -0.189335
      7          6           0        1.734758    0.550348   -0.378499
      8          7           0        2.996258   -0.024720    0.120881
      9          1           0       -3.755055   -1.059477    0.144166
     10          1           0       -3.078396   -0.313636   -1.315794
     11          1           0       -3.453459    0.671840    0.110568
     12          1           0       -1.424008   -1.618299    0.000422
     13          1           0       -1.645920   -0.571842    1.410418
     14          1           0       -1.815641    1.987592   -0.188244
     15          1           0       -0.113318    2.330410   -0.261168
     16          1           0       -0.816912    1.768110    1.280034
     17          1           0        0.292948   -2.088142    0.466112
     18          1           0        1.795039   -1.699713    0.015221
     19          1           0        1.637340    1.616172   -0.152671
     20          1           0        1.677772    0.408683   -1.468312
     21          1           0        3.039371    0.157818    1.121715
     22          1           0        3.770320    0.483981   -0.295679
 ---------------------------------------------------------------------
 Rotational constants (GHZ):           4.2436044           1.1751288           0.9772397
 Standard basis: 6-31G(2df,p) (6D, 7F)
 There are   318 symmetry adapted cartesian basis functions of A   symmetry.
 There are   294 symmetry adapted basis functions of A   symmetry.
   294 basis functions,   450 primitive gaussians,   318 cartesian basis functions
    33 alpha electrons       33 beta electrons
       nuclear repulsion energy       430.9886489829 Hartrees.
 NAtoms=   22 NActive=   22 NUniq=   22 SFac= 1.00D+00 NAtFMM=   60 NAOKFM=F Big=F
 Integral buffers will be    131072 words long.
 Raffenetti 2 integral format.
 Two-electron integral symmetry is turned on.
 One-electron integrals computed using PRISM.
 PrsmSu:  requested number of processors reduced to:  13 ShMem   1 Linda.
 NBasis=   294 RedAO= T EigKep=  2.61D-04  NBF=   294
 NBsUse=   294 1.00D-06 EigRej= -1.00D+00 NBFU=   294
 Initial guess from the checkpoint file:  "CCNpCpNpNpCN.chk"
 B after Tr=     0.000000    0.000000    0.000000
         Rot=    0.999989    0.004535   -0.001141    0.000306 Ang=   0.54 deg.
 ExpMin= 1.61D-01 ExpMax= 4.17D+03 ExpMxC= 6.27D+02 IAcc=2 IRadAn=         4 AccDes= 0.00D+00
 Harris functional with IExCor=  402 and IRadAn=       4 diagonalized for initial guess.
 HarFok:  IExCor=  402 AccDes= 0.00D+00 IRadAn=         4 IDoV= 1 UseB2=F ITyADJ=14
 ICtDFT=  3500011 ScaDFX=  1.000000  1.000000  1.000000  1.000000
 FoFCou: FMM=F IPFlag=           0 FMFlag=      100000 FMFlg1=           0
         NFxFlg=           0 DoJE=T BraDBF=F KetDBF=T FulRan=T
         wScrn=  0.000000 ICntrl=       500 IOpCl=  0 I1Cent=   200000004 NGrid=           0
         NMat0=    1 NMatS0=      1 NMatT0=    0 NMatD0=    1 NMtDS0=    0 NMtDT0=    0
 Petite list used in FoFCou.
 Requested convergence on RMS density matrix=1.00D-08 within 128 cycles.
 Requested convergence on MAX density matrix=1.00D-06.
 Requested convergence on             energy=1.00D-06.
 No special actions if energy rises.
 Integral accuracy reduced to 1.0D-05 until final iterations.
 Initial convergence to 1.0D-05 achieved.  Increase integral accuracy.
 SCF Done:  E(RB3LYP) =  -379.788410474     A.U. after   11 cycles
            NFock= 11  Conv=0.62D-08     -V/T= 2.0073
 PrsmSu:  requested number of processors reduced to:  13 ShMem   1 Linda.
 Calling FoFJK, ICntrl=      2127 FMM=F ISym2X=0 I1Cent= 0 IOpClX= 0 NMat=1 NMatS=1 NMatT=0.
 ***** Axes restored to original set *****
 -------------------------------------------------------------------
 Center     Atomic                   Forces (Hartrees/Bohr)
 Number     Number              X              Y              Z
 -------------------------------------------------------------------
      1        6           0.000699285    0.000383920    0.000407102
      2        6          -0.004669159   -0.003523254    0.001330218
      3        7          -0.005890307    0.003926685   -0.002164188
      4        6          -0.004044744    0.001349259   -0.001184310
      5        7          -0.000585507    0.002315764   -0.000351726
      6        7           0.001754869   -0.011874456    0.007632605
      7        6           0.006021506    0.004350975   -0.003415323
      8        7          -0.003461468    0.005736719   -0.003289754
      9        1          -0.000120206   -0.000509318   -0.000094460
     10        1           0.000263634    0.000339569   -0.000239136
     11        1           0.000019933    0.000465252   -0.000041582
     12        1          -0.002928595    0.002076297   -0.000569329
     13        1          -0.000412696    0.001596419    0.000028738
     14        1          -0.000488999    0.000415719    0.001681203
     15        1           0.000052127    0.000204893    0.000695145
     16        1           0.000416030    0.000331165    0.000022856
     17        1           0.005761547   -0.001491193    0.001986069
     18        1           0.003689548   -0.003450285   -0.001703743
     19        1           0.001128741   -0.000255757   -0.000389004
     20        1           0.001168302   -0.000583564    0.000259888
     21        1           0.000438326    0.000206146   -0.000536712
     22        1           0.001187833   -0.002010955   -0.000064558
 -------------------------------------------------------------------
 Cartesian Forces:  Max     0.011874456 RMS     0.002859480

 GradGradGradGradGradGradGradGradGradGradGradGradGradGradGradGradGradGrad
 Berny optimization.
 Using GEDIIS/GDIIS optimizer.
 FormGI is forming the generalized inverse of G from B-inverse, IUseBI=4.
 Internal  Forces:  Max     0.020294022 RMS     0.003830859
 Search for a local minimum.
 Step number   2 out of a maximum of  108
 All quantities printed in internal units (Hartrees-Bohrs-Radians)
 Mixed Optimization -- RFO/linear search
 Update second derivatives using D2CorX and points    1    2
 DE= -8.78D-03 DEPred=-1.32D-02 R= 6.64D-01
 TightC=F SS=  1.41D+00  RLast= 5.04D-01 DXNew= 5.0454D-01 1.5117D+00
 Trust test= 6.64D-01 RLast= 5.04D-01 DXMaxT set to 5.05D-01
 ITU=  1  0
 Use linear search instead of GDIIS.
     Eigenvalues ---    0.00233   0.00403   0.00484   0.00548   0.00569
     Eigenvalues ---    0.00683   0.00814   0.03731   0.03980   0.04787
     Eigenvalues ---    0.05323   0.05497   0.05577   0.05760   0.05823
     Eigenvalues ---    0.06715   0.06874   0.06934   0.07488   0.09051
     Eigenvalues ---    0.09468   0.12548   0.12914   0.15016   0.15705
     Eigenvalues ---    0.15966   0.16000   0.16000   0.16000   0.16000
     Eigenvalues ---    0.16000   0.16000   0.16000   0.16000   0.16341
     Eigenvalues ---    0.16828   0.18997   0.21985   0.22924   0.29661
     Eigenvalues ---    0.32975   0.33695   0.33877   0.34029   0.34078
     Eigenvalues ---    0.34123   0.34256   0.34321   0.34439   0.34449
     Eigenvalues ---    0.34463   0.34470   0.34857   0.35765   0.36216
     Eigenvalues ---    0.42950   0.44497   0.44575   0.44840   0.46510
 RFO step:  Lambda=-7.40502693D-03 EMin= 2.33419680D-03
 Quartic linear search produced a step of -0.17724.
 Iteration  1 RMS(Cart)=  0.11003787 RMS(Int)=  0.01331253
 Iteration  2 RMS(Cart)=  0.01602246 RMS(Int)=  0.00053736
 Iteration  3 RMS(Cart)=  0.00047642 RMS(Int)=  0.00028866
 Iteration  4 RMS(Cart)=  0.00000042 RMS(Int)=  0.00028866
 Variable       Old X    -DE/DX   Delta X   Delta X   Delta X     New X
                                 (Linear)    (Quad)   (Total)
    R1        2.89170  -0.00092  -0.00091  -0.00046  -0.00137   2.89033
    R2        2.06781   0.00015   0.00002   0.00030   0.00032   2.06813
    R3        2.06743  -0.00012   0.00028  -0.00083  -0.00055   2.06688
    R4        2.06460   0.00040   0.00015   0.00057   0.00072   2.06533
    R5        2.77423   0.00280   0.00619  -0.00633  -0.00015   2.77409
    R6        2.06590  -0.00310   0.00095  -0.00878  -0.00783   2.05807
    R7        2.08868   0.00084  -0.00236   0.00667   0.00431   2.09299
    R8        2.75709   0.00320   0.00575  -0.00476   0.00099   2.75808
    R9        2.77454   0.01694   0.00468   0.02776   0.03244   2.80698
   R10        2.05993   0.00047   0.00105  -0.00109  -0.00004   2.05989
   R11        2.06173  -0.00056   0.00071  -0.00268  -0.00196   2.05977
   R12        2.08501   0.00037  -0.00237   0.00563   0.00326   2.08827
   R13        2.73258   0.02029   0.00255   0.03549   0.03804   2.77062
   R14        2.75757   0.01039   0.01053   0.00208   0.01261   2.77018
   R15        1.91820   0.00168   0.00102   0.00081   0.00183   1.92003
   R16        1.92029   0.00386   0.00262   0.00143   0.00405   1.92434
   R17        2.78468  -0.00237  -0.00248   0.00008  -0.00240   2.78228
   R18        2.06704  -0.00046  -0.00026  -0.00047  -0.00073   2.06632
   R19        2.07957  -0.00016  -0.00122   0.00211   0.00089   2.08046
   R20        1.92423  -0.00005  -0.00047   0.00087   0.00040   1.92462
   R21        1.91923   0.00011   0.00100  -0.00183  -0.00083   1.91840
    A1        1.90233   0.00036   0.00302  -0.00403  -0.00101   1.90132
    A2        1.93102  -0.00045  -0.00010  -0.00264  -0.00274   1.92828
    A3        1.97789  -0.00030  -0.00259   0.00418   0.00158   1.97947
    A4        1.89000   0.00004  -0.00045   0.00095   0.00051   1.89051
    A5        1.86728   0.00018  -0.00079   0.00399   0.00319   1.87047
    A6        1.89247   0.00020   0.00094  -0.00231  -0.00137   1.89109
    A7        1.97841  -0.00129  -0.00011  -0.00670  -0.00683   1.97158
    A8        1.86174  -0.00059  -0.00560   0.00803   0.00245   1.86419
    A9        1.93095  -0.00015  -0.00270   0.00168  -0.00100   1.92995
   A10        1.87511   0.00118   0.00961  -0.01392  -0.00432   1.87079
   A11        1.94040   0.00029  -0.00045  -0.00018  -0.00062   1.93977
   A12        1.87142   0.00068  -0.00079   0.01207   0.01140   1.88282
   A13        1.91833  -0.00695  -0.00424  -0.01572  -0.01974   1.89858
   A14        1.86437   0.00789   0.00909   0.02176   0.03086   1.89523
   A15        1.87942  -0.00028   0.00552  -0.00819  -0.00247   1.87694
   A16        1.89493   0.00019   0.00906  -0.01781  -0.00874   1.88620
   A17        1.93770   0.00060   0.00396  -0.00438  -0.00039   1.93731
   A18        1.97413  -0.00043  -0.00317   0.00278  -0.00042   1.97371
   A19        1.84417   0.00062  -0.00851   0.02506   0.01663   1.86080
   A20        1.90802  -0.00052  -0.00172  -0.00142  -0.00318   1.90484
   A21        1.90022  -0.00040  -0.00012  -0.00269  -0.00283   1.89740
   A22        1.82646   0.00745   0.01679   0.01721   0.03475   1.86121
   A23        1.89781  -0.00493   0.00589  -0.02117  -0.01461   1.88320
   A24        1.79328   0.00217   0.00937   0.00569   0.01600   1.80929
   A25        1.82548   0.00472   0.01851  -0.01686   0.00209   1.82757
   A26        1.77875   0.00514   0.01697  -0.01171   0.00576   1.78451
   A27        1.83941  -0.00327  -0.00016  -0.01632  -0.01495   1.82446
   A28        1.85837   0.00670   0.00908   0.00425   0.01334   1.87171
   A29        1.89228  -0.00027   0.00884  -0.01505  -0.00657   1.88571
   A30        1.93675  -0.00248   0.00213  -0.01385  -0.01145   1.92530
   A31        1.96767  -0.00389  -0.02215   0.02950   0.00744   1.97510
   A32        1.90678  -0.00122   0.00326  -0.00988  -0.00620   1.90059
   A33        1.90211   0.00115  -0.00169   0.00449   0.00310   1.90520
   A34        1.87484   0.00062  -0.00356   0.01346   0.00982   1.88465
   A35        1.89442   0.00243  -0.00417   0.02301   0.01876   1.91317
   A36        1.85571  -0.00042   0.00020   0.00442   0.00445   1.86017
    D1        3.02143   0.00007   0.00657  -0.02974  -0.02316   2.99827
    D2        0.96134  -0.00026  -0.00151  -0.01403  -0.01557   0.94577
    D3       -1.06846  -0.00066   0.00376  -0.03380  -0.03002  -1.09849
    D4        0.94506   0.00007   0.00528  -0.02682  -0.02153   0.92354
    D5       -1.11503  -0.00027  -0.00280  -0.01111  -0.01394  -1.12896
    D6        3.13835  -0.00067   0.00247  -0.03088  -0.02839   3.10997
    D7       -1.18470   0.00035   0.00597  -0.02482  -0.01883  -1.20353
    D8        3.03840   0.00002  -0.00211  -0.00911  -0.01124   3.02715
    D9        1.00859  -0.00038   0.00316  -0.02888  -0.02569   0.98290
   D10        1.14687  -0.00083  -0.00969  -0.01218  -0.02182   1.12506
   D11       -3.10210  -0.00038  -0.00025  -0.01793  -0.01822  -3.12032
   D12       -3.08400  -0.00154  -0.01036  -0.01522  -0.02551  -3.10951
   D13       -1.04979  -0.00109  -0.00091  -0.02097  -0.02191  -1.07170
   D14       -1.04136   0.00015  -0.00565  -0.00906  -0.01469  -1.05605
   D15        0.99285   0.00059   0.00379  -0.01481  -0.01109   0.98176
   D16       -1.07729   0.00400   0.00164   0.05745   0.05908  -1.01821
   D17       -3.09729   0.00281   0.00420   0.04009   0.04438  -3.05291
   D18        1.04371   0.00319   0.00374   0.04489   0.04868   1.09239
   D19       -3.10204  -0.00153  -0.01005   0.04450   0.03436  -3.06768
   D20        1.16115  -0.00273  -0.00748   0.02715   0.01966   1.18081
   D21       -0.98104  -0.00235  -0.00795   0.03194   0.02396  -0.95708
   D22        1.09398  -0.00016  -0.00253  -0.07164  -0.07378   1.02020
   D23        3.00054   0.00370   0.02009  -0.06584  -0.04596   2.95458
   D24       -3.12931  -0.00429   0.00060  -0.08283  -0.08202   3.07186
   D25       -1.22275  -0.00044   0.02322  -0.07703  -0.05420  -1.27695
   D26       -1.46432  -0.00432   0.03572  -0.28879  -0.25389  -1.71821
   D27        2.90624  -0.00409   0.02070  -0.26170  -0.24041   2.66583
   D28        2.83707  -0.00244   0.01715  -0.27401  -0.25744   2.57963
   D29        0.92444  -0.00221   0.00213  -0.24692  -0.24397   0.68048
   D30       -3.04897  -0.00589  -0.01663  -0.10728  -0.12378   3.11043
   D31        1.11263  -0.00495  -0.00032  -0.13651  -0.13666   0.97597
   D32       -0.97575  -0.00471  -0.00545  -0.12421  -0.12961  -1.10536
   D33       -1.12005   0.00159   0.01017  -0.09330  -0.08323  -1.20328
   D34        3.04155   0.00253   0.02648  -0.12252  -0.09611   2.94544
   D35        0.95317   0.00278   0.02134  -0.11022  -0.08906   0.86411
   D36       -1.09201  -0.00075   0.00546  -0.05110  -0.04584  -1.13786
   D37       -3.09181  -0.00178   0.00895  -0.07462  -0.06597   3.12541
   D38        0.98085   0.00101   0.00880  -0.05006  -0.04093   0.93992
   D39       -1.01895  -0.00003   0.01229  -0.07358  -0.06106  -1.08000
   D40        3.09844  -0.00097  -0.00475  -0.03170  -0.03643   3.06200
   D41        1.09864  -0.00200  -0.00126  -0.05522  -0.05656   1.04208
         Item               Value     Threshold  Converged?
 Maximum Force            0.020294     0.000450     NO 
 RMS     Force            0.003831     0.000300     NO 
 Maximum Displacement     0.563445     0.001800     NO 
 RMS     Displacement     0.116500     0.001200     NO 
 Predicted change in Energy=-5.371704D-03
 GradGradGradGradGradGradGradGradGradGradGradGradGradGradGradGradGradGrad

                          Input orientation:                          
 ---------------------------------------------------------------------
 Center     Atomic      Atomic             Coordinates (Angstroms)
 Number     Number       Type             X           Y           Z
 ---------------------------------------------------------------------
      1          6           0        0.841946   -0.070708    0.027996
      2          6           0        2.369076    0.006647   -0.007325
      3          7           0        2.889686    0.461718   -1.302259
      4          6           0        2.449128    1.834445   -1.529654
      5          7           0        4.373674    0.472543   -1.238613
      6          7           0        4.789950   -0.895260   -0.913936
      7          6           0        4.881497    0.675448   -2.598709
      8          7           0        6.350405    0.727138   -2.512890
      9          1           0        0.532164   -0.551780    0.960911
     10          1           0        0.469646   -0.669878   -0.807869
     11          1           0        0.356569    0.907894   -0.007031
     12          1           0        2.739439   -1.005241    0.150827
     13          1           0        2.746017    0.639795    0.819560
     14          1           0        1.359521    1.848790   -1.502294
     15          1           0        2.740559    2.178923   -2.521859
     16          1           0        2.839793    2.544895   -0.778779
     17          1           0        4.959282   -0.882531    0.087809
     18          1           0        5.718410   -0.942833   -1.329465
     19          1           0        4.440872    1.596131   -2.990906
     20          1           0        4.591544   -0.167615   -3.244634
     21          1           0        6.605109    1.554561   -1.976445
     22          1           0        6.741863    0.851928   -3.441205
 ---------------------------------------------------------------------
                    Distance matrix (angstroms):
                    1          2          3          4          5
     1  C    0.000000
     2  C    1.529496   0.000000
     3  N    2.499259   1.467984   0.000000
     4  C    2.939204   2.380071   1.459514   0.000000
     5  N    3.791111   2.398237   1.485391   2.375575   0.000000
     6  N    4.141722   2.737885   2.367105   3.648266   1.466147
     7  C    4.875890   3.670807   2.386163   2.898719   1.465918
     8  N    6.118479   4.758986   3.675956   4.172870   2.365601
     9  H    1.094406   2.150248   3.421553   3.946104   4.543604
    10  H    1.093747   2.169423   2.716896   3.272760   4.090490
    11  H    1.092923   2.205092   2.879822   2.748760   4.224152
    12  H    2.118708   1.089082   2.070265   3.312418   2.604825
    13  H    2.181026   1.107564   2.134119   2.652195   2.629319
    14  H    2.508813   2.578299   2.074943   1.090045   3.323959
    15  H    3.894525   3.343600   2.111506   1.089984   2.688032
    16  H    3.388755   2.694330   2.148522   1.105066   2.618946
    17  H    4.197033   2.740229   2.832405   4.037204   1.984580
    18  H    5.136458   3.723923   3.158351   4.294363   1.954446
    19  H    4.984415   3.964915   2.558242   2.481752   2.082666
    20  H    4.977850   3.930637   2.658045   3.396961   2.116930
    21  H    6.314534   4.921122   3.931056   4.189288   2.587366
    22  H    6.906203   5.623816   4.423418   4.800723   3.256327
                    6          7          8          9         10
     6  N    0.000000
     7  C    2.305204   0.000000
     8  N    2.761132   1.472321   0.000000
     9  H    4.664951   5.752711   6.896003   0.000000
    10  H    4.327480   4.947873   6.280294   1.773820   0.000000
    11  H    4.871213   5.219752   6.499083   1.760225   1.772990
    12  H    2.313096   3.869506   4.809948   2.394562   2.486670
    13  H    3.088538   4.030646   4.909630   2.518129   3.089601
    14  H    4.432135   3.870811   5.214244   3.537602   2.760035
    15  H    4.029394   2.617243   3.890855   4.946051   4.026223
    16  H    3.956772   3.312934   4.316918   4.235689   3.994147
    17  H    1.016035   3.106562   3.360044   4.524497   4.583044
    18  H    1.018314   2.220413   2.142129   5.682947   5.281675
    19  H    3.262313   1.093447   2.151736   5.958890   5.066664
    20  H    2.449691   1.100930   2.104668   5.857709   4.814576
    21  H    3.228831   2.032459   1.018468   7.067205   6.630054
    22  H    3.640016   2.049855   1.015175   7.740115   6.970729
                   11         12         13         14         15
    11  H    0.000000
    12  H    3.059915   0.000000
    13  H    2.542556   1.775780   0.000000
    14  H    2.031504   3.575259   2.962270   0.000000
    15  H    3.690973   4.157180   3.678861   1.748075   0.000000
    16  H    3.072746   3.671199   2.488550   1.788643   1.783847
    17  H    4.939594   2.224124   2.784148   4.790284   4.594083
    18  H    5.824377   3.327074   3.994764   5.179087   4.476020
    19  H    5.104773   4.419558   4.278640   3.431403   1.857610
    20  H    5.438181   3.957406   4.536029   4.188987   3.074864
    21  H    6.583390   5.101105   4.852529   5.275186   3.952474
    22  H    7.250426   5.689567   5.845161   5.807127   4.314690
                   16         17         18         19         20
    16  H    0.000000
    17  H    4.121948   0.000000
    18  H    4.555648   1.608906   0.000000
    19  H    2.890867   3.986352   3.292237   0.000000
    20  H    4.062854   3.428048   2.353436   1.788261   0.000000
    21  H    4.073422   3.592953   2.727966   2.390561   2.937454
    22  H    5.018048   4.317393   2.954331   2.459913   2.387882
                   21         22
    21  H    0.000000
    22  H    1.630312   0.000000
 Stoichiometry    C4H14N4
 Framework group  C1[X(C4H14N4)]
 Deg. of freedom    60
 Full point group                 C1      NOp   1
 Largest Abelian subgroup         C1      NOp   1
 Largest concise Abelian subgroup C1      NOp   1
                         Standard orientation:                         
 ---------------------------------------------------------------------
 Center     Atomic      Atomic             Coordinates (Angstroms)
 Number     Number       Type             X           Y           Z
 ---------------------------------------------------------------------
      1          6           0       -3.081682   -0.241678   -0.242845
      2          6           0       -1.690641   -0.604213    0.279582
      3          7           0       -0.634477    0.265659   -0.252222
      4          6           0       -0.861028    1.625941    0.225784
[...]
 -0.00117893,0.00128485,-0.00005894,-0.09858880,0.24350584,-0.00325074,
 0.00492427,0.00214044,0.04325050,-0.07926136,-0.08601668,-0.00893983,0
 .01765630,0.00575528,0.00143645,0.00142960,-0.00136493,-0.00057549,-0.
 00112892,0.00113383,0.00069512,-0.00034214,0.00022001,0.00053273,0.000
 28470,-0.00033266,-0.00006441,0.00000559,-0.00001099,0.00065026,-0.000
 03862,0.00007199,0.00039854,0.00063206,0.00061035,-0.00130562,0.000319
 38,0.00099684,-0.04759749,0.07902187,0.08765325,-0.00820259,-0.0031364
 9,-0.03318728,-0.05867562,-0.00199838,-0.04612627,0.00234971,-0.004187
 94,0.01612509,-0.00031074,0.00173666,0.00028847,0.00235943,-0.00047278
 ,0.00084353,-0.00078607,0.00118590,-0.00018861,-0.00030768,0.00030459,
 -0.00018150,-0.00011112,-0.00008203,-0.00000900,0.00100450,-0.00033589
 ,0.00052325,-0.00667896,-0.00061005,-0.00115197,0.00173006,0.00056656,
 0.00049574,0.00316586,0.00167726,0.01457345,0.06486305,0.00059701,0.00
 076324,-0.00199574,-0.00164235,-0.05323331,-0.02195765,-0.00086637,-0.
 00836760,0.03399277,0.00030263,0.00444012,0.00422480,0.00354644,-0.000
 35625,0.00065955,-0.00107085,0.00115798,-0.00112081,-0.00016740,-0.001
 34005,-0.00027884,-0.00027281,0.00046223,0.00007584,0.00026922,0.00000
 243,-0.00008177,-0.00074181,0.00091812,0.00047515,-0.00033873,0.000295
 67,0.00067644,-0.00514811,-0.00138441,-0.02542596,0.00591184,0.0560923
 6,-0.00106712,-0.00140899,-0.00423452,-0.04596139,-0.02175277,-0.27117
 344,0.00388546,0.01268234,-0.02302540,0.00137601,-0.00287018,0.0016632
 8,-0.00416270,0.00094514,-0.00097762,-0.00076652,-0.00097136,0.0014954
 4,-0.00000529,0.00022491,0.00036078,0.00045091,-0.00012810,0.00003376,
 -0.00074070,-0.00042414,0.00007458,-0.00048205,0.00000007,0.00136121,-
 0.00005541,0.00040879,0.00053749,-0.00264629,-0.00200666,-0.01104766,0
 .04908619,0.01389447,0.30328377,-0.00091955,-0.00108281,0.00035952,-0.
 00099386,-0.00003308,0.00053427,-0.00615509,0.00112524,0.00247263,-0.3
 0705977,0.02759628,0.00817924,-0.00057058,0.00231431,0.00114343,0.0002
 5459,0.00013228,0.00048965,0.00016188,-0.00000304,-0.00124531,-0.00021
 077,0.00008982,0.00010498,0.00026556,-0.00042425,-0.00024212,-0.000016
 92,-0.00004278,-0.00003547,0.00033264,-0.00159768,-0.00025790,0.000055
 96,0.00003815,-0.00012448,-0.00000305,0.00006246,-0.00034086,0.3364898
 5,-0.00010536,-0.00120951,-0.00041783,0.00070787,0.00070641,0.00092129
 ,0.03076535,-0.00250884,-0.00403910,0.01843788,-0.05251507,-0.00024138
 ,0.00295358,-0.00479828,-0.00319470,0.00022535,0.00011105,0.00005601,0
 .00103892,0.00000367,0.00093995,0.00027750,-0.00029500,-0.00027808,-0.
 00021246,0.00021868,0.00004209,-0.00005454,0.00009587,0.00001378,-0.00
 135323,-0.00115009,0.00034076,-0.00010434,0.00035592,-0.00002530,-0.00
 009394,-0.00035219,0.00019148,-0.02978247,0.05733318,-0.00014170,0.000
 22625,0.00025220,-0.00000583,0.00030305,0.00058989,0.01668519,0.000227
 16,-0.00261278,0.00354455,-0.00162393,-0.04843205,0.00188135,-0.003698
 27,-0.00204417,-0.00013203,0.00011272,0.00050302,0.00048279,-0.0001405
 1,0.00067485,0.00016174,-0.00012201,-0.00008759,-0.00007634,0.00000045
 ,-0.00009274,0.00003185,-0.00018439,-0.00018224,0.00024405,0.00012058,
 0.00035570,0.00003522,0.00003540,-0.00011235,-0.00026096,-0.00010733,-
 0.00005410,-0.01104597,0.00560974,0.04935024,-0.00006981,-0.00006209,0
 .00027879,-0.00069677,0.00168271,0.00032491,0.00173533,0.00671111,-0.0
 0336751,-0.08791174,-0.07934645,0.06030891,0.00081226,0.00127819,-0.00
 084338,-0.00040130,-0.00022782,-0.00001740,0.00023949,0.00050497,0.000
 28919,0.00010488,-0.00010867,-0.00012659,0.00007060,-0.00020592,-0.000
 05945,0.00004821,-0.00008910,-0.00008319,0.00047188,-0.00006597,-0.000
 15801,0.00030839,0.00042146,0.00002352,-0.00009850,-0.00008922,0.00019
 718,-0.01032742,-0.02264246,0.01799409,0.09042994,0.00060525,0.0002047
 1,-0.00000003,0.00414731,-0.00377817,-0.00317844,-0.01404930,-0.031333
 74,0.01368121,-0.07218413,-0.18102811,0.10716863,-0.00242778,0.0028942
 5,0.00086086,0.00077966,-0.00001362,0.00035980,0.00015001,-0.00018473,
 -0.00030523,0.00003366,0.00003373,-0.00004536,-0.00012093,0.00009150,0
 .00002440,-0.00006434,0.00001371,-0.00005491,-0.00022347,0.00017729,0.
 00005539,-0.00080719,-0.00167738,0.00076055,0.00004779,0.00012601,0.00
 007640,0.00113816,0.00405082,-0.00283012,0.08270800,0.20809318,0.00011
 279,-0.00002785,0.00003000,0.00129609,-0.00228860,-0.00067192,-0.00696
 286,-0.01441783,0.00904552,0.06171217,0.11551341,-0.13935078,-0.000685
 54,-0.00068013,0.00063660,-0.00022658,0.00033153,-0.00017847,-0.000272
 47,-0.00013414,0.00017591,-0.00008706,0.00007338,0.00000589,-0.0000224
 6,0.00000922,0.00000202,0.00001574,0.00002395,0.00000993,-0.00009293,0
 .00006125,-0.00004512,-0.00014085,-0.00075219,0.00059527,0.00001961,-0
 .00049176,0.00040160,-0.00093881,-0.00098344,-0.00029635,-0.06644388,-
 0.11683270,0.14564413,-0.00036720,0.00002487,0.00025958,-0.00037239,-0
 .00038331,-0.00081220,0.00530364,0.00204717,0.00844523,-0.08724779,-0.
 00513263,-0.08672905,0.00140369,-0.00055984,0.00115154,-0.00011112,0.0
 0033636,0.00040144,-0.00027907,-0.00009766,0.00006370,-0.00007539,-0.0
 0000513,-0.00001797,0.00008235,-0.00010876,-0.00006669,0.00001525,0.00
 006872,0.00007668,0.00004206,-0.00005314,-0.00021597,0.00001361,-0.000
 01512,0.00018569,0.00018939,-0.00028457,-0.00009053,-0.01124144,-0.000
 42210,-0.02975378,0.00530263,0.00036547,0.01279636,0.08675025,-0.00009
 891,-0.00025135,0.00046292,0.00117631,0.00468313,-0.00527800,-0.008563
 77,-0.01584817,-0.03646426,-0.00388157,-0.04972942,-0.00373041,-0.0040
 8055,0.00119142,0.00047668,0.00043984,-0.00014595,0.00064284,0.0002734
 5,0.00036049,0.00001062,0.00040387,-0.00017504,0.00000097,-0.00018145,
 0.00000412,0.00006318,0.00023023,0.00003756,0.00006800,-0.00009928,0.0
 0002561,0.00003805,0.00017831,0.00016351,0.00043978,-0.00009577,0.0005
 1098,0.00211690,0.00001496,0.00039453,0.00261709,0.00960344,0.00193066
 ,0.02054532,0.00464179,0.05674368,0.00011652,-0.00028434,-0.00001465,0
 .00147306,0.00226939,0.00115327,-0.00094731,-0.01556238,-0.01897064,-0
 .08470339,-0.00487077,-0.25062313,-0.00403235,0.00051693,0.00014557,0.
 00055287,0.00130138,0.00125760,-0.00002325,0.00033985,-0.00007747,0.00
 044276,-0.00015941,0.00007690,-0.00012588,-0.00001393,0.00007713,0.000
 15304,0.00012283,-0.00000264,-0.00015316,0.00005981,-0.00005585,0.0000
 7770,-0.00008031,0.00031170,-0.00070342,-0.00178596,0.00080628,0.00071
 567,0.00119936,0.00205237,-0.00826520,0.00020860,-0.01600109,0.0947780
 0,0.01718524,0.27906769,-0.00004263,-0.00022084,-0.00000571,0.00097884
 ,0.00147755,-0.00117363,-0.00450949,0.00052474,-0.00479062,0.00030513,
 -0.00143050,-0.00081198,-0.02151358,0.00030362,0.00494054,-0.36452351,
 -0.14055612,0.03222059,0.00005001,-0.00094345,-0.00012102,-0.00033522,
 0.00008424,0.00152004,-0.00005745,-0.00001384,0.00005640,0.00002341,0.
 00001908,0.00006386,0.00004441,0.00001866,-0.00000618,-0.00005843,-0.0
 0017327,-0.00001292,0.00034959,0.00008026,0.00023516,0.00007127,0.0001
 4166,0.00013015,-0.00007041,0.00016774,-0.00000106,0.00022270,0.000034
 48,0.00052528,0.38716334,0.00002299,0.00034700,-0.00012817,-0.00009211
 ,-0.00120256,0.00032512,0.00532746,0.00031234,0.00303483,0.00006160,0.
 00129512,0.00056540,0.00961384,0.00336031,-0.00470338,-0.10910164,-0.0
 9098226,0.03332677,-0.00132917,-0.00022086,-0.00037668,0.00009567,-0.0
 0026481,0.00113988,0.00014482,0.00004347,-0.00003150,-0.00004839,-0.00
 001416,-0.00002826,-0.00005061,-0.00002384,-0.00001829,-0.00001475,0.0
 0027306,0.00026356,-0.00008982,-0.00003362,-0.00023497,0.00000658,-0.0
 0019936,-0.00014821,0.00003231,-0.00014905,0.00015514,-0.00012462,0.00
 008034,-0.00036765,0.13483000,0.10668970,-0.00016261,-0.00032702,0.000
 38191,0.00065984,0.00074453,-0.00155813,-0.00382651,-0.00082138,-0.004
 33696,0.00038936,-0.00007033,0.00053329,-0.04097003,-0.00842746,-0.007
 68536,0.07993136,0.05369851,-0.03574777,-0.00421530,-0.00195784,-0.000
 35926,0.00090079,0.00147750,-0.00009841,-0.00008763,-0.00000470,0.0000
 2970,0.00018389,0.00002405,0.00006410,0.00009916,-0.00000959,-0.000010
 74,-0.00004816,-0.00018736,-0.00005025,-0.00005373,0.00004874,0.000702
 03,-0.00000141,0.00004938,-0.00008403,-0.00002499,0.00001042,0.0001044
 6,-0.00013172,0.00036427,0.00000397,-0.03708279,-0.04024502,0.04988625
 ,-0.00002055,-0.00051918,0.00020047,0.00024686,0.00154957,0.00016034,-
 0.00003996,0.00273668,-0.00191114,-0.00088639,-0.00032284,-0.00025068,
 -0.00331838,0.02320841,-0.00496162,-0.05495055,0.03474009,-0.02045563,
 -0.00002437,0.00069796,0.00223981,-0.00005622,0.00015345,-0.00021889,-
 0.00008654,-0.00000658,-0.00001696,0.00023124,0.00005444,0.00008235,0.
 00028459,-0.00002063,0.00001107,-0.00039181,-0.00096626,-0.00069379,-0
 .00084557,-0.00014568,0.00097327,-0.00010924,0.00016893,0.00016704,0.0
 0002553,-0.00022782,-0.00005301,0.00030282,-0.00006366,-0.00002664,0.0
 0191100,-0.03983720,0.00324811,0.05778506,0.00025138,0.00043958,-0.000
 45070,0.00025856,-0.00067851,0.00059231,-0.00110292,-0.00071872,0.0006
 8637,0.00037914,0.00026700,0.00041958,0.00969082,-0.00704563,0.0075203
 3,0.00465953,-0.38019373,0.03226574,0.00083730,0.00641961,-0.00321246,
 -0.00059941,-0.00030149,-0.00023106,0.00012967,0.00002937,0.00001096,-
 0.00016061,-0.00001749,-0.00004584,-0.00009897,-0.00000257,-0.00000514
 ,-0.00012111,0.00007974,0.00033627,-0.00006000,-0.00017151,-0.00078964
 ,0.00013616,-0.00010170,-0.00019177,-0.00004383,0.00019980,-0.00002179
 ,-0.00018652,0.00003011,-0.00006921,0.00577145,-0.01954596,-0.00478469
 ,-0.01953616,0.40090591,0.00017275,-0.00009202,-0.00030839,-0.00057991
 ,0.00000097,0.00226793,0.00171054,-0.00015780,-0.00033103,-0.00011601,
 -0.00057329,-0.00110044,-0.01224675,0.03903424,-0.02194987,-0.01434317
 ,-0.01290179,-0.02898172,-0.00053508,0.00849350,0.00340355,0.00050651,
 -0.00108819,-0.00020710,-0.00001214,0.00000902,-0.00001133,-0.00014311
 ,0.00002918,-0.00009316,0.00000633,0.00000889,0.00001753,-0.00010623,-
 0.00036531,0.00013268,-0.00002693,-0.00057632,-0.00045551,-0.00004177,
 0.00009513,0.00036646,0.00008084,-0.00003853,-0.00007147,-0.00014877,0
 .00008355,0.00045244,0.00370255,0.00605677,-0.00154997,0.02191292,-0.0
 3457243,0.04650446,0.00001366,0.00003010,-0.00000077,0.00005627,0.0000
 1519,-0.00028300,-0.00031781,0.00116890,0.00335748,0.00033707,-0.00018
 987,0.00017706,0.00317407,-0.00112931,0.00193996,0.00067020,0.00076109
 ,0.00223361,-0.14762337,0.03492307,-0.11912060,-0.03381027,0.00296289,
 -0.01563429,0.00000781,-0.00000254,0.00000085,0.00000641,-0.00000779,0
 .00001386,0.00000047,0.00000098,0.00001213,0.00000946,0.00002642,-0.00
 007154,0.00001198,0.00002796,0.00008117,0.00003300,-0.00006279,-0.0000
 2162,-0.00003234,-0.00002837,-0.00002946,0.00002905,0.00006686,0.00017
 127,-0.00022478,0.00016354,0.00043704,-0.00015780,0.00014150,-0.000153
 13,0.17272390,0.00003952,0.00009312,0.00009308,0.00017740,-0.00013550,
 0.00017929,-0.00069042,0.00045932,-0.00033416,-0.00012722,-0.00002417,
 -0.00008436,-0.01219814,0.00208867,-0.01943031,0.00088245,-0.00033370,
 -0.00398283,0.03899653,-0.07018766,0.04874405,-0.00606084,0.00542068,-
 0.00479664,0.00001951,-0.00000504,-0.00000585,-0.00006902,0.00002410,-
 0.00002731,-0.00002998,-0.00000785,-0.00004173,0.00018503,0.00001704,0
 .00001318,-0.00010559,-0.00008358,0.00009076,0.00000429,0.00002285,0.0
 0002776,-0.00001194,-0.00003261,-0.00003485,-0.00002540,0.00000725,0.0
 0004428,-0.00001089,0.00022492,0.00028514,-0.00019379,0.00013741,-0.00
 072279,-0.03931327,0.06822776,-0.00002448,0.00000815,-0.00017365,0.000
 64583,0.00047388,-0.00057997,-0.00101371,0.00104332,0.00182152,0.00039
 981,-0.00044434,0.00002365,-0.02005988,0.00513586,-0.02528105,0.000695
 22,-0.00428212,-0.00687138,-0.11053242,0.03965322,-0.17763929,0.010298
 90,-0.00228850,0.01201369,0.00001353,-0.00000115,0.00004702,0.00014240
 ,0.00001553,0.00006789,0.00003587,0.00000634,0.00003865,-0.00013262,-0
 .00006208,-0.00011215,-0.00013457,-0.00013106,0.00033009,0.00005930,-0
 .00005377,-0.00000055,-0.00004197,0.00004724,-0.00005290,-0.00013091,0
 .00033882,0.00033798,0.00051022,0.00011379,-0.00027375,0.00008111,-0.0
 0072502,0.00097794,0.12544141,-0.04063593,0.19716079,0.00005935,-0.000
 35277,-0.00008453,-0.00020193,0.00063904,0.00030165,0.00109354,-0.0002
 1178,-0.00015901,-0.00016679,-0.00014634,-0.00009717,0.00224945,0.0126
 3530,0.00091865,-0.00075318,-0.00216799,-0.00055207,-0.05165062,-0.006
 88232,-0.00125140,-0.00984064,-0.03690294,0.01087240,-0.00007736,-0.00
 002880,0.00001332,-0.00003746,0.00004469,-0.00001134,0.00009713,-0.000
 01313,-0.00002698,-0.00077081,-0.00031557,0.00092614,0.00004735,-0.000
 04956,0.00002818,-0.00010024,0.00005006,0.00005442,0.00002911,-0.00009
 823,-0.00000470,0.00005451,-0.00006146,-0.00001708,-0.00002220,0.00002
 077,0.00019542,0.00034111,-0.00032911,0.00027003,0.00313682,0.01854916
 ,-0.00502625,0.06165258,0.00015718,0.00078216,-0.00022163,0.00095442,-
 0.00206632,0.00033444,-0.00276356,0.00091203,-0.00016190,0.00076222,0.
 00025513,0.00002780,0.00423006,-0.03120798,-0.00946186,0.00205203,0.00
 421481,0.00247766,-0.01540116,-0.25007261,0.05661339,-0.00397352,-0.00
 789092,0.00337176,0.00024685,0.00005623,-0.00001392,-0.00001795,-0.000
 09004,0.00002175,-0.00027391,0.00000746,-0.00000647,-0.00019704,0.0012
 2089,0.00011313,-0.00016477,0.00052150,-0.00003019,0.00034571,-0.00023
 970,-0.00026270,-0.00004680,0.00038300,-0.00004293,-0.00009537,-0.0000
 0127,-0.00004821,-0.00004486,0.00004209,0.00006438,-0.00138520,0.00043
 736,-0.00265742,-0.00022637,-0.00686557,0.00272005,0.01778532,0.287736
 31,-0.00007969,0.00021065,0.00004338,0.00000890,0.00018599,-0.00017993
 ,-0.00167123,-0.00012794,0.00097461,0.00051713,0.00006368,0.00006735,-
 0.00049786,-0.03300888,-0.00260028,0.00306550,-0.00392962,0.00702827,-
 0.00016386,0.05392690,-0.06854225,0.00306861,0.00986777,-0.00161926,0.
 00004961,0.00002630,0.00001792,0.00001059,0.00001758,0.00000427,-0.000
 04267,0.00000873,0.00002070,0.00093832,0.00009202,-0.00064449,0.000042
 34,-0.00009989,-0.00000664,0.00020828,-0.00009221,-0.00012816,-0.00006
 827,0.00009344,-0.00003962,-0.00005263,0.00007301,0.00009914,-0.000148
 36,0.00036067,-0.00015444,-0.00031884,0.00347814,0.00067081,0.00102662
 ,0.02233525,-0.00391044,-0.00850033,-0.05400217,0.06783094,0.00001689,
 0.00013600,0.00000464,0.00011697,-0.00043396,-0.00001035,-0.00006267,0
 .00021193,-0.00046620,-0.00004777,0.00006140,0.00007853,0.00163449,0.0
 0058936,-0.00138090,0.00043426,0.00003631,-0.00041107,-0.00849887,-0.0
 4007496,0.01910572,-0.04301038,0.00714878,0.02112484,0.00003559,0.0000
 1374,-0.00000815,-0.00001327,-0.00002117,-0.00000543,-0.00004821,-0.00
 000380,-0.00000461,-0.00002805,0.00022388,-0.00000309,-0.00001920,0.00
 011493,-0.00004108,0.00002960,-0.00000609,-0.00001753,-0.00000533,0.00
 007214,0.00003228,0.00000722,-0.00000410,-0.00005973,0.00007757,0.0003
 4210,-0.00011338,-0.00034759,-0.00009681,-0.00016114,0.00195423,-0.000
 31350,-0.00071577,-0.00662555,-0.00142651,0.00270856,0.05457349,0.0000
 0293,-0.00003066,0.00001247,0.00003377,-0.00007923,-0.00007686,0.00014
 254,-0.00020620,-0.00018371,0.00005229,0.00009773,-0.00003372,0.000064
 36,0.00165735,0.00099157,-0.00021648,-0.00032463,-0.00036226,-0.000117
 41,-0.00741948,0.00513750,-0.02018989,-0.34283740,0.13481918,-0.000011
 84,-0.00000693,-0.00000571,-0.00001222,-0.00000196,-0.00000874,0.00000
 423,0.00000029,-0.00000745,-0.00001842,-0.00002347,0.00002396,0.000004
 77,0.00003663,-0.00002860,-0.00001280,-0.00002051,0.00000471,0.0000099
 2,-0.00001780,0.00001485,0.00000688,-0.00003133,-0.00002695,0.00005342
 ,0.00017721,0.00006133,-0.00003922,-0.00014588,0.00007353,0.00122721,0
 .00126267,-0.00108460,-0.00209829,0.00151289,0.00001443,0.02223535,0.3
 7003006,-0.00001280,-0.00008145,0.00008275,-0.00025610,0.00016673,0.00
 005303,0.00023359,-0.00068849,-0.00028290,0.00003380,0.00010827,-0.000
 05671,-0.00075249,-0.00001219,0.00059291,0.00013755,-0.00029696,-0.001
 34259,-0.00640404,0.00813132,-0.00464616,0.03782730,0.17761007,-0.1143
 4186,-0.00003973,-0.00001194,-0.00000655,-0.00001623,0.00000925,-0.000
 02157,0.00002189,-0.00000654,-0.00001325,-0.00003204,-0.00008675,0.000
 04478,0.00003442,-0.00005292,-0.00000753,-0.00005454,-0.00002077,0.000
 02503,0.00004713,-0.00006341,0.00004153,0.00001392,-0.00002518,-0.0000
 4275,0.00012813,0.00076269,-0.00047938,-0.00014329,-0.00031020,0.00036
 553,0.00075960,-0.00159382,0.00136327,0.00210941,0.00031347,0.00086287
 ,-0.03026166,-0.15663634,0.10947738,0.00001526,-0.00009223,0.00007532,
 -0.00016378,0.00040358,0.00016420,-0.00106924,0.00040647,0.00142405,-0
 .00024744,-0.00022050,0.00017913,-0.00624207,-0.00140048,-0.00097427,0
 .00048049,-0.00048525,-0.00049180,-0.01368284,0.02788846,0.02523081,-0
 .06842826,0.05903092,0.07948125,-0.00002829,0.00000351,-0.00001156,-0.
 00001391,0.00001224,-0.00001253,0.00002270,-0.00000311,-0.00000765,0.0
 0006242,-0.00011338,-0.00003300,-0.00003182,-0.00009529,0.00004640,0.0
 0001357,0.00007269,0.00004329,0.00003538,0.00001636,-0.00002338,-0.000
 02477,0.00006697,0.00005124,0.00016043,0.00002663,0.00067331,0.0001067
 8,0.00007993,0.00025168,0.00000197,0.00029608,-0.00051104,0.00148582,-
 0.00051678,-0.00010072,-0.00017343,-0.00112111,-0.00337384,0.08772103,
 -0.00000622,0.00003154,-0.00003636,0.00019783,0.00001488,-0.00009079,-
 0.00044679,0.00133808,0.00052828,-0.00030123,-0.00009199,0.00009859,-0
 .00120431,-0.00043343,-0.00046303,0.00017199,0.00041858,0.00046186,-0.
 00425832,0.00557607,0.00526689,0.07969994,-0.23594486,-0.15723173,0.00
 000765,-0.00000538,0.00001282,0.00000829,0.00000583,0.00000542,0.00000
 379,-0.00000080,-0.00000144,0.00000438,0.00000137,-0.00000189,-0.00000
 191,-0.00000476,0.00001433,-0.00002550,0.00009731,0.00002434,-0.000011
 82,0.00001657,-0.00001985,0.00000289,0.00001912,0.00002145,-0.00011314
 ,-0.00020908,0.00000712,-0.00004531,-0.00002270,-0.00013889,-0.0005554
 2,-0.00031010,0.00015237,-0.00006604,0.00035256,0.00050614,0.01119495,
 -0.02362935,-0.02721482,-0.08425569,0.25278054,-0.00001152,0.00014433,
 -0.00006480,0.00024080,-0.00055434,0.00006627,0.00039144,0.00013912,-0
 .00107998,0.00023954,0.00033199,0.00003214,0.00428248,-0.00009959,-0.0
 0099620,0.00072479,-0.00054393,-0.00003032,-0.00969057,-0.00729109,-0.
 00782019,0.11550806,-0.18853141,-0.19428458,0.00007523,0.00002830,-0.0
 0000248,-0.00000815,-0.00001508,0.00001094,-0.00001219,-0.00001202,0.0
 0000066,-0.00005066,0.00007769,0.00002574,-0.00000784,0.00005825,-0.00
 006791,0.00006169,-0.00011239,-0.00004266,-0.00004471,0.00000179,0.000
 01486,-0.00002192,-0.00002938,-0.00005384,0.00012136,0.00017751,0.0006
 8276,-0.00002600,0.00010025,-0.00009934,-0.00033768,-0.00012221,0.0007
 1265,0.00004124,0.00085160,0.00020527,-0.00939448,0.01730140,0.0083322
 0,-0.10208091,0.17809920,0.19445880\\0.00000433,-0.00000167,0.00000794
 ,-0.00001216,-0.00001488,-0.00000070,0.00002521,0.00001953,-0.00001141
 ,-0.00001577,0.00000524,0.00000651,-0.00000090,0.00000706,-0.00000906,
 -0.00000988,-0.00001076,-0.00002692,0.00001921,0.00000341,0.00002865,-
 0.00002692,0.00001376,-0.00001370,0.00000170,-0.00000306,-0.00000303,-
 0.00000445,-0.00000268,-0.00000148,0.00000101,-0.00000261,-0.00000111,
 0.00000081,-0.00000140,-0.00000152,-0.00000625,0.00000336,0.00000386,-
 0.00000265,0.00000892,-0.00000207,-0.00000859,0.00000641,0.00000046,-0
 .00000041,-0.00000169,-0.00000735,0.00000903,-0.00000233,0.00000861,0.
 00001613,-0.00000892,0.00001407,0.00000568,0.00000435,0.00000447,0.000
 00076,-0.00000878,-0.00001197,0.00000259,-0.00000828,0.00000099,0.0000
 0154,-0.00000495,0.00001476\\\@


 FIREWORKS ENDED
 AND SPECTATORS GONE AWAY....
 AH, HOW VAST AND DARK
                     SHIKI
 Job cpu time:       0 days  1 hours 54 minutes 18.8 seconds.
 Elapsed time:       0 days  0 hours 28 minutes 35.5 seconds.
 File lengths (MBytes):  RWF=    146 Int=      0 D2E=      0 Chk=      8 Scr=      1
 Normal termination of Gaussian 16 at Tue Jun  1 08:20:54 2021.
### All Done ###
