### Starting Gaussian ###
 Entering Gaussian System, Link 0=g16
 Initial command:
 /cluster/software/gaussian/gaussian-16-A.03/avx2/g16/l1.exe "/local/scratch/linjian/Gau-31002.inp" -scrdir="/local/scratch/linjian/"
 Entering Link 1 = /cluster/software/gaussian/gaussian-16-A.03/avx2/g16/l1.exe PID=     31003.
  
 Copyright (c) 1988,1990,1992,1993,1995,1998,2003,2009,2016,
            Gaussian, Inc.  All Rights Reserved.
  
 This is part of the Gaussian(R) 16 program.  It is based on
 the Gaussian(R) 09 system (copyright 2009, Gaussian, Inc.),
 the Gaussian(R) 03 system (copyright 2003, Gaussian, Inc.),
 the Gaussian(R) 98 system (copyright 1998, Gaussian, Inc.),
 the Gaussian(R) 94 system (copyright 1995, Gaussian, Inc.),
 the Gaussian 92(TM) system (copyright 1992, Gaussian, Inc.),
 the Gaussian 90(TM) system (copyright 1990, Gaussian, Inc.),
 the Gaussian 88(TM) system (copyright 1988, Gaussian, Inc.),
 the Gaussian 86(TM) system (copyright 1986, Carnegie Mellon
 University), and the Gaussian 82(TM) system (copyright 1983,
 Carnegie Mellon University). Gaussian is a federally registered
 trademark of Gaussian, Inc.
  
 This software contains proprietary and confidential information,
 including trade secrets, belonging to Gaussian, Inc.
  
 This software is provided under written license and may be
 used, copied, transmitted, or stored only in accord with that
 written license.
  
 The following legend is applicable only to US Government
 contracts under FAR:
  
                    RESTRICTED RIGHTS LEGEND
  
 Use, reproduction and disclosure by the US Government is
 subject to restrictions as set forth in subparagraphs (a)
 and (c) of the Commercial Computer Software - Restricted
 Rights clause in FAR 52.227-19.
  
 Gaussian, Inc.
 340 Quinnipiac St., Bldg. 40, Wallingford CT 06492
  
  
 ---------------------------------------------------------------
 Warning -- This program may not be used in any manner that
 competes with the business of Gaussian, Inc. or will provide
 assistance to any competitor of Gaussian, Inc.  The licensee
 of this program is prohibited from giving any competitor of
 Gaussian, Inc. access to this program.  By using this program,
 the user acknowledges that Gaussian, Inc. is engaged in the
 business of creating and licensing software in the field of
 computational chemistry and represents and warrants to the
 licensee that it is not a competitor of Gaussian, Inc. and that
 it will not use this program in any manner prohibited above.
 ---------------------------------------------------------------
  

 Cite this work as:
 Gaussian 16, Revision A.03,
 M. J. Frisch, G. W. Trucks, H. B. Schlegel, G. E. Scuseria, 
 M. A. Robb, J. R. Cheeseman, G. Scalmani, V. Barone, 
 G. A. Petersson, H. Nakatsuji, X. Li, M. Caricato, A. V. Marenich, 
 J. Bloino, B. G. Janesko, R. Gomperts, B. Mennucci, H. P. Hratchian, 
 J. V. Ortiz, A. F. Izmaylov, J. L. Sonnenberg, D. Williams-Young, 
 F. Ding, F. Lipparini, F. Egidi, J. Goings, B. Peng, A. Petrone, 
 T. Henderson, D. Ranasinghe, V. G. Zakrzewski, J. Gao, N. Rega, 
 G. Zheng, W. Liang, M. Hada, M. Ehara, K. Toyota, R. Fukuda, 
 J. Hasegawa, M. Ishida, T. Nakajima, Y. Honda, O. Kitao, H. Nakai, 
 T. Vreven, K. Throssell, J. A. Montgomery, Jr., J. E. Peralta, 
 F. Ogliaro, M. J. Bearpark, J. J. Heyd, E. N. Brothers, K. N. Kudin, 
 V. N. Staroverov, T. A. Keith, R. Kobayashi, J. Normand, 
 K. Raghavachari, A. P. Rendell, J. C. Burant, S. S. Iyengar, 
 J. Tomasi, M. Cossi, J. M. Millam, M. Klene, C. Adamo, R. Cammi, 
 J. W. Ochterski, R. L. Martin, K. Morokuma, O. Farkas, 
 J. B. Foresman, and D. J. Fox, Gaussian, Inc., Wallingford CT, 2016.
 
 ******************************************
 Gaussian 16:  ES64L-G16RevA.03 25-Dec-2016
                 1-Jun-2021 
 ******************************************
 %chk=CCNpCCpCNdN.chk
 %NProcShared=20
 Will use up to   20 processors via shared memory.
 -----------------------------
 # opt freq b3lyp/6-31g(2df,p)
 -----------------------------
 1/18=20,19=15,26=3,38=1/1,3;
 2/9=110,12=2,17=6,18=5,40=1/2;
 3/5=1,6=6,7=104,11=2,25=1,30=1,71=1,74=-5/1,2,3;
 4//1;
 5/5=2,38=5/2;
 6/7=2,8=2,9=2,10=2,28=1/1;
 7//1,2,3,16;
 1/18=20,19=15,26=3/3(2);
 2/9=110/2;
 99//99;
 2/9=110/2;
 3/5=1,6=6,7=104,11=2,25=1,30=1,71=1,74=-5/1,2,3;
 4/5=5,16=3,69=1/1;
 5/5=2,38=5/2;
 7//1,2,3,16;
 1/18=20,19=15,26=3/3(-5);
 2/9=110/2;
 6/7=2,8=2,9=2,10=2,19=2,28=1/1;
 99/9=1/99;
 -------------------
 Title Card Required
 -------------------
 Symbolic Z-matrix:
 Charge =  0 Multiplicity = 1
 C                     0.93838   0.07805  -0.29966 
 C                     2.43402  -0.012    -0.00731 
 N                     2.85222   0.39722   1.34804 
 C                     2.40321  -0.50607   2.42523 
 C                     0.90553  -0.51842   2.70795 
 C                     4.33803   0.47206   1.38224 
 N                     4.87112   1.00495   2.65832 
 N                     6.10638   0.89691   2.75965 
 H                     0.75608   0.02983  -1.3776 
 H                     0.50818   1.01204   0.0761 
 H                     0.38797  -0.76527   0.11609 
 H                     2.91203   0.66163  -0.73153 
 H                     2.78884  -1.02395  -0.23792 
 H                     2.85619  -0.17784   3.36893 
 H                     2.75513  -1.52928   2.24772 
 H                     0.48676   0.49308   2.7092 
 H                     0.71282  -0.96632   3.68749 
 H                     0.3578   -1.13808   1.99941 
 H                     4.68952   1.14106   0.586 
 H                     4.76993  -0.52089   1.18803 
 H                     6.44124   1.26831   3.66263 
 

 GradGradGradGradGradGradGradGradGradGradGradGradGradGradGradGradGradGrad
 Berny optimization.
 Initialization pass.
                           ----------------------------
                           !    Initial Parameters    !
                           ! (Angstroms and Degrees)  !
 --------------------------                            --------------------------
 ! Name  Definition              Value          Derivative Info.                !
 --------------------------------------------------------------------------------
 ! R1    R(1,2)                  1.5266         estimate D2E/DX2                !
 ! R2    R(1,9)                  1.0943         estimate D2E/DX2                !
 ! R3    R(1,10)                 1.0948         estimate D2E/DX2                !
 ! R4    R(1,11)                 1.0895         estimate D2E/DX2                !
 ! R5    R(2,3)                  1.4763         estimate D2E/DX2                !
 ! R6    R(2,12)                 1.0985         estimate D2E/DX2                !
 ! R7    R(2,13)                 1.0969         estimate D2E/DX2                !
 ! R8    R(3,4)                  1.4758         estimate D2E/DX2                !
 ! R9    R(3,6)                  1.4881         estimate D2E/DX2                !
 ! R10   R(4,5)                  1.5242         estimate D2E/DX2                !
 ! R11   R(4,14)                 1.097          estimate D2E/DX2                !
 ! R12   R(4,15)                 1.0965         estimate D2E/DX2                !
 ! R13   R(5,16)                 1.0948         estimate D2E/DX2                !
 ! R14   R(5,17)                 1.0942         estimate D2E/DX2                !
 ! R15   R(5,18)                 1.089          estimate D2E/DX2                !
 ! R16   R(6,7)                  1.4821         estimate D2E/DX2                !
 ! R17   R(6,19)                 1.0978         estimate D2E/DX2                !
 ! R18   R(6,20)                 1.1001         estimate D2E/DX2                !
 ! R19   R(7,8)                  1.2441         estimate D2E/DX2                !
 ! R20   R(8,21)                 1.0322         estimate D2E/DX2                !
 ! A1    A(2,1,9)              110.4415         estimate D2E/DX2                !
 ! A2    A(2,1,10)             111.6891         estimate D2E/DX2                !
 ! A3    A(2,1,11)             112.0995         estimate D2E/DX2                !
 ! A4    A(9,1,10)             108.0723         estimate D2E/DX2                !
 ! A5    A(9,1,11)             104.9291         estimate D2E/DX2                !
 ! A6    A(10,1,11)            109.321          estimate D2E/DX2                !
 ! A7    A(1,2,3)              115.9131         estimate D2E/DX2                !
 ! A8    A(1,2,12)             105.3009         estimate D2E/DX2                !
 ! A9    A(1,2,13)             109.3344         estimate D2E/DX2                !
 ! A10   A(3,2,12)             108.181          estimate D2E/DX2                !
 ! A11   A(3,2,13)             110.9239         estimate D2E/DX2                !
 ! A12   A(12,2,13)            106.6408         estimate D2E/DX2                !
 ! A13   A(2,3,4)              114.4739         estimate D2E/DX2                !
 ! A14   A(2,3,6)              108.5355         estimate D2E/DX2                !
 ! A15   A(4,3,6)              108.5298         estimate D2E/DX2                !
 ! A16   A(3,4,5)              116.0604         estimate D2E/DX2                !
 ! A17   A(3,4,14)             108.6104         estimate D2E/DX2                !
 ! A18   A(3,4,15)             110.8152         estimate D2E/DX2                !
 ! A19   A(5,4,14)             104.3943         estimate D2E/DX2                !
 ! A20   A(5,4,15)             109.745          estimate D2E/DX2                !
 ! A21   A(14,4,15)            106.6147         estimate D2E/DX2                !
 ! A22   A(4,5,16)             111.6291         estimate D2E/DX2                !
 ! A23   A(4,5,17)             110.025          estimate D2E/DX2                !
 ! A24   A(4,5,18)             112.2179         estimate D2E/DX2                !
 ! A25   A(16,5,17)            108.0483         estimate D2E/DX2                !
 ! A26   A(16,5,18)            109.5163         estimate D2E/DX2                !
 ! A27   A(17,5,18)            105.126          estimate D2E/DX2                !
 ! A28   A(3,6,7)              113.3916         estimate D2E/DX2                !
 ! A29   A(3,6,19)             109.4919         estimate D2E/DX2                !
 ! A30   A(3,6,20)             110.0323         estimate D2E/DX2                !
 ! A31   A(7,6,19)             106.8713         estimate D2E/DX2                !
 ! A32   A(7,6,20)             109.5923         estimate D2E/DX2                !
 ! A33   A(19,6,20)            107.236          estimate D2E/DX2                !
 ! A34   A(6,7,8)              113.3307         estimate D2E/DX2                !
 ! A35   A(7,8,21)             111.2298         estimate D2E/DX2                !
 ! D1    D(9,1,2,3)            164.2435         estimate D2E/DX2                !
 ! D2    D(9,1,2,12)            44.7339         estimate D2E/DX2                !
 ! D3    D(9,1,2,13)           -69.5107         estimate D2E/DX2                !
 ! D4    D(10,1,2,3)            43.9433         estimate D2E/DX2                !
 ! D5    D(10,1,2,12)          -75.5663         estimate D2E/DX2                !
 ! D6    D(10,1,2,13)          170.1892         estimate D2E/DX2                !
 ! D7    D(11,1,2,3)           -79.136          estimate D2E/DX2                !
 ! D8    D(11,1,2,12)          161.3544         estimate D2E/DX2                !
 ! D9    D(11,1,2,13)           47.1099         estimate D2E/DX2                !
 ! D10   D(1,2,3,4)             68.2585         estimate D2E/DX2                !
 ! D11   D(1,2,3,6)           -170.3496         estimate D2E/DX2                !
 ! D12   D(12,2,3,4)          -173.8132         estimate D2E/DX2                !
 ! D13   D(12,2,3,6)           -52.4213         estimate D2E/DX2                !
 ! D14   D(13,2,3,4)           -57.1807         estimate D2E/DX2                !
 ! D15   D(13,2,3,6)            64.2111         estimate D2E/DX2                !
 ! D16   D(2,3,4,5)            -69.0526         estimate D2E/DX2                !
 ! D17   D(2,3,4,14)           173.7747         estimate D2E/DX2                !
 ! D18   D(2,3,4,15)            56.98           estimate D2E/DX2                !
 ! D19   D(6,3,4,5)            169.5524         estimate D2E/DX2                !
 ! D20   D(6,3,4,14)            52.3797         estimate D2E/DX2                !
 ! D21   D(6,3,4,15)           -64.415          estimate D2E/DX2                !
 ! D22   D(2,3,6,7)            174.2684         estimate D2E/DX2                !
 ! D23   D(2,3,6,19)            55.0233         estimate D2E/DX2                !
 ! D24   D(2,3,6,20)           -62.5977         estimate D2E/DX2                !
 ! D25   D(4,3,6,7)            -60.7569         estimate D2E/DX2                !
 ! D26   D(4,3,6,19)           179.9979         estimate D2E/DX2                !
 ! D27   D(4,3,6,20)            62.3769         estimate D2E/DX2                !
 ! D28   D(3,4,5,16)           -43.0497         estimate D2E/DX2                !
 ! D29   D(3,4,5,17)          -163.0            estimate D2E/DX2                !
 ! D30   D(3,4,5,18)            80.3284         estimate D2E/DX2                !
 ! D31   D(14,4,5,16)           76.4404         estimate D2E/DX2                !
 ! D32   D(14,4,5,17)          -43.5098         estimate D2E/DX2                !
 ! D33   D(14,4,5,18)         -160.1814         estimate D2E/DX2                !
 ! D34   D(15,4,5,16)         -169.6206         estimate D2E/DX2                !
 ! D35   D(15,4,5,17)           70.4291         estimate D2E/DX2                !
 ! D36   D(15,4,5,18)          -46.2425         estimate D2E/DX2                !
 ! D37   D(3,6,7,8)            170.6792         estimate D2E/DX2                !
 ! D38   D(19,6,7,8)           -68.5842         estimate D2E/DX2                !
 ! D39   D(20,6,7,8)            47.3036         estimate D2E/DX2                !
 ! D40   D(6,7,8,21)          -179.4098         estimate D2E/DX2                !
 --------------------------------------------------------------------------------
 Trust Radius=3.00D-01 FncErr=1.00D-07 GrdErr=1.00D-06 EigMax=2.50D+02 EigMin=1.00D-04
 Number of steps in this run=    105 maximum allowed number of steps=    126.
 GradGradGradGradGradGradGradGradGradGradGradGradGradGradGradGradGradGrad

                          Input orientation:                          
 ---------------------------------------------------------------------
 Center     Atomic      Atomic             Coordinates (Angstroms)
 Number     Number       Type             X           Y           Z
 ---------------------------------------------------------------------
      1          6           0        0.938380    0.078050   -0.299660
      2          6           0        2.434020   -0.012000   -0.007310
      3          7           0        2.852220    0.397220    1.348040
      4          6           0        2.403210   -0.506070    2.425230
      5          6           0        0.905530   -0.518420    2.707950
      6          6           0        4.338030    0.472060    1.382240
      7          7           0        4.871120    1.004950    2.658320
      8          7           0        6.106380    0.896910    2.759650
      9          1           0        0.756080    0.029830   -1.377600
     10          1           0        0.508180    1.012040    0.076100
     11          1           0        0.387970   -0.765270    0.116090
     12          1           0        2.912030    0.661630   -0.731530
     13          1           0        2.788840   -1.023950   -0.237920
     14          1           0        2.856190   -0.177840    3.368930
     15          1           0        2.755130   -1.529280    2.247720
     16          1           0        0.486760    0.493080    2.709200
     17          1           0        0.712820   -0.966320    3.687490
     18          1           0        0.357800   -1.138080    1.999410
     19          1           0        4.689520    1.141060    0.586000
     20          1           0        4.769930   -0.520890    1.188030
     21          1           0        6.441240    1.268310    3.662630
 ---------------------------------------------------------------------
                    Distance matrix (angstroms):
                    1          2          3          4          5
     1  C    0.000000
     2  C    1.526603   0.000000
     3  N    2.545500   1.476254   0.000000
     4  C    3.148325   2.482399   1.475765   0.000000
     5  C    3.066362   3.156799   2.545065   1.524181   0.000000
     6  C    3.813352   2.406329   1.488087   2.405846   3.810592
     7  N    5.007518   3.752230   2.482363   2.903118   4.248414
     8  N    6.061199   4.687047   3.582163   3.974124   5.390239
     9  H    1.094309   2.166778   3.458018   4.178725   4.124880
    10  H    1.094808   2.182768   2.736852   3.378492   3.070314
    11  H    1.089490   2.183796   2.990253   3.075793   2.654532
    12  H    2.102944   1.098529   2.097165   3.404050   4.153141
    13  H    2.154627   1.096869   2.130495   2.740306   3.532785
    14  H    4.147533   3.406571   2.101120   1.097039   2.087574
    15  H    3.517561   2.736861   2.128439   1.096502   2.157468
    16  H    3.070741   3.380289   2.730814   2.179844   1.094761
    17  H    4.127826   4.186264   3.450985   2.159294   1.094189
    18  H    2.664914   3.099302   3.000593   2.182765   1.089043
    19  H    3.998179   2.601700   2.123599   3.364969   4.644903
    20  H    4.153640   2.672879   2.132168   2.670627   4.152559
    21  H    6.884615   5.582604   4.358577   4.580968   5.894735
                    6          7          8          9         10
     6  C    0.000000
     7  N    1.482072   0.000000
     8  N    2.281407   1.244109   0.000000
     9  H    4.543418   5.845773   6.818678   0.000000
    10  H    4.082319   5.069828   6.209230   1.771845   0.000000
    11  H    4.328637   5.449334   6.515479   1.731704   1.781819
    12  H    2.556841   3.930265   4.737886   2.337669   2.559990
    13  H    2.694987   4.103722   4.866333   2.557623   3.073316
    14  H    2.562256   2.442110   3.477074   5.194529   4.215649
    15  H    2.694437   3.326910   4.168854   4.423796   4.027782
    16  H    4.073518   4.414432   5.634337   4.121780   2.683839
    17  H    4.530481   4.715565   5.781263   5.162298   4.122854
    18  H    4.337705   5.039524   6.145350   3.595391   2.888728
    19  H    1.097772   2.084710   2.606119   4.534590   4.214291
    20  H    1.100093   2.121363   2.503247   4.795492   4.663558
    21  H    3.202762   1.882359   1.032203   7.697973   6.937584
                   11         12         13         14         15
    11  H    0.000000
    12  H    3.020825   0.000000
    13  H    2.440577   1.760684   0.000000
    14  H    4.125306   4.185881   3.705375   0.000000
    15  H    3.275821   3.701437   2.536711   1.758896   0.000000
    16  H    2.883994   4.212952   4.035650   2.549427   3.073826
    17  H    3.591775   5.197546   4.440949   2.305909   2.561424
    18  H    1.920102   4.149829   3.305847   3.006593   2.441697
    19  H    4.728450   2.263892   2.996447   3.584033   3.692410
    20  H    4.517782   2.921448   2.492212   2.921713   2.489822
    21  H    7.304483   5.668512   5.814531   3.876879   4.838996
                   16         17         18         19         20
    16  H    0.000000
    17  H    1.771441   0.000000
    18  H    1.783568   1.733538   0.000000
    19  H    4.753004   5.465751   5.094704   0.000000
    20  H    4.656999   4.786006   4.528372   1.769459   0.000000
    21  H    6.079954   6.148901   6.750204   3.542650   3.481115
                   21
    21  H    0.000000
 Stoichiometry    C5H13N3
 Framework group  C1[X(C5H13N3)]
 Deg. of freedom    57
 Full point group                 C1      NOp   1
 Largest Abelian subgroup         C1      NOp   1
 Largest concise Abelian subgroup C1      NOp   1
                         Standard orientation:                         
 ---------------------------------------------------------------------
 Center     Atomic      Atomic             Coordinates (Angstroms)
 Number     Number       Type             X           Y           Z
 ---------------------------------------------------------------------
      1          6           0       -2.607914   -1.033507   -0.241699
      2          6           0       -1.171040   -1.230685    0.234777
      3          7           0       -0.196362   -0.218974   -0.218844
      4          6           0       -0.395390    1.124129    0.359380
      5          6           0       -1.641009    1.872956   -0.099773
      6          6           0        1.171107   -0.687891    0.134069
      7          7           0        2.246714    0.185107   -0.392695
      8          7           0        3.373510   -0.098397    0.052010
      9          1           0       -3.186813   -1.951324   -0.100279
     10          1           0       -2.649303   -0.765914   -1.302494
     11          1           0       -3.133064   -0.277772    0.341457
     12          1           0       -0.864023   -2.206319   -0.166026
     13          1           0       -1.160255   -1.322614    1.327733
     14          1           0        0.438492    1.765928    0.049170
     15          1           0       -0.369784    1.084437    1.454864
     16          1           0       -1.795476    1.775497   -1.179191
     17          1           0       -1.545755    2.937564    0.134294
     18          1           0       -2.536097    1.545171    0.426905
     19          1           0        1.336155   -1.687359   -0.288929
     20          1           0        1.269135   -0.775909    1.226245
     21          1           0        4.095226    0.534442   -0.327572
 ---------------------------------------------------------------------
 Rotational constants (GHZ):           3.5110573           1.1089728           0.8877156
 Standard basis: 6-31G(2df,p) (6D, 7F)
 There are   313 symmetry adapted cartesian basis functions of A   symmetry.
 There are   289 symmetry adapted basis functions of A   symmetry.
   289 basis functions,   443 primitive gaussians,   313 cartesian basis functions
    32 alpha electrons       32 beta electrons
       nuclear repulsion energy       391.9084707821 Hartrees.
 NAtoms=   21 NActive=   21 NUniq=   21 SFac= 1.00D+00 NAtFMM=   60 NAOKFM=F Big=F
 Integral buffers will be    131072 words long.
 Raffenetti 2 integral format.
 Two-electron integral symmetry is turned on.
 One-electron integrals computed using PRISM.
 PrsmSu:  requested number of processors reduced to:  13 ShMem   1 Linda.
 NBasis=   289 RedAO= T EigKep=  2.84D-04  NBF=   289
 NBsUse=   289 1.00D-06 EigRej= -1.00D+00 NBFU=   289
 ExpMin= 1.61D-01 ExpMax= 4.17D+03 ExpMxC= 6.27D+02 IAcc=3 IRadAn=         5 AccDes= 0.00D+00
 Harris functional with IExCor=  402 and IRadAn=       5 diagonalized for initial guess.
 HarFok:  IExCor=  402 AccDes= 0.00D+00 IRadAn=         5 IDoV= 1 UseB2=F ITyADJ=14
 ICtDFT=  3500011 ScaDFX=  1.000000  1.000000  1.000000  1.000000
 FoFCou: FMM=F IPFlag=           0 FMFlag=      100000 FMFlg1=           0
         NFxFlg=           0 DoJE=T BraDBF=F KetDBF=T FulRan=T
         wScrn=  0.000000 ICntrl=       500 IOpCl=  0 I1Cent=   200000004 NGrid=           0
         NMat0=    1 NMatS0=      1 NMatT0=    0 NMatD0=    1 NMtDS0=    0 NMtDT0=    0
 Petite list used in FoFCou.
 Requested convergence on RMS density matrix=1.00D-08 within 128 cycles.
 Requested convergence on MAX density matrix=1.00D-06.
 Requested convergence on             energy=1.00D-06.
 No special actions if energy rises.
 Integral accuracy reduced to 1.0D-05 until final iterations.
 Initial convergence to 1.0D-05 achieved.  Increase integral accuracy.
 SCF Done:  E(RB3LYP) =  -362.561234806     A.U. after   13 cycles
            NFock= 13  Conv=0.92D-08     -V/T= 2.0084

 **********************************************************************

            Population analysis using the SCF density.

 **********************************************************************

 Orbital symmetries:
       Occupied  (A) (A) (A) (A) (A) (A) (A) (A) (A) (A) (A) (A)
                 (A) (A) (A) (A) (A) (A) (A) (A) (A) (A) (A) (A)
                 (A) (A) (A) (A) (A) (A) (A) (A)
       Virtual   (A) (A) (A) (A) (A) (A) (A) (A) (A) (A) (A) (A)
                 (A) (A) (A) (A) (A) (A) (A) (A) (A) (A) (A) (A)
                 (A) (A) (A) (A) (A) (A) (A) (A) (A) (A) (A) (A)
                 (A) (A) (A) (A) (A) (A) (A) (A) (A) (A) (A) (A)
                 (A) (A) (A) (A) (A) (A) (A) (A) (A) (A) (A) (A)
                 (A) (A) (A) (A) (A) (A) (A) (A) (A) (A) (A) (A)
                 (A) (A) (A) (A) (A) (A) (A) (A) (A) (A) (A) (A)
                 (A) (A) (A) (A) (A) (A) (A) (A) (A) (A) (A) (A)
                 (A) (A) (A) (A) (A) (A) (A) (A) (A) (A) (A) (A)
                 (A) (A) (A) (A) (A) (A) (A) (A) (A) (A) (A) (A)
                 (A) (A) (A) (A) (A) (A) (A) (A) (A) (A) (A) (A)
                 (A) (A) (A) (A) (A) (A) (A) (A) (A) (A) (A) (A)
                 (A) (A) (A) (A) (A) (A) (A) (A) (A) (A) (A) (A)
                 (A) (A) (A) (A) (A) (A) (A) (A) (A) (A) (A) (A)
                 (A) (A) (A) (A) (A) (A) (A) (A) (A) (A) (A) (A)
                 (A) (A) (A) (A) (A) (A) (A) (A) (A) (A) (A) (A)
                 (A) (A) (A) (A) (A) (A) (A) (A) (A) (A) (A) (A)
                 (A) (A) (A) (A) (A) (A) (A) (A) (A) (A) (A) (A)
                 (A) (A) (A) (A) (A) (A) (A) (A) (A) (A) (A) (A)
                 (A) (A) (A) (A) (A) (A) (A) (A) (A) (A) (A) (A)
                 (A) (A) (A) (A) (A) (A) (A) (A) (A) (A) (A) (A)
                 (A) (A) (A) (A) (A)
 The electronic state is 1-A.
 Alpha  occ. eigenvalues --  -14.38654 -14.37296 -14.32335 -10.23313 -10.20761
 Alpha  occ. eigenvalues --  -10.20003 -10.17278 -10.16923  -1.02479  -0.91452
 Alpha  occ. eigenvalues --   -0.76379  -0.75442  -0.70873  -0.62667  -0.60330
 Alpha  occ. eigenvalues --   -0.56481  -0.50114  -0.47904  -0.46732  -0.45223
 Alpha  occ. eigenvalues --   -0.43671  -0.41068  -0.40241  -0.38218  -0.37786
 Alpha  occ. eigenvalues --   -0.37429  -0.34952  -0.34225  -0.33835  -0.31645
 Alpha  occ. eigenvalues --   -0.22647  -0.21681
 Alpha virt. eigenvalues --   -0.04741   0.08534   0.10328   0.10564   0.11804
 Alpha virt. eigenvalues --    0.13251   0.14786   0.15856   0.17013   0.17439
 Alpha virt. eigenvalues --    0.18029   0.19002   0.19137   0.19865   0.22306
 Alpha virt. eigenvalues --    0.23521   0.24456   0.25442   0.28018   0.29226
 Alpha virt. eigenvalues --    0.34452   0.41704   0.44751   0.45699   0.46551
 Alpha virt. eigenvalues --    0.47656   0.49966   0.51453   0.54388   0.55207
 Alpha virt. eigenvalues --    0.57281   0.57896   0.59943   0.60313   0.63579
 Alpha virt. eigenvalues --    0.65267   0.66398   0.67150   0.68988   0.69947
 Alpha virt. eigenvalues --    0.70686   0.72118   0.72197   0.73022   0.73758
 Alpha virt. eigenvalues --    0.75846   0.76615   0.77448   0.78275   0.78663
 Alpha virt. eigenvalues --    0.79402   0.80843   0.82533   0.83734   0.84202
 Alpha virt. eigenvalues --    0.86269   0.86401   0.89403   0.90080   0.92163
 Alpha virt. eigenvalues --    0.95044   0.95466   0.98650   1.00919   1.07371
 Alpha virt. eigenvalues --    1.10438   1.13336   1.15541   1.17888   1.19930
 Alpha virt. eigenvalues --    1.21175   1.23632   1.25882   1.29082   1.33741
 Alpha virt. eigenvalues --    1.34133   1.37621   1.38252   1.39727   1.44517
 Alpha virt. eigenvalues --    1.46429   1.47680   1.50378   1.52185   1.54504
 Alpha virt. eigenvalues --    1.56896   1.59358   1.60528   1.62548   1.65461
 Alpha virt. eigenvalues --    1.67928   1.68647   1.70448   1.73339   1.77258
 Alpha virt. eigenvalues --    1.82997   1.83757   1.87043   1.89477   1.89978
 Alpha virt. eigenvalues --    1.95493   1.96217   1.98567   1.99453   2.01090
 Alpha virt. eigenvalues --    2.02718   2.06321   2.08947   2.17064   2.19188
 Alpha virt. eigenvalues --    2.23013   2.25461   2.30682   2.31931   2.34926
 Alpha virt. eigenvalues --    2.39104   2.40464   2.41551   2.46598   2.50889
 Alpha virt. eigenvalues --    2.52325   2.55507   2.57902   2.61417   2.63902
 Alpha virt. eigenvalues --    2.66070   2.71801   2.73234   2.74488   2.76119
 Alpha virt. eigenvalues --    2.78944   2.81204   2.82971   2.86444   2.86980
 Alpha virt. eigenvalues --    2.89799   2.90909   2.91652   2.92017   2.94780
 Alpha virt. eigenvalues --    2.96855   2.97384   3.00235   3.03460   3.08020
 Alpha virt. eigenvalues --    3.08826   3.12813   3.15088   3.18167   3.20577
 Alpha virt. eigenvalues --    3.24183   3.25966   3.28376   3.31557   3.33435
 Alpha virt. eigenvalues --    3.34806   3.36410   3.38396   3.41010   3.42394
 Alpha virt. eigenvalues --    3.46118   3.47723   3.53368   3.54814   3.55976
 Alpha virt. eigenvalues --    3.57324   3.59220   3.60867   3.61824   3.63780
 Alpha virt. eigenvalues --    3.64783   3.69408   3.72427   3.73289   3.76316
 Alpha virt. eigenvalues --    3.78722   3.82592   3.88071   3.89812   3.92969
 Alpha virt. eigenvalues --    3.97128   3.97660   4.01024   4.02789   4.06313
 Alpha virt. eigenvalues --    4.09009   4.11354   4.14102   4.17038   4.20607
 Alpha virt. eigenvalues --    4.23245   4.26672   4.29383   4.33393   4.38379
 Alpha virt. eigenvalues --    4.40440   4.40946   4.41491   4.43702   4.45670
 Alpha virt. eigenvalues --    4.49428   4.51971   4.52632   4.53657   4.54334
 Alpha virt. eigenvalues --    4.56563   4.57850   4.60215   4.61246   4.61428
 Alpha virt. eigenvalues --    4.65672   4.66099   4.68489   4.70479   4.71434
 Alpha virt. eigenvalues --    4.72760   4.73989   4.75337   4.78683   4.80200
 Alpha virt. eigenvalues --    4.80750   4.82945   4.84146   4.85999   4.88571
 Alpha virt. eigenvalues --    4.89739   4.93003   4.95658   4.99943   5.01144
 Alpha virt. eigenvalues --    5.08452   5.12567   5.16111   5.18024   5.19967
 Alpha virt. eigenvalues --    5.27735   5.31254   5.36530   5.43095   5.49668
 Alpha virt. eigenvalues --    5.53263   5.56730   5.65588   5.72812   5.80568
 Alpha virt. eigenvalues --    6.07557   6.54365   9.88845  11.14422  11.25719
 Alpha virt. eigenvalues --   11.42880  11.53198  11.59002  11.76867  12.12373
 Alpha virt. eigenvalues --   12.40153  16.65562
          Condensed to atoms (all electrons):
               1          2          3          4          5          6
     1  C    5.000679   0.409787  -0.038572   0.001908  -0.003875   0.002062
     2  C    0.409787   4.781851   0.393394  -0.067732   0.000658  -0.052151
     3  N   -0.038572   0.393394   6.225232   0.400335  -0.037591   0.394533
     4  C    0.001908  -0.067732   0.400335   4.803401   0.409333  -0.059526
     5  C   -0.003875   0.000658  -0.037591   0.409333   4.999285   0.002784
     6  C    0.002062  -0.052151   0.394533  -0.059526   0.002784   4.808169
     7  N   -0.000062   0.001452  -0.022968  -0.006350   0.000184   0.344889
     8  N   -0.000000  -0.000087   0.001212   0.000348  -0.000008  -0.076961
     9  H    0.365495  -0.021520   0.002526  -0.000024   0.000215  -0.000115
    10  H    0.369147  -0.022207   0.002654  -0.000636  -0.000694   0.000221
    11  H    0.380105  -0.026363  -0.000706  -0.000226  -0.003703  -0.000000
    12  H   -0.035985   0.368948  -0.024966   0.005279  -0.000041  -0.004539
    13  H   -0.049895   0.347725  -0.045612  -0.008763  -0.001112  -0.003962
    14  H    0.000054   0.005261  -0.021616   0.368030  -0.034312  -0.009307
    15  H   -0.001016  -0.008151  -0.049772   0.341025  -0.049272   0.000492
    16  H   -0.000746  -0.000544   0.002390  -0.022648   0.369183   0.000376
    17  H    0.000216  -0.000011   0.002479  -0.022431   0.366078  -0.000133
    18  H   -0.004120  -0.000089  -0.000303  -0.027021   0.378668  -0.000088
    19  H    0.000290  -0.002360  -0.023736   0.005668  -0.000200   0.345959
    20  H   -0.000165  -0.002927  -0.053394  -0.008852  -0.000178   0.342373
    21  H   -0.000000  -0.000001  -0.000200   0.000049  -0.000000   0.006918
               7          8          9         10         11         12
     1  C   -0.000062  -0.000000   0.365495   0.369147   0.380105  -0.035985
     2  C    0.001452  -0.000087  -0.021520  -0.022207  -0.026363   0.368948
     3  N   -0.022968   0.001212   0.002526   0.002654  -0.000706  -0.024966
     4  C   -0.006350   0.000348  -0.000024  -0.000636  -0.000226   0.005279
     5  C    0.000184  -0.000008   0.000215  -0.000694  -0.003703  -0.000041
     6  C    0.344889  -0.076961  -0.000115   0.000221  -0.000000  -0.004539
     7  N    6.490872   0.462287   0.000000  -0.000002   0.000002   0.000340
     8  N    0.462287   6.563057  -0.000000   0.000000   0.000000   0.000003
     9  H    0.000000  -0.000000   0.609413  -0.028630  -0.032663  -0.007624
    10  H   -0.000002   0.000000  -0.028630   0.581149  -0.033242  -0.002526
    11  H    0.000002   0.000000  -0.032663  -0.033242   0.587928   0.005564
    12  H    0.000340   0.000003  -0.007624  -0.002526   0.005564   0.636054
    13  H   -0.000277   0.000032   0.002477   0.006429  -0.006347  -0.047816
    14  H    0.015404  -0.000739   0.000005  -0.000048  -0.000043  -0.000245
    15  H   -0.001880   0.000115   0.000023   0.000269   0.000083  -0.000228
    16  H   -0.000017   0.000000   0.000046   0.001930  -0.000029  -0.000053
    17  H    0.000005   0.000000  -0.000012   0.000043   0.000202   0.000006
    18  H   -0.000003   0.000000   0.000222  -0.000012   0.005517  -0.000044
    19  H   -0.017329   0.000510  -0.000013  -0.000027   0.000004   0.006815
    20  H   -0.048049   0.011584   0.000016   0.000046   0.000006  -0.001254
    21  H   -0.081826   0.310559   0.000000   0.000000   0.000000   0.000000
              13         14         15         16         17         18
     1  C   -0.049895   0.000054  -0.001016  -0.000746   0.000216  -0.004120
     2  C    0.347725   0.005261  -0.008151  -0.000544  -0.000011  -0.000089
     3  N   -0.045612  -0.021616  -0.049772   0.002390   0.002479  -0.000303
     4  C   -0.008763   0.368030   0.341025  -0.022648  -0.022431  -0.027021
     5  C   -0.001112  -0.034312  -0.049272   0.369183   0.366078   0.378668
     6  C   -0.003962  -0.009307   0.000492   0.000376  -0.000133  -0.000088
     7  N   -0.000277   0.015404  -0.001880  -0.000017   0.000005  -0.000003
     8  N    0.000032  -0.000739   0.000115   0.000000   0.000000   0.000000
     9  H    0.002477   0.000005   0.000023   0.000046  -0.000012   0.000222
    10  H    0.006429  -0.000048   0.000269   0.001930   0.000043  -0.000012
    11  H   -0.006347  -0.000043   0.000083  -0.000029   0.000202   0.005517
    12  H   -0.047816  -0.000245  -0.000228  -0.000053   0.000006  -0.000044
    13  H    0.701580  -0.000226   0.014367   0.000265   0.000022   0.000050
    14  H   -0.000226   0.604790  -0.045075  -0.002223  -0.007365   0.005350
    15  H    0.014367  -0.045075   0.709695   0.006503   0.002582  -0.006982
    16  H    0.000265  -0.002223   0.006503   0.582571  -0.028408  -0.033936
    17  H    0.000022  -0.007365   0.002582  -0.028408   0.610728  -0.033118
    18  H    0.000050   0.005350  -0.006982  -0.033936  -0.033118   0.597077
    19  H   -0.001495   0.000670  -0.000253  -0.000002   0.000003   0.000002
    20  H    0.013588   0.000109   0.015244   0.000053   0.000014  -0.000011
    21  H    0.000000  -0.000172  -0.000005  -0.000000   0.000000   0.000000
              19         20         21
     1  C    0.000290  -0.000165  -0.000000
     2  C   -0.002360  -0.002927  -0.000001
     3  N   -0.023736  -0.053394  -0.000200
     4  C    0.005668  -0.008852   0.000049
     5  C   -0.000200  -0.000178  -0.000000
     6  C    0.345959   0.342373   0.006918
     7  N   -0.017329  -0.048049  -0.081826
     8  N    0.000510   0.011584   0.310559
     9  H   -0.000013   0.000016   0.000000
    10  H   -0.000027   0.000046   0.000000
    11  H    0.000004   0.000006   0.000000
    12  H    0.006815  -0.001254   0.000000
    13  H   -0.001495   0.013588   0.000000
    14  H    0.000670   0.000109  -0.000172
    15  H   -0.000253   0.015244  -0.000005
    16  H   -0.000002   0.000053  -0.000000
    17  H    0.000003   0.000014   0.000000
    18  H    0.000002  -0.000011   0.000000
    19  H    0.597399  -0.036187  -0.000640
    20  H   -0.036187   0.669792  -0.000870
    21  H   -0.000640  -0.000870   0.516111
 Mulliken charges:
               1
     1  C   -0.395309
     2  C   -0.104933
     3  N   -0.105320
     4  C   -0.111168
     5  C   -0.395402
     6  C   -0.041993
     7  N   -0.136670
     8  N   -0.271914
     9  H    0.110162
    10  H    0.126135
    11  H    0.123910
    12  H    0.102312
    13  H    0.078969
    14  H    0.121697
    15  H    0.072236
    16  H    0.125287
    17  H    0.109101
    18  H    0.118839
    19  H    0.124922
    20  H    0.099063
    21  H    0.250076
 Sum of Mulliken charges =  -0.00000
 Mulliken charges with hydrogens summed into heavy atoms:
               1
     1  C   -0.035102
     2  C    0.076348
     3  N   -0.105320
     4  C    0.082765
     5  C   -0.042176
     6  C    0.181992
     7  N   -0.136670
     8  N   -0.021838
 Electronic spatial extent (au):  <R**2>=           1340.4839
 Charge=             -0.0000 electrons
 Dipole moment (field-independent basis, Debye):
    X=             -0.4271    Y=             -0.0222    Z=              0.5125  Tot=              0.6675
 Quadrupole moment (field-independent basis, Debye-Ang):
   XX=            -48.3181   YY=            -48.8650   ZZ=            -52.4410
   XY=              2.7453   XZ=             -2.0189   YZ=              0.9638
 Traceless Quadrupole moment (field-independent basis, Debye-Ang):
   XX=              1.5566   YY=              1.0097   ZZ=             -2.5663
   XY=              2.7453   XZ=             -2.0189   YZ=              0.9638
 Octapole moment (field-independent basis, Debye-Ang**2):
  XXX=             26.7198  YYY=             -1.4231  ZZZ=             -1.1349  XYY=              2.5175
  XXY=             12.3152  XXZ=             -9.7475  XZZ=              0.8075  YZZ=             -0.1515
  YYZ=             -1.4322  XYZ=              1.8581
 Hexadecapole moment (field-independent basis, Debye-Ang**3):
 XXXX=          -1118.1836 YYYY=           -431.4646 ZZZZ=           -107.0187 XXXY=             68.9888
 XXXZ=            -50.0338 YYYX=              5.5945 YYYZ=              4.2758 ZZZX=              1.0447
 ZZZY=             -0.2759 XXYY=           -277.1120 XXZZ=           -225.3832 YYZZ=            -93.8878
 XXYZ=              5.3034 YYXZ=             -2.5161 ZZXY=             -0.9456
 N-N= 3.919084707821D+02 E-N=-1.625631907755D+03  KE= 3.595481844980D+02
 PrsmSu:  requested number of processors reduced to:  13 ShMem   1 Linda.
 Calling FoFJK, ICntrl=      2127 FMM=F ISym2X=0 I1Cent= 0 IOpClX= 0 NMat=1 NMatS=1 NMatT=0.
 ***** Axes restored to original set *****
 -------------------------------------------------------------------
 Center     Atomic                   Forces (Hartrees/Bohr)
 Number     Number              X              Y              Z
 -------------------------------------------------------------------
      1        6          -0.005666810   -0.003369910   -0.000694927
      2        6           0.001614450    0.008934744    0.000857617
      3        7           0.012898038    0.003371163    0.007364005
      4        6          -0.001164576    0.006926453    0.005305203
      5        6          -0.006234914   -0.004081926   -0.000505489
      6        6          -0.009149214   -0.000321113   -0.006008227
      7        7           0.001365685    0.002764732    0.011360323
      8        7          -0.005311514   -0.010123630   -0.017679967
      9        1           0.003437915    0.002071739   -0.001479766
     10        1           0.000867191   -0.001341086    0.000274401
     11        1          -0.001825535    0.001779104    0.001442946
     12        1           0.005195124   -0.000505473    0.004506890
     13        1           0.002154002   -0.005775676   -0.001970608
     14        1           0.007050868    0.002309671   -0.006167286
     15        1           0.001926207   -0.006710263   -0.001200303
     16        1           0.000729248   -0.001175189   -0.000781113
     17        1           0.002510640    0.001197209    0.002057042
     18        1          -0.002714013    0.002071548   -0.000779839
     19        1          -0.002683048   -0.000349072    0.000334090
     20        1           0.005675532   -0.002265175    0.001507190
     21        1          -0.010675275    0.004592149    0.002257820
 -------------------------------------------------------------------
 Cartesian Forces:  Max     0.017679967 RMS     0.005148988

 GradGradGradGradGradGradGradGradGradGradGradGradGradGradGradGradGradGrad
 Berny optimization.
 FormGI is forming the generalized inverse of G from B-inverse, IUseBI=4.
 Internal  Forces:  Max     0.022754330 RMS     0.005479913
 Search for a local minimum.
 Step number   1 out of a maximum of  105
 All quantities printed in internal units (Hartrees-Bohrs-Radians)
 Mixed Optimization -- RFO/linear search
 Second derivative matrix not updated -- first step.
 ITU=  0
     Eigenvalues ---    0.00414   0.00446   0.00527   0.00606   0.00683
     Eigenvalues ---    0.00690   0.02765   0.03357   0.03774   0.03782
     Eigenvalues ---    0.05309   0.05327   0.05518   0.05549   0.05640
     Eigenvalues ---    0.05644   0.05707   0.07161   0.09814   0.09830
     Eigenvalues ---    0.11735   0.13202   0.13225   0.14141   0.16000
     Eigenvalues ---    0.16000   0.16000   0.16000   0.16000   0.16000
     Eigenvalues ---    0.16000   0.16052   0.17424   0.22021   0.22022
     Eigenvalues ---    0.22082   0.25000   0.29739   0.29967   0.33660
     Eigenvalues ---    0.33672   0.33845   0.33930   0.34012   0.34031
     Eigenvalues ---    0.34072   0.34263   0.34268   0.34319   0.34333
     Eigenvalues ---    0.34333   0.34872   0.34923   0.35002   0.35059
     Eigenvalues ---    0.42447   0.85452
 RFO step:  Lambda=-1.53156612D-02 EMin= 4.14041639D-03
 Linear search not attempted -- first point.
 Iteration  1 RMS(Cart)=  0.14766250 RMS(Int)=  0.00557536
 Iteration  2 RMS(Cart)=  0.00797884 RMS(Int)=  0.00035044
 Iteration  3 RMS(Cart)=  0.00002604 RMS(Int)=  0.00035010
 Iteration  4 RMS(Cart)=  0.00000001 RMS(Int)=  0.00035010
 Variable       Old X    -DE/DX   Delta X   Delta X   Delta X     New X
                                 (Linear)    (Quad)   (Total)
    R1        2.88486   0.00316   0.00000   0.01010   0.01010   2.89496
    R2        2.06795   0.00079   0.00000   0.00221   0.00221   2.07016
    R3        2.06889  -0.00139   0.00000  -0.00389  -0.00389   2.06500
    R4        2.05884   0.00010   0.00000   0.00026   0.00026   2.05910
    R5        2.78972  -0.00483   0.00000  -0.01322  -0.01322   2.77650
    R6        2.07592  -0.00102   0.00000  -0.00289  -0.00289   2.07303
    R7        2.07278   0.00644   0.00000   0.01811   0.01811   2.09089
    R8        2.78879  -0.00248   0.00000  -0.00679  -0.00679   2.78200
    R9        2.81208  -0.02122   0.00000  -0.06030  -0.06030   2.75177
   R10        2.88029   0.00563   0.00000   0.01786   0.01786   2.89814
   R11        2.07310  -0.00170   0.00000  -0.00479  -0.00479   2.06831
   R12        2.07209   0.00707   0.00000   0.01987   0.01987   2.09196
   R13        2.06880  -0.00136   0.00000  -0.00381  -0.00381   2.06499
   R14        2.06772   0.00091   0.00000   0.00253   0.00253   2.07025
   R15        2.05799   0.00069   0.00000   0.00190   0.00190   2.05990
   R16        2.80071  -0.00975   0.00000  -0.02719  -0.02719   2.77352
   R17        2.07449  -0.00131   0.00000  -0.00371  -0.00371   2.07078
   R18        2.07887   0.00401   0.00000   0.01138   0.01138   2.09026
   R19        2.35103  -0.01665   0.00000  -0.01914  -0.01914   2.33189
   R20        1.95058   0.00016   0.00000   0.00037   0.00037   1.95095
    A1        1.92757  -0.00504   0.00000  -0.02866  -0.02879   1.89878
    A2        1.94934  -0.00101   0.00000  -0.01085  -0.01104   1.93830
    A3        1.95651   0.00375   0.00000   0.02631   0.02644   1.98294
    A4        1.88622   0.00177   0.00000   0.00057   0.00011   1.88633
    A5        1.83136   0.00226   0.00000   0.02297   0.02316   1.85452
    A6        1.90801  -0.00158   0.00000  -0.00917  -0.00911   1.89890
    A7        2.02306   0.00578   0.00000   0.02807   0.02782   2.05088
    A8        1.83785   0.00262   0.00000   0.01811   0.01854   1.85639
    A9        1.90825  -0.00125   0.00000   0.01084   0.01033   1.91857
   A10        1.88811  -0.00676   0.00000  -0.05722  -0.05723   1.83088
   A11        1.93599  -0.00074   0.00000   0.00677   0.00601   1.94200
   A12        1.86123  -0.00001   0.00000  -0.01073  -0.01109   1.85015
   A13        1.99795   0.01019   0.00000   0.05826   0.05805   2.05600
   A14        1.89430  -0.00685   0.00000  -0.03783  -0.03749   1.85681
   A15        1.89420  -0.00278   0.00000  -0.01634  -0.01565   1.87855
   A16        2.02564   0.00650   0.00000   0.03083   0.03070   2.05634
   A17        1.89561  -0.00887   0.00000  -0.07319  -0.07339   1.82222
   A18        1.93409  -0.00093   0.00000   0.00301   0.00221   1.93630
   A19        1.82202   0.00454   0.00000   0.03443   0.03502   1.85704
   A20        1.91541  -0.00186   0.00000   0.00840   0.00795   1.92337
   A21        1.86078   0.00030   0.00000  -0.00694  -0.00775   1.85302
   A22        1.94829  -0.00126   0.00000  -0.01250  -0.01263   1.93567
   A23        1.92030  -0.00388   0.00000  -0.02146  -0.02161   1.89869
   A24        1.95857   0.00452   0.00000   0.03036   0.03045   1.98902
   A25        1.88580   0.00131   0.00000  -0.00151  -0.00189   1.88391
   A26        1.91142  -0.00203   0.00000  -0.01275  -0.01265   1.89877
   A27        1.83479   0.00139   0.00000   0.01851   0.01859   1.85338
   A28        1.97906  -0.01477   0.00000  -0.06686  -0.06701   1.91205
   A29        1.91099   0.00011   0.00000  -0.01118  -0.01199   1.89901
   A30        1.92043   0.00936   0.00000   0.05658   0.05661   1.97704
   A31        1.86526   0.00540   0.00000   0.01317   0.01210   1.87735
   A32        1.91275   0.00128   0.00000  -0.00137  -0.00055   1.91219
   A33        1.87162  -0.00087   0.00000   0.01210   0.01177   1.88339
   A34        1.97799  -0.01416   0.00000  -0.05338  -0.05338   1.92461
   A35        1.94133  -0.02275   0.00000  -0.12979  -0.12979   1.81154
    D1        2.86659  -0.00331   0.00000  -0.05307  -0.05298   2.81361
    D2        0.78075  -0.00008   0.00000  -0.01053  -0.01040   0.77036
    D3       -1.21319  -0.00083   0.00000  -0.01231  -0.01202  -1.22521
    D4        0.76696  -0.00146   0.00000  -0.02714  -0.02736   0.73959
    D5       -1.31888   0.00177   0.00000   0.01540   0.01522  -1.30366
    D6        2.97036   0.00102   0.00000   0.01362   0.01359   2.98396
    D7       -1.38118  -0.00140   0.00000  -0.02652  -0.02663  -1.40781
    D8        2.81617   0.00183   0.00000   0.01602   0.01595   2.83212
    D9        0.82222   0.00108   0.00000   0.01425   0.01433   0.83655
   D10        1.19134   0.00284   0.00000   0.10369   0.10421   1.29555
   D11       -2.97316   0.00104   0.00000   0.09382   0.09383  -2.87933
   D12       -3.03361   0.00493   0.00000   0.10307   0.10297  -2.93065
   D13       -0.91492   0.00313   0.00000   0.09319   0.09258  -0.82234
   D14       -0.99799   0.00050   0.00000   0.05999   0.06034  -0.93765
   D15        1.12070  -0.00130   0.00000   0.05012   0.04995   1.17065
   D16       -1.20519  -0.00359   0.00000  -0.11406  -0.11445  -1.31965
   D17        3.03294  -0.00708   0.00000  -0.12461  -0.12400   2.90894
   D18        0.99449  -0.00162   0.00000  -0.07430  -0.07461   0.91988
   D19        2.95925   0.00045   0.00000  -0.09238  -0.09271   2.86654
   D20        0.91420  -0.00304   0.00000  -0.10293  -0.10226   0.81194
   D21       -1.12425   0.00242   0.00000  -0.05262  -0.05286  -1.17712
   D22        3.04156  -0.00407   0.00000  -0.05740  -0.05681   2.98475
   D23        0.96034  -0.00141   0.00000  -0.02302  -0.02353   0.93681
   D24       -1.09254  -0.00595   0.00000  -0.06448  -0.06521  -1.15775
   D25       -1.06041   0.00233   0.00000  -0.02028  -0.01926  -1.07966
   D26        3.14156   0.00498   0.00000   0.01410   0.01403  -3.12760
   D27        1.08868   0.00045   0.00000  -0.02735  -0.02766   1.06103
   D28       -0.75136   0.00177   0.00000   0.02686   0.02700  -0.72436
   D29       -2.84489   0.00354   0.00000   0.05121   0.05110  -2.79379
   D30        1.40200   0.00152   0.00000   0.02334   0.02335   1.42535
   D31        1.33414  -0.00241   0.00000  -0.02276  -0.02257   1.31156
   D32       -0.75939  -0.00064   0.00000   0.00158   0.00152  -0.75786
   D33       -2.79569  -0.00266   0.00000  -0.02628  -0.02622  -2.82192
   D34       -2.96044  -0.00058   0.00000  -0.00960  -0.00955  -2.96999
   D35        1.22922   0.00119   0.00000   0.01475   0.01455   1.24377
   D36       -0.80708  -0.00083   0.00000  -0.01312  -0.01320  -0.82028
   D37        2.97891   0.00229   0.00000   0.00904   0.00919   2.98811
   D38       -1.19702  -0.00289   0.00000  -0.03670  -0.03659  -1.23360
   D39        0.82560  -0.00033   0.00000  -0.01600  -0.01627   0.80933
   D40       -3.13129  -0.00365   0.00000  -0.07472  -0.07472   3.07718
         Item               Value     Threshold  Converged?
 Maximum Force            0.022754     0.000450     NO 
 RMS     Force            0.005480     0.000300     NO 
 Maximum Displacement     0.520078     0.001800     NO 
 RMS     Displacement     0.150408     0.001200     NO 
 Predicted change in Energy=-9.067061D-03
 GradGradGradGradGradGradGradGradGradGradGradGradGradGradGradGradGradGrad

                          Input orientation:                          
 ---------------------------------------------------------------------
 Center     Atomic      Atomic             Coordinates (Angstroms)
 Number     Number       Type             X           Y           Z
 ---------------------------------------------------------------------
      1          6           0        0.978830    0.146989   -0.425822
      2          6           0        2.446394   -0.036021   -0.026287
      3          7           0        2.828097    0.334488    1.343293
      4          6           0        2.421809   -0.564243    2.436228
      5          6           0        0.952980   -0.537219    2.876499
      6          6           0        4.281918    0.416177    1.356746
      7          7           0        4.729899    0.989297    2.631479
      8          7           0        5.956842    0.903395    2.731178
      9          1           0        0.909673    0.159756   -1.519044
     10          1           0        0.584833    1.094433   -0.050026
     11          1           0        0.330597   -0.661324   -0.088605
     12          1           0        3.028274    0.633106   -0.672119
     13          1           0        2.778894   -1.062360   -0.271862
     14          1           0        3.008672   -0.228765    3.297033
     15          1           0        2.740666   -1.604540    2.232277
     16          1           0        0.575778    0.487693    2.913416
     17          1           0        0.878861   -0.960580    3.884198
     18          1           0        0.291188   -1.132487    2.247295
     19          1           0        4.605073    1.093239    0.558023
     20          1           0        4.776075   -0.560226    1.195687
     21          1           0        6.166027    1.386212    3.619423
 ---------------------------------------------------------------------
                    Distance matrix (angstroms):
                    1          2          3          4          5
     1  C    0.000000
     2  C    1.531948   0.000000
     3  N    2.566069   1.469260   0.000000
     4  C    3.283195   2.518651   1.472173   0.000000
     5  C    3.372556   3.302673   2.574230   1.533632   0.000000
     6  C    3.763030   2.342309   1.456176   2.363580   3.781592
     7  N    4.911933   3.650944   2.388524   2.789066   4.081103
     8  N    5.943013   4.561728   3.469715   3.838934   5.209138
     9  H    1.095481   2.151316   3.450196   4.295917   4.450668
    10  H    1.092752   2.178049   2.747925   3.508154   3.370811
    11  H    1.089628   2.207144   3.046224   3.279843   3.032261
    12  H    2.120658   1.097002   2.047225   3.385744   4.274248
    13  H    2.174041   1.106452   2.135961   2.776577   3.677215
    14  H    4.256888   3.376057   2.041313   1.094504   2.120817
    15  H    3.638324   2.765494   2.134892   1.107016   2.179454
    16  H    3.380687   3.523540   2.749855   2.177639   1.092744
    17  H    4.451177   4.313220   3.454406   2.152763   1.095530
    18  H    3.042280   3.319085   3.066780   2.213175   1.090050
    19  H    3.874659   2.505303   2.085665   3.322882   4.622933
    20  H    4.189094   2.682429   2.148702   2.661114   4.176328
    21  H    6.693780   5.399039   4.174765   4.384449   5.606013
                    6          7          8          9         10
     6  C    0.000000
     7  N    1.467685   0.000000
     8  N    2.220769   1.233981   0.000000
     9  H    4.439363   5.701675   6.640128   0.000000
    10  H    4.013412   4.937924   6.052278   1.771201   0.000000
    11  H    4.343153   5.429297   6.484917   1.748043   1.774487
    12  H    2.394780   3.733116   4.497999   2.330195   2.563245
    13  H    2.664116   4.055257   4.793933   2.557932   3.084618
    14  H    2.408696   2.211167   3.208377   5.267954   4.339200
    15  H    2.687993   3.293084   4.108823   4.531851   4.140166
    16  H    4.020424   4.193783   5.400173   4.457098   3.024931
    17  H    4.456935   4.494643   5.530800   5.518254   4.448332
    18  H    4.372340   4.934746   6.039751   4.029606   3.212956
    19  H    1.095811   2.079808   2.566305   4.340689   4.065964
    20  H    1.106117   2.112973   2.427783   4.778828   4.675063
    21  H    3.100088   1.787747   1.032400   7.452334   6.685785
                   11         12         13         14         15
    11  H    0.000000
    12  H    3.048524   0.000000
    13  H    2.487684   1.759830   0.000000
    14  H    4.338403   4.061696   3.672151   0.000000
    15  H    3.476288   3.677675   2.562446   1.760196   0.000000
    16  H    3.223738   4.346486   4.171616   2.565044   3.086767
    17  H    4.021606   5.283922   4.570921   2.327319   2.570962
    18  H    2.383271   4.374007   3.541151   3.050145   2.494595
    19  H    4.665594   2.052138   2.944529   3.434875   3.682004
    20  H    4.628380   2.822685   2.528749   2.765725   2.511573
    21  H    7.210695   5.369357   5.710541   3.561035   4.754142
                   16         17         18         19         20
    16  H    0.000000
    17  H    1.769682   0.000000
    18  H    1.774737   1.747674   0.000000
    19  H    4.706356   5.400581   5.139757   0.000000
    20  H    4.657384   4.751490   4.641937   1.780394   0.000000
    21  H    5.705845   5.790653   6.537607   3.448852   3.405156
                   21
    21  H    0.000000
 Stoichiometry    C5H13N3
 Framework group  C1[X(C5H13N3)]
 Deg. of freedom    57
 Full point group                 C1      NOp   1
 Largest Abelian subgroup         C1      NOp   1
 Largest concise Abelian subgroup C1      NOp   1
                         Standard orientation:                         
 ---------------------------------------------------------------------
 Center     Atomic      Atomic             Coordinates (Angstroms)
 Number     Number       Type             X           Y           Z
 ---------------------------------------------------------------------
      1          6           0       -2.613027   -1.101360   -0.288295
      2          6           0       -1.187078   -1.212966    0.260411
      3          7           0       -0.212619   -0.201823   -0.171726
      4          6           0       -0.324456    1.149083    0.402591
      5          6           0       -1.444678    2.057788   -0.118356
      6          6           0        1.101752   -0.722235    0.177628
      7          7           0        2.140392    0.130126   -0.412969
      8          7           0        3.252017   -0.191261    0.015643
      9          1           0       -3.115009   -2.067284   -0.165480
     10          1           0       -2.605878   -0.855872   -1.353091
     11          1           0       -3.226675   -0.369781    0.236604
     12          1           0       -0.787583   -2.165638   -0.108686
     13          1           0       -1.213088   -1.299806    1.363143
     14          1           0        0.618339    1.637091    0.136276
     15          1           0       -0.348720    1.108066    1.508581
     16          1           0       -1.543294    1.972322   -1.203280
     17          1           0       -1.193343    3.097856    0.116750
     18          1           0       -2.416236    1.869144    0.338478
     19          1           0        1.211166   -1.723712   -0.253504
     20          1           0        1.264386   -0.802013    1.268811
     21          1           0        3.902325    0.418469   -0.505108
 ---------------------------------------------------------------------
 Rotational constants (GHZ):           3.1651760           1.1850300           0.9144649
 Standard basis: 6-31G(2df,p) (6D, 7F)
 There are   313 symmetry adapted cartesian basis functions of A   symmetry.
 There are   289 symmetry adapted basis functions of A   symmetry.
   289 basis functions,   443 primitive gaussians,   313 cartesian basis functions
    32 alpha electrons       32 beta electrons
       nuclear repulsion energy       393.9457577072 Hartrees.
 NAtoms=   21 NActive=   21 NUniq=   21 SFac= 1.00D+00 NAtFMM=   60 NAOKFM=F Big=F
 Integral buffers will be    131072 words long.
 Raffenetti 2 integral format.
 Two-electron integral symmetry is turned on.
 One-electron integrals computed using PRISM.
 PrsmSu:  requested number of processors reduced to:  13 ShMem   1 Linda.
 NBasis=   289 RedAO= T EigKep=  2.66D-04  NBF=   289
 NBsUse=   289 1.00D-06 EigRej= -1.00D+00 NBFU=   289
 Initial guess from the checkpoint file:  "CCNpCCpCNdN.chk"
 B after Tr=    -0.000000    0.000000   -0.000000
         Rot=    0.999870    0.002452   -0.000068    0.015959 Ang=   1.85 deg.
 ExpMin= 1.61D-01 ExpMax= 4.17D+03 ExpMxC= 6.27D+02 IAcc=2 IRadAn=         4 AccDes= 0.00D+00
 Harris functional with IExCor=  402 and IRadAn=       4 diagonalized for initial guess.
 HarFok:  IExCor=  402 AccDes= 0.00D+00 IRadAn=         4 IDoV= 1 UseB2=F ITyADJ=14
 ICtDFT=  3500011 ScaDFX=  1.000000  1.000000  1.000000  1.000000
 FoFCou: FMM=F IPFlag=           0 FMFlag=      100000 FMFlg1=           0
         NFxFlg=           0 DoJE=T BraDBF=F KetDBF=T FulRan=T
         wScrn=  0.000000 ICntrl=       500 IOpCl=  0 I1Cent=   200000004 NGrid=           0
         NMat0=    1 NMatS0=      1 NMatT0=    0 NMatD0=    1 NMtDS0=    0 NMtDT0=    0
 Petite list used in FoFCou.
 Requested convergence on RMS density matrix=1.00D-08 within 128 cycles.
 Requested convergence on MAX density matrix=1.00D-06.
 Requested convergence on             energy=1.00D-06.
 No special actions if energy rises.
 Integral accuracy reduced to 1.0D-05 until final iterations.
 Initial convergence to 1.0D-05 achieved.  Increase integral accuracy.
 SCF Done:  E(RB3LYP) =  -362.564382498     A.U. after   13 cycles
            NFock= 13  Conv=0.23D-08     -V/T= 2.0080
 PrsmSu:  requested number of processors reduced to:  13 ShMem   1 Linda.
 Calling FoFJK, ICntrl=      2127 FMM=F ISym2X=0 I1Cent= 0 IOpClX= 0 NMat=1 NMatS=1 NMatT=0.
 ***** Axes restored to original set *****
 -------------------------------------------------------------------
 Center     Atomic                   Forces (Hartrees/Bohr)
 Number     Number              X              Y              Z
 -------------------------------------------------------------------
      1        6           0.000442784   -0.000922475    0.000819093
      2        6          -0.002427702    0.002250989   -0.000883365
      3        7           0.000549420   -0.003683511   -0.002890394
      4        6          -0.001151555   -0.000259043    0.001450664
      5        6           0.001279150    0.000279957   -0.001535568
      6        6          -0.010616055    0.001855645    0.000264251
      7        7          -0.003909505    0.000655922   -0.009820474
      8        7           0.007652222    0.006215914    0.010632040
      9        1           0.000307209    0.000391657    0.000213742
     10        1           0.000233235    0.000403024    0.000538039
     11        1          -0.000880640   -0.001209944    0.003615290
     12        1           0.000195696   -0.001499984   -0.000699734
     13        1          -0.000800166   -0.001087085   -0.000109076
     14        1          -0.000137499   -0.001434298   -0.000133400
     15        1          -0.000956838   -0.001022433   -0.000916801
     16        1           0.000141118    0.000599875   -0.000290937
     17        1           0.000525679    0.000426958   -0.000092050
     18        1          -0.000604675    0.000451229   -0.003934158
     19        1           0.000968386   -0.000111415    0.001079153
     20        1           0.001290503   -0.000244195    0.000377696
     21        1           0.007899231   -0.002056786    0.002315990
 -------------------------------------------------------------------
 Cartesian Forces:  Max     0.010632040 RMS     0.003087166

 GradGradGradGradGradGradGradGradGradGradGradGradGradGradGradGradGradGrad
 Berny optimization.
 Using GEDIIS/GDIIS optimizer.
 FormGI is forming the generalized inverse of G from B-inverse, IUseBI=4.
 Internal  Forces:  Max     0.016219857 RMS     0.004498910
 Search for a local minimum.
 Step number   2 out of a maximum of  105
 All quantities printed in internal units (Hartrees-Bohrs-Radians)
 Mixed Optimization -- RFO/linear search
 Update second derivatives using D2CorX and points    1    2
 DE= -3.15D-03 DEPred=-9.07D-03 R= 3.47D-01
 Trust test= 3.47D-01 RLast= 4.29D-01 DXMaxT set to 3.00D-01
 ITU=  0  0
 Use linear search instead of GDIIS.
     Eigenvalues ---    0.00415   0.00446   0.00523   0.00606   0.00686
     Eigenvalues ---    0.00774   0.02722   0.03393   0.03553   0.03818
     Eigenvalues ---    0.05203   0.05251   0.05455   0.05457   0.05743
     Eigenvalues ---    0.05796   0.06014   0.07163   0.09936   0.10168
     Eigenvalues ---    0.11337   0.13115   0.13424   0.13798   0.15384
     Eigenvalues ---    0.15944   0.16000   0.16000   0.16000   0.16000
     Eigenvalues ---    0.16000   0.17903   0.18687   0.21614   0.22035
     Eigenvalues ---    0.23943   0.29321   0.29804   0.30987   0.32853
     Eigenvalues ---    0.33694   0.33847   0.33932   0.33984   0.34014
     Eigenvalues ---    0.34055   0.34262   0.34268   0.34319   0.34333
     Eigenvalues ---    0.34718   0.34892   0.34949   0.35030   0.38724
     Eigenvalues ---    0.42625   0.88681
 RFO step:  Lambda=-2.60214841D-03 EMin= 4.14673641D-03
 Quartic linear search produced a step of -0.37270.
 Iteration  1 RMS(Cart)=  0.08988387 RMS(Int)=  0.00236360
 Iteration  2 RMS(Cart)=  0.00347405 RMS(Int)=  0.00021494
 Iteration  3 RMS(Cart)=  0.00000697 RMS(Int)=  0.00021490
 Iteration  4 RMS(Cart)=  0.00000000 RMS(Int)=  0.00021490
 Variable       Old X    -DE/DX   Delta X   Delta X   Delta X     New X
                                 (Linear)    (Quad)   (Total)
    R1        2.89496  -0.00161  -0.00376   0.00198  -0.00178   2.89318
    R2        2.07016  -0.00023  -0.00083   0.00075  -0.00007   2.07009
    R3        2.06500   0.00045   0.00145  -0.00123   0.00022   2.06522
    R4        2.05910   0.00254  -0.00010   0.00462   0.00452   2.06362
    R5        2.77650  -0.00207   0.00493  -0.01058  -0.00565   2.77085
    R6        2.07303  -0.00040   0.00108  -0.00224  -0.00116   2.07187
    R7        2.09089   0.00079  -0.00675   0.01094   0.00419   2.09508
    R8        2.78200  -0.00321   0.00253  -0.00920  -0.00667   2.77534
    R9        2.75177   0.00368   0.02248  -0.02494  -0.00246   2.74931
   R10        2.89814  -0.00293  -0.00666   0.00338  -0.00328   2.89486
   R11        2.06831  -0.00062   0.00179  -0.00363  -0.00185   2.06647
   R12        2.09196   0.00085  -0.00741   0.01197   0.00456   2.09652
   R13        2.06499   0.00050   0.00142  -0.00110   0.00032   2.06531
   R14        2.07025  -0.00029  -0.00094   0.00082  -0.00013   2.07013
   R15        2.05990   0.00239  -0.00071   0.00521   0.00450   2.06440
   R16        2.77352   0.00815   0.01013   0.00032   0.01046   2.78398
   R17        2.07078  -0.00057   0.00138  -0.00298  -0.00160   2.06919
   R18        2.09026   0.00074  -0.00424   0.00732   0.00308   2.09334
   R19        2.33189   0.01622   0.00713   0.00174   0.00887   2.34075
   R20        1.95095   0.00263  -0.00014   0.00401   0.00387   1.95483
    A1        1.89878   0.00051   0.01073  -0.00955   0.00123   1.90001
    A2        1.93830  -0.00072   0.00411  -0.01166  -0.00752   1.93078
    A3        1.98294  -0.00184  -0.00985   0.00627  -0.00368   1.97927
    A4        1.88633   0.00027  -0.00004   0.00208   0.00221   1.88854
    A5        1.85452   0.00162  -0.00863   0.02415   0.01544   1.86996
    A6        1.89890   0.00035   0.00339  -0.00980  -0.00651   1.89239
    A7        2.05088  -0.01141  -0.01037  -0.01991  -0.03038   2.02051
    A8        1.85639   0.00369  -0.00691   0.03122   0.02438   1.88077
    A9        1.91857   0.00219  -0.00385  -0.00260  -0.00669   1.91189
   A10        1.83088   0.00444   0.02133  -0.00411   0.01750   1.84838
   A11        1.94200   0.00363  -0.00224   0.00078  -0.00170   1.94030
   A12        1.85015  -0.00157   0.00413  -0.00193   0.00233   1.85248
   A13        2.05600  -0.01387  -0.02164  -0.01414  -0.03660   2.01939
   A14        1.85681   0.00829   0.01397   0.02143   0.03570   1.89251
   A15        1.87855   0.00598   0.00583   0.02532   0.03135   1.90990
   A16        2.05634  -0.01248  -0.01144  -0.02240  -0.03402   2.02231
   A17        1.82222   0.00482   0.02735  -0.01197   0.01580   1.83802
   A18        1.93630   0.00375  -0.00082  -0.00198  -0.00310   1.93320
   A19        1.85704   0.00364  -0.01305   0.03945   0.02643   1.88347
   A20        1.92337   0.00276  -0.00296  -0.00197  -0.00532   1.91805
   A21        1.85302  -0.00143   0.00289   0.00333   0.00648   1.85951
   A22        1.93567  -0.00046   0.00471  -0.01149  -0.00678   1.92888
   A23        1.89869   0.00026   0.00805  -0.00662   0.00149   1.90018
   A24        1.98902  -0.00223  -0.01135   0.00683  -0.00460   1.98442
   A25        1.88391   0.00032   0.00070   0.00143   0.00228   1.88619
   A26        1.89877   0.00042   0.00472  -0.01148  -0.00688   1.89188
   A27        1.85338   0.00191  -0.00693   0.02266   0.01570   1.86908
   A28        1.91205   0.00750   0.02497  -0.01332   0.01167   1.92372
   A29        1.89901  -0.00038   0.00447  -0.00580  -0.00099   1.89802
   A30        1.97704  -0.00109  -0.02110   0.03160   0.01046   1.98750
   A31        1.87735  -0.00391  -0.00451  -0.00996  -0.01407   1.86328
   A32        1.91219  -0.00252   0.00021  -0.00522  -0.00544   1.90675
   A33        1.88339   0.00009  -0.00439   0.00092  -0.00339   1.88000
   A34        1.92461   0.01473   0.01990   0.00801   0.02791   1.95252
   A35        1.81154   0.01518   0.04837  -0.01104   0.03734   1.84887
    D1        2.81361   0.00152   0.01974   0.02764   0.04719   2.86080
    D2        0.77036  -0.00005   0.00387   0.02181   0.02568   0.79604
    D3       -1.22521  -0.00123   0.00448   0.00876   0.01323  -1.21197
    D4        0.73959   0.00130   0.01020   0.03807   0.04822   0.78781
    D5       -1.30366  -0.00028  -0.00567   0.03224   0.02671  -1.27696
    D6        2.98396  -0.00146  -0.00507   0.01919   0.01426   2.99822
    D7       -1.40781   0.00276   0.00992   0.05536   0.06515  -1.34266
    D8        2.83212   0.00119  -0.00595   0.04952   0.04364   2.87576
    D9        0.83655   0.00001  -0.00534   0.03648   0.03119   0.86774
   D10        1.29555  -0.00466  -0.03884  -0.00204  -0.04075   1.25481
   D11       -2.87933   0.00058  -0.03497   0.03869   0.00358  -2.87575
   D12       -2.93065  -0.00333  -0.03838   0.02301  -0.01515  -2.94580
   D13       -0.82234   0.00191  -0.03451   0.06374   0.02917  -0.79317
   D14       -0.93765  -0.00105  -0.02249   0.01887  -0.00356  -0.94121
   D15        1.17065   0.00419  -0.01862   0.05960   0.04077   1.21141
   D16       -1.31965   0.00496   0.04266  -0.01305   0.02939  -1.29025
   D17        2.90894   0.00391   0.04622  -0.04150   0.00431   2.91325
   D18        0.91988   0.00132   0.02781  -0.03811  -0.01032   0.90956
   D19        2.86654  -0.00135   0.03455  -0.05184  -0.01708   2.84946
   D20        0.81194  -0.00239   0.03811  -0.08029  -0.04216   0.76978
   D21       -1.17712  -0.00499   0.01970  -0.07690  -0.05679  -1.23391
   D22        2.98475   0.00251   0.02117  -0.09874  -0.07833   2.90642
   D23        0.93681   0.00318   0.00877  -0.07586  -0.06740   0.86941
   D24       -1.15775   0.00404   0.02430  -0.09328  -0.06916  -1.22690
   D25       -1.07966  -0.00553   0.00718  -0.08715  -0.07990  -1.15956
   D26       -3.12760  -0.00486  -0.00523  -0.06427  -0.06897   3.08661
   D27        1.06103  -0.00401   0.01031  -0.08169  -0.07073   0.99030
   D28       -0.72436  -0.00136  -0.01006  -0.03998  -0.04994  -0.77430
   D29       -2.79379  -0.00164  -0.01905  -0.03079  -0.04961  -2.84340
   D30        1.42535  -0.00283  -0.00870  -0.05906  -0.06757   1.35778
   D31        1.31156   0.00007   0.00841  -0.03945  -0.03122   1.28035
   D32       -0.75786  -0.00021  -0.00057  -0.03026  -0.03089  -0.78875
   D33       -2.82192  -0.00140   0.00977  -0.05853  -0.04884  -2.87076
   D34       -2.96999   0.00171   0.00356  -0.01520  -0.01177  -2.98176
   D35        1.24377   0.00143  -0.00542  -0.00601  -0.01145   1.23232
   D36       -0.82028   0.00024   0.00492  -0.03428  -0.02940  -0.84968
   D37        2.98811  -0.00025  -0.00343  -0.02681  -0.03029   2.95782
   D38       -1.23360   0.00117   0.01364  -0.04674  -0.03322  -1.26682
   D39        0.80933  -0.00227   0.00607  -0.05403  -0.04780   0.76154
   D40        3.07718   0.00403   0.02785   0.02646   0.05431   3.13148
         Item               Value     Threshold  Converged?
 Maximum Force            0.016220     0.000450     NO 
 RMS     Force            0.004499     0.000300     NO 
 Maximum Displacement     0.334127     0.001800     NO 
 RMS     Displacement     0.091194     0.001200     NO 
 Predicted change in Energy=-3.063192D-03
 GradGradGradGradGradGradGradGradGradGradGradGradGradGradGradGradGradGrad

                          Input orientation:                          
 ---------------------------------------------------------------------
 Center     Atomic      Atomic             Coordinates (Angstroms)
 Number     Number       Type             X           Y           Z
 ---------------------------------------------------------------------
      1          6           0        0.961617    0.143807   -0.330370
      2          6           0        2.446924   -0.053757   -0.016034
      3          7           0        2.863927    0.304575    1.343249
      4          6           0        2.421359   -0.606902    2.406386
      5          6           0        0.938374   -0.525998    2.781770
      6          6           0        4.314944    0.407692    1.367151
      7          7           0        4.757981    1.070675    2.605918
      8          7           0        5.984445    0.989727    2.759367
      9          1           0        0.824087    0.125432   -1.416991
     10          1           0        0.614803    1.111218    0.041376
     11          1           0        0.322180   -0.636205    0.088207
     12          1           0        3.020207    0.596389   -0.687391
     13          1           0        2.743765   -1.092483   -0.265185
     14          1           0        3.006929   -0.329160    3.287163
     15          1           0        2.692882   -1.654975    2.164195
     16          1           0        0.620482    0.516393    2.864420
     17          1           0        0.793065   -1.003889    3.756730
     18          1           0        0.278067   -1.032749    2.074237
     19          1           0        4.636277    1.044163    0.536127
     20          1           0        4.835270   -0.565146    1.267409
     21          1           0        6.193796    1.488216    3.641278
 ---------------------------------------------------------------------
                    Distance matrix (angstroms):
                    1          2          3          4          5
     1  C    0.000000
     2  C    1.531005   0.000000
     3  N    2.538825   1.466268   0.000000
     4  C    3.191277   2.484903   1.468645   0.000000
     5  C    3.183488   3.213478   2.543019   1.531896   0.000000
     6  C    3.767760   2.369733   1.454873   2.386435   3.778115
     7  N    4.888073   3.671507   2.401809   2.883380   4.143632
     8  N    5.957421   4.615817   3.494633   3.920383   5.268848
     9  H    1.095443   2.151369   3.436853   4.207826   4.250531
    10  H    1.092867   2.171896   2.721048   3.436402   3.208572
    11  H    1.092019   2.205595   2.986750   3.127518   2.765343
    12  H    2.137776   1.096386   2.057444   3.373127   4.198674
    13  H    2.169957   1.108667   2.133839   2.734415   3.586681
    14  H    4.182529   3.361631   2.049603   1.093527   2.138478
    15  H    3.529271   2.716210   2.131443   1.109431   2.175841
    16  H    3.234483   3.458031   2.718800   2.171347   1.092916
    17  H    4.248529   4.227499   3.438813   2.152294   1.095464
    18  H    2.762908   3.167270   3.001575   2.210288   1.092431
    19  H    3.881312   2.510692   2.083185   3.336127   4.602478
    20  H    4.249788   2.759156   2.156006   2.669453   4.180983
    21  H    6.705007   5.458265   4.215444   4.488402   5.693441
                    6          7          8          9         10
     6  C    0.000000
     7  N    1.473218   0.000000
     8  N    2.250392   1.238674   0.000000
     9  H    4.474058   5.705506   6.694644   0.000000
    10  H    3.992953   4.872828   6.019576   1.772684   0.000000
    11  H    4.320600   5.378535   6.468385   1.760006   1.772374
    12  H    2.435794   3.753757   4.563065   2.361579   2.565564
    13  H    2.717287   4.120625   4.897502   2.548555   3.079408
    14  H    2.437273   2.343036   3.299035   5.205816   4.281600
    15  H    2.742437   3.448032   4.264161   4.414424   4.059138
    16  H    3.987817   4.182457   5.385832   4.304043   2.885036
    17  H    4.484002   4.620470   5.649749   5.295631   4.278938
    18  H    4.344102   4.977621   6.092829   3.718628   2.973636
    19  H    1.094966   2.073536   2.600638   4.380813   4.052348
    20  H    1.107746   2.115063   2.442165   4.875703   4.703796
    21  H    3.141539   1.818756   1.034450   7.501802   6.650307
                   11         12         13         14         15
    11  H    0.000000
    12  H    3.065973   0.000000
    13  H    2.489407   1.762658   0.000000
    14  H    4.187538   4.080919   3.642952   0.000000
    15  H    3.311774   3.647921   2.494169   1.765635   0.000000
    16  H    3.020733   4.287242   4.109896   2.566866   3.082206
    17  H    3.716851   5.222189   4.470892   2.361556   2.563080
    18  H    2.025711   4.219006   3.399431   3.068048   2.495313
    19  H    4.651419   2.075856   2.964617   3.479797   3.703071
    20  H    4.665142   2.909443   2.646001   2.734580   2.565499
    21  H    7.184243   5.440992   5.815769   3.685698   4.931310
                   16         17         18         19         20
    16  H    0.000000
    17  H    1.771231   0.000000
    18  H    1.772422   1.759784   0.000000
    19  H    4.671841   5.416370   5.066886   0.000000
    20  H    4.635149   4.767456   4.651637   1.778832   0.000000
    21  H    5.710497   5.949101   6.618665   3.502144   3.420108
                   21
    21  H    0.000000
 Stoichiometry    C5H13N3
 Framework group  C1[X(C5H13N3)]
 Deg. of freedom    57
 Full point group                 C1      NOp   1
 Largest Abelian subgroup         C1      NOp   1
 Largest concise Abelian subgroup C1      NOp   1
                         Standard orientation:                         
 ---------------------------------------------------------------------
 Center     Atomic      Atomic             Coordinates (Angstroms)
 Number     Number       Type             X           Y           Z
 ---------------------------------------------------------------------
      1          6           0       -2.569654   -1.068013   -0.330448
      2          6           0       -1.169031   -1.223003    0.268059
      3          7           0       -0.189800   -0.206793   -0.129891
      4          6           0       -0.389634    1.129875    0.444828
      5          6           0       -1.550198    1.941737   -0.138846
      6          6           0        1.138983   -0.688289    0.215297
      7          7           0        2.166530    0.135627   -0.444765
      8          7           0        3.301518   -0.109074   -0.013213
      9          1           0       -3.114775   -2.009818   -0.204585
     10          1           0       -2.509420   -0.848589   -1.399365
     11          1           0       -3.162387   -0.286453    0.149489
     12          1           0       -0.763056   -2.181995   -0.074842
     13          1           0       -1.243439   -1.296819    1.371761
     14          1           0        0.537106    1.673361    0.240924
     15          1           0       -0.486159    1.073020    1.548589
     16          1           0       -1.557779    1.869666   -1.229356
     17          1           0       -1.416907    2.995002    0.131170
     18          1           0       -2.530711    1.636411    0.233680
     19          1           0        1.255396   -1.706615   -0.169942
     20          1           0        1.337023   -0.715384    1.304860
     21          1           0        3.944583    0.506045   -0.540643
 ---------------------------------------------------------------------
 Rotational constants (GHZ):           3.3336469           1.1560213           0.9154867
 Standard basis: 6-31G(2df,p) (6D, 7F)
 There are   313 symmetry adapted cartesian basis functions of A   symmetry.
 There are   289 symmetry adapted basis functions of A   symmetry.
   289 basis functions,   443 primitive gaussians,   313 cartesian basis functions
    32 alpha electrons       32 beta electrons
       nuclear repulsion energy       394.1161945132 Hartrees.
 NAtoms=   21 NActive=   21 NUniq=   21 SFac= 1.00D+00 NAtFMM=   60 NAOKFM=F Big=F
 Integral buffers will be    131072 words long.
 Raffenetti 2 integral format.
 Two-electron integral symmetry is turned on.
 One-electron integrals computed using PRISM.
 PrsmSu:  requested number of processors reduced to:  13 ShMem   1 Linda.
 NBasis=   289 RedAO= T EigKep=  2.74D-04  NBF=   289
 NBsUse=   289 1.00D-06 EigRej= -1.00D+00 NBFU=   289
 Initial guess from the checkpoint file:  "CCNpCCpCNdN.chk"
 B after Tr=    -0.000000    0.000000   -0.000000
         Rot=    0.999929    0.000539    0.002261   -0.011679 Ang=   1.36 deg.
 ExpMin= 1.61D-01 ExpMax= 4.17D+03 ExpMxC= 6.27D+02 IAcc=2 IRadAn=         4 AccDes= 0.00D+00
 Harris functional with IExCor=  402 and IRadAn=       4 diagonalized for initial guess.
 HarFok:  IExCor=  402 AccDes= 0.00D+00 IRadAn=         4 IDoV= 1 UseB2=F ITyADJ=14
 ICtDFT=  3500011 ScaDFX=  1.000000  1.000000  1.000000  1.000000
 FoFCou: FMM=F IPFlag=           0 FMFlag=      100000 FMFlg1=           0
         NFxFlg=           0 DoJE=T BraDBF=F KetDBF=T FulRan=T
         wScrn=  0.000000 ICntrl=       500 IOpCl=  0 I1Cent=   200000004 NGrid=           0
[...]
 4,0.00016356,0.00004082,-0.00003674,-0.00003341,0.00003139,0.00002300,
 0.00005512,0.00052162,-0.00372675,-0.00011707,-0.07773763,0.30049359,0
 .01794998,-0.05544957,-0.06078920,-0.00198778,0.00509606,0.00006177,0.
 00100742,0.00062076,0.00128038,-0.00004304,0.00068486,-0.00018994,-0.0
 0020640,0.00003302,-0.00006044,-0.00048887,-0.00012780,0.00002766,0.00
 010647,0.00005271,-0.00002595,0.00003133,-0.00002237,0.00005081,0.0093
 7029,-0.02901653,-0.00545070,-0.01937464,0.06096288,0.06059827,-0.1198
 1550,-0.08857855,0.07628525,-0.01820741,-0.02262638,0.02012877,0.00181
 167,0.00096440,0.00046332,-0.00066366,-0.00161966,-0.00039222,0.000228
 75,0.00033101,-0.00026645,-0.00010141,-0.00042379,-0.00001641,0.000079
 73,0.00014130,-0.00003990,-0.00003935,0.00001630,-0.00013774,0.0032695
 9,0.00497726,-0.00354666,0.00483216,0.00587312,-0.00590908,0.13277011,
 -0.08915911,-0.15658882,0.09309720,0.00237991,0.00262398,-0.00331355,-
 0.00048201,0.00022008,0.00009855,0.00016188,0.00000567,0.00050719,-0.0
 0039040,0.00017554,-0.00020461,-0.00004835,-0.00013687,-0.00008706,0.0
 0000269,0.00001382,0.00005792,-0.00004222,0.00001222,-0.00003956,0.004
 14333,0.00366323,-0.00373908,-0.01603839,-0.01842402,0.01771672,0.0976
 5730,0.16657830,0.07749338,0.09318927,-0.12633973,-0.00332248,-0.00445
 814,0.00291221,0.00059117,-0.00029670,0.00069447,-0.00063469,0.0002328
 5,-0.00044623,-0.00017311,0.00014279,-0.00026770,-0.00007756,-0.000109
 35,0.00005451,0.00004007,0.00001572,-0.00010423,0.00003142,-0.00001402
 ,0.00002890,0.01670189,0.02084461,-0.01669453,-0.00493164,-0.00542315,
 0.00399534,-0.08430002,-0.10391261,0.13594731,-0.01963041,-0.02178087,
 0.01813707,-0.10835819,-0.08212414,0.07609673,0.00228665,0.00378218,-0
 .00489883,0.00044111,0.00001256,-0.00225995,-0.00014051,0.00023230,-0.
 00023999,0.00021124,0.00069806,-0.00277089,0.00018871,0.00051171,-0.00
 038654,-0.00000545,-0.00003105,-0.00004828,0.00123816,-0.00006301,-0.0
 0036453,0.00154431,0.00037379,0.00031822,-0.00619072,0.00137273,-0.001
 58593,0.12352894,0.00279919,0.00315627,-0.00301743,-0.08224044,-0.1593
 1280,0.09792644,0.00311617,0.00405895,-0.00497964,-0.00130102,0.000329
 33,-0.00099098,0.00036381,0.00012078,0.00012607,-0.00065059,0.00028752
 ,-0.00138016,0.00051300,0.00057255,-0.00025619,0.00004311,0.00003332,-
 0.00012244,-0.00065935,0.00004369,-0.00027725,-0.00032528,0.00091787,-
 0.00043551,0.00135616,0.00129953,-0.00015315,0.09107276,0.16704444,-0.
 00292246,-0.00367915,0.00384648,0.06948776,0.08938599,-0.13110476,0.01
 517084,0.02130309,-0.02861942,-0.00326562,-0.00268724,-0.00372017,-0.0
 0011190,0.00099316,-0.00048573,0.00298387,0.00270755,-0.00036725,-0.00
 012649,-0.00065236,0.00036588,0.00007959,0.00004731,0.00029095,0.00033
 527,-0.00024051,0.00057592,0.00035020,0.00004201,-0.00010898,-0.001798
 83,0.00025813,0.00077780,-0.07578014,-0.10279401,0.15398175,-0.0120328
 8,0.03268058,0.00644028,-0.07028188,0.05899571,0.01495238,0.00436061,-
 0.01018181,-0.00517476,0.00016850,0.00019914,0.00104346,-0.00027794,-0
 .00004794,-0.00015677,0.00262762,-0.00096161,0.00040914,-0.00056785,0.
 00003129,-0.00014608,-0.00005499,0.00005032,-0.00018840,0.00108199,-0.
 00034716,-0.00039190,-0.00686648,0.00077347,-0.00117552,0.00163964,-0.
 00061063,0.00066224,0.00498089,-0.01475068,-0.00349240,0.07522530,0.00
 123230,-0.00403120,-0.00022565,0.06053353,-0.24190041,-0.04221156,-0.0
 0302233,-0.00471618,-0.01278919,-0.00192334,0.00111204,0.00152590,0.00
 021675,0.00025775,-0.00002722,0.00260481,0.00015541,0.00001452,-0.0007
 0012,0.00007345,-0.00015640,-0.00017587,-0.00006794,-0.00030334,0.0006
 9183,-0.00000953,0.00051138,0.00056163,0.00152359,0.00030561,0.0002356
 6,0.00075632,-0.00007466,0.00631453,-0.01981568,-0.00386249,-0.0664812
 1,0.26567751,-0.00061475,0.00410035,0.00277309,0.01771329,-0.04347920,
 -0.05936869,0.00078837,-0.03334358,-0.02711730,-0.00249524,-0.00483218
 ,0.00398428,0.00056309,0.00070963,-0.00020210,0.00624957,0.00023894,0.
 00050333,-0.00137802,-0.00072843,0.00030984,-0.00028451,0.00012388,-0.
 00063191,0.00061297,0.00001269,0.00028811,-0.00162155,-0.00014988,0.00
 075930,-0.00017324,-0.00063293,-0.00003860,-0.00516184,0.01654537,0.00
 530173,-0.01332572,0.05919511,0.07349827,-0.00030678,-0.00020036,0.000
 18346,-0.00063648,-0.00121788,0.00061521,0.00896049,-0.00452903,0.0080
 3098,-0.20433040,0.07346843,-0.09526154,-0.01835859,0.00809780,-0.0091
 9046,0.00262829,-0.00377947,0.00135609,-0.00074287,0.00004598,-0.00004
 564,-0.00001537,-0.00057681,0.00013205,0.00012025,0.00008089,-0.000070
 98,0.00006870,-0.00002227,-0.00001385,0.00022248,0.00017486,-0.0000080
 7,0.00009404,0.00031508,0.00040975,-0.00008788,0.00033957,-0.00031907,
 0.22225783,-0.00031420,0.00002781,0.00032937,-0.00051458,-0.00441798,-
 0.00171691,0.01131261,-0.01363951,0.02000641,0.06934640,-0.08362529,0.
 04094167,0.01462653,-0.00524660,0.00582642,0.00315805,0.00178376,0.001
 91852,-0.00004510,-0.00084840,0.00051620,-0.00016853,0.00020170,-0.000
 82783,0.00022191,0.00020172,-0.00000674,-0.00000789,0.00011184,-0.0001
 6322,0.00038389,0.00010657,-0.00009328,0.00018110,0.00030672,0.0007817
 8,0.00009739,0.00070372,-0.00004489,-0.07936849,0.09246242,0.00017930,
 -0.00019971,-0.00012765,0.00051084,0.00439478,0.00096050,-0.01291355,0
 .01475803,-0.01884884,-0.09149232,0.04339762,-0.10284078,0.01936703,-0
 .00918531,0.01040745,-0.00432945,-0.00078773,-0.00066635,0.00029264,-0
 .00016397,0.00014627,0.00000832,-0.00004980,0.00026547,-0.00013282,-0.
 00003072,-0.00001455,0.00010989,0.00007153,-0.00008958,0.00010518,-0.0
 0008253,0.00002441,-0.00007976,-0.00011873,-0.00116750,0.00007835,-0.0
 0055693,-0.00020407,0.09706152,-0.05424173,0.11970513,0.00041081,0.000
 83102,-0.00049638,-0.00040738,-0.00093298,-0.00258695,-0.00709038,-0.0
 1013436,-0.00143253,-0.10151270,-0.08581645,-0.05621224,0.00981329,0.0
 1724776,0.01218782,0.00037248,-0.00215424,0.00119586,0.00013243,0.0004
 0862,0.00054423,-0.00008747,0.00006673,-0.00000050,0.00007667,-0.00006
 026,-0.00001040,-0.00012428,0.00009765,0.00000903,-0.00029908,0.000259
 19,-0.00061361,-0.00013187,0.00042594,0.00008031,-0.00034286,0.0007211
 1,0.00083809,-0.01091834,-0.01893044,-0.01247876,0.11138167,-0.0003265
 2,-0.00039349,0.00028246,-0.00248019,0.00136980,-0.00280713,-0.0150731
 5,-0.02084995,-0.00314952,-0.08367450,-0.18405303,-0.08631390,-0.00629
 866,-0.01099187,-0.00977113,0.00344135,-0.00354911,0.00190530,-0.00019
 132,-0.00003729,0.00051850,-0.00015337,0.00023967,-0.00048694,0.000217
 25,0.00033534,-0.00016909,0.00000994,0.00022599,-0.00027909,0.00115528
 ,0.00007995,0.00025128,-0.00004599,0.00058079,-0.00021380,0.00000263,0
 .00069791,0.00144559,0.00537412,0.01065500,0.00563478,0.09728538,0.204
 72520,-0.00021619,0.00049270,-0.00086303,0.00052070,0.00333983,0.00134
 328,0.01510498,0.02047079,0.00711079,-0.06013151,-0.09269876,-0.108748
 29,-0.00999316,-0.01709490,-0.01159437,-0.00097488,0.00312949,-0.00218
 343,-0.00003324,0.00005782,-0.00066888,0.00023008,-0.00017554,0.000544
 64,0.00003962,0.00000665,-0.00013884,0.00009707,0.00006500,0.00005900,
 -0.00024603,0.00043967,-0.00040381,-0.00009317,-0.00003097,0.00019981,
 0.00020943,-0.00090742,0.00052756,-0.00645606,-0.01132959,-0.00679055,
 0.05704460,0.09496992,0.12226227,-0.00005843,-0.00017229,-0.00002604,0
 .00002748,0.00012797,0.00007192,0.00087257,0.00017810,-0.00158755,0.00
 985206,0.01801545,0.01181416,-0.10296565,-0.09337458,-0.05920564,0.000
 35303,0.00016187,0.00024609,-0.00042907,-0.00003948,0.00015455,-0.0006
 0828,-0.00011556,-0.00029930,0.00004179,0.00001314,-0.00004870,-0.0000
 0562,-0.00005831,0.00002810,-0.00003756,0.00014926,0.00007094,0.000046
 88,-0.00009598,0.00001949,0.00005831,-0.00017239,-0.00012047,0.0011930
 0,-0.00042478,-0.00074601,-0.00235794,0.00217766,0.00375819,0.11068576
 ,-0.00000833,0.00003403,0.00001878,0.00003065,0.00020558,0.00015985,0.
 00073948,0.00122661,0.00105383,-0.00649076,-0.01211928,-0.00668812,-0.
 09162150,-0.19796069,-0.09513919,-0.00003725,-0.00003208,-0.00056608,-
 0.00079524,-0.00017441,-0.00018842,0.00019241,-0.00007929,0.00033218,-
 0.00001759,0.00001397,0.00001388,0.00000018,0.00005134,-0.00002734,0.0
 0005292,-0.00006827,-0.00003735,-0.00002321,0.00006197,-0.00006453,-0.
 00005169,-0.00002828,0.00023464,-0.00024399,0.00027726,0.00028571,0.00
 228750,-0.00000922,-0.00165238,0.09918802,0.21428790,-0.00005523,-0.00
 018662,0.00007851,-0.00030601,0.00007809,-0.00029783,-0.00078379,0.000
 80001,0.00220194,-0.00996142,-0.01808142,-0.01209203,-0.05794828,-0.09
 334364,-0.10569214,0.00021010,-0.00034264,-0.00069838,-0.00048906,-0.0
 0075857,0.00018069,0.00027344,0.00065280,0.00008265,0.00007042,0.00005
 952,-0.00005089,-0.00002670,0.00001434,-0.00002107,0.00018154,0.000089
 69,0.00007245,0.00002659,0.00013265,-0.00004155,-0.00001847,0.00020019
 ,0.00030020,-0.00002054,0.00084339,0.00092177,0.00351264,-0.00200135,-
 0.00234065,0.06167944,0.10641288,0.11321137,-0.00014109,0.00005126,-0.
 00010960,-0.00129412,-0.00016396,0.00000832,-0.00147535,0.00129268,0.0
 0472184,-0.00481114,-0.01589623,0.01066996,-0.06932086,-0.04936126,0.0
 4926074,0.00061379,0.00003449,0.00032851,-0.00024205,-0.00018266,0.000
 08588,0.00009680,0.00018966,-0.00014423,0.00011095,-0.00001948,-0.0000
 3953,0.00000314,-0.00013841,0.00004727,0.00008912,0.00013791,-0.000031
 69,0.00006247,0.00002410,0.00029172,0.00006001,0.00011487,0.00025737,0
 .00019107,-0.00025539,-0.00086098,0.00069453,0.00020471,-0.00020245,-0
 .00470795,-0.00907964,0.01051495,0.07142282,0.00003787,-0.00006364,0.0
 0002932,0.00018091,0.00037458,-0.00040474,0.00175266,-0.00005359,-0.00
 160964,0.00369440,0.00977917,-0.00963643,-0.05056473,-0.16896889,0.118
 88097,0.00036052,0.00018535,-0.00061078,-0.00042876,-0.00037829,0.0001
 4571,0.00014192,0.00027012,0.00001625,-0.00003340,0.00002660,0.0000366
 2,-0.00001271,0.00006299,-0.00004351,-0.00003133,-0.00005624,0.0000041
 5,-0.00004576,0.00000471,-0.00017592,0.00000633,0.00003951,0.00009861,
 -0.00054736,0.00053168,0.00062584,-0.00068832,0.00048050,0.00060383,-0
 .00512686,-0.01529241,0.01702700,0.05508029,0.18088073,-0.00009424,-0.
 00004407,-0.00004968,0.00086200,0.00035948,0.00048623,0.00433866,-0.00
 085047,-0.00336011,0.00251760,0.01652214,-0.01204875,0.04983602,0.1174
 1847,-0.16437533,-0.00054406,-0.00061624,-0.00129371,-0.00023161,-0.00
 017445,0.00006170,0.00012381,0.00007655,0.00011668,0.00001003,-0.00001
 201,-0.00006186,-0.00001805,-0.00005950,0.00005642,-0.00003296,0.00008
 345,-0.00002537,-0.00001557,0.00000869,-0.00024452,-0.00000685,-0.0001
 8513,-0.00023071,0.00018608,-0.00010270,0.00084429,-0.00082073,-0.0002
 1012,0.00019534,-0.00425615,-0.01060474,0.01166847,-0.05728211,-0.1310
 4513,0.17803609,-0.00032030,-0.00002281,-0.00013838,-0.00050512,0.0001
 7318,-0.00000326,0.00239349,-0.00097271,-0.00045095,-0.01793017,0.0085
 3678,-0.00994539,-0.21955645,0.07573176,-0.09954807,-0.00021821,-0.000
 20244,-0.00026888,-0.00006932,0.00004770,-0.00002811,0.00009030,-0.000
 06487,0.00019207,0.00021838,-0.00004028,-0.00016893,0.00003544,-0.0002
 9367,0.00015041,0.00014751,0.00031174,0.00001415,0.00007553,-0.0000041
 4,0.00006568,0.00006984,-0.00004699,0.00000172,-0.00154790,0.00194902,
 0.00351843,0.00113281,-0.00037283,0.00012427,-0.01191230,0.00572376,-0
 .00671824,0.00900491,-0.00383212,0.00487877,0.23851513,0.00020620,0.00
 049637,-0.00004575,0.00034065,0.00015542,0.00024135,-0.00114294,0.0005
 2235,-0.00051803,0.01242035,-0.00682931,0.00734226,0.07613727,-0.08039
 521,0.04384246,-0.00023493,-0.00012383,-0.00021229,-0.00011774,-0.0001
 1075,0.00007116,0.00010510,0.00005167,0.00003908,-0.00013534,-0.000105
 52,0.00009295,0.00000461,-0.00001522,0.00010273,-0.00013860,-0.0002938
 8,-0.00013724,-0.00009179,-0.00002081,-0.00011409,0.00000065,-0.000045
 92,-0.00001940,0.00179479,-0.00032626,-0.00252799,-0.00023678,0.000318
 68,0.00065823,-0.02038836,0.00947801,-0.01156588,0.01813562,-0.0078399
 3,0.00927267,-0.08655861,0.08499408,0.00012047,0.00005908,-0.00025840,
 0.00014726,-0.00019869,0.00003758,-0.00151170,-0.00028576,0.00201158,0
 .02084367,-0.00918011,0.01002207,-0.10146366,0.04530040,-0.10449062,0.
 00037552,0.00003552,0.00012680,-0.00024325,-0.00011574,0.00001014,0.00
 012525,-0.00001212,-0.00000074,-0.00009844,-0.00003742,0.00003294,0.00
 000099,0.00006466,-0.00014927,-0.00008261,-0.00022269,-0.00020175,-0.0
 0002007,-0.00001649,0.00003551,-0.00003852,0.00006229,0.00000422,0.003
 64046,-0.00222963,-0.00271281,-0.00084722,0.00070993,0.00119121,-0.011
 47192,0.00638839,-0.00762608,-0.01752246,0.00599667,-0.00993001,0.1082
 6174,-0.04661471,0.11194789,0.00009971,0.00027305,0.00008547,0.0004748
 5,-0.00117752,0.00307206,-0.01738284,-0.02222298,0.02648468,-0.0047076
 1,-0.00106394,-0.00320864,0.00010841,-0.00063892,0.00018908,-0.0629411
 4,-0.03247391,0.04677197,0.00151952,0.00205059,-0.00243852,0.00017520,
 -0.00049650,-0.00163329,0.00006786,-0.00000701,-0.00001017,-0.00002820
 ,-0.00000836,0.00003782,0.00021789,0.00001658,0.00001624,-0.00008994,0
 .00013266,-0.00145296,0.00008284,0.00011646,-0.00047859,0.00024689,0.0
 0006309,0.00006476,-0.00072572,-0.00098256,0.00110998,-0.00000092,0.00
 013934,0.00005084,-0.00011301,0.00015427,0.00020657,-0.00000585,0.0000
 0713,-0.00002889,0.07729554,0.00009065,0.00025335,-0.00046193,0.000306
 10,-0.00001150,0.00201848,-0.00440837,-0.00599647,0.00790502,-0.001939
 27,0.00036814,-0.00033399,-0.00030932,-0.00052022,-0.00009715,-0.03722
 393,-0.13666802,0.11273566,0.00595888,0.01216851,-0.01484024,0.0004873
 3,0.00023703,-0.00375600,-0.00008612,-0.00000566,-0.00004301,0.0000516
 5,-0.00002234,0.00002231,0.00025321,0.00000091,0.00003205,-0.00023824,
 0.00057152,-0.00097683,-0.00006466,-0.00016459,-0.00014475,-0.00033059
 ,0.00044020,-0.00057101,-0.00050649,-0.00023196,0.00018032,-0.00001178
 ,0.00007268,0.00002542,-0.00010340,0.00007753,0.00011291,-0.00011033,0
 .00008952,0.00009458,0.04676671,0.14246629,0.00001282,-0.00037869,0.00
 051027,-0.00277200,-0.00204044,-0.00002907,0.00077549,-0.00020973,0.00
 214538,-0.00150462,-0.00070523,0.00119958,-0.00007929,-0.00006420,0.00
 008415,0.05618459,0.11495659,-0.19531872,0.00258954,0.01320979,-0.0259
 2998,0.00410674,-0.00125919,-0.00480410,0.00008093,-0.00002825,0.00001
 051,0.00003797,0.00000778,-0.00001239,-0.00020000,-0.00008696,-0.00002
 692,-0.00093541,-0.00038895,0.00037309,0.00001855,0.00010905,-0.000116
 89,-0.00010262,-0.00013765,-0.00000042,0.00005495,-0.00002439,0.000114
 09,-0.00001363,0.00005488,-0.00002020,0.00000811,0.00000527,-0.0000150
 3,0.00004703,-0.00000590,0.00000170,-0.05577227,-0.12180275,0.22053761
 ,-0.00009443,-0.00038884,-0.00132669,-0.00029733,0.00215448,0.00460457
 ,-0.03689832,0.01618168,-0.00520042,0.00183424,0.00417661,-0.00534638,
 0.00026495,-0.00051001,0.00082340,-0.12827473,0.10599412,-0.00910480,0
 .00168490,0.00410944,-0.00108305,0.00121710,-0.00240803,-0.00084867,-0
 .00041652,-0.00014164,-0.00028559,0.00028308,-0.00008173,0.00015733,0.
 00010330,0.00000018,0.00007811,-0.00007290,0.00001263,-0.00048445,0.00
 014112,-0.00120341,-0.00116391,0.00097046,-0.00118833,0.00172209,-0.00
 004678,-0.00026872,0.00005703,-0.00003087,0.00002058,-0.00004468,-0.00
 017129,-0.00007502,0.00035005,0.00034547,-0.00012647,-0.00020378,0.006
 37684,-0.00633508,0.00077669,0.15354700,-0.00004092,0.00004011,-0.0002
 4976,0.00044900,0.00075506,0.00123736,-0.00745260,0.01077720,-0.000580
 76,-0.00084472,0.00304025,-0.00134262,-0.00004850,-0.00015055,0.000045
 04,0.10135119,-0.19014297,0.01785183,0.01610152,-0.02413831,-0.0091268
 5,-0.00237190,0.00282251,0.00544513,-0.00003812,-0.00001280,-0.0000546
 5,-0.00004161,-0.00004076,-0.00002904,0.00006077,0.00002923,0.00000105
 ,-0.00005644,-0.00013085,-0.00016683,0.00064062,-0.00023966,0.00056131
 ,0.00106574,0.00019900,-0.00061119,-0.00012654,0.00041660,-0.00051673,
 -0.00011771,-0.00001672,0.00020584,0.00005781,0.00005900,0.00005100,0.
 00004820,-0.00003460,0.00015800,0.01019822,-0.01206183,0.00129750,-0.1
 1915810,0.20710893,-0.00015889,-0.00029486,-0.00008349,0.00052390,0.00
 104976,0.00176359,-0.00733453,0.00379346,0.00209854,0.00165101,-0.0007
 3183,0.00023894,-0.00012834,-0.00013064,-0.00010917,-0.01350079,0.0250
 9812,-0.05302316,0.01223914,-0.03375969,-0.01081405,0.00402058,0.00030
 323,0.00379808,-0.00005991,-0.00003294,-0.00005631,0.00012584,-0.00008
 008,-0.00001308,-0.00001900,-0.00001229,0.00002291,0.00003339,0.000160
 36,0.00011000,0.00033625,-0.00049929,-0.00016985,-0.00015114,-0.000272
 15,0.00014209,0.00011860,-0.00024386,0.00013186,-0.00007680,-0.0000522
 4,0.00002713,-0.00003892,0.00000024,0.00009384,0.00000256,0.00005825,-
 0.00006585,-0.01355843,0.01865729,0.00014529,0.01607399,-0.01410864,0.
 05514870,-0.00002783,-0.00005009,0.00019904,0.00008742,0.00025137,-0.0
 0059834,0.00090943,0.00028247,0.00265050,-0.00028274,0.00025783,-0.000
 05208,-0.00009649,-0.00021157,0.00016749,0.01020563,0.01229597,-0.0132
 8077,-0.02539092,-0.03694979,-0.03578744,-0.03768976,0.03079538,0.0259
 0637,0.00005497,-0.00000559,0.00001927,-0.00001260,0.00000528,-0.00001
 451,-0.00005727,0.00000355,-0.00002081,-0.00007894,-0.00014715,0.00016
 078,0.00001610,0.00004260,0.00011244,-0.00000890,-0.00012226,0.0000153
 0,0.00003010,-0.00000053,0.00005074,-0.00001629,-0.00000566,-0.0001475
 3,-0.00007276,-0.00002279,-0.00000726,0.00003681,0.00001918,0.00001718
 ,-0.00067032,-0.00224698,-0.00331359,-0.00046528,0.00032408,-0.0000985
 0,0.05352967,-0.00004654,-0.00004802,0.00009529,0.00011707,0.00061850,
 -0.00015120,0.00080090,0.00081560,0.00229189,0.00005594,0.00007563,0.0
 0000217,-0.00007233,-0.00008843,0.00016939,0.01020441,0.00963097,-0.00
 712104,-0.00850120,0.00504020,0.02686355,0.00364173,-0.19729050,-0.180
 54724,0.00001265,-0.00002036,-0.00002660,0.00000746,-0.00000082,-0.000
 00367,-0.00004026,0.00000275,-0.00000410,-0.00005123,-0.00010980,0.000
 10873,0.00001924,0.00002217,0.00010912,0.00005901,0.00009463,-0.000040
 94,-0.00004405,-0.00000952,-0.00000798,0.00008659,0.00007131,-0.000261
 72,-0.00012296,-0.00011947,-0.00000080,-0.00000037,0.00003515,0.000043
 86,-0.00084642,-0.00106308,-0.00250853,-0.00076436,0.00172116,0.001097
 79,-0.00451528,0.18062191,0.00008792,-0.00009362,-0.00032094,-0.000734
 02,-0.00052130,0.00063072,-0.00120653,-0.00071960,-0.00414787,0.000311
 72,0.00017249,-0.00038502,-0.00001760,-0.00011428,-0.00014460,-0.01312
 935,-0.00360611,0.00883559,-0.00770862,-0.00907309,-0.04953312,-0.0024
 2512,-0.14719235,-0.19960903,-0.00012820,0.00001515,-0.00002600,-0.000
 00224,0.00002480,0.00002165,-0.00000290,-0.00001463,0.00001856,0.00002
 891,0.00006232,0.00000095,-0.00003468,-0.00012475,-0.00016982,0.000024
 36,0.00000254,0.00004572,-0.00008679,-0.00004743,0.00005201,0.00000933
 ,0.00006539,0.00013565,0.00003731,0.00005565,0.00007603,0.00001336,0.0
 0004015,0.00001391,0.00049228,0.00124361,0.00115204,0.00044916,-0.0000
 6697,0.00061399,0.02402172,0.15989204,0.24273958\\-0.00000192,0.000000
 45,-0.00000157,-0.00000123,-0.00000797,0.00000834,0.00000579,0.0000048
 4,0.00000595,0.00000295,0.00000020,-0.00000463,0.00000126,0.00000348,-
 0.00000234,-0.00000169,-0.00001070,-0.00000837,-0.00000338,0.00000665,
 0.00000721,-0.00000467,-0.00000197,-0.00000001,0.00000018,0.00000025,-
 0.00000052,-0.00000080,0.00000082,0.00000107,0.00000129,0.00000040,-0.
 00000242,-0.00000342,0.00000029,0.00000275,0.00000055,-0.00000062,-0.0
 0000335,0.00000084,0.00000276,-0.00000122,0.00000164,0.00000107,-0.000
 00405,0.00000032,0.00000061,-0.00000023,0.00000195,-0.00000162,-0.0000
 0133,-0.00000117,-0.00000174,0.00000395,-0.00000312,-0.00000060,0.0000
 0089,0.00000105,0.00000217,-0.00000032,0.00000358,0.00000124,0.0000001
 9\\\@


 "MATHEMATICS IS THE ART OF GIVING THE SAME NAME
 TO DIFFERENT THINGS."
                    - H. POINCARE
 Job cpu time:       0 days  2 hours  8 minutes 57.2 seconds.
 Elapsed time:       0 days  0 hours 33 minutes 43.2 seconds.
 File lengths (MBytes):  RWF=    135 Int=      0 D2E=      0 Chk=      8 Scr=      1
 Normal termination of Gaussian 16 at Tue Jun  1 09:15:23 2021.
### All Done ###
