### Starting Gaussian ###
 Entering Gaussian System, Link 0=g16
 Initial command:
 /cluster/software/gaussian/gaussian-16-A.03/avx2/g16/l1.exe "/local/scratch/cz9n3/Gau-26603.inp" -scrdir="/local/scratch/cz9n3/"
 Entering Link 1 = /cluster/software/gaussian/gaussian-16-A.03/avx2/g16/l1.exe PID=     26604.
  
 Copyright (c) 1988,1990,1992,1993,1995,1998,2003,2009,2016,
            Gaussian, Inc.  All Rights Reserved.
  
 This is part of the Gaussian(R) 16 program.  It is based on
 the Gaussian(R) 09 system (copyright 2009, Gaussian, Inc.),
 the Gaussian(R) 03 system (copyright 2003, Gaussian, Inc.),
 the Gaussian(R) 98 system (copyright 1998, Gaussian, Inc.),
 the Gaussian(R) 94 system (copyright 1995, Gaussian, Inc.),
 the Gaussian 92(TM) system (copyright 1992, Gaussian, Inc.),
 the Gaussian 90(TM) system (copyright 1990, Gaussian, Inc.),
 the Gaussian 88(TM) system (copyright 1988, Gaussian, Inc.),
 the Gaussian 86(TM) system (copyright 1986, Carnegie Mellon
 University), and the Gaussian 82(TM) system (copyright 1983,
 Carnegie Mellon University). Gaussian is a federally registered
 trademark of Gaussian, Inc.
  
 This software contains proprietary and confidential information,
 including trade secrets, belonging to Gaussian, Inc.
  
 This software is provided under written license and may be
 used, copied, transmitted, or stored only in accord with that
 written license.
  
 The following legend is applicable only to US Government
 contracts under FAR:
  
                    RESTRICTED RIGHTS LEGEND
  
 Use, reproduction and disclosure by the US Government is
 subject to restrictions as set forth in subparagraphs (a)
 and (c) of the Commercial Computer Software - Restricted
 Rights clause in FAR 52.227-19.
  
 Gaussian, Inc.
 340 Quinnipiac St., Bldg. 40, Wallingford CT 06492
  
  
 ---------------------------------------------------------------
 Warning -- This program may not be used in any manner that
 competes with the business of Gaussian, Inc. or will provide
 assistance to any competitor of Gaussian, Inc.  The licensee
 of this program is prohibited from giving any competitor of
 Gaussian, Inc. access to this program.  By using this program,
 the user acknowledges that Gaussian, Inc. is engaged in the
 business of creating and licensing software in the field of
 computational chemistry and represents and warrants to the
 licensee that it is not a competitor of Gaussian, Inc. and that
 it will not use this program in any manner prohibited above.
 ---------------------------------------------------------------
  

 Cite this work as:
 Gaussian 16, Revision A.03,
 M. J. Frisch, G. W. Trucks, H. B. Schlegel, G. E. Scuseria, 
 M. A. Robb, J. R. Cheeseman, G. Scalmani, V. Barone, 
 G. A. Petersson, H. Nakatsuji, X. Li, M. Caricato, A. V. Marenich, 
 J. Bloino, B. G. Janesko, R. Gomperts, B. Mennucci, H. P. Hratchian, 
 J. V. Ortiz, A. F. Izmaylov, J. L. Sonnenberg, D. Williams-Young, 
 F. Ding, F. Lipparini, F. Egidi, J. Goings, B. Peng, A. Petrone, 
 T. Henderson, D. Ranasinghe, V. G. Zakrzewski, J. Gao, N. Rega, 
 G. Zheng, W. Liang, M. Hada, M. Ehara, K. Toyota, R. Fukuda, 
 J. Hasegawa, M. Ishida, T. Nakajima, Y. Honda, O. Kitao, H. Nakai, 
 T. Vreven, K. Throssell, J. A. Montgomery, Jr., J. E. Peralta, 
 F. Ogliaro, M. J. Bearpark, J. J. Heyd, E. N. Brothers, K. N. Kudin, 
 V. N. Staroverov, T. A. Keith, R. Kobayashi, J. Normand, 
 K. Raghavachari, A. P. Rendell, J. C. Burant, S. S. Iyengar, 
 J. Tomasi, M. Cossi, J. M. Millam, M. Klene, C. Adamo, R. Cammi, 
 J. W. Ochterski, R. L. Martin, K. Morokuma, O. Farkas, 
 J. B. Foresman, and D. J. Fox, Gaussian, Inc., Wallingford CT, 2016.
 
 ******************************************
 Gaussian 16:  ES64L-G16RevA.03 25-Dec-2016
                 1-Jun-2021 
 ******************************************
 %chk=CCNpCpCNCN.chk
 %NProcShared=20
 Will use up to   20 processors via shared memory.
 -----------------------------
 # opt freq b3lyp/6-31g(2df,p)
 -----------------------------
 1/18=20,19=15,26=3,38=1/1,3;
 2/9=110,12=2,17=6,18=5,40=1/2;
 3/5=1,6=6,7=104,11=2,25=1,30=1,71=1,74=-5/1,2,3;
 4//1;
 5/5=2,38=5/2;
 6/7=2,8=2,9=2,10=2,28=1/1;
 7//1,2,3,16;
 1/18=20,19=15,26=3/3(2);
 2/9=110/2;
 99//99;
 2/9=110/2;
 3/5=1,6=6,7=104,11=2,25=1,30=1,71=1,74=-5/1,2,3;
 4/5=5,16=3,69=1/1;
 5/5=2,38=5/2;
 7//1,2,3,16;
 1/18=20,19=15,26=3/3(-5);
 2/9=110/2;
 6/7=2,8=2,9=2,10=2,19=2,28=1/1;
 99/9=1/99;
 -------------------
 Title Card Required
 -------------------
 Symbolic Z-matrix:
 Charge =  0 Multiplicity = 1
 C                     1.03615   0.0119   -0.06465 
 C                     2.56037   0.1261   -0.07046 
 N                     3.07148   1.35137  -0.72721 
 C                     2.56824   2.54583  -0.04326 
 C                     4.53969   1.3047   -0.74273 
 N                     5.08635   2.42026  -1.5026 
 C                     6.52284   2.41565  -1.44158 
 N                     6.90184   3.64538  -2.08437 
 H                     0.72965  -0.93145   0.39887 
 H                     0.63644   0.03799  -1.08311 
 H                     0.56336   0.80969   0.51568 
 H                     2.94585  -0.75677  -0.59736 
 H                     2.92391   0.06224   0.96384 
 H                     1.47613   2.59502  -0.07415 
 H                     2.88535   3.46588  -0.54189 
 H                     2.8916    2.58236   1.00266 
 H                     4.86044   0.37888  -1.23675 
 H                     4.93342   1.2925    0.28171 
 H                     4.7923    3.29157  -1.08158 
 H                     6.94363   1.55805  -1.97296 
 H                     6.89159   2.42157  -0.41132 
 H                     6.53229   3.61402  -3.0323 
 H                     7.91611   3.67214  -2.17569 
 

 GradGradGradGradGradGradGradGradGradGradGradGradGradGradGradGradGradGrad
 Berny optimization.
 Initialization pass.
                           ----------------------------
                           !    Initial Parameters    !
                           ! (Angstroms and Degrees)  !
 --------------------------                            --------------------------
 ! Name  Definition              Value          Derivative Info.                !
 --------------------------------------------------------------------------------
 ! R1    R(1,2)                  1.5285         estimate D2E/DX2                !
 ! R2    R(1,9)                  1.0949         estimate D2E/DX2                !
 ! R3    R(1,10)                 1.0944         estimate D2E/DX2                !
 ! R4    R(1,11)                 1.094          estimate D2E/DX2                !
 ! R5    R(2,3)                  1.4812         estimate D2E/DX2                !
 ! R6    R(2,12)                 1.098          estimate D2E/DX2                !
 ! R7    R(2,13)                 1.0982         estimate D2E/DX2                !
 ! R8    R(3,4)                  1.4655         estimate D2E/DX2                !
 ! R9    R(3,5)                  1.469          estimate D2E/DX2                !
 ! R10   R(4,14)                 1.0937         estimate D2E/DX2                !
 ! R11   R(4,15)                 1.0935         estimate D2E/DX2                !
 ! R12   R(4,16)                 1.0954         estimate D2E/DX2                !
 ! R13   R(5,6)                  1.4563         estimate D2E/DX2                !
 ! R14   R(5,17)                 1.0973         estimate D2E/DX2                !
 ! R15   R(5,18)                 1.0976         estimate D2E/DX2                !
 ! R16   R(6,7)                  1.4378         estimate D2E/DX2                !
 ! R17   R(6,19)                 1.0114         estimate D2E/DX2                !
 ! R18   R(7,8)                  1.4384         estimate D2E/DX2                !
 ! R19   R(7,20)                 1.0931         estimate D2E/DX2                !
 ! R20   R(7,21)                 1.0943         estimate D2E/DX2                !
 ! R21   R(8,22)                 1.0179         estimate D2E/DX2                !
 ! R22   R(8,23)                 1.0187         estimate D2E/DX2                !
 ! A1    A(2,1,9)              110.1907         estimate D2E/DX2                !
 ! A2    A(2,1,10)             111.0321         estimate D2E/DX2                !
 ! A3    A(2,1,11)             112.2405         estimate D2E/DX2                !
 ! A4    A(9,1,10)             108.1968         estimate D2E/DX2                !
 ! A5    A(9,1,11)             106.4258         estimate D2E/DX2                !
 ! A6    A(10,1,11)            108.5685         estimate D2E/DX2                !
 ! A7    A(1,2,3)              114.054          estimate D2E/DX2                !
 ! A8    A(1,2,12)             106.9676         estimate D2E/DX2                !
 ! A9    A(1,2,13)             108.7951         estimate D2E/DX2                !
 ! A10   A(3,2,12)             109.343          estimate D2E/DX2                !
 ! A11   A(3,2,13)             110.5778         estimate D2E/DX2                !
 ! A12   A(12,2,13)            106.7964         estimate D2E/DX2                !
 ! A13   A(2,3,4)              110.4141         estimate D2E/DX2                !
 ! A14   A(2,3,5)              108.8616         estimate D2E/DX2                !
 ! A15   A(4,3,5)              111.9635         estimate D2E/DX2                !
 ! A16   A(3,4,14)             111.4923         estimate D2E/DX2                !
 ! A17   A(3,4,15)             111.924          estimate D2E/DX2                !
 ! A18   A(3,4,16)             111.8041         estimate D2E/DX2                !
 ! A19   A(14,4,15)            103.8198         estimate D2E/DX2                !
 ! A20   A(14,4,16)            108.6785         estimate D2E/DX2                !
 ! A21   A(15,4,16)            108.7686         estimate D2E/DX2                !
 ! A22   A(3,5,6)              110.8762         estimate D2E/DX2                !
 ! A23   A(3,5,17)             108.8871         estimate D2E/DX2                !
 ! A24   A(3,5,18)             110.4275         estimate D2E/DX2                !
 ! A25   A(6,5,17)             107.5585         estimate D2E/DX2                !
 ! A26   A(6,5,18)             111.1544         estimate D2E/DX2                !
 ! A27   A(17,5,18)            107.8171         estimate D2E/DX2                !
 ! A28   A(5,6,7)              110.5144         estimate D2E/DX2                !
 ! A29   A(5,6,19)             109.487          estimate D2E/DX2                !
 ! A30   A(7,6,19)             105.9961         estimate D2E/DX2                !
 ! A31   A(6,7,8)              103.9773         estimate D2E/DX2                !
 ! A32   A(6,7,20)             111.4987         estimate D2E/DX2                !
 ! A33   A(6,7,21)             112.1241         estimate D2E/DX2                !
 ! A34   A(8,7,20)             110.6136         estimate D2E/DX2                !
 ! A35   A(8,7,21)             109.1059         estimate D2E/DX2                !
 ! A36   A(20,7,21)            109.4024         estimate D2E/DX2                !
 ! A37   A(7,8,22)             107.107          estimate D2E/DX2                !
 ! A38   A(7,8,23)             108.9563         estimate D2E/DX2                !
 ! A39   A(22,8,23)            106.1882         estimate D2E/DX2                !
 ! D1    D(9,1,2,3)            177.7849         estimate D2E/DX2                !
 ! D2    D(9,1,2,12)            56.7594         estimate D2E/DX2                !
 ! D3    D(9,1,2,13)           -58.2634         estimate D2E/DX2                !
 ! D4    D(10,1,2,3)            57.9253         estimate D2E/DX2                !
 ! D5    D(10,1,2,12)          -63.1002         estimate D2E/DX2                !
 ! D6    D(10,1,2,13)         -178.123          estimate D2E/DX2                !
 ! D7    D(11,1,2,3)           -63.7983         estimate D2E/DX2                !
 ! D8    D(11,1,2,12)          175.1763         estimate D2E/DX2                !
 ! D9    D(11,1,2,13)           60.1534         estimate D2E/DX2                !
 ! D10   D(1,2,3,4)             60.1879         estimate D2E/DX2                !
 ! D11   D(1,2,3,5)           -176.5225         estimate D2E/DX2                !
 ! D12   D(12,2,3,4)           179.8834         estimate D2E/DX2                !
 ! D13   D(12,2,3,5)           -56.827          estimate D2E/DX2                !
 ! D14   D(13,2,3,4)           -62.799          estimate D2E/DX2                !
 ! D15   D(13,2,3,5)            60.4907         estimate D2E/DX2                !
 ! D16   D(2,3,4,14)           -61.009          estimate D2E/DX2                !
 ! D17   D(2,3,4,15)          -176.8079         estimate D2E/DX2                !
 ! D18   D(2,3,4,16)            60.8773         estimate D2E/DX2                !
 ! D19   D(5,3,4,14)           177.5221         estimate D2E/DX2                !
 ! D20   D(5,3,4,15)            61.7232         estimate D2E/DX2                !
 ! D21   D(5,3,4,16)           -60.5916         estimate D2E/DX2                !
 ! D22   D(2,3,5,6)            174.0357         estimate D2E/DX2                !
 ! D23   D(2,3,5,17)            55.8889         estimate D2E/DX2                !
 ! D24   D(2,3,5,18)           -62.3087         estimate D2E/DX2                !
 ! D25   D(4,3,5,6)            -63.6059         estimate D2E/DX2                !
 ! D26   D(4,3,5,17)           178.2474         estimate D2E/DX2                !
 ! D27   D(4,3,5,18)            60.0498         estimate D2E/DX2                !
 ! D28   D(3,5,6,7)            176.3318         estimate D2E/DX2                !
 ! D29   D(3,5,6,19)            59.9396         estimate D2E/DX2                !
 ! D30   D(17,5,6,7)           -64.7175         estimate D2E/DX2                !
 ! D31   D(17,5,6,19)          178.8903         estimate D2E/DX2                !
 ! D32   D(18,5,6,7)            53.094          estimate D2E/DX2                !
 ! D33   D(18,5,6,19)          -63.2983         estimate D2E/DX2                !
 ! D34   D(5,6,7,8)           -173.1353         estimate D2E/DX2                !
 ! D35   D(5,6,7,20)            67.657          estimate D2E/DX2                !
 ! D36   D(5,6,7,21)           -55.4054         estimate D2E/DX2                !
 ! D37   D(19,6,7,8)           -54.5941         estimate D2E/DX2                !
 ! D38   D(19,6,7,20)         -173.8017         estimate D2E/DX2                !
 ! D39   D(19,6,7,21)           63.1358         estimate D2E/DX2                !
 ! D40   D(6,7,8,22)           -59.3223         estimate D2E/DX2                !
 ! D41   D(6,7,8,23)          -173.7874         estimate D2E/DX2                !
 ! D42   D(20,7,8,22)           60.4874         estimate D2E/DX2                !
 ! D43   D(20,7,8,23)          -53.9777         estimate D2E/DX2                !
 ! D44   D(21,7,8,22)         -179.1208         estimate D2E/DX2                !
 ! D45   D(21,7,8,23)           66.4141         estimate D2E/DX2                !
 --------------------------------------------------------------------------------
 Trust Radius=3.00D-01 FncErr=1.00D-07 GrdErr=1.00D-06 EigMax=2.50D+02 EigMin=1.00D-04
 Number of steps in this run=    116 maximum allowed number of steps=    138.
 GradGradGradGradGradGradGradGradGradGradGradGradGradGradGradGradGradGrad

                          Input orientation:                          
 ---------------------------------------------------------------------
 Center     Atomic      Atomic             Coordinates (Angstroms)
 Number     Number       Type             X           Y           Z
 ---------------------------------------------------------------------
      1          6           0        1.036150    0.011900   -0.064650
      2          6           0        2.560370    0.126100   -0.070460
      3          7           0        3.071480    1.351370   -0.727210
      4          6           0        2.568240    2.545830   -0.043260
      5          6           0        4.539690    1.304700   -0.742730
      6          7           0        5.086350    2.420260   -1.502600
      7          6           0        6.522840    2.415650   -1.441580
      8          7           0        6.901840    3.645380   -2.084370
      9          1           0        0.729650   -0.931450    0.398870
     10          1           0        0.636440    0.037990   -1.083110
     11          1           0        0.563360    0.809690    0.515680
     12          1           0        2.945850   -0.756770   -0.597360
     13          1           0        2.923910    0.062240    0.963840
     14          1           0        1.476130    2.595020   -0.074150
     15          1           0        2.885350    3.465880   -0.541890
     16          1           0        2.891600    2.582360    1.002660
     17          1           0        4.860440    0.378880   -1.236750
     18          1           0        4.933420    1.292500    0.281710
     19          1           0        4.792300    3.291570   -1.081580
     20          1           0        6.943630    1.558050   -1.972960
     21          1           0        6.891590    2.421570   -0.411320
     22          1           0        6.532290    3.614020   -3.032300
     23          1           0        7.916110    3.672140   -2.175690
 ---------------------------------------------------------------------
                    Distance matrix (angstroms):
                    1          2          3          4          5
     1  C    0.000000
     2  C    1.528503   0.000000
     3  N    2.525022   1.481162   0.000000
     4  C    2.961175   2.419896   1.465528   0.000000
     5  C    3.795513   2.399740   1.469034   2.432340   0.000000
     6  N    4.926664   3.700645   2.409036   2.913129   1.456267
     7  C    6.146358   4.777361   3.681698   4.196559   2.378126
     8  N    7.189420   5.940499   4.666479   4.914797   3.585880
     9  H    1.094853   2.165691   3.458828   3.958203   4.562896
    10  H    1.094399   2.175943   2.789454   3.332027   4.117739
    11  H    1.093975   2.190640   2.851115   2.710376   4.199980
    12  H    2.126403   1.098034   2.115868   3.369983   2.609812
    13  H    2.150340   1.098188   2.131498   2.703511   2.658352
    14  H    2.620340   2.696508   2.125628   1.093654   3.390771
    15  H    3.946806   3.388508   2.130761   1.093473   2.729080
    16  H    3.345013   2.700836   2.130761   1.095374   2.719375
    17  H    4.016676   2.591226   2.098987   3.372576   1.097305
    18  H    4.116870   2.667560   2.118539   2.696390   1.097565
    19  H    5.089110   4.003008   2.617475   2.565284   2.031326
    20  H    6.397699   4.988282   4.072856   4.882980   2.712302
    21  H    6.341362   4.913739   3.979743   4.340768   2.624627
    22  H    7.210393   6.059227   4.733945   5.078295   3.813862
    23  H    8.073890   6.759463   5.563678   5.866476   4.365588
                    6          7          8          9         10
     6  N    0.000000
     7  C    1.437793   0.000000
     8  N    2.266138   1.438421   0.000000
     9  H    5.816389   6.939120   8.075257   0.000000
    10  H    5.064867   6.358575   7.298700   1.773349   0.000000
    11  H    5.208150   6.474981   7.414697   1.752959   1.776792
    12  H    3.936333   4.855081   6.102457   2.436089   2.490175
    13  H    4.039769   4.927158   6.160715   2.474144   3.069709
    14  H    3.886476   5.231761   5.880695   3.635515   2.874279
    15  H    2.619291   3.891498   4.306235   4.986841   4.135329
    16  H    3.334596   4.380412   5.171247   4.169586   3.988734
    17  H    2.070977   2.637036   3.944084   4.632024   4.240517
    18  H    2.116363   2.599510   3.874152   4.757243   4.679804
    19  H    1.011387   1.972715   2.362399   6.044068   5.277969
    20  H    2.100984   1.093118   2.090719   7.101883   6.548516
    21  H    2.109451   1.094279   2.072899   7.061774   6.727530
    22  H    2.419873   1.991625   1.017901   8.130489   7.165778
    23  H    3.166669   2.014668   1.018724   8.914404   8.209408
                   11         12         13         14         15
    11  H    0.000000
    12  H    3.060868   0.000000
    13  H    2.516292   1.763123   0.000000
    14  H    2.090084   3.697069   3.096525   0.000000
    15  H    3.683129   4.223448   3.722026   1.721360   0.000000
    16  H    2.966515   3.703079   2.520626   1.778549   1.779405
    17  H    4.660634   2.316069   2.948390   4.209094   3.730064
    18  H    4.402871   2.987090   2.452952   3.711610   3.097820
    19  H    5.157024   4.475813   4.254785   3.535121   1.989499
    20  H    6.889210   4.820053   5.198114   5.879995   4.707166
    21  H    6.595755   5.070041   4.816637   5.428718   4.142172
    22  H    7.488695   6.155915   6.450169   5.945903   4.418626
    23  H    8.336668   6.841773   6.914484   6.859300   5.293429
                   16         17         18         19         20
    16  H    0.000000
    17  H    3.707642   0.000000
    18  H    2.520424   1.773626   0.000000
    19  H    2.908556   2.917616   2.423789   0.000000
    20  H    5.130543   2.504422   3.032325   2.903080   0.000000
    21  H    4.245599   2.996579   2.364216   2.369212   1.785244
    22  H    5.531713   4.060199   4.350690   2.633790   2.349131
    23  H    6.044438   4.589585   4.538495   3.331681   2.335850
                   21         22         23
    21  H    0.000000
    22  H    2.901822   0.000000
    23  H    2.393025   1.628532   0.000000
 Stoichiometry    C5H15N3
 Framework group  C1[X(C5H15N3)]
 Deg. of freedom    63
 Full point group                 C1      NOp   1
 Largest Abelian subgroup         C1      NOp   1
 Largest concise Abelian subgroup C1      NOp   1
                         Standard orientation:                         
 ---------------------------------------------------------------------
 Center     Atomic      Atomic             Coordinates (Angstroms)
 Number     Number       Type             X           Y           Z
 ---------------------------------------------------------------------
      1          6           0       -3.523317   -0.166531   -0.327639
      2          6           0       -2.184796   -0.725253    0.154559
      3          7           0       -1.012200    0.085578   -0.247205
      4          6           0       -1.117032    1.441532    0.298847
      5          6           0        0.210911   -0.593939    0.200359
      6          7           0        1.396387    0.092969   -0.293116
      7          6           0        2.588037   -0.527525    0.218944
      8          7           0        3.646871    0.345931   -0.211176
      9          1           0       -4.339873   -0.832686   -0.030693
     10          1           0       -3.539312   -0.071158   -1.417757
     11          1           0       -3.746241    0.810613    0.110854
     12          1           0       -2.089405   -1.735468   -0.265016
     13          1           0       -2.220834   -0.837212    1.246430
     14          1           0       -2.007524    1.955733   -0.073577
     15          1           0       -0.291139    2.078730   -0.029123
     16          1           0       -1.146145    1.438062    1.393828
     17          1           0        0.222694   -1.611314   -0.210603
     18          1           0        0.226180   -0.673685    1.294917
     19          1           0        1.405251    1.042693    0.054517
     20          1           0        2.725757   -1.530850   -0.192491
     21          1           0        2.588463   -0.579637    1.311982
     22          1           0        3.609484    0.383782   -1.227685
     23          1           0        4.542413   -0.078652    0.024479
 ---------------------------------------------------------------------
 Rotational constants (GHZ):           6.2795457           0.7683225           0.7176597
 Standard basis: 6-31G(2df,p) (6D, 7F)
 There are   323 symmetry adapted cartesian basis functions of A   symmetry.
 There are   299 symmetry adapted basis functions of A   symmetry.
   299 basis functions,   457 primitive gaussians,   323 cartesian basis functions
    33 alpha electrons       33 beta electrons
       nuclear repulsion energy       408.1821025366 Hartrees.
 NAtoms=   23 NActive=   23 NUniq=   23 SFac= 1.00D+00 NAtFMM=   60 NAOKFM=F Big=F
 Integral buffers will be    131072 words long.
 Raffenetti 2 integral format.
 Two-electron integral symmetry is turned on.
 One-electron integrals computed using PRISM.
 PrsmSu:  requested number of processors reduced to:  13 ShMem   1 Linda.
 NBasis=   299 RedAO= T EigKep=  2.82D-04  NBF=   299
 NBsUse=   299 1.00D-06 EigRej= -1.00D+00 NBFU=   299
 ExpMin= 1.61D-01 ExpMax= 4.17D+03 ExpMxC= 6.27D+02 IAcc=3 IRadAn=         5 AccDes= 0.00D+00
 Harris functional with IExCor=  402 and IRadAn=       5 diagonalized for initial guess.
 HarFok:  IExCor=  402 AccDes= 0.00D+00 IRadAn=         5 IDoV= 1 UseB2=F ITyADJ=14
 ICtDFT=  3500011 ScaDFX=  1.000000  1.000000  1.000000  1.000000
 FoFCou: FMM=F IPFlag=           0 FMFlag=      100000 FMFlg1=           0
         NFxFlg=           0 DoJE=T BraDBF=F KetDBF=T FulRan=T
         wScrn=  0.000000 ICntrl=       500 IOpCl=  0 I1Cent=   200000004 NGrid=           0
         NMat0=    1 NMatS0=      1 NMatT0=    0 NMatD0=    1 NMtDS0=    0 NMtDT0=    0
 Petite list used in FoFCou.
 Requested convergence on RMS density matrix=1.00D-08 within 128 cycles.
 Requested convergence on MAX density matrix=1.00D-06.
 Requested convergence on             energy=1.00D-06.
 No special actions if energy rises.
 Integral accuracy reduced to 1.0D-05 until final iterations.
 Initial convergence to 1.0D-05 achieved.  Increase integral accuracy.
 SCF Done:  E(RB3LYP) =  -363.810720184     A.U. after   12 cycles
            NFock= 12  Conv=0.46D-08     -V/T= 2.0077

 **********************************************************************

            Population analysis using the SCF density.

 **********************************************************************

 Orbital symmetries:
       Occupied  (A) (A) (A) (A) (A) (A) (A) (A) (A) (A) (A) (A)
                 (A) (A) (A) (A) (A) (A) (A) (A) (A) (A) (A) (A)
                 (A) (A) (A) (A) (A) (A) (A) (A) (A)
       Virtual   (A) (A) (A) (A) (A) (A) (A) (A) (A) (A) (A) (A)
                 (A) (A) (A) (A) (A) (A) (A) (A) (A) (A) (A) (A)
                 (A) (A) (A) (A) (A) (A) (A) (A) (A) (A) (A) (A)
                 (A) (A) (A) (A) (A) (A) (A) (A) (A) (A) (A) (A)
                 (A) (A) (A) (A) (A) (A) (A) (A) (A) (A) (A) (A)
                 (A) (A) (A) (A) (A) (A) (A) (A) (A) (A) (A) (A)
                 (A) (A) (A) (A) (A) (A) (A) (A) (A) (A) (A) (A)
                 (A) (A) (A) (A) (A) (A) (A) (A) (A) (A) (A) (A)
                 (A) (A) (A) (A) (A) (A) (A) (A) (A) (A) (A) (A)
                 (A) (A) (A) (A) (A) (A) (A) (A) (A) (A) (A) (A)
                 (A) (A) (A) (A) (A) (A) (A) (A) (A) (A) (A) (A)
                 (A) (A) (A) (A) (A) (A) (A) (A) (A) (A) (A) (A)
                 (A) (A) (A) (A) (A) (A) (A) (A) (A) (A) (A) (A)
                 (A) (A) (A) (A) (A) (A) (A) (A) (A) (A) (A) (A)
                 (A) (A) (A) (A) (A) (A) (A) (A) (A) (A) (A) (A)
                 (A) (A) (A) (A) (A) (A) (A) (A) (A) (A) (A) (A)
                 (A) (A) (A) (A) (A) (A) (A) (A) (A) (A) (A) (A)
                 (A) (A) (A) (A) (A) (A) (A) (A) (A) (A) (A) (A)
                 (A) (A) (A) (A) (A) (A) (A) (A) (A) (A) (A) (A)
                 (A) (A) (A) (A) (A) (A) (A) (A) (A) (A) (A) (A)
                 (A) (A) (A) (A) (A) (A) (A) (A) (A) (A) (A) (A)
                 (A) (A) (A) (A) (A) (A) (A) (A) (A) (A) (A) (A)
                 (A) (A)
 The electronic state is 1-A.
 Alpha  occ. eigenvalues --  -14.31576 -14.30336 -14.30188 -10.22058 -10.21948
 Alpha  occ. eigenvalues --  -10.20190 -10.19596 -10.17188  -0.93967  -0.90226
 Alpha  occ. eigenvalues --   -0.83903  -0.74116  -0.69527  -0.64146  -0.61031
 Alpha  occ. eigenvalues --   -0.57393  -0.50638  -0.48822  -0.47813  -0.46368
 Alpha  occ. eigenvalues --   -0.43242  -0.42176  -0.40833  -0.39933  -0.38945
 Alpha  occ. eigenvalues --   -0.37305  -0.36661  -0.35251  -0.34071  -0.33469
 Alpha  occ. eigenvalues --   -0.23906  -0.22549  -0.21079
 Alpha virt. eigenvalues --    0.08246   0.09188   0.11080   0.11743   0.13223
 Alpha virt. eigenvalues --    0.13903   0.15130   0.16163   0.16469   0.17535
 Alpha virt. eigenvalues --    0.17903   0.18777   0.19859   0.20161   0.20968
 Alpha virt. eigenvalues --    0.22339   0.23021   0.24396   0.25193   0.25514
 Alpha virt. eigenvalues --    0.28714   0.31210   0.40652   0.45626   0.46437
 Alpha virt. eigenvalues --    0.47904   0.49765   0.51536   0.52779   0.54415
 Alpha virt. eigenvalues --    0.56629   0.57166   0.58565   0.59203   0.61345
 Alpha virt. eigenvalues --    0.62700   0.64301   0.67095   0.69597   0.70208
 Alpha virt. eigenvalues --    0.70732   0.71157   0.72040   0.72480   0.73628
 Alpha virt. eigenvalues --    0.74153   0.75518   0.76469   0.76649   0.77662
 Alpha virt. eigenvalues --    0.78811   0.80462   0.80529   0.82463   0.83020
 Alpha virt. eigenvalues --    0.84426   0.85986   0.86991   0.88062   0.88756
 Alpha virt. eigenvalues --    0.89081   0.90685   0.92719   0.94850   0.96532
 Alpha virt. eigenvalues --    0.99538   1.10746   1.11852   1.14916   1.18215
 Alpha virt. eigenvalues --    1.18907   1.23190   1.23528   1.26467   1.28952
 Alpha virt. eigenvalues --    1.30335   1.31028   1.34154   1.35237   1.38716
 Alpha virt. eigenvalues --    1.41995   1.44375   1.45432   1.48779   1.49927
 Alpha virt. eigenvalues --    1.53153   1.54175   1.57323   1.58218   1.60411
 Alpha virt. eigenvalues --    1.60949   1.63401   1.67419   1.68643   1.70896
 Alpha virt. eigenvalues --    1.74225   1.76473   1.81359   1.83640   1.86855
 Alpha virt. eigenvalues --    1.87731   1.91226   1.94875   1.96413   1.97613
 Alpha virt. eigenvalues --    2.00540   2.01519   2.04127   2.07610   2.10066
 Alpha virt. eigenvalues --    2.11282   2.17197   2.22216   2.24771   2.27390
 Alpha virt. eigenvalues --    2.28316   2.31570   2.35093   2.36220   2.37563
 Alpha virt. eigenvalues --    2.39088   2.41951   2.45820   2.46438   2.49095
 Alpha virt. eigenvalues --    2.54726   2.55489   2.60676   2.65053   2.68125
 Alpha virt. eigenvalues --    2.69454   2.73553   2.75432   2.76233   2.79364
 Alpha virt. eigenvalues --    2.80184   2.81623   2.82577   2.84181   2.85785
 Alpha virt. eigenvalues --    2.87211   2.89035   2.91504   2.93052   2.94289
 Alpha virt. eigenvalues --    2.94977   2.96044   2.96505   2.98880   2.98953
 Alpha virt. eigenvalues --    3.02390   3.05036   3.07438   3.08597   3.10897
 Alpha virt. eigenvalues --    3.14298   3.19405   3.21115   3.23765   3.26918
 Alpha virt. eigenvalues --    3.28316   3.30435   3.35242   3.36738   3.38235
 Alpha virt. eigenvalues --    3.39271   3.43640   3.45781   3.48949   3.52230
 Alpha virt. eigenvalues --    3.53476   3.55776   3.56572   3.58363   3.60478
 Alpha virt. eigenvalues --    3.63537   3.64539   3.64979   3.66168   3.68532
 Alpha virt. eigenvalues --    3.71729   3.77684   3.80022   3.85511   3.90764
 Alpha virt. eigenvalues --    3.94810   3.95924   3.99643   4.04081   4.05497
 Alpha virt. eigenvalues --    4.09512   4.11718   4.19344   4.21458   4.23110
 Alpha virt. eigenvalues --    4.27956   4.29174   4.31418   4.35814   4.37925
 Alpha virt. eigenvalues --    4.39155   4.40576   4.41172   4.42351   4.45490
 Alpha virt. eigenvalues --    4.46147   4.49115   4.50562   4.51382   4.51634
 Alpha virt. eigenvalues --    4.53751   4.55041   4.58042   4.58427   4.59650
 Alpha virt. eigenvalues --    4.63145   4.64265   4.65275   4.66436   4.69366
 Alpha virt. eigenvalues --    4.71647   4.72058   4.72712   4.74701   4.77912
 Alpha virt. eigenvalues --    4.79281   4.81908   4.82728   4.85238   4.86390
 Alpha virt. eigenvalues --    4.89893   4.90274   4.93983   4.95126   4.97052
 Alpha virt. eigenvalues --    5.00256   5.02845   5.04376   5.05642   5.11158
 Alpha virt. eigenvalues --    5.13049   5.18356   5.24155   5.28656   5.29494
 Alpha virt. eigenvalues --    5.34732   5.38351   5.39340   5.41243   5.48229
 Alpha virt. eigenvalues --    5.54178   5.58678   5.62096   5.70349   5.90681
 Alpha virt. eigenvalues --    9.03820  10.90662  11.12820  11.41982  11.43745
 Alpha virt. eigenvalues --   11.53259  11.58224  11.92919  12.05830  14.58891
 Alpha virt. eigenvalues --   17.01545
          Condensed to atoms (all electrons):
               1          2          3          4          5          6
     1  C    4.988143   0.411490  -0.035142  -0.003088   0.002246  -0.000071
     2  C    0.411490   4.794453   0.386411  -0.071658  -0.052068   0.002335
     3  N   -0.035142   0.386411   6.176654   0.395998   0.409818  -0.031040
     4  C   -0.003088  -0.071658   0.395998   4.985025  -0.076176   0.000261
     5  C    0.002246  -0.052068   0.409818  -0.076176   4.852997   0.379244
     6  N   -0.000071   0.002335  -0.031040   0.000261   0.379244   6.424609
     7  C    0.000000  -0.000315   0.002839   0.000227  -0.071296   0.377691
     8  N   -0.000000   0.000001  -0.000025  -0.000010   0.004027  -0.059206
     9  H    0.368592  -0.021310   0.002390   0.000079  -0.000118   0.000000
    10  H    0.370994  -0.023878   0.002785  -0.000279   0.000179  -0.000002
    11  H    0.379196  -0.027638  -0.003275  -0.000230   0.000100   0.000002
    12  H   -0.032594   0.367759  -0.023819   0.005838  -0.003494   0.000339
    13  H   -0.049502   0.347451  -0.046147  -0.008396  -0.005195  -0.000259
    14  H    0.000983  -0.005426  -0.021683   0.382466   0.004341   0.000223
    15  H    0.000258   0.005562  -0.022540   0.375876  -0.003088  -0.000155
    16  H   -0.001095  -0.006109  -0.044972   0.346258  -0.002201  -0.002065
    17  H    0.000157  -0.007692  -0.007253   0.006471   0.338002  -0.011931
    18  H   -0.000212  -0.002290  -0.058254  -0.010468   0.349641  -0.062505
    19  H    0.000004  -0.000001  -0.000602   0.005824  -0.054430   0.331321
    20  H    0.000000  -0.000012   0.000216  -0.000008  -0.001121  -0.036704
    21  H    0.000000   0.000046  -0.000256  -0.000087  -0.004657  -0.034254
    22  H    0.000000   0.000001  -0.000012  -0.000002  -0.000103   0.011351
    23  H    0.000000  -0.000000   0.000001   0.000000  -0.000459   0.005577
               7          8          9         10         11         12
     1  C    0.000000  -0.000000   0.368592   0.370994   0.379196  -0.032594
     2  C   -0.000315   0.000001  -0.021310  -0.023878  -0.027638   0.367759
     3  N    0.002839  -0.000025   0.002390   0.002785  -0.003275  -0.023819
     4  C    0.000227  -0.000010   0.000079  -0.000279  -0.000230   0.005838
     5  C   -0.071296   0.004027  -0.000118   0.000179   0.000100  -0.003494
     6  N    0.377691  -0.059206   0.000000  -0.000002   0.000002   0.000339
     7  C    4.811648   0.392169  -0.000000   0.000000   0.000000  -0.000004
     8  N    0.392169   6.560161   0.000000   0.000000   0.000000   0.000000
     9  H   -0.000000   0.000000   0.599553  -0.029314  -0.030763  -0.002678
    10  H    0.000000   0.000000  -0.029314   0.586065  -0.034115  -0.005176
    11  H    0.000000   0.000000  -0.030763  -0.034115   0.593366   0.005383
    12  H   -0.000004   0.000000  -0.002678  -0.005176   0.005383   0.634423
    13  H    0.000049   0.000000   0.000494   0.006545  -0.004594  -0.050302
    14  H   -0.000006  -0.000000  -0.000160   0.000563   0.003133   0.000133
    15  H   -0.000303  -0.000043  -0.000005  -0.000072  -0.000187  -0.000209
    16  H    0.000071   0.000001   0.000029   0.000286   0.000600  -0.000316
    17  H   -0.004670   0.000134  -0.000010  -0.000023   0.000004   0.006266
    18  H   -0.002661  -0.000053   0.000019   0.000036   0.000003  -0.001543
    19  H   -0.048638   0.015130   0.000000   0.000000  -0.000001   0.000001
    20  H    0.372804  -0.035453   0.000000   0.000000  -0.000000  -0.000003
    21  H    0.347470  -0.030484   0.000000  -0.000000   0.000000   0.000000
    22  H   -0.056025   0.334971  -0.000000  -0.000000   0.000000   0.000000
    23  H   -0.046645   0.332157  -0.000000   0.000000  -0.000000  -0.000000
              13         14         15         16         17         18
     1  C   -0.049502   0.000983   0.000258  -0.001095   0.000157  -0.000212
     2  C    0.347451  -0.005426   0.005562  -0.006109  -0.007692  -0.002290
     3  N   -0.046147  -0.021683  -0.022540  -0.044972  -0.007253  -0.058254
     4  C   -0.008396   0.382466   0.375876   0.346258   0.006471  -0.010468
     5  C   -0.005195   0.004341  -0.003088  -0.002201   0.338002   0.349641
     6  N   -0.000259   0.000223  -0.000155  -0.002065  -0.011931  -0.062505
     7  C    0.000049  -0.000006  -0.000303   0.000071  -0.004670  -0.002661
     8  N    0.000000  -0.000000  -0.000043   0.000001   0.000134  -0.000053
     9  H    0.000494  -0.000160  -0.000005   0.000029  -0.000010   0.000019
    10  H    0.006545   0.000563  -0.000072   0.000286  -0.000023   0.000036
    11  H   -0.004594   0.003133  -0.000187   0.000600   0.000004   0.000003
    12  H   -0.050302   0.000133  -0.000209  -0.000316   0.006266  -0.001543
    13  H    0.707293  -0.000923  -0.000301   0.015095  -0.001593   0.015103
    14  H   -0.000923   0.581727  -0.028949  -0.042486  -0.000178  -0.000378
    15  H   -0.000301  -0.028949   0.591164  -0.043351  -0.000065  -0.000283
    16  H    0.015095  -0.042486  -0.043351   0.674954  -0.000316   0.015724
    17  H   -0.001593  -0.000178  -0.000065  -0.000316   0.632853  -0.062840
    18  H    0.015103  -0.000378  -0.000283   0.015724  -0.062840   0.757505
    19  H   -0.000005  -0.000339   0.002555   0.000410   0.007120  -0.006441
    20  H    0.000001   0.000000  -0.000020   0.000001   0.005560  -0.002203
    21  H    0.000002  -0.000002   0.000100   0.000050  -0.002080   0.016032
    22  H   -0.000000  -0.000000   0.000026  -0.000000  -0.000053   0.000098
    23  H    0.000000   0.000000   0.000000   0.000000  -0.000001   0.000041
              19         20         21         22         23
     1  C    0.000004   0.000000   0.000000   0.000000   0.000000
     2  C   -0.000001  -0.000012   0.000046   0.000001  -0.000000
     3  N   -0.000602   0.000216  -0.000256  -0.000012   0.000001
     4  C    0.005824  -0.000008  -0.000087  -0.000002   0.000000
     5  C   -0.054430  -0.001121  -0.004657  -0.000103  -0.000459
     6  N    0.331321  -0.036704  -0.034254   0.011351   0.005577
     7  C   -0.048638   0.372804   0.347470  -0.056025  -0.046645
     8  N    0.015130  -0.035453  -0.030484   0.334971   0.332157
     9  H    0.000000   0.000000   0.000000  -0.000000  -0.000000
    10  H    0.000000   0.000000  -0.000000  -0.000000   0.000000
    11  H   -0.000001  -0.000000   0.000000   0.000000  -0.000000
    12  H    0.000001  -0.000003   0.000000   0.000000  -0.000000
    13  H   -0.000005   0.000001   0.000002  -0.000000   0.000000
    14  H   -0.000339   0.000000  -0.000002  -0.000000   0.000000
    15  H    0.002555  -0.000020   0.000100   0.000026   0.000000
    16  H    0.000410   0.000001   0.000050  -0.000000   0.000000
    17  H    0.007120   0.005560  -0.002080  -0.000053  -0.000001
    18  H   -0.006441  -0.002203   0.016032   0.000098   0.000041
    19  H    0.529952   0.009094  -0.009102  -0.001859  -0.000494
    20  H    0.009094   0.683990  -0.066274  -0.008100  -0.005288
    21  H   -0.009102  -0.066274   0.692843   0.008928   0.001460
    22  H   -0.001859  -0.008100   0.008928   0.510051  -0.027754
    23  H   -0.000494  -0.005288   0.001460  -0.027754   0.523164
 Mulliken charges:
               1
     1  C   -0.400359
     2  C   -0.097112
     3  N   -0.082091
     4  C   -0.333921
     5  C   -0.066187
     6  N   -0.294760
     7  C   -0.074404
     8  N   -0.513477
     9  H    0.113201
    10  H    0.125405
    11  H    0.119015
    12  H    0.099997
    13  H    0.075185
    14  H    0.126961
    15  H    0.124030
    16  H    0.089434
    17  H    0.102140
    18  H    0.055929
    19  H    0.220502
    20  H    0.083520
    21  H    0.080267
    22  H    0.228484
    23  H    0.218241
 Sum of Mulliken charges =  -0.00000
 Mulliken charges with hydrogens summed into heavy atoms:
               1
     1  C   -0.042739
     2  C    0.078070
     3  N   -0.082091
     4  C    0.006504
     5  C    0.091883
     6  N   -0.074258
     7  C    0.089383
     8  N   -0.066752
 Electronic spatial extent (au):  <R**2>=           1653.2937
 Charge=             -0.0000 electrons
 Dipole moment (field-independent basis, Debye):
    X=              0.0759    Y=             -0.8870    Z=              0.8167  Tot=              1.2081
 Quadrupole moment (field-independent basis, Debye-Ang):
   XX=            -46.6557   YY=            -50.7312   ZZ=            -53.6237
   XY=             -3.9691   XZ=             -1.6160   YZ=              0.2699
 Traceless Quadrupole moment (field-independent basis, Debye-Ang):
   XX=              3.6812   YY=             -0.3944   ZZ=             -3.2868
   XY=             -3.9691   XZ=             -1.6160   YZ=              0.2699
 Octapole moment (field-independent basis, Debye-Ang**2):
  XXX=             32.9168  YYY=              1.4065  ZZZ=             -2.9236  XYY=             -2.4344
  XXY=            -17.0175  XXZ=             -8.2144  XZZ=              7.4231  YZZ=              0.6056
  YYZ=             -2.6455  XYZ=             -1.5268
 Hexadecapole moment (field-independent basis, Debye-Ang**3):
 XXXX=          -1653.9637 YYYY=           -252.7530 ZZZZ=           -115.2665 XXXY=            -58.5334
 XXXZ=            -35.0848 YYYX=             -3.3202 YYYZ=              0.9331 ZZZX=             -6.8136
 ZZZY=             -0.3073 XXYY=           -355.9790 XXZZ=           -309.2475 YYZZ=            -64.2118
 XXYZ=             -6.0078 YYXZ=             -1.6727 ZZXY=              2.7741
 N-N= 4.081821025366D+02 E-N=-1.661238839583D+03  KE= 3.610360951903D+02
 PrsmSu:  requested number of processors reduced to:  13 ShMem   1 Linda.
 Calling FoFJK, ICntrl=      2127 FMM=F ISym2X=0 I1Cent= 0 IOpClX= 0 NMat=1 NMatS=1 NMatT=0.
 ***** Axes restored to original set *****
 -------------------------------------------------------------------
 Center     Atomic                   Forces (Hartrees/Bohr)
 Number     Number              X              Y              Z
 -------------------------------------------------------------------
      1        6          -0.001952807    0.001092266    0.000709558
      2        6          -0.003577024    0.003610570   -0.006458430
      3        7          -0.003020925   -0.009513690    0.003765185
      4        6          -0.000349137    0.000028972   -0.007294955
      5        6          -0.016052658    0.007400280   -0.011839044
      6        7          -0.007241702   -0.017884873    0.003627356
      7        6          -0.001731757    0.008886913   -0.007365304
      8        7           0.016792186    0.015540493   -0.006466882
      9        1           0.001490596   -0.000737416   -0.000819639
     10        1           0.000140217    0.000877913    0.000177964
     11        1          -0.000422796   -0.000616210   -0.000875215
     12        1           0.003997903    0.003890454   -0.001058657
     13        1           0.002334719   -0.000830808    0.005666108
     14        1           0.001465023   -0.004169151    0.000596029
     15        1           0.003670671   -0.001798074   -0.000963754
     16        1           0.000957037    0.002318570    0.007351451
     17        1          -0.002230627   -0.000552151    0.001394579
     18        1           0.004072353   -0.001887063    0.010807006
     19        1          -0.000190590    0.003358746    0.000300765
     20        1          -0.003837307   -0.011927645    0.002812856
     21        1           0.006669910   -0.001914700    0.005335390
     22        1           0.000329520    0.001150605    0.000574950
     23        1          -0.001312803    0.003675999    0.000022682
 -------------------------------------------------------------------
 Cartesian Forces:  Max     0.017884873 RMS     0.005858027

 GradGradGradGradGradGradGradGradGradGradGradGradGradGradGradGradGradGrad
 Berny optimization.
 FormGI is forming the generalized inverse of G from B-inverse, IUseBI=4.
 Internal  Forces:  Max     0.024200581 RMS     0.004945762
 Search for a local minimum.
 Step number   1 out of a maximum of  116
 All quantities printed in internal units (Hartrees-Bohrs-Radians)
 Mixed Optimization -- RFO/linear search
 Second derivative matrix not updated -- first step.
 ITU=  0
     Eigenvalues ---    0.00389   0.00618   0.00779   0.00825   0.00947
     Eigenvalues ---    0.01184   0.01192   0.02894   0.03416   0.03968
     Eigenvalues ---    0.05071   0.05243   0.05390   0.05489   0.05626
     Eigenvalues ---    0.06338   0.06694   0.06973   0.07076   0.07264
     Eigenvalues ---    0.08876   0.09508   0.09781   0.10584   0.12486
     Eigenvalues ---    0.12984   0.13156   0.16000   0.16000   0.16000
     Eigenvalues ---    0.16000   0.16000   0.16000   0.16000   0.16000
     Eigenvalues ---    0.16413   0.17055   0.21888   0.21984   0.21989
     Eigenvalues ---    0.23621   0.29562   0.33883   0.33901   0.33953
     Eigenvalues ---    0.33982   0.34199   0.34258   0.34309   0.34323
     Eigenvalues ---    0.34357   0.34394   0.34414   0.34437   0.34455
     Eigenvalues ---    0.35856   0.36281   0.37436   0.39803   0.39890
     Eigenvalues ---    0.44542   0.44675   0.45741
 RFO step:  Lambda=-1.21782962D-02 EMin= 3.88904955D-03
 Linear search not attempted -- first point.
 Iteration  1 RMS(Cart)=  0.09665502 RMS(Int)=  0.00363157
 Iteration  2 RMS(Cart)=  0.00524772 RMS(Int)=  0.00066151
 Iteration  3 RMS(Cart)=  0.00001516 RMS(Int)=  0.00066142
 Iteration  4 RMS(Cart)=  0.00000005 RMS(Int)=  0.00066142
 Variable       Old X    -DE/DX   Delta X   Delta X   Delta X     New X
                                 (Linear)    (Quad)   (Total)
    R1        2.88845   0.00069   0.00000   0.00225   0.00225   2.89071
    R2        2.06897  -0.00013   0.00000  -0.00036  -0.00036   2.06861
    R3        2.06811  -0.00020   0.00000  -0.00055  -0.00055   2.06756
    R4        2.06731  -0.00073   0.00000  -0.00205  -0.00205   2.06526
    R5        2.79899  -0.00790   0.00000  -0.02216  -0.02216   2.77683
    R6        2.07498  -0.00122   0.00000  -0.00346  -0.00346   2.07152
    R7        2.07527   0.00616   0.00000   0.01754   0.01754   2.09282
    R8        2.76945  -0.00507   0.00000  -0.01351  -0.01351   2.75594
    R9        2.77607  -0.00491   0.00000  -0.01324  -0.01324   2.76283
   R10        2.06671  -0.00167   0.00000  -0.00468  -0.00468   2.06202
   R11        2.06636  -0.00001   0.00000  -0.00003  -0.00003   2.06634
   R12        2.06996   0.00738   0.00000   0.02084   0.02084   2.09080
   R13        2.75195   0.00484   0.00000   0.01252   0.01252   2.76447
   R14        2.07361  -0.00081   0.00000  -0.00231  -0.00231   2.07129
   R15        2.07410   0.01157   0.00000   0.03289   0.03289   2.10699
   R16        2.71703   0.01663   0.00000   0.04045   0.04045   2.75749
   R17        1.91125   0.00307   0.00000   0.00655   0.00655   1.91779
   R18        2.71822   0.02420   0.00000   0.05900   0.05900   2.77722
   R19        2.06569   0.00651   0.00000   0.01826   0.01826   2.08395
   R20        2.06789   0.00726   0.00000   0.02043   0.02043   2.08832
   R21        1.92355  -0.00069   0.00000  -0.00150  -0.00150   1.92205
   R22        1.92511  -0.00121   0.00000  -0.00265  -0.00265   1.92246
    A1        1.92319  -0.00221   0.00000  -0.01283  -0.01285   1.91034
    A2        1.93788  -0.00028   0.00000  -0.00327  -0.00330   1.93457
    A3        1.95897   0.00165   0.00000   0.01124   0.01126   1.97023
    A4        1.88839   0.00084   0.00000   0.00161   0.00155   1.88994
    A5        1.85748   0.00079   0.00000   0.00778   0.00782   1.86530
    A6        1.89488  -0.00074   0.00000  -0.00427  -0.00426   1.89061
    A7        1.99062   0.00231   0.00000   0.01139   0.01119   2.00181
    A8        1.86694   0.00280   0.00000   0.01600   0.01598   1.88292
    A9        1.89883  -0.00022   0.00000   0.01514   0.01476   1.91359
   A10        1.90840  -0.00546   0.00000  -0.05288  -0.05280   1.85559
   A11        1.92995   0.00053   0.00000   0.01314   0.01275   1.94270
   A12        1.86395  -0.00003   0.00000  -0.00377  -0.00396   1.85999
   A13        1.92709   0.00405   0.00000   0.02734   0.02735   1.95444
   A14        1.89999  -0.00144   0.00000  -0.00289  -0.00294   1.89706
   A15        1.95413  -0.00184   0.00000  -0.00581  -0.00590   1.94823
   A16        1.94591  -0.00435   0.00000  -0.02474  -0.02477   1.92114
   A17        1.95344  -0.00465   0.00000  -0.02646  -0.02649   1.92695
   A18        1.95135   0.00467   0.00000   0.02606   0.02622   1.97757
   A19        1.81200   0.00502   0.00000   0.03127   0.03105   1.84304
   A20        1.89680  -0.00039   0.00000  -0.00332  -0.00318   1.89362
   A21        1.89837  -0.00022   0.00000  -0.00223  -0.00208   1.89629
   A22        1.93515   0.00845   0.00000   0.04084   0.04048   1.97564
   A23        1.90044  -0.00519   0.00000  -0.04072  -0.04061   1.85983
   A24        1.92732  -0.00170   0.00000   0.00341   0.00243   1.92975
   A25        1.87725  -0.00119   0.00000  -0.00706  -0.00653   1.87072
   A26        1.94001  -0.00100   0.00000   0.01351   0.01285   1.95286
   A27        1.88176   0.00029   0.00000  -0.01326  -0.01344   1.86833
   A28        1.92884   0.01180   0.00000   0.05292   0.05240   1.98124
   A29        1.91091  -0.00180   0.00000   0.00940   0.00869   1.91959
   A30        1.84998  -0.00312   0.00000   0.00101   0.00011   1.85009
   A31        1.81475   0.01773   0.00000   0.08952   0.08864   1.90339
   A32        1.94602  -0.01214   0.00000  -0.07505  -0.07813   1.86789
   A33        1.95694  -0.00047   0.00000   0.00687   0.00601   1.96295
   A34        1.93057   0.00419   0.00000   0.05945   0.06102   1.99159
   A35        1.90426  -0.00789   0.00000  -0.03086  -0.03117   1.87309
   A36        1.90943  -0.00064   0.00000  -0.04174  -0.04268   1.86676
   A37        1.86937   0.00142   0.00000   0.01382   0.01345   1.88282
   A38        1.90165   0.00588   0.00000   0.03945   0.03911   1.94075
   A39        1.85333  -0.00141   0.00000   0.00437   0.00362   1.85695
    D1        3.10293  -0.00261   0.00000  -0.05547  -0.05553   3.04740
    D2        0.99064   0.00086   0.00000  -0.00719  -0.00710   0.98354
    D3       -1.01689  -0.00045   0.00000  -0.01859  -0.01854  -1.03543
    D4        1.01099  -0.00202   0.00000  -0.04697  -0.04708   0.96390
    D5       -1.10131   0.00144   0.00000   0.00130   0.00135  -1.09995
    D6       -3.10883   0.00013   0.00000  -0.01010  -0.01009  -3.11892
    D7       -1.11349  -0.00203   0.00000  -0.04703  -0.04713  -1.16062
    D8        3.05740   0.00144   0.00000   0.00124   0.00130   3.05871
    D9        1.04988   0.00013   0.00000  -0.01016  -0.01014   1.03974
   D10        1.05048   0.00150   0.00000   0.06519   0.06521   1.11569
   D11       -3.08090   0.00087   0.00000   0.07384   0.07392  -3.00698
   D12        3.13956   0.00270   0.00000   0.05539   0.05534  -3.08828
   D13       -0.99182   0.00207   0.00000   0.06404   0.06406  -0.92776
   D14       -1.09605  -0.00032   0.00000   0.02661   0.02654  -1.06951
   D15        1.05576  -0.00095   0.00000   0.03525   0.03525   1.09101
   D16       -1.06481   0.00018   0.00000   0.01061   0.01077  -1.05404
   D17       -3.08588  -0.00037   0.00000   0.00403   0.00389  -3.08199
   D18        1.06251  -0.00011   0.00000   0.00718   0.00719   1.06970
   D19        3.09834   0.00045   0.00000  -0.00088  -0.00074   3.09760
   D20        1.07727  -0.00011   0.00000  -0.00747  -0.00763   1.06965
   D21       -1.05752   0.00015   0.00000  -0.00431  -0.00432  -1.06184
   D22        3.03750  -0.00305   0.00000  -0.06241  -0.06269   2.97481
   D23        0.97545  -0.00341   0.00000  -0.05289  -0.05255   0.92290
   D24       -1.08749   0.00039   0.00000  -0.01407  -0.01405  -1.10154
   D25       -1.11013  -0.00015   0.00000  -0.03369  -0.03402  -1.14416
   D26        3.11100  -0.00051   0.00000  -0.02417  -0.02388   3.08712
   D27        1.04807   0.00329   0.00000   0.01465   0.01462   1.06269
   D28        3.07757   0.00342   0.00000   0.07357   0.07401  -3.13161
   D29        1.04614   0.00143   0.00000   0.03602   0.03608   1.08222
   D30       -1.12953   0.00123   0.00000   0.04322   0.04346  -1.08608
   D31        3.12222  -0.00075   0.00000   0.00567   0.00553   3.12775
   D32        0.92666   0.00030   0.00000   0.03049   0.03038   0.95705
   D33       -1.10476  -0.00169   0.00000  -0.00706  -0.00754  -1.11231
   D34       -3.02178   0.00161   0.00000  -0.00049  -0.00224  -3.02402
   D35        1.18084  -0.00771   0.00000  -0.08602  -0.08410   1.09673
   D36       -0.96701   0.00248   0.00000   0.01909   0.01867  -0.94834
   D37       -0.95285   0.00390   0.00000   0.03935   0.03777  -0.91507
   D38       -3.03341  -0.00542   0.00000  -0.04618  -0.04409  -3.07751
   D39        1.10193   0.00477   0.00000   0.05893   0.05868   1.16061
   D40       -1.03537   0.00306   0.00000   0.01733   0.01588  -1.01949
   D41       -3.03316   0.00106   0.00000  -0.01443  -0.01629  -3.04946
   D42        1.05570   0.00105   0.00000   0.01016   0.01217   1.06788
   D43       -0.94209  -0.00095   0.00000  -0.02160  -0.02000  -0.96209
   D44       -3.12625  -0.00218   0.00000  -0.02419  -0.02413   3.13281
   D45        1.15914  -0.00417   0.00000  -0.05595  -0.05630   1.10284
         Item               Value     Threshold  Converged?
 Maximum Force            0.024201     0.000450     NO 
 RMS     Force            0.004946     0.000300     NO 
 Maximum Displacement     0.247714     0.001800     NO 
 RMS     Displacement     0.097076     0.001200     NO 
 Predicted change in Energy=-6.730836D-03
 GradGradGradGradGradGradGradGradGradGradGradGradGradGradGradGradGradGrad

                          Input orientation:                          
 ---------------------------------------------------------------------
 Center     Atomic      Atomic             Coordinates (Angstroms)
 Number     Number       Type             X           Y           Z
 ---------------------------------------------------------------------
      1          6           0        1.031310   -0.053228   -0.118121
      2          6           0        2.545685    0.148510   -0.041036
      3          7           0        3.031631    1.391057   -0.656807
      4          6           0        2.523962    2.574445    0.027832
      5          6           0        4.493306    1.364578   -0.674928
      6          7           0        5.079488    2.448189   -1.463749
      7          6           0        6.538037    2.420670   -1.497467
      8          7           0        7.025312    3.631480   -2.173002
      9          1           0        0.774598   -1.041490    0.276489
     10          1           0        0.683190    0.003893   -1.153795
     11          1           0        0.474441    0.678605    0.472406
     12          1           0        3.022989   -0.673203   -0.587501
     13          1           0        2.879416    0.063690    1.011542
     14          1           0        1.433657    2.591460   -0.012280
     15          1           0        2.851310    3.482231   -0.486386
     16          1           0        2.837219    2.635401    1.087209
     17          1           0        4.782785    0.422139   -1.153891
     18          1           0        4.897539    1.340938    0.363916
     19          1           0        4.825785    3.345392   -1.063016
     20          1           0        6.831826    1.479780   -1.991976
     21          1           0        6.983668    2.406145   -0.486318
     22          1           0        6.626545    3.649005   -3.108513
     23          1           0        8.035330    3.605191   -2.291819
 ---------------------------------------------------------------------
                    Distance matrix (angstroms):
                    1          2          3          4          5
     1  C    0.000000
     2  C    1.529696   0.000000
     3  N    2.525356   1.469435   0.000000
     4  C    3.025554   2.427010   1.458378   0.000000
     5  C    3.782277   2.381989   1.462027   2.415774   0.000000
     6  N    4.945255   3.705779   2.441803   2.961666   1.462894
     7  C    6.192480   4.819002   3.749893   4.296857   2.443937
     8  N    7.329916   6.061635   4.823674   5.120854   3.714044
     9  H    1.094660   2.157237   3.447104   4.024562   4.530248
    10  H    1.094107   2.174405   2.772435   3.375267   4.074035
    11  H    1.092889   2.198790   2.884776   2.827082   4.235353
    12  H    2.138100   1.096200   2.065441   3.342885   2.514364
    13  H    2.169171   1.107470   2.137396   2.719913   2.672290
    14  H    2.677211   2.684295   2.099977   1.091175   3.362408
    15  H    3.993431   3.377194   2.105842   1.093459   2.686290
    16  H    3.455843   2.746371   2.151227   1.106401   2.731802
    17  H    3.920759   2.513550   2.062143   3.336341   1.096082
    18  H    4.138090   2.667788   2.127440   2.695989   1.114971
    19  H    5.180876   4.057506   2.683919   2.661334   2.045672
    20  H    6.285493   4.893818   4.028899   4.882172   2.686366
    21  H    6.450942   4.999089   4.083879   4.492399   2.705982
    22  H    7.345449   6.190016   4.902306   5.274706   3.961268
    23  H    8.195442   6.866649   5.710749   6.067816   4.492284
                    6          7          8          9         10
     6  N    0.000000
     7  C    1.459199   0.000000
     8  N    2.385256   1.469641   0.000000
     9  H    5.808474   6.953467   8.179736   0.000000
    10  H    5.039652   6.343356   7.377038   1.773948   0.000000
    11  H    5.299678   6.609266   7.657125   1.757045   1.772947
    12  H    3.839282   4.770288   6.087914   2.436673   2.500762
    13  H    4.080835   5.023544   6.329210   2.488370   3.084748
    14  H    3.926750   5.318801   6.084157   3.703522   2.926049
    15  H    2.643720   3.967512   4.504358   5.035749   4.152712
    16  H    3.401500   4.519150   5.400117   4.293158   4.072686
    17  H    2.070972   2.681992   4.045662   4.500418   4.120875
    18  H    2.144637   2.705883   4.026158   4.762589   4.674599
    19  H    1.014852   1.993907   2.480289   6.119732   5.323059
    20  H    2.070635   1.102780   2.167953   6.942100   6.378598
    21  H    2.140804   1.105089   2.085206   7.142872   6.775867
    22  H    2.557458   2.027833   1.017105   8.228260   7.240942
    23  H    3.280450   2.067841   1.017322   8.994780   8.265495
                   11         12         13         14         15
    11  H    0.000000
    12  H    3.073416   0.000000
    13  H    2.540216   1.766511   0.000000
    14  H    2.194090   3.676259   3.086755   0.000000
    15  H    3.798567   4.160208   3.732426   1.740112   0.000000
    16  H    3.128859   3.712953   2.573170   1.783478   1.787043
    17  H    4.612206   2.148826   2.905236   4.150408   3.679718
    18  H    4.473730   2.911339   2.474592   3.701865   3.081429
    19  H    5.329491   4.430044   4.343007   3.630288   2.061499
    20  H    6.865232   4.595119   5.162168   5.856215   4.703309
    21  H    6.802469   5.017928   4.957375   5.573300   4.270169
    22  H    7.713277   6.166247   6.623467   6.137682   4.599539
    23  H    8.565797   6.806828   7.073745   7.057338   5.490789
                   16         17         18         19         20
    16  H    0.000000
    17  H    3.702200   0.000000
    18  H    2.538445   1.777948   0.000000
    19  H    3.013627   2.924981   2.461527   0.000000
    20  H    5.174333   2.453479   3.051388   2.892693   0.000000
    21  H    4.440899   3.037404   2.491886   2.423061   1.774321
    22  H    5.743732   4.199127   4.513800   2.742075   2.448332
    23  H    6.275243   4.691028   4.693133   3.446539   2.460833
                   21         22         23
    21  H    0.000000
    22  H    2.923721   0.000000
    23  H    2.409053   1.628981   0.000000
 Stoichiometry    C5H15N3
 Framework group  C1[X(C5H15N3)]
 Deg. of freedom    63
 Full point group                 C1      NOp   1
 Largest Abelian subgroup         C1      NOp   1
 Largest concise Abelian subgroup C1      NOp   1
                         Standard orientation:                         
 ---------------------------------------------------------------------
 Center     Atomic      Atomic             Coordinates (Angstroms)
 Number     Number       Type             X           Y           Z
 ---------------------------------------------------------------------
      1          6           0       -3.538247   -0.271825   -0.397332
      2          6           0       -2.195218   -0.708379    0.190599
      3          7           0       -1.051061    0.122765   -0.208580
      4          6           0       -1.174618    1.491857    0.278440
      5          6           0        0.177219   -0.510245    0.269070
      6          7           0        1.390159    0.112571   -0.260962
      7          6           0        2.620177   -0.522222    0.200942
      8          7           0        3.770098    0.271615   -0.254412
      9          1           0       -4.309189   -0.999825   -0.125403
     10          1           0       -3.486396   -0.218297   -1.488898
     11          1           0       -3.871551    0.698650   -0.021177
     12          1           0       -1.982031   -1.720606   -0.172174
     13          1           0       -2.276561   -0.778522    1.292849
     14          1           0       -2.075409    1.954206   -0.128344
     15          1           0       -0.342151    2.101723   -0.083106
     16          1           0       -1.211644    1.562249    1.381978
     17          1           0        0.158130   -1.543808   -0.095320
     18          1           0        0.186401   -0.556518    1.383043
     19          1           0        1.443921    1.079848    0.041378
     20          1           0        2.610220   -1.558316   -0.176595
     21          1           0        2.676878   -0.581285    1.302994
     22          1           0        3.730849    0.324321   -1.269392
     23          1           0        4.648276   -0.187592   -0.024461
 ---------------------------------------------------------------------
 Rotational constants (GHZ):           6.1323980           0.7428380           0.6959244
 Standard basis: 6-31G(2df,p) (6D, 7F)
 There are   323 symmetry adapted cartesian basis functions of A   symmetry.
 There are   299 symmetry adapted basis functions of A   symmetry.
   299 basis functions,   457 primitive gaussians,   323 cartesian basis functions
    33 alpha electrons       33 beta electrons
       nuclear repulsion energy       404.3947728177 Hartrees.
 NAtoms=   23 NActive=   23 NUniq=   23 SFac= 1.00D+00 NAtFMM=   60 NAOKFM=F Big=F
 Integral buffers will be    131072 words long.
 Raffenetti 2 integral format.
 Two-electron integral symmetry is turned on.
 One-electron integrals computed using PRISM.
 PrsmSu:  requested number of processors reduced to:  13 ShMem   1 Linda.
 NBasis=   299 RedAO= T EigKep=  2.91D-04  NBF=   299
 NBsUse=   299 1.00D-06 EigRej= -1.00D+00 NBFU=   299
 Initial guess from the checkpoint file:  "CCNpCpCNCN.chk"
 B after Tr=    -0.000000   -0.000000    0.000000
         Rot=    0.999787    0.020541    0.001341   -0.001140 Ang=   2.36 deg.
 ExpMin= 1.61D-01 ExpMax= 4.17D+03 ExpMxC= 6.27D+02 IAcc=2 IRadAn=         4 AccDes= 0.00D+00
 Harris functional with IExCor=  402 and IRadAn=       4 diagonalized for initial guess.
 HarFok:  IExCor=  402 AccDes= 0.00D+00 IRadAn=         4 IDoV= 1 UseB2=F ITyADJ=14
 ICtDFT=  3500011 ScaDFX=  1.000000  1.000000  1.000000  1.000000
 FoFCou: FMM=F IPFlag=           0 FMFlag=      100000 FMFlg1=           0
         NFxFlg=           0 DoJE=T BraDBF=F KetDBF=T FulRan=T
         wScrn=  0.000000 ICntrl=       500 IOpCl=  0 I1Cent=   200000004 NGrid=           0
         NMat0=    1 NMatS0=      1 NMatT0=    0 NMatD0=    1 NMtDS0=    0 NMtDT0=    0
 Petite list used in FoFCou.
 Requested convergence on RMS density matrix=1.00D-08 within 128 cycles.
 Requested convergence on MAX density matrix=1.00D-06.
 Requested convergence on             energy=1.00D-06.
 No special actions if energy rises.
 Integral accuracy reduced to 1.0D-05 until final iterations.
 Initial convergence to 1.0D-05 achieved.  Increase integral accuracy.
 SCF Done:  E(RB3LYP) =  -363.815582094     A.U. after   11 cycles
            NFock= 11  Conv=0.23D-08     -V/T= 2.0083
 PrsmSu:  requested number of processors reduced to:  13 ShMem   1 Linda.
 Calling FoFJK, ICntrl=      2127 FMM=F ISym2X=0 I1Cent= 0 IOpClX= 0 NMat=1 NMatS=1 NMatT=0.
 ***** Axes restored to original set *****
 -------------------------------------------------------------------
 Center     Atomic                   Forces (Hartrees/Bohr)
 Number     Number              X              Y              Z
 -------------------------------------------------------------------
      1        6           0.000517304    0.000488091   -0.000054107
      2        6          -0.000043182    0.000453572   -0.003762875
      3        7           0.001371930    0.000737945    0.003399295
      4        6          -0.001071822    0.000671549   -0.003082899
      5        6           0.001048831    0.001082951   -0.006243776
      6        7          -0.000531810    0.003726016    0.000743843
      7        6           0.001871850   -0.000867854   -0.000619840
      8        7          -0.006945558   -0.003368202    0.000155237
      9        1           0.000385593   -0.000175025   -0.000368040
     10        1           0.000273826    0.000516081    0.000013902
     11        1           0.000148768    0.000634739    0.000181106
     12        1           0.000450359   -0.000675490    0.001095941
     13        1          -0.000461865    0.000193093    0.000876482
     14        1          -0.000735905   -0.000917259    0.001186619
     15        1           0.001174918   -0.000332203    0.000304664
     16        1           0.000298544   -0.000008421    0.000657179
     17        1           0.002061696   -0.000360300    0.000802927
     18        1           0.000676930    0.000371304    0.001494077
     19        1          -0.000898902    0.000912709    0.000524035
     20        1           0.000564233   -0.001014630   -0.000113466
     21        1           0.001688919   -0.000212716    0.000095831
     22        1           0.000110453    0.000043593   -0.000116705
     23        1          -0.001955111   -0.001899546    0.002830571
 -------------------------------------------------------------------
 Cartesian Forces:  Max     0.006945558 RMS     0.001696482

 GradGradGradGradGradGradGradGradGradGradGradGradGradGradGradGradGradGrad
 Berny optimization.
 Using GEDIIS/GDIIS optimizer.
 FormGI is forming the generalized inverse of G from B-inverse, IUseBI=4.
 Internal  Forces:  Max     0.008767586 RMS     0.001937473
 Search for a local minimum.
 Step number   2 out of a maximum of  116
 All quantities printed in internal units (Hartrees-Bohrs-Radians)
 Mixed Optimization -- RFO/linear search
 Update second derivatives using D2CorX and points    1    2
 DE= -4.86D-03 DEPred=-6.73D-03 R= 7.22D-01
 TightC=F SS=  1.41D+00  RLast= 3.32D-01 DXNew= 5.0454D-01 9.9518D-01
 Trust test= 7.22D-01 RLast= 3.32D-01 DXMaxT set to 5.05D-01
 ITU=  1  0
 Use linear search instead of GDIIS.
     Eigenvalues ---    0.00390   0.00625   0.00782   0.00825   0.00941
     Eigenvalues ---    0.01179   0.01192   0.02768   0.03094   0.03903
     Eigenvalues ---    0.04750   0.04973   0.05348   0.05447   0.05651
     Eigenvalues ---    0.05694   0.06662   0.06937   0.06965   0.07462
     Eigenvalues ---    0.09640   0.09695   0.10203   0.11114   0.12556
     Eigenvalues ---    0.13079   0.13419   0.15734   0.16000   0.16000
     Eigenvalues ---    0.16000   0.16000   0.16000   0.16000   0.16307
     Eigenvalues ---    0.16578   0.17319   0.21922   0.21990   0.23059
     Eigenvalues ---    0.26572   0.29601   0.32625   0.33896   0.33903
     Eigenvalues ---    0.33987   0.34113   0.34258   0.34262   0.34309
     Eigenvalues ---    0.34359   0.34376   0.34411   0.34415   0.34456
     Eigenvalues ---    0.35757   0.36236   0.37630   0.39855   0.44098
     Eigenvalues ---    0.44673   0.45521   0.46004
 RFO step:  Lambda=-1.28861040D-03 EMin= 3.89886409D-03
 Quartic linear search produced a step of -0.15627.
 Iteration  1 RMS(Cart)=  0.05658308 RMS(Int)=  0.00094559
 Iteration  2 RMS(Cart)=  0.00159511 RMS(Int)=  0.00010866
 Iteration  3 RMS(Cart)=  0.00000066 RMS(Int)=  0.00010866
 Variable       Old X    -DE/DX   Delta X   Delta X   Delta X     New X
                                 (Linear)    (Quad)   (Total)
    R1        2.89071  -0.00149  -0.00035  -0.00371  -0.00406   2.88664
    R2        2.06861  -0.00006   0.00006  -0.00024  -0.00018   2.06842
    R3        2.06756  -0.00007   0.00009  -0.00030  -0.00022   2.06734
    R4        2.06526   0.00045   0.00032   0.00062   0.00094   2.06620
    R5        2.77683  -0.00248   0.00346  -0.01105  -0.00759   2.76924
    R6        2.07152   0.00016   0.00054  -0.00040   0.00014   2.07166
    R7        2.09282   0.00068  -0.00274   0.00567   0.00292   2.09574
    R8        2.75594  -0.00080   0.00211  -0.00491  -0.00280   2.75313
    R9        2.76283  -0.00227   0.00207  -0.00831  -0.00624   2.75659
   R10        2.06202   0.00068   0.00073   0.00058   0.00131   2.06334
   R11        2.06634  -0.00007   0.00000  -0.00017  -0.00017   2.06617
   R12        2.09080   0.00071  -0.00326   0.00648   0.00323   2.09402
   R13        2.76447  -0.00631  -0.00196  -0.01125  -0.01321   2.75126
   R14        2.07129   0.00050   0.00036   0.00071   0.00107   2.07237
   R15        2.10699   0.00163  -0.00514   0.01149   0.00635   2.11334
   R16        2.75749  -0.00458  -0.00632  -0.00040  -0.00672   2.75076
   R17        1.91779   0.00124  -0.00102   0.00375   0.00273   1.92052
   R18        2.77722  -0.00854  -0.00922  -0.00453  -0.01375   2.76347
   R19        2.08395   0.00107  -0.00285   0.00674   0.00389   2.08784
   R20        2.08832   0.00077  -0.00319   0.00652   0.00333   2.09165
   R21        1.92205   0.00007   0.00024  -0.00022   0.00002   1.92206
   R22        1.92246  -0.00222   0.00041  -0.00478  -0.00436   1.91810
    A1        1.91034  -0.00021   0.00201  -0.00291  -0.00090   1.90944
    A2        1.93457  -0.00039   0.00052  -0.00371  -0.00320   1.93138
    A3        1.97023  -0.00050  -0.00176  -0.00022  -0.00199   1.96824
    A4        1.88994   0.00034  -0.00024   0.00245   0.00222   1.89216
    A5        1.86530   0.00059  -0.00122   0.00658   0.00535   1.87066
    A6        1.89061   0.00024   0.00067  -0.00169  -0.00103   1.88958
    A7        2.00181  -0.00332  -0.00175  -0.01064  -0.01237   1.98944
    A8        1.88292   0.00098  -0.00250   0.01005   0.00759   1.89051
    A9        1.91359   0.00055  -0.00231   0.00040  -0.00187   1.91172
   A10        1.85559   0.00140   0.00825  -0.00191   0.00636   1.86195
   A11        1.94270   0.00120  -0.00199   0.00447   0.00248   1.94518
   A12        1.85999  -0.00061   0.00062  -0.00161  -0.00097   1.85902
   A13        1.95444  -0.00045  -0.00427   0.01084   0.00640   1.96084
   A14        1.89706   0.00141   0.00046   0.01306   0.01341   1.91047
   A15        1.94823  -0.00013   0.00092   0.00503   0.00580   1.95403
   A16        1.92114   0.00009   0.00387  -0.00385   0.00002   1.92116
   A17        1.92695  -0.00052   0.00414  -0.00763  -0.00350   1.92345
   A18        1.97757  -0.00039  -0.00410   0.00141  -0.00272   1.97484
   A19        1.84304   0.00131  -0.00485   0.01923   0.01441   1.85745
   A20        1.89362  -0.00033   0.00050  -0.00464  -0.00417   1.88945
   A21        1.89629  -0.00004   0.00032  -0.00320  -0.00292   1.89337
   A22        1.97564  -0.00395  -0.00633  -0.00582  -0.01208   1.96355
   A23        1.85983   0.00228   0.00635   0.00587   0.01220   1.87203
   A24        1.92975   0.00140  -0.00038   0.00458   0.00432   1.93408
   A25        1.87072   0.00051   0.00102   0.00027   0.00125   1.87197
   A26        1.95286   0.00086  -0.00201   0.00156  -0.00035   1.95251
   A27        1.86833  -0.00091   0.00210  -0.00652  -0.00442   1.86390
   A28        1.98124  -0.00545  -0.00819  -0.00527  -0.01335   1.96788
   A29        1.91959   0.00120  -0.00136   0.00909   0.00789   1.92749
   A30        1.85009   0.00257  -0.00002   0.01662   0.01677   1.86686
   A31        1.90339  -0.00877  -0.01385  -0.01502  -0.02869   1.87470
   A32        1.86789   0.00302   0.01221  -0.00572   0.00697   1.87486
   A33        1.96295   0.00322  -0.00094   0.01603   0.01516   1.97811
   A34        1.99159   0.00231  -0.00954   0.01991   0.01014   2.00173
   A35        1.87309   0.00200   0.00487  -0.00343   0.00156   1.87465
   A36        1.86676  -0.00145   0.00667  -0.01048  -0.00377   1.86298
   A37        1.88282   0.00101  -0.00210   0.00819   0.00615   1.88898
   A38        1.94075  -0.00484  -0.00611  -0.01643  -0.02247   1.91828
   A39        1.85695   0.00163  -0.00057   0.00875   0.00833   1.86528
    D1        3.04740   0.00008   0.00868  -0.03290  -0.02423   3.02316
    D2        0.98354  -0.00032   0.00111  -0.03096  -0.02986   0.95368
    D3       -1.03543  -0.00043   0.00290  -0.03481  -0.03191  -1.06733
    D4        0.96390   0.00003   0.00736  -0.03179  -0.02443   0.93947
    D5       -1.09995  -0.00037  -0.00021  -0.02985  -0.03006  -1.13001
    D6       -3.11892  -0.00048   0.00158  -0.03369  -0.03210   3.13216
    D7       -1.16062   0.00036   0.00737  -0.02673  -0.01937  -1.17999
    D8        3.05871  -0.00004  -0.00020  -0.02479  -0.02500   3.03371
    D9        1.03974  -0.00015   0.00158  -0.02864  -0.02704   1.01269
   D10        1.11569  -0.00031  -0.01019   0.03759   0.02738   1.14306
   D11       -3.00698   0.00022  -0.01155   0.06063   0.04910  -2.95787
   D12       -3.08828  -0.00009  -0.00865   0.04255   0.03386  -3.05442
   D13       -0.92776   0.00044  -0.01001   0.06558   0.05559  -0.87217
   D14       -1.06951   0.00059  -0.00415   0.04183   0.03767  -1.03184
   D15        1.09101   0.00113  -0.00551   0.06487   0.05940   1.15041
   D16       -1.05404   0.00151  -0.00168   0.03547   0.03376  -1.02028
   D17       -3.08199   0.00016  -0.00061   0.01882   0.01824  -3.06376
   D18        1.06970   0.00088  -0.00112   0.02764   0.02651   1.09621
   D19        3.09760   0.00010   0.00012   0.00706   0.00716   3.10476
   D20        1.06965  -0.00125   0.00119  -0.00959  -0.00836   1.06128
   D21       -1.06184  -0.00053   0.00067  -0.00076  -0.00009  -1.06193
   D22        2.97481  -0.00008   0.00980  -0.03398  -0.02418   2.95062
   D23        0.92290   0.00004   0.00821  -0.03481  -0.02665   0.89625
   D24       -1.10154  -0.00088   0.00220  -0.03273  -0.03059  -1.13213
   D25       -1.14416   0.00026   0.00532  -0.00760  -0.00222  -1.14637
   D26        3.08712   0.00038   0.00373  -0.00842  -0.00468   3.08244
   D27        1.06269  -0.00055  -0.00228  -0.00635  -0.00862   1.05406
   D28       -3.13161   0.00034  -0.01156   0.06249   0.05087  -3.08074
   D29        1.08222  -0.00021  -0.00564   0.03851   0.03287   1.11509
   D30       -1.08608   0.00122  -0.00679   0.06656   0.05974  -1.02634
   D31        3.12775   0.00068  -0.00086   0.04258   0.04174  -3.11369
   D32        0.95705   0.00091  -0.00475   0.05969   0.05495   1.01200
   D33       -1.11231   0.00037   0.00118   0.03571   0.03695  -1.07535
   D34       -3.02402   0.00003   0.00035  -0.01914  -0.01847  -3.04248
   D35        1.09673   0.00061   0.01314  -0.03079  -0.01789   1.07885
   D36       -0.94834  -0.00129  -0.00292  -0.02339  -0.02632  -0.97465
   D37       -0.91507   0.00002  -0.00590   0.00029  -0.00534  -0.92041
   D38       -3.07751   0.00060   0.00689  -0.01136  -0.00476  -3.08226
   D39        1.16061  -0.00130  -0.00917  -0.00396  -0.01319   1.14742
   D40       -1.01949  -0.00023  -0.00248  -0.02552  -0.02775  -1.04724
   D41       -3.04946  -0.00012   0.00255  -0.03186  -0.02897  -3.07843
   D42        1.06788  -0.00111  -0.00190  -0.03051  -0.03276   1.03512
   D43       -0.96209  -0.00100   0.00313  -0.03685  -0.03398  -0.99607
   D44        3.13281  -0.00020   0.00377  -0.03405  -0.03032   3.10248
   D45        1.10284  -0.00009   0.00880  -0.04039  -0.03155   1.07129
         Item               Value     Threshold  Converged?
 Maximum Force            0.008768     0.000450     NO 
 RMS     Force            0.001937     0.000300     NO 
 Maximum Displacement     0.198305     0.001800     NO 
 RMS     Displacement     0.056841     0.001200     NO 
 Predicted change in Energy=-8.974569D-04
 GradGradGradGradGradGradGradGradGradGradGradGradGradGradGradGradGradGrad

                          Input orientation:                          
 ---------------------------------------------------------------------
 Center     Atomic      Atomic             Coordinates (Angstroms)
 Number     Number       Type             X           Y           Z
 ---------------------------------------------------------------------
      1          6           0        1.048359   -0.049758   -0.184506
      2          6           0        2.553514    0.155006   -0.023322
      3          7           0        3.051914    1.400233   -0.613623
      4          6           0        2.529311    2.581090    0.060921
      5          6           0        4.510437    1.381322   -0.628589
      6          7           0        5.073584    2.462199   -1.424970
      7          6           0        6.525450    2.401249   -1.510180
      8          7           0        6.973477    3.603415   -2.212023
      9          1           0        0.777078   -1.048606    0.171551
     10          1           0        0.757990    0.032935   -1.236012
     11          1           0        0.459370    0.669357    0.391219
     12          1           0        3.069663   -0.665020   -0.536122
     13          1           0        2.825602    0.077140    1.048978
     14          1           0        1.438148    2.582985    0.021666
     15          1           0        2.858778    3.487283   -0.454565
     16          1           0        2.838609    2.648857    1.122828
     17          1           0        4.818833    0.438281   -1.095715
     18          1           0        4.918480    1.374753    0.412625
     19          1           0        4.838027    3.363017   -1.017665
     20          1           0        6.787938    1.450916   -2.008810
     21          1           0        7.022643    2.390402   -0.521341
     22          1           0        6.552676    3.606705   -3.138000
     23          1           0        7.979150    3.571118   -2.345556
 ---------------------------------------------------------------------
                    Distance matrix (angstroms):
                    1          2          3          4          5
     1  C    0.000000
     2  C    1.527547   0.000000
     3  N    2.510149   1.465418   0.000000
     4  C    3.028995   2.427666   1.456896   0.000000
     5  C    3.772424   2.387414   1.458722   2.416553   0.000000
     6  N    4.904194   3.693036   2.423469   2.948786   1.455903
     7  C    6.145191   4.799232   3.724419   4.297654   2.424403
     8  N    7.250070   6.018140   4.773630   5.095296   3.675803
     9  H    1.094563   2.154619   3.433394   4.032028   4.525787
    10  H    1.093991   2.170121   2.742072   3.363437   4.033357
    11  H    1.093387   2.195868   2.874921   2.836982   4.237693
    12  H    2.141926   1.096274   2.066783   3.344498   2.504375
    13  H    2.167066   1.109018   2.136828   2.708100   2.711787
    14  H    2.669416   2.672293   2.099223   1.091870   3.362408
[...]
 .01464252,-0.01206674,-0.04756976,-0.00797654,0.00044765,-0.00641038,0
 .00032436,-0.00089295,0.00124304,-0.00015577,-0.00011002,0.00016563,-0
 .00009217,0.00003161,0.00001159,-0.00002934,-0.00009320,0.00023779,-0.
 00006653,-0.00002491,-0.00004272,-0.00012400,-0.00106593,-0.00164256,0
 .00008552,-0.00004798,0.00019282,-0.00018197,-0.00014398,-0.00031943,0
 .00004946,0.00210506,0.05370544,-0.00099743,-0.00013699,0.00045672,-0.
 00097580,-0.00012753,0.00006189,0.00759523,0.00186799,0.00551925,-0.12
 490952,-0.00427672,-0.13268299,0.00121907,-0.00083348,0.00037717,0.000
 10936,-0.00013583,0.00005547,0.00005653,-0.00005481,0.00011045,-0.0000
 2924,-0.00000829,0.00000178,0.00036900,-0.00027532,-0.00014201,0.00007
 658,-0.00016596,-0.00018326,0.00070100,-0.00026659,0.00012254,0.000130
 94,0.00008740,-0.00000644,-0.00001994,-0.00022143,-0.00014996,0.133342
 35,0.00711855,0.13867184,-0.00039744,-0.00014700,0.00014862,-0.0031577
 0,0.00267699,0.00007436,0.01158148,0.01827291,-0.00460535,-0.13085290,
 -0.12530283,0.03917390,0.00084300,0.00144435,-0.00143795,-0.00217449,0
 .00131481,-0.00002304,-0.00022195,0.00008334,0.00139658,0.00012718,0.0
 0008420,-0.00022230,0.00015460,-0.00016724,-0.00000977,0.00005611,-0.0
 0003058,0.00000825,0.00045101,-0.00011390,-0.00001077,0.00022010,0.001
 29181,-0.00022117,-0.00006341,-0.00001439,-0.00002478,-0.01296237,-0.0
 1968612,0.00798609,0.13924462,0.00053920,0.00030777,0.00025245,0.00522
 238,-0.00271024,-0.00127732,-0.01320861,-0.03032736,0.00610354,-0.1135
 5954,-0.21337627,0.05330421,-0.00297720,-0.00185890,0.00056025,-0.0016
 8370,0.00170248,-0.00030708,0.00026689,-0.00005774,-0.00083625,-0.0000
 7303,-0.00005640,0.00004098,-0.00012263,0.00005758,-0.00002231,-0.0000
 2685,-0.00000617,-0.00007064,-0.00019882,0.00014745,-0.00002261,-0.000
 73687,-0.00166741,0.00042932,0.00000907,0.00010764,0.00012308,-0.00019
 939,0.00103425,-0.00040879,0.12557739,0.24282972,-0.00017701,-0.000130
 00,0.00021757,0.00042471,-0.00024608,0.00009979,-0.00503336,-0.0059072
 8,0.00148865,0.03851408,0.05654136,-0.06778021,0.00014658,0.00126347,0
 .00054257,0.00050737,-0.00075841,-0.00112631,0.00042580,-0.00036263,0.
 00029034,-0.00003524,-0.00004808,-0.00004453,0.00009253,-0.00014198,0.
 00000515,0.00002834,0.00005584,0.00002422,0.00024922,-0.00005079,-0.00
 014941,0.00001267,-0.00015780,0.00052865,-0.00014886,-0.00048350,0.000
 53419,-0.01009689,-0.01598159,0.00513982,-0.04255770,-0.05841808,0.069
 06576,-0.00005173,0.00027497,-0.00013845,-0.00055888,-0.00266143,-0.00
 040199,-0.01098677,0.01131695,0.02080065,-0.06337308,0.00075002,0.0501
 5647,0.00416632,0.00095015,0.00496577,-0.00064939,-0.00026210,-0.00057
 478,0.00029608,0.00001959,-0.00003970,-0.00014471,-0.00013318,-0.00001
 424,0.00016080,0.00000239,0.00004721,-0.00014476,-0.00000848,0.0000069
 7,0.00008448,0.00005660,-0.00005154,0.00000372,-0.00009262,-0.00024709
 ,0.00053951,0.00072013,-0.00094675,0.00733049,-0.00107090,-0.02552659,
 -0.00314888,0.00103331,0.01768912,0.06642387,-0.00023817,-0.00026232,0
 .00038976,0.00305016,0.00465873,-0.00505879,0.01643438,-0.01445397,-0.
 03036242,0.00111869,-0.05001266,-0.00710438,-0.00407965,-0.00085434,-0
 .00215828,-0.00050434,0.00050639,-0.00014655,0.00000443,-0.00020471,-0
 .00020777,0.00013338,0.00012859,-0.00000497,-0.00018805,-0.00001687,-0
 .00001967,0.00016506,0.00009018,0.00014248,-0.00016077,-0.00000494,-0.
 00006017,-0.00012432,0.00028152,0.00053166,-0.00095901,0.00082917,0.00
 217152,-0.00072353,0.00035756,-0.00205043,-0.00395070,0.00310964,0.024
 39399,-0.01007520,0.05475354,0.00001246,-0.00035039,-0.00001492,0.0004
 0790,0.00223029,0.00165988,0.00954601,-0.01234148,-0.00534622,0.048880
 35,-0.00561949,-0.25728332,-0.00250045,0.00004595,0.00099843,0.0004684
 6,0.00020086,-0.00017595,-0.00049623,-0.00006664,0.00007572,0.00024691
 ,0.00020429,-0.00002748,-0.00009307,-0.00005990,0.00003169,0.00004212,
 0.00021643,0.00009044,-0.00016922,0.00000877,-0.00030160,-0.00010088,-
 0.00012617,0.00047739,-0.00067783,-0.00233058,0.00054746,0.00472181,0.
 00097895,-0.01811646,0.00045040,-0.00023843,-0.00806561,-0.06330513,0.
 01751396,0.28450143,0.00026157,-0.00048692,-0.00005020,-0.00093413,0.0
 0440447,-0.00027533,-0.02259812,0.02908470,0.00058437,-0.00537669,-0.0
 0257744,-0.00354239,-0.09082874,0.08346378,0.00768989,0.00727147,-0.02
 138404,0.00399938,0.00286125,-0.00246477,-0.00276172,-0.00015873,-0.00
 002802,0.00002634,-0.00006841,-0.00007443,-0.00003534,0.00002351,0.000
 07124,0.00001914,0.00030857,0.00007685,0.00012335,-0.00034488,-0.00179
 340,-0.00022235,-0.00007118,-0.00042577,0.00021532,-0.00119684,0.00177
 971,0.00025528,0.00015848,-0.00014655,0.00000533,0.00000686,-0.0000856
 2,0.00016745,0.10968906,-0.00027933,0.00095658,0.00016928,-0.00347049,
 0.00004111,-0.00050273,0.00287355,-0.00148637,0.00014611,-0.00049467,0
 .00121048,0.00046782,0.09356851,-0.22721829,-0.02007231,-0.00131562,-0
 .03153480,0.00933724,0.00042326,0.00088101,-0.00507156,-0.00060380,0.0
 0062010,0.00013963,0.00010249,0.00003064,0.00003934,-0.00001004,-0.000
 06065,-0.00003317,-0.00039621,-0.00002534,-0.00016017,-0.00067011,0.00
 091657,-0.00010160,0.00031470,-0.00010750,-0.00022992,-0.00011765,-0.0
 0014762,-0.00003556,-0.00061202,0.00016703,0.00000550,-0.00006769,0.00
 016734,-0.00007810,-0.09277071,0.26241593,0.00011762,0.00014313,-0.000
 11674,0.00043602,0.00084848,0.00035179,-0.01204846,0.01350067,0.000625
 81,-0.00159747,-0.00111665,-0.00004104,0.01182909,-0.02377640,-0.05735
 807,-0.00234264,0.02008880,0.00118408,-0.00257873,0.00306976,0.0020843
 5,0.00007665,-0.00039483,-0.00011404,0.00004908,-0.00000250,0.00001577
 ,-0.00003691,0.00001236,-0.00002959,0.00002232,-0.00000057,-0.00001491
 ,0.00024495,-0.00021941,0.00035864,0.00010872,-0.00026319,0.00000213,-
 0.00034266,0.00042610,0.00044146,0.00029553,0.00011787,-0.00016411,-0.
 00053120,0.00045195,0.00035174,-0.00616373,0.01500045,0.05458228,-0.00
 036578,-0.00061897,0.00035214,0.00270263,0.00400849,-0.00331092,-0.013
 86011,-0.01078103,-0.03737084,0.00411285,-0.00431819,-0.00264179,-0.05
 020504,0.00420564,0.00827134,-0.00245056,0.00292531,0.02025097,-0.0003
 3717,-0.00379238,0.00061632,-0.00059466,0.00012946,0.00124537,-0.00031
 161,-0.00010428,0.00007023,0.00015918,0.00010582,0.00025195,0.00003000
 ,0.00004386,0.00002648,-0.00023363,-0.00037026,0.00009222,-0.00000468,
 0.00002575,0.00182150,0.00000526,0.00004080,0.00055198,-0.00020885,0.0
 0038480,0.00007148,0.00024881,0.00010826,0.00214771,0.00129080,0.00430
 800,0.01235628,0.05962780,-0.00036650,0.00009099,0.00027056,0.00124277
 ,0.00156298,-0.00133150,-0.00461128,0.00134773,-0.00497726,0.00009560,
 -0.00019614,0.00242716,0.00645494,-0.07277652,-0.06515275,-0.00515371,
 0.00455697,0.02996219,-0.00088831,-0.00362985,0.00010294,-0.00094395,0
 .00039321,0.00125797,-0.00004875,-0.00004113,-0.00001661,0.00009717,0.
 00000285,0.00013703,-0.00004216,-0.00000861,-0.00001765,0.00027641,0.0
 0010525,-0.00014127,-0.00015843,-0.00005661,0.00074073,-0.00014715,-0.
 00006755,-0.00003969,0.00003608,0.00019688,0.00010458,-0.00087268,0.00
 080711,0.00003629,0.00157454,-0.00736423,-0.02685593,0.00339863,0.0735
 1451,-0.00030169,-0.00038818,0.00045844,0.00071004,0.00216629,-0.00061
 576,-0.01497558,-0.00552912,-0.01597607,0.00155062,-0.00208193,0.00220
 158,0.01421528,-0.05566029,-0.24894738,0.00474929,-0.00341432,-0.02191
 518,0.00081037,0.00389305,0.00171377,0.00075279,-0.00025341,-0.0011382
 5,-0.00024145,-0.00010637,-0.00000447,0.00027312,0.00018216,0.00011059
 ,-0.00003986,0.00002974,-0.00000402,0.00003177,-0.00024290,0.00000412,
 -0.00118063,-0.00138187,0.00076071,-0.00013223,0.00020393,0.00040980,0
 .00005477,0.00031290,-0.00032975,-0.00181104,0.00141794,0.00051441,0.0
 0068378,-0.00207515,-0.00224066,-0.00584619,0.06286731,0.28437093,-0.0
 0002269,-0.00038348,0.00024899,-0.00117235,0.00093118,-0.00012945,-0.0
 0301767,-0.00478795,0.00247352,0.00036049,-0.00118232,-0.00024401,-0.0
 1233133,0.00409720,-0.01459453,-0.26441264,-0.13029833,-0.15848440,0.0
 0843973,0.00884767,0.01153218,0.00052263,0.00119488,-0.00119907,-0.000
 12490,-0.00005134,-0.00010336,0.00002529,0.00002692,-0.00002026,-0.000
 00962,0.00002422,0.00000888,0.00014693,-0.00003435,-0.00003152,-0.0002
 1135,-0.00025879,0.00015848,-0.00001642,0.00009428,0.00005604,0.000214
 59,-0.00000301,-0.00025893,-0.00016256,0.00008291,0.00018477,0.0004940
 7,0.00050973,-0.00033693,0.00046937,0.00051791,0.00092360,0.26977387,-
 0.00006186,-0.00000971,0.00007737,-0.00061507,-0.00014831,-0.00003964,
 0.00170416,-0.00213999,0.00212816,0.00023013,0.00074541,0.00011585,-0.
 02219143,-0.01416664,-0.01302639,-0.09251802,-0.06005097,-0.05864044,-
 0.00772115,-0.00619468,-0.01220380,0.00100125,0.00027230,0.00068620,0.
 00000569,0.00004013,-0.00000898,0.00001247,-0.00000408,0.00000031,-0.0
 0000799,-0.00001122,-0.00000086,-0.00013314,0.00005692,-0.00007877,-0.
 00005074,0.00002797,0.00000171,0.00004537,-0.00011192,-0.00002870,-0.0
 0039341,0.00024902,0.00035264,0.00004274,0.00010044,-0.00018122,-0.000
 19173,-0.00084221,0.00016214,0.00069363,0.00143782,-0.00010651,0.12083
 263,0.08061923,0.00012154,0.00030823,-0.00023926,0.00105929,-0.0000711
 0,0.00068571,0.00159491,0.00357664,-0.00157294,-0.00015559,0.00017325,
 0.00009157,0.01694225,0.00911829,0.01049765,-0.15163554,-0.08001154,-0
 .17364227,-0.03045163,-0.01291558,-0.02285495,-0.00038588,0.00110677,0
 .00333845,0.00011770,0.00005095,0.00008071,-0.00000513,-0.00000056,0.0
 0002596,0.00001623,-0.00001135,0.00001597,-0.00002526,-0.00002883,0.00
 000153,0.00002928,-0.00001837,-0.00004068,0.00007141,-0.00007135,-0.00
 002313,-0.00003937,-0.00002093,-0.00001976,0.00008020,0.00000801,-0.00
 006591,0.00014984,0.00076003,-0.00052052,0.00079733,-0.00018952,0.0004
 9890,0.15746841,0.08046526,0.18774422,0.00001150,0.00002866,-0.0000464
 2,0.00015101,-0.00011401,-0.00031205,-0.00141132,0.00046333,0.00168080
 ,-0.00000939,-0.00002076,0.00009303,0.00040649,-0.00099100,-0.00036750
 ,0.01114719,0.00506723,0.00670018,-0.20156713,-0.05517849,-0.10558794,
 -0.01137462,-0.01292046,-0.00094979,0.00000007,0.00000160,0.00001548,0
 .00002892,-0.00000884,0.00003631,-0.00001726,0.00000488,0.00001828,-0.
 00003872,0.00005280,-0.00004895,0.00002708,0.00009585,0.00003785,0.000
 04630,0.00001280,0.00000024,-0.00004453,0.00003841,0.00000314,-0.00002
 673,0.00000795,0.00004128,-0.00025456,0.00025301,0.00005294,-0.0001028
 0,0.00000745,-0.00030790,0.00037293,0.00049475,0.00329038,0.21804937,0
 .00001127,0.00000272,-0.00001384,0.00008493,0.00007670,0.00010611,-0.0
 0016068,-0.00012401,0.00107745,0.00015339,0.00002252,-0.00024256,-0.00
 065535,-0.00022000,-0.00009539,-0.00835684,-0.00376699,-0.01204952,-0.
 04967276,-0.07516040,-0.03665281,-0.02743178,-0.01594523,-0.00725194,0
 .00000301,-0.00000615,0.00001493,-0.00000582,0.00001674,0.00000136,0.0
 0001610,0.00000169,-0.00000505,-0.00000277,-0.00003060,0.00001395,-0.0
 0005241,-0.00005667,0.00004217,0.00006157,0.00002558,-0.00001809,-0.00
 010180,-0.00007942,-0.00009476,-0.00002508,-0.00007598,0.00005744,0.00
 023654,0.00023953,0.00011747,0.00012081,0.00007382,-0.00004386,-0.0002
 6717,0.00019515,-0.00202823,0.06640802,0.08527449,0.00004346,0.0000055
 8,-0.00005875,0.00045375,0.00063750,0.00013889,0.00031158,0.00010922,0
 .00143064,0.00056051,-0.00064945,-0.00005276,-0.00306134,-0.00173193,-
 0.00048788,-0.02310639,-0.01589908,-0.02622866,-0.09574975,-0.03580220
 ,-0.11625709,0.01648592,0.00988496,0.01047016,-0.00001955,-0.00001674,
 0.00001955,0.00001870,0.00002321,0.00002867,-0.00000589,0.00001342,0.0
 0001272,0.00000779,-0.00006082,-0.00004534,-0.00020559,-0.00023962,0.0
 0023657,0.00000663,0.00004477,-0.00002977,-0.00015942,0.00012492,-0.00
 005606,-0.00015851,0.00020274,0.00018554,0.00017432,0.00044037,-0.0001
 7522,0.00026716,0.00039550,0.00035881,0.00224820,-0.00068109,-0.006218
 15,0.10637637,0.04590486,0.13442165,-0.00000139,-0.00010645,0.00003508
 ,-0.00000178,0.00056525,-0.00008075,-0.00073410,-0.00080054,0.00033252
 ,0.00020908,-0.00006732,-0.00025350,0.00219238,0.00350013,-0.00177896,
 -0.00835379,0.00996442,0.01218718,-0.15710714,0.11039674,-0.02147796,0
 .01216959,-0.01528251,0.00199610,-0.00005308,-0.00004674,0.00000268,0.
 00000165,0.00004230,-0.00001039,0.00003333,0.00000520,-0.00000785,0.00
 002600,-0.00009571,0.00003632,-0.00007500,-0.00010365,0.00012814,-0.00
 003154,-0.00005160,-0.00000592,0.00021239,-0.00017731,0.00003600,-0.00
 005169,-0.00003379,0.00013294,-0.00038721,-0.00174892,0.00025429,0.000
 15102,-0.00037718,0.00010420,0.00095788,-0.00133049,0.00054526,-0.0170
 6686,0.01927343,-0.00435161,0.16716665,0.00001583,0.00004118,-0.000053
 87,0.00004504,-0.00025910,0.00003532,0.00032640,0.00002872,0.00005237,
 -0.00000161,-0.00015218,0.00008635,-0.00217209,0.00094593,0.00056947,0
 .01004203,-0.00753646,-0.00914200,0.10188897,-0.16365754,0.01790754,0.
 01567796,-0.02810208,0.00551297,0.00002635,0.00002907,0.00001121,0.000
 00789,-0.00001307,0.00001975,-0.00001804,-0.00000079,0.00001333,-0.000
 03286,0.00004145,-0.00002879,0.00000954,0.00003823,-0.00001608,0.00004
 135,0.00000644,0.00000420,-0.00021634,0.00015080,-0.00002505,0.0000528
 6,0.00006522,-0.00002798,0.00146532,0.00085856,-0.00105854,-0.00017281
 ,0.00033197,-0.00005858,0.00008187,0.00035344,-0.00012588,-0.00423911,
 0.00751631,-0.00089198,-0.12055015,0.19283114,0.00003057,0.00005239,-0
 .00008386,0.00015278,-0.00001370,0.00009510,0.00009542,0.00050139,0.00
 040177,0.00026424,-0.00020095,0.00007745,-0.00292654,-0.00633209,0.003
 14837,0.02993335,-0.02628556,-0.01101363,-0.01842803,0.01597746,-0.053
 86316,-0.00895016,0.01444912,-0.00076534,0.00002061,0.00002564,0.00002
 997,0.00000352,0.00001096,0.00002594,-0.00000457,0.00000039,0.00001067
 ,-0.00001809,-0.00000681,-0.00000440,0.00000953,-0.00002165,0.00001849
 ,0.00014026,0.00015212,-0.00004320,-0.00034383,0.00025282,-0.00015202,
 0.00000102,0.00001440,0.00002025,-0.00096968,0.00222194,0.00070505,-0.
 00034126,0.00016648,0.00014941,0.00067263,0.00065167,0.00164002,-0.012
 17786,0.01212045,0.00029345,0.01108793,-0.01652253,0.05966803,-0.00000
 118,0.00001224,0.00000868,-0.00005862,-0.00009424,0.00003331,0.0000988
 9,0.00011959,-0.00016727,-0.00011800,-0.00002413,0.00006625,-0.0002075
 3,-0.00041613,0.00014785,0.00062234,0.00035767,-0.00185664,0.01011028,
 -0.02011703,0.00422101,-0.21926615,0.20622892,-0.03102231,0.00000903,0
 .00001522,-0.00000739,-0.00000434,-0.00001409,-0.00000753,-0.00000619,
 -0.00000607,0.00000247,0.00000120,0.00001730,-0.00000017,0.00002474,0.
 00002180,-0.00003924,-0.00002258,-0.00000504,0.00000830,-0.00002623,0.
 00003125,0.00010153,0.00001865,0.00003978,-0.00005710,-0.00009730,0.00
 021872,0.00004520,-0.00000493,0.00002196,-0.00005349,-0.00022315,0.000
 40036,-0.00015222,0.00170923,-0.00052671,0.00030362,0.00020289,-0.0026
 6399,0.00204430,0.22076575,-0.00000551,0.00001423,0.00002155,-0.000021
 52,-0.00011927,0.00001661,0.00006011,0.00006847,-0.00024020,-0.0000831
 0,0.00001295,0.00004413,-0.00016385,-0.00007960,0.00008981,-0.00022787
 ,0.00227977,-0.00047419,0.02323647,-0.02914724,0.00909337,0.16618114,-
 0.21631608,0.05481160,0.00000969,0.00001171,-0.00000917,-0.00000526,-0
 .00001554,-0.00001154,-0.00000266,-0.00000492,-0.00000040,-0.00000855,
 0.00001429,0.00000085,0.00002201,0.00003282,-0.00004015,-0.00001677,-0
 .00000388,0.00000806,-0.00004004,0.00008102,0.00007851,0.00003384,0.00
 001907,-0.00005881,0.00015764,0.00019710,-0.00015915,-0.00002330,0.000
 08746,-0.00005731,-0.00015675,0.00002835,-0.00013858,0.00075005,0.0018
 7908,-0.00160337,-0.00404954,-0.00384815,0.00299000,-0.19299480,0.2523
 7463,-0.00001645,-0.00001610,0.00005577,0.00000574,0.00006000,-0.00002
 405,-0.00003099,-0.00016648,-0.00029737,0.00006840,0.00021571,-0.00002
 871,0.00124431,0.00023698,-0.00029571,-0.00090990,-0.00136277,0.001387
 72,-0.01554821,0.00930059,-0.00269547,-0.04811236,0.08548974,-0.062594
 01,-0.00001105,-0.00001404,-0.00001285,-0.00000579,-0.00000157,-0.0000
 2385,0.00001011,0.00000154,-0.00000919,0.00000036,-0.00002259,0.000020
 33,-0.00000207,-0.00000337,-0.00001328,-0.00005544,-0.00003559,0.00000
 567,0.00012797,-0.00002757,-0.00002944,-0.00000786,-0.00005301,-0.0000
 1398,-0.00013388,-0.00060944,0.00016644,0.00004833,-0.00006876,-0.0000
 8063,-0.00054914,0.00071077,-0.00026269,0.00129257,-0.00057303,0.00077
 643,0.00178433,0.00312493,-0.00088591,0.03629830,-0.06801222,0.0594233
 1,-0.00000437,0.00001439,0.00001905,-0.00001040,-0.00011324,0.00004552
 ,0.00030605,0.00016592,-0.00032078,-0.00005068,0.00009753,0.00003890,0
 .00100745,0.00009999,0.00083549,-0.00082410,-0.00296914,0.00031021,-0.
 01152033,0.00331277,0.01669752,-0.08513962,0.04721731,0.12087894,0.000
 01217,0.00001384,-0.00000763,-0.00001122,-0.00001214,-0.00001517,0.000
 00218,-0.00000593,-0.00000307,-0.00000820,-0.00000220,0.00001780,0.000
 02364,0.00001751,-0.00005820,-0.00000356,0.00000078,0.00000645,-0.0000
 0479,0.00001081,0.00000007,0.00001960,-0.00002184,-0.00005066,-0.00004
 884,-0.00001472,0.00009004,-0.00011791,-0.00011335,0.00003042,-0.00007
 310,-0.00024816,0.00056658,-0.00003618,0.00089012,-0.00043996,0.000540
 73,0.00038556,-0.00029613,-0.01352680,0.00734857,0.02450270,0.10946829
 ,0.00000028,-0.00001356,0.00001127,-0.00005329,0.00003113,0.00000164,0
 .00007914,-0.00001507,-0.00009502,-0.00002011,-0.00006223,0.00002130,-
 0.00045118,0.00100114,0.00178054,-0.00304494,-0.00464234,0.00134032,-0
 .01579415,0.00913599,0.02838195,0.06512402,-0.08716876,-0.08807461,-0.
 00000500,0.00000134,-0.00000422,-0.00000774,0.00000061,-0.00000922,0.0
 0000098,-0.00000241,-0.00000359,0.00000908,-0.00000310,0.00000876,0.00
 001559,-0.00000068,-0.00001781,-0.00000500,0.00001256,-0.00000198,-0.0
 0000551,-0.00000133,0.00001013,0.00001580,0.00001129,-0.00001404,0.000
 11463,0.00008503,-0.00009202,-0.00031805,-0.00036890,0.00032649,0.0001
 8210,-0.00044645,0.00006438,-0.00021411,0.00014113,-0.00021078,0.00107
 442,0.00033091,-0.00020394,0.00937742,-0.00756627,-0.02817372,-0.05607
 440,0.08953995,0.00000386,0.00003118,-0.00003126,0.00003552,-0.0001914
 4,0.00005998,0.00032003,0.00016312,0.00018101,-0.00004840,0.00013094,0
 .00005856,-0.00086015,-0.00099525,-0.00085549,0.00401797,0.00552880,-0
 .00222200,-0.00087554,-0.01299774,-0.01344289,0.17037930,-0.08073055,-
 0.32539408,0.00002333,0.00001828,0.00000627,-0.00000049,-0.00000731,0.
 00000885,0.00000518,-0.00000577,0.00000641,-0.00000845,-0.00000873,-0.
 00000674,0.00000796,0.00001753,-0.00004247,0.00004652,-0.00000872,0.00
 000334,-0.00006100,0.00002768,-0.00001951,0.00000745,-0.00001196,-0.00
 004292,0.00006082,0.00024199,-0.00009467,0.00027218,0.00032220,-0.0002
 9928,-0.00002409,-0.00035572,0.00083957,0.00015956,-0.00038713,0.00123
 661,-0.00069602,0.00061386,0.00052755,-0.00991744,0.00365056,0.0054314
 6,-0.16284809,0.08495419,0.33409168\\0.00000139,0.00000393,-0.00000396
 ,-0.00000108,0.00000488,0.00000384,0.00001107,0.00000963,-0.00000591,-
 0.00000312,-0.00000079,0.00000348,-0.00001985,-0.00002388,0.00001521,0
 .00001003,0.00001523,0.00000200,0.00001236,0.00000184,-0.00000867,-0.0
 0000558,-0.00001148,-0.00001142,-0.00000025,-0.00000097,0.00000350,-0.
 00000340,-0.00000132,0.00000088,-0.00000182,-0.00000206,-0.00000245,-0
 .00000178,-0.00000244,-0.00000356,0.00000226,-0.00000062,0.00000055,0.
 00000238,0.00000176,-0.00000062,-0.00000119,0.00000320,0.00000006,0.00
 000108,0.00000190,-0.00000039,0.00000291,-0.00000356,-0.00000460,-0.00
 000237,0.00000663,0.00000025,-0.00000424,-0.00000824,0.00000461,-0.000
 00666,-0.00000408,0.00000733,-0.00000030,0.00000584,-0.00000101,0.0000
 0509,-0.00000011,0.00000082,0.00000307,0.00000472,0.00000008\\\@


 RESEARCH IS WHAT I AM DOING WHEN I DON'T KNOW WHAT I AM DOING.
     -- WERNER VON BRAUN
 Job cpu time:       0 days  1 hours 52 minutes 12.3 seconds.
 Elapsed time:       0 days  0 hours 28 minutes  8.6 seconds.
 File lengths (MBytes):  RWF=    156 Int=      0 D2E=      0 Chk=      9 Scr=      1
 Normal termination of Gaussian 16 at Tue Jun  1 07:17:53 2021.
### All Done ###
