### Starting Gaussian ###
 Entering Gaussian System, Link 0=g16
 Initial command:
 /cluster/software/gaussian/gaussian-16-A.03/avx2/g16/l1.exe "/local/scratch/yxie/Gau-30060.inp" -scrdir="/local/scratch/yxie/"
 Entering Link 1 = /cluster/software/gaussian/gaussian-16-A.03/avx2/g16/l1.exe PID=     30061.
  
 Copyright (c) 1988,1990,1992,1993,1995,1998,2003,2009,2016,
            Gaussian, Inc.  All Rights Reserved.
  
 This is part of the Gaussian(R) 16 program.  It is based on
 the Gaussian(R) 09 system (copyright 2009, Gaussian, Inc.),
 the Gaussian(R) 03 system (copyright 2003, Gaussian, Inc.),
 the Gaussian(R) 98 system (copyright 1998, Gaussian, Inc.),
 the Gaussian(R) 94 system (copyright 1995, Gaussian, Inc.),
 the Gaussian 92(TM) system (copyright 1992, Gaussian, Inc.),
 the Gaussian 90(TM) system (copyright 1990, Gaussian, Inc.),
 the Gaussian 88(TM) system (copyright 1988, Gaussian, Inc.),
 the Gaussian 86(TM) system (copyright 1986, Carnegie Mellon
 University), and the Gaussian 82(TM) system (copyright 1983,
 Carnegie Mellon University). Gaussian is a federally registered
 trademark of Gaussian, Inc.
  
 This software contains proprietary and confidential information,
 including trade secrets, belonging to Gaussian, Inc.
  
 This software is provided under written license and may be
 used, copied, transmitted, or stored only in accord with that
 written license.
  
 The following legend is applicable only to US Government
 contracts under FAR:
  
                    RESTRICTED RIGHTS LEGEND
  
 Use, reproduction and disclosure by the US Government is
 subject to restrictions as set forth in subparagraphs (a)
 and (c) of the Commercial Computer Software - Restricted
 Rights clause in FAR 52.227-19.
  
 Gaussian, Inc.
 340 Quinnipiac St., Bldg. 40, Wallingford CT 06492
  
  
 ---------------------------------------------------------------
 Warning -- This program may not be used in any manner that
 competes with the business of Gaussian, Inc. or will provide
 assistance to any competitor of Gaussian, Inc.  The licensee
 of this program is prohibited from giving any competitor of
 Gaussian, Inc. access to this program.  By using this program,
 the user acknowledges that Gaussian, Inc. is engaged in the
 business of creating and licensing software in the field of
 computational chemistry and represents and warrants to the
 licensee that it is not a competitor of Gaussian, Inc. and that
 it will not use this program in any manner prohibited above.
 ---------------------------------------------------------------
  

 Cite this work as:
 Gaussian 16, Revision A.03,
 M. J. Frisch, G. W. Trucks, H. B. Schlegel, G. E. Scuseria, 
 M. A. Robb, J. R. Cheeseman, G. Scalmani, V. Barone, 
 G. A. Petersson, H. Nakatsuji, X. Li, M. Caricato, A. V. Marenich, 
 J. Bloino, B. G. Janesko, R. Gomperts, B. Mennucci, H. P. Hratchian, 
 J. V. Ortiz, A. F. Izmaylov, J. L. Sonnenberg, D. Williams-Young, 
 F. Ding, F. Lipparini, F. Egidi, J. Goings, B. Peng, A. Petrone, 
 T. Henderson, D. Ranasinghe, V. G. Zakrzewski, J. Gao, N. Rega, 
 G. Zheng, W. Liang, M. Hada, M. Ehara, K. Toyota, R. Fukuda, 
 J. Hasegawa, M. Ishida, T. Nakajima, Y. Honda, O. Kitao, H. Nakai, 
 T. Vreven, K. Throssell, J. A. Montgomery, Jr., J. E. Peralta, 
 F. Ogliaro, M. J. Bearpark, J. J. Heyd, E. N. Brothers, K. N. Kudin, 
 V. N. Staroverov, T. A. Keith, R. Kobayashi, J. Normand, 
 K. Raghavachari, A. P. Rendell, J. C. Burant, S. S. Iyengar, 
 J. Tomasi, M. Cossi, J. M. Millam, M. Klene, C. Adamo, R. Cammi, 
 J. W. Ochterski, R. L. Martin, K. Morokuma, O. Farkas, 
 J. B. Foresman, and D. J. Fox, Gaussian, Inc., Wallingford CT, 2016.
 
 ******************************************
 Gaussian 16:  ES64L-G16RevA.03 25-Dec-2016
                31-May-2021 
 ******************************************
 %chk=CCNpCdNpCpNpCtN.chk
 %NProcShared=20
 Will use up to   20 processors via shared memory.
 -----------------------------
 # opt freq b3lyp/6-31g(2df,p)
 -----------------------------
 1/18=20,19=15,26=3,38=1/1,3;
 2/9=110,12=2,17=6,18=5,40=1/2;
 3/5=1,6=6,7=104,11=2,25=1,30=1,71=1,74=-5/1,2,3;
 4//1;
 5/5=2,38=5/2;
 6/7=2,8=2,9=2,10=2,28=1/1;
 7//1,2,3,16;
 1/18=20,19=15,26=3/3(2);
 2/9=110/2;
 99//99;
 2/9=110/2;
 3/5=1,6=6,7=104,11=2,25=1,30=1,71=1,74=-5/1,2,3;
 4/5=5,16=3,69=1/1;
 5/5=2,38=5/2;
 7//1,2,3,16;
 1/18=20,19=15,26=3/3(-5);
 2/9=110/2;
 6/7=2,8=2,9=2,10=2,19=2,28=1/1;
 99/9=1/99;
 -------------------
 Title Card Required
 -------------------
 Symbolic Z-matrix:
 Charge =  0 Multiplicity = 1
 C                     1.02258   0.18726  -0.07958 
 C                     2.51239  -0.04351  -0.07268 
 N                     2.94311  -1.46198   0.00092 
 C                     2.04864  -2.61791  -0.03838 
 N                     0.76784  -2.70385  -0.06171 
 C                     4.45141  -1.72592  -0.06031 
 N                     5.0328   -1.11978   1.11762 
 C                     4.68767  -3.22742  -0.05161 
 N                     4.88367  -4.47304  -0.04439 
 H                     0.7693    1.24912  -0.08863 
 H                     0.57583  -0.23155   0.82901 
 H                     0.57707  -0.25117  -0.97844 
 H                     2.919     0.4812    0.79813 
 H                     2.95612   0.40392  -0.96892 
 H                     2.52598  -3.60047  -0.04773 
 H                     0.22213  -1.861    -0.04632 
 H                     4.8443   -1.28346  -0.98108 
 H                     4.60353  -1.50367   1.95746 
 H                     4.90794  -0.1155    1.13306 
 

 GradGradGradGradGradGradGradGradGradGradGradGradGradGradGradGradGradGrad
 Berny optimization.
 Initialization pass.
                           ----------------------------
                           !    Initial Parameters    !
                           ! (Angstroms and Degrees)  !
 --------------------------                            --------------------------
 ! Name  Definition              Value          Derivative Info.                !
 --------------------------------------------------------------------------------
 ! R1    R(1,2)                  1.5076         estimate D2E/DX2                !
 ! R2    R(1,10)                 1.0917         estimate D2E/DX2                !
 ! R3    R(1,11)                 1.0957         estimate D2E/DX2                !
 ! R4    R(1,12)                 1.0948         estimate D2E/DX2                !
 ! R5    R(2,3)                  1.4842         estimate D2E/DX2                !
 ! R6    R(2,13)                 1.095          estimate D2E/DX2                !
 ! R7    R(2,14)                 1.0956         estimate D2E/DX2                !
 ! R8    R(3,4)                  1.4621         estimate D2E/DX2                !
 ! R9    R(3,6)                  1.5324         estimate D2E/DX2                !
 ! R10   R(4,5)                  1.2839         estimate D2E/DX2                !
 ! R11   R(4,15)                 1.0924         estimate D2E/DX2                !
 ! R12   R(5,16)                 1.0042         estimate D2E/DX2                !
 ! R13   R(6,7)                  1.4467         estimate D2E/DX2                !
 ! R14   R(6,8)                  1.52           estimate D2E/DX2                !
 ! R15   R(6,17)                 1.0945         estimate D2E/DX2                !
 ! R16   R(7,18)                 1.0183         estimate D2E/DX2                !
 ! R17   R(7,19)                 1.0121         estimate D2E/DX2                !
 ! R18   R(8,9)                  1.261          estimate D2E/DX2                !
 ! A1    A(2,1,10)             112.2222         estimate D2E/DX2                !
 ! A2    A(2,1,11)             109.9148         estimate D2E/DX2                !
 ! A3    A(2,1,12)             110.1563         estimate D2E/DX2                !
 ! A4    A(10,1,11)            106.5032         estimate D2E/DX2                !
 ! A5    A(10,1,12)            106.7562         estimate D2E/DX2                !
 ! A6    A(11,1,12)            111.2126         estimate D2E/DX2                !
 ! A7    A(1,2,3)              115.6763         estimate D2E/DX2                !
 ! A8    A(1,2,13)             107.2926         estimate D2E/DX2                !
 ! A9    A(1,2,14)             109.5104         estimate D2E/DX2                !
 ! A10   A(3,2,13)             108.1054         estimate D2E/DX2                !
 ! A11   A(3,2,14)             108.2596         estimate D2E/DX2                !
 ! A12   A(13,2,14)            107.7264         estimate D2E/DX2                !
 ! A13   A(2,3,4)              125.2177         estimate D2E/DX2                !
 ! A14   A(2,3,6)              116.631          estimate D2E/DX2                !
 ! A15   A(4,3,6)              117.7027         estimate D2E/DX2                !
 ! A16   A(3,4,5)              131.5824         estimate D2E/DX2                !
 ! A17   A(3,4,15)             116.3593         estimate D2E/DX2                !
 ! A18   A(5,4,15)             112.058          estimate D2E/DX2                !
 ! A19   A(4,5,16)             119.0554         estimate D2E/DX2                !
 ! A20   A(3,6,7)              106.9086         estimate D2E/DX2                !
 ! A21   A(3,6,8)              108.8381         estimate D2E/DX2                !
 ! A22   A(3,6,17)             108.4995         estimate D2E/DX2                !
 ! A23   A(7,6,8)              110.2891         estimate D2E/DX2                !
 ! A24   A(7,6,17)             111.7982         estimate D2E/DX2                !
 ! A25   A(8,6,17)             110.3867         estimate D2E/DX2                !
 ! A26   A(6,7,18)             110.1301         estimate D2E/DX2                !
 ! A27   A(6,7,19)             112.2455         estimate D2E/DX2                !
 ! A28   A(18,7,19)            108.0276         estimate D2E/DX2                !
 ! A29   L(6,8,9,4,-1)         180.0001         estimate D2E/DX2                !
 ! A30   L(6,8,9,4,-2)         180.0001         estimate D2E/DX2                !
 ! D1    D(10,1,2,3)           177.3782         estimate D2E/DX2                !
 ! D2    D(10,1,2,13)           56.6605         estimate D2E/DX2                !
 ! D3    D(10,1,2,14)          -59.9946         estimate D2E/DX2                !
 ! D4    D(11,1,2,3)            59.0586         estimate D2E/DX2                !
 ! D5    D(11,1,2,13)          -61.659          estimate D2E/DX2                !
 ! D6    D(11,1,2,14)         -178.3142         estimate D2E/DX2                !
 ! D7    D(12,1,2,3)           -63.8248         estimate D2E/DX2                !
 ! D8    D(12,1,2,13)          175.4576         estimate D2E/DX2                !
 ! D9    D(12,1,2,14)           58.8025         estimate D2E/DX2                !
 ! D10   D(1,2,3,4)              4.9747         estimate D2E/DX2                !
 ! D11   D(1,2,3,6)            177.0825         estimate D2E/DX2                !
 ! D12   D(13,2,3,4)           125.252          estimate D2E/DX2                !
 ! D13   D(13,2,3,6)           -62.6402         estimate D2E/DX2                !
 ! D14   D(14,2,3,4)          -118.3125         estimate D2E/DX2                !
 ! D15   D(14,2,3,6)            53.7953         estimate D2E/DX2                !
 ! D16   D(2,3,4,5)             -4.5458         estimate D2E/DX2                !
 ! D17   D(2,3,4,15)           175.6446         estimate D2E/DX2                !
 ! D18   D(6,3,4,5)           -176.577          estimate D2E/DX2                !
 ! D19   D(6,3,4,15)             3.6134         estimate D2E/DX2                !
 ! D20   D(2,3,6,7)             64.0848         estimate D2E/DX2                !
 ! D21   D(2,3,6,8)           -176.7947         estimate D2E/DX2                !
 ! D22   D(2,3,6,17)           -56.644          estimate D2E/DX2                !
 ! D23   D(4,3,6,7)           -123.1942         estimate D2E/DX2                !
 ! D24   D(4,3,6,8)             -4.0736         estimate D2E/DX2                !
 ! D25   D(4,3,6,17)           116.0771         estimate D2E/DX2                !
 ! D26   D(3,4,5,16)            -0.4481         estimate D2E/DX2                !
 ! D27   D(15,4,5,16)          179.3678         estimate D2E/DX2                !
 ! D28   D(3,6,7,18)            57.4731         estimate D2E/DX2                !
 ! D29   D(3,6,7,19)           -62.9273         estimate D2E/DX2                !
 ! D30   D(8,6,7,18)           -60.7036         estimate D2E/DX2                !
 ! D31   D(8,6,7,19)           178.8961         estimate D2E/DX2                !
 ! D32   D(17,6,7,18)          176.0766         estimate D2E/DX2                !
 ! D33   D(17,6,7,19)           55.6763         estimate D2E/DX2                !
 --------------------------------------------------------------------------------
 Trust Radius=3.00D-01 FncErr=1.00D-07 GrdErr=1.00D-06 EigMax=2.50D+02 EigMin=1.00D-04
 Number of steps in this run=     91 maximum allowed number of steps=    114.
 GradGradGradGradGradGradGradGradGradGradGradGradGradGradGradGradGradGrad

                          Input orientation:                          
 ---------------------------------------------------------------------
 Center     Atomic      Atomic             Coordinates (Angstroms)
 Number     Number       Type             X           Y           Z
 ---------------------------------------------------------------------
      1          6           0        1.022580    0.187260   -0.079580
      2          6           0        2.512390   -0.043510   -0.072680
      3          7           0        2.943110   -1.461980    0.000920
      4          6           0        2.048640   -2.617910   -0.038380
      5          7           0        0.767840   -2.703850   -0.061710
      6          6           0        4.451410   -1.725920   -0.060310
      7          7           0        5.032800   -1.119780    1.117620
      8          6           0        4.687670   -3.227420   -0.051610
      9          7           0        4.883670   -4.473040   -0.044390
     10          1           0        0.769300    1.249120   -0.088630
     11          1           0        0.575830   -0.231550    0.829010
     12          1           0        0.577070   -0.251170   -0.978440
     13          1           0        2.919000    0.481200    0.798130
     14          1           0        2.956120    0.403920   -0.968920
     15          1           0        2.525980   -3.600470   -0.047730
     16          1           0        0.222130   -1.861000   -0.046320
     17          1           0        4.844300   -1.283460   -0.981080
     18          1           0        4.603530   -1.503670    1.957460
     19          1           0        4.907940   -0.115500    1.133060
 ---------------------------------------------------------------------
                    Distance matrix (angstroms):
                    1          2          3          4          5
     1  C    0.000000
     2  C    1.507593   0.000000
     3  N    2.532767   1.484249   0.000000
     4  C    2.987219   2.616061   1.462120   0.000000
     5  N    2.902366   3.181349   2.505586   1.283892   0.000000
     6  C    3.926513   2.567188   1.532443   2.563090   3.811173
     7  N    4.384462   2.987915   2.393935   3.533545   4.699998
     8  C    5.009362   3.856108   2.482545   2.708534   3.954655
     9  N    6.052078   5.024391   3.582500   3.388058   4.479999
    10  H    1.091686   2.170140   3.476138   4.073470   3.953062
    11  H    1.095684   2.144451   2.793511   2.935345   2.634866
    12  H    1.094828   2.146855   2.832552   2.941205   2.625343
    13  H    2.110257   1.094971   2.100494   3.325922   3.938446
    14  H    2.139263   1.095598   2.102936   3.289511   3.907663
    15  H    4.075307   3.557073   2.179336   1.092412   1.973621
    16  H    2.199363   2.923911   2.750487   1.977148   1.004207
    17  H    4.193002   2.792932   2.147258   3.238079   4.413646
    18  H    4.453311   3.259816   2.566473   3.428173   4.497777
    19  H    4.081444   2.682844   2.637291   3.976170   5.026675
                    6          7          8          9         10
     6  C    0.000000
     7  N    1.446699   0.000000
     8  C    1.519999   2.434822   0.000000
     9  N    2.780966   3.552022   1.260967   0.000000
    10  H    4.733878   5.024357   5.949320   7.047915   0.000000
    11  H    4.247841   4.553771   5.163134   6.108236   1.752677
    12  H    4.245982   5.000148   5.158887   6.102740   1.754874
    13  H    2.820741   2.670835   4.195726   5.395763   2.448929
    14  H    2.756389   3.314802   4.126300   5.324936   2.504287
    15  H    2.687262   3.714298   2.193647   2.513979   5.158112
    16  H    4.231460   5.004669   4.669923   5.343474   3.158169
    17  H    1.094509   2.113496   2.160423   3.324509   4.880169
    18  H    2.035665   1.018320   2.648538   3.592080   5.144478
    19  H    2.055725   1.012130   3.337066   4.513882   4.525821
                   11         12         13         14         15
    11  H    0.000000
    12  H    1.807557   0.000000
    13  H    2.449370   3.029390   0.000000
    14  H    3.049943   2.467613   1.769129   0.000000
    15  H    3.990160   3.985258   4.186881   4.131434   0.000000
    16  H    1.883192   1.893775   3.670437   3.668209   2.886777
    17  H    4.754238   4.390317   3.160126   2.532316   3.407974
    18  H    4.371962   5.138156   2.849806   3.862196   3.568413
    19  H    4.344317   4.820091   2.103357   2.915085   4.383265
                   16         17         18         19
    16  H    0.000000
    17  H    4.750977   0.000000
    18  H    4.831096   2.956599   0.000000
    19  H    5.137560   2.416147   1.642960   0.000000
 Stoichiometry    C5H10N4
 Framework group  C1[X(C5H10N4)]
 Deg. of freedom    51
 Full point group                 C1      NOp   1
 Largest Abelian subgroup         C1      NOp   1
 Largest concise Abelian subgroup C1      NOp   1
                         Standard orientation:                         
 ---------------------------------------------------------------------
 Center     Atomic      Atomic             Coordinates (Angstroms)
 Number     Number       Type             X           Y           Z
 ---------------------------------------------------------------------
      1          6           0        2.807261   -0.341227   -0.078329
      2          6           0        1.473782   -1.015075   -0.279817
      3          7           0        0.282265   -0.145969   -0.112671
      4          6           0        0.317210    1.296706    0.122410
      5          7           0        1.296008    2.105834    0.311205
      6          6           0       -1.081674   -0.791368   -0.380088
      7          7           0       -1.259156   -1.827282    0.614056
      8          6           0       -2.162434    0.267744   -0.236426
      9          7           0       -3.059016    1.146363   -0.117244
     10          1           0        3.640956   -1.040139   -0.169187
     11          1           0        2.863439    0.080701    0.931297
     12          1           0        2.958486    0.431122   -0.839419
     13          1           0        1.406635   -1.828611    0.449986
     14          1           0        1.436268   -1.460367   -1.280139
     15          1           0       -0.648258    1.807030    0.150813
     16          1           0        2.233149    1.745029    0.315535
     17          1           0       -1.079854   -1.198918   -1.395888
     18          1           0       -1.192207   -1.430469    1.549488
     19          1           0       -0.564183   -2.558680    0.533593
 ---------------------------------------------------------------------
 Rotational constants (GHZ):           2.3864930           1.1734642           0.8357220
 Standard basis: 6-31G(2df,p) (6D, 7F)
 There are   329 symmetry adapted cartesian basis functions of A   symmetry.
 There are   302 symmetry adapted basis functions of A   symmetry.
   302 basis functions,   466 primitive gaussians,   329 cartesian basis functions
    34 alpha electrons       34 beta electrons
       nuclear repulsion energy       435.9918177720 Hartrees.
 NAtoms=   19 NActive=   19 NUniq=   19 SFac= 1.00D+00 NAtFMM=   60 NAOKFM=F Big=F
 Integral buffers will be    131072 words long.
 Raffenetti 2 integral format.
 Two-electron integral symmetry is turned on.
 One-electron integrals computed using PRISM.
 PrsmSu:  requested number of processors reduced to:  13 ShMem   1 Linda.
 NBasis=   302 RedAO= T EigKep=  1.85D-04  NBF=   302
 NBsUse=   302 1.00D-06 EigRej= -1.00D+00 NBFU=   302
 ExpMin= 1.61D-01 ExpMax= 4.17D+03 ExpMxC= 6.27D+02 IAcc=3 IRadAn=         5 AccDes= 0.00D+00
 Harris functional with IExCor=  402 and IRadAn=       5 diagonalized for initial guess.
 HarFok:  IExCor=  402 AccDes= 0.00D+00 IRadAn=         5 IDoV= 1 UseB2=F ITyADJ=14
 ICtDFT=  3500011 ScaDFX=  1.000000  1.000000  1.000000  1.000000
 FoFCou: FMM=F IPFlag=           0 FMFlag=      100000 FMFlg1=           0
         NFxFlg=           0 DoJE=T BraDBF=F KetDBF=T FulRan=T
         wScrn=  0.000000 ICntrl=       500 IOpCl=  0 I1Cent=   200000004 NGrid=           0
         NMat0=    1 NMatS0=      1 NMatT0=    0 NMatD0=    1 NMtDS0=    0 NMtDT0=    0
 Petite list used in FoFCou.
 Requested convergence on RMS density matrix=1.00D-08 within 128 cycles.
 Requested convergence on MAX density matrix=1.00D-06.
 Requested convergence on             energy=1.00D-06.
 No special actions if energy rises.
 Integral accuracy reduced to 1.0D-05 until final iterations.
 Initial convergence to 1.0D-05 achieved.  Increase integral accuracy.
 SCF Done:  E(RB3LYP) =  -415.486476748     A.U. after   15 cycles
            NFock= 15  Conv=0.71D-08     -V/T= 2.0092

 **********************************************************************

            Population analysis using the SCF density.

 **********************************************************************

 Orbital symmetries:
       Occupied  (A) (A) (A) (A) (A) (A) (A) (A) (A) (A) (A) (A)
                 (A) (A) (A) (A) (A) (A) (A) (A) (A) (A) (A) (A)
                 (A) (A) (A) (A) (A) (A) (A) (A) (A) (A)
       Virtual   (A) (A) (A) (A) (A) (A) (A) (A) (A) (A) (A) (A)
                 (A) (A) (A) (A) (A) (A) (A) (A) (A) (A) (A) (A)
                 (A) (A) (A) (A) (A) (A) (A) (A) (A) (A) (A) (A)
                 (A) (A) (A) (A) (A) (A) (A) (A) (A) (A) (A) (A)
                 (A) (A) (A) (A) (A) (A) (A) (A) (A) (A) (A) (A)
                 (A) (A) (A) (A) (A) (A) (A) (A) (A) (A) (A) (A)
                 (A) (A) (A) (A) (A) (A) (A) (A) (A) (A) (A) (A)
                 (A) (A) (A) (A) (A) (A) (A) (A) (A) (A) (A) (A)
                 (A) (A) (A) (A) (A) (A) (A) (A) (A) (A) (A) (A)
                 (A) (A) (A) (A) (A) (A) (A) (A) (A) (A) (A) (A)
                 (A) (A) (A) (A) (A) (A) (A) (A) (A) (A) (A) (A)
                 (A) (A) (A) (A) (A) (A) (A) (A) (A) (A) (A) (A)
                 (A) (A) (A) (A) (A) (A) (A) (A) (A) (A) (A) (A)
                 (A) (A) (A) (A) (A) (A) (A) (A) (A) (A) (A) (A)
                 (A) (A) (A) (A) (A) (A) (A) (A) (A) (A) (A) (A)
                 (A) (A) (A) (A) (A) (A) (A) (A) (A) (A) (A) (A)
                 (A) (A) (A) (A) (A) (A) (A) (A) (A) (A) (A) (A)
                 (A) (A) (A) (A) (A) (A) (A) (A) (A) (A) (A) (A)
                 (A) (A) (A) (A) (A) (A) (A) (A) (A) (A) (A) (A)
                 (A) (A) (A) (A) (A) (A) (A) (A) (A) (A) (A) (A)
                 (A) (A) (A) (A) (A) (A) (A) (A) (A) (A) (A) (A)
                 (A) (A) (A) (A) (A) (A) (A) (A) (A) (A) (A) (A)
                 (A) (A) (A) (A)
 The electronic state is 1-A.
 Alpha  occ. eigenvalues --  -14.37221 -14.36584 -14.34610 -14.28730 -10.31755
 Alpha  occ. eigenvalues --  -10.26532 -10.25309 -10.24643 -10.20263  -0.96898
 Alpha  occ. eigenvalues --   -0.90506  -0.87683  -0.85179  -0.78410  -0.71424
 Alpha  occ. eigenvalues --   -0.65639  -0.59577  -0.56229  -0.52132  -0.50968
 Alpha  occ. eigenvalues --   -0.49333  -0.47549  -0.45178  -0.43325  -0.40679
 Alpha  occ. eigenvalues --   -0.38938  -0.38349  -0.37748  -0.34233  -0.32964
 Alpha  occ. eigenvalues --   -0.32729  -0.28457  -0.24338  -0.22580
 Alpha virt. eigenvalues --   -0.02133  -0.02026   0.02809   0.06283   0.07965
 Alpha virt. eigenvalues --    0.09104   0.09953   0.12407   0.13554   0.14351
 Alpha virt. eigenvalues --    0.14772   0.15872   0.17091   0.17908   0.19796
 Alpha virt. eigenvalues --    0.21761   0.23104   0.24028   0.28333   0.33539
 Alpha virt. eigenvalues --    0.37708   0.40359   0.43719   0.45778   0.46095
 Alpha virt. eigenvalues --    0.48042   0.48931   0.52320   0.52563   0.54435
 Alpha virt. eigenvalues --    0.55507   0.56469   0.57181   0.59209   0.59951
 Alpha virt. eigenvalues --    0.61107   0.62302   0.63692   0.66668   0.67561
 Alpha virt. eigenvalues --    0.68432   0.69263   0.69621   0.71125   0.71861
 Alpha virt. eigenvalues --    0.73561   0.74647   0.75025   0.75680   0.77411
 Alpha virt. eigenvalues --    0.78144   0.78308   0.79474   0.81204   0.82038
 Alpha virt. eigenvalues --    0.83907   0.84330   0.85460   0.87333   0.90406
 Alpha virt. eigenvalues --    0.91269   0.92283   0.93412   0.95941   0.97663
 Alpha virt. eigenvalues --    1.00363   1.01818   1.06204   1.08220   1.10291
 Alpha virt. eigenvalues --    1.12809   1.13360   1.18917   1.21623   1.23740
 Alpha virt. eigenvalues --    1.25259   1.26640   1.29148   1.31506   1.32674
 Alpha virt. eigenvalues --    1.34888   1.38915   1.39048   1.40907   1.43072
 Alpha virt. eigenvalues --    1.44602   1.48967   1.49533   1.52323   1.55515
 Alpha virt. eigenvalues --    1.56087   1.56891   1.60588   1.61203   1.64358
 Alpha virt. eigenvalues --    1.67704   1.68984   1.72357   1.77345   1.78639
 Alpha virt. eigenvalues --    1.81278   1.82372   1.84772   1.87785   1.90531
 Alpha virt. eigenvalues --    1.91535   1.94567   1.95684   2.01859   2.10157
 Alpha virt. eigenvalues --    2.11346   2.16489   2.16769   2.21106   2.22703
 Alpha virt. eigenvalues --    2.24666   2.25028   2.31469   2.34198   2.37706
 Alpha virt. eigenvalues --    2.40990   2.45320   2.50309   2.53888   2.54408
 Alpha virt. eigenvalues --    2.57754   2.63309   2.67298   2.68361   2.70427
 Alpha virt. eigenvalues --    2.72200   2.76155   2.77118   2.77879   2.79004
 Alpha virt. eigenvalues --    2.81033   2.83362   2.84729   2.86173   2.87327
 Alpha virt. eigenvalues --    2.89767   2.93374   2.95281   2.97010   2.97670
 Alpha virt. eigenvalues --    2.99643   3.00094   3.02799   3.03958   3.06199
 Alpha virt. eigenvalues --    3.07453   3.10729   3.14960   3.19996   3.22158
 Alpha virt. eigenvalues --    3.28577   3.30118   3.31233   3.34025   3.34729
 Alpha virt. eigenvalues --    3.38673   3.42066   3.44552   3.49056   3.50249
 Alpha virt. eigenvalues --    3.53075   3.56065   3.58754   3.59447   3.62386
 Alpha virt. eigenvalues --    3.62830   3.63307   3.68285   3.70569   3.74062
 Alpha virt. eigenvalues --    3.74939   3.78988   3.82299   3.88149   3.90273
 Alpha virt. eigenvalues --    3.91053   3.93789   3.94095   3.96905   3.97518
 Alpha virt. eigenvalues --    3.98942   3.99100   4.01684   4.04495   4.07911
 Alpha virt. eigenvalues --    4.11409   4.13490   4.15073   4.18032   4.19025
 Alpha virt. eigenvalues --    4.20357   4.21817   4.23900   4.24417   4.25398
 Alpha virt. eigenvalues --    4.27521   4.28852   4.32646   4.34159   4.36003
 Alpha virt. eigenvalues --    4.38956   4.41181   4.42771   4.42907   4.44156
 Alpha virt. eigenvalues --    4.48544   4.49586   4.52219   4.53560   4.55018
 Alpha virt. eigenvalues --    4.57493   4.58597   4.59516   4.62373   4.66074
 Alpha virt. eigenvalues --    4.66354   4.67227   4.70962   4.72861   4.73824
 Alpha virt. eigenvalues --    4.75243   4.76594   4.77202   4.78709   4.81813
 Alpha virt. eigenvalues --    4.84725   4.85886   4.86901   4.88138   4.94245
 Alpha virt. eigenvalues --    4.95608   4.97243   4.99901   5.02677   5.05097
 Alpha virt. eigenvalues --    5.09396   5.11687   5.16098   5.17726   5.24453
 Alpha virt. eigenvalues --    5.31268   5.37056   5.42573   5.46823   5.51597
 Alpha virt. eigenvalues --    5.53308   5.59218   5.78201   5.97249   6.05537
 Alpha virt. eigenvalues --    9.32399  10.20195  10.61068  11.14085  11.31110
 Alpha virt. eigenvalues --   11.34413  11.39916  11.43045  11.84789  12.41564
 Alpha virt. eigenvalues --   12.76644  14.33483  20.77394
          Condensed to atoms (all electrons):
               1          2          3          4          5          6
     1  C    4.973110   0.410553  -0.024701  -0.004950  -0.004595   0.003148
     2  C    0.410553   4.764007   0.383869  -0.039057  -0.009201  -0.060052
     3  N   -0.024701   0.383869   6.395712   0.407923  -0.053617   0.344317
     4  C   -0.004950  -0.039057   0.407923   4.625467   0.700898  -0.044785
     5  N   -0.004595  -0.009201  -0.053617   0.700898   6.530463   0.003354
     6  C    0.003148  -0.060052   0.344317  -0.044785   0.003354   4.897949
     7  N    0.000387   0.002951  -0.111882   0.000299  -0.000098   0.361558
     8  C   -0.000164   0.003245  -0.027452  -0.010951  -0.000421   0.351326
     9  N   -0.000000  -0.000040  -0.001128  -0.009636   0.000056  -0.031166
    10  H    0.365136  -0.020610   0.002382  -0.000132   0.001096  -0.000040
    11  H    0.382029  -0.025446  -0.002614   0.002137  -0.004438   0.000127
    12  H    0.382284  -0.024711  -0.002640   0.002352  -0.003833  -0.000089
    13  H   -0.033558   0.360931  -0.048092   0.001929  -0.000243  -0.002817
    14  H   -0.034942   0.366527  -0.038262   0.001910  -0.000019  -0.003170
    15  H   -0.000139   0.003580  -0.042312   0.344606  -0.019805  -0.010373
    16  H    0.006012  -0.001182  -0.010047  -0.082257   0.355768  -0.000098
    17  H   -0.000065  -0.002606  -0.037203   0.001965  -0.000064   0.364977
    18  H   -0.000042   0.000895   0.004157   0.001085  -0.000069  -0.039597
    19  H   -0.000142   0.003823  -0.002609  -0.000079  -0.000003  -0.044342
               7          8          9         10         11         12
     1  C    0.000387  -0.000164  -0.000000   0.365136   0.382029   0.382284
     2  C    0.002951   0.003245  -0.000040  -0.020610  -0.025446  -0.024711
     3  N   -0.111882  -0.027452  -0.001128   0.002382  -0.002614  -0.002640
     4  C    0.000299  -0.010951  -0.009636  -0.000132   0.002137   0.002352
     5  N   -0.000098  -0.000421   0.000056   0.001096  -0.004438  -0.003833
     6  C    0.361558   0.351326  -0.031166  -0.000040   0.000127  -0.000089
     7  N    6.574914  -0.020125  -0.001850   0.000006   0.000003  -0.000011
     8  C   -0.020125   4.497232   0.890549   0.000000   0.000011   0.000003
     9  N   -0.001850   0.890549   6.512894  -0.000000   0.000000   0.000000
    10  H    0.000006   0.000000  -0.000000   0.593365  -0.029342  -0.029828
    11  H    0.000003   0.000011   0.000000  -0.029342   0.561845  -0.035762
    12  H   -0.000011   0.000003   0.000000  -0.029828  -0.035762   0.559714
    13  H    0.010748   0.000251   0.000002  -0.003378  -0.005070   0.005256
    14  H   -0.002050   0.000182   0.000002  -0.002638   0.005302  -0.004988
    15  H    0.000216   0.023185   0.000762   0.000007  -0.000070  -0.000073
    16  H   -0.000004  -0.000039  -0.000008   0.000313   0.003239   0.002853
    17  H   -0.040476  -0.031763   0.000530  -0.000002   0.000008  -0.000004
    18  H    0.339590  -0.004596   0.000390   0.000000   0.000005   0.000000
    19  H    0.353387   0.004674  -0.000021  -0.000002   0.000012   0.000007
              13         14         15         16         17         18
     1  C   -0.033558  -0.034942  -0.000139   0.006012  -0.000065  -0.000042
     2  C    0.360931   0.366527   0.003580  -0.001182  -0.002606   0.000895
     3  N   -0.048092  -0.038262  -0.042312  -0.010047  -0.037203   0.004157
     4  C    0.001929   0.001910   0.344606  -0.082257   0.001965   0.001085
     5  N   -0.000243  -0.000019  -0.019805   0.355768  -0.000064  -0.000069
     6  C   -0.002817  -0.003170  -0.010373  -0.000098   0.364977  -0.039597
     7  N    0.010748  -0.002050   0.000216  -0.000004  -0.040476   0.339590
     8  C    0.000251   0.000182   0.023185  -0.000039  -0.031763  -0.004596
     9  N    0.000002   0.000002   0.000762  -0.000008   0.000530   0.000390
    10  H   -0.003378  -0.002638   0.000007   0.000313  -0.000002   0.000000
    11  H   -0.005070   0.005302  -0.000070   0.003239   0.000008   0.000005
    12  H    0.005256  -0.004988  -0.000073   0.002853  -0.000004   0.000000
    13  H    0.666423  -0.056945  -0.000146  -0.000034  -0.001533  -0.000069
    14  H   -0.056945   0.650401  -0.000120  -0.000023   0.008732   0.000238
    15  H   -0.000146  -0.000120   0.527172   0.007329   0.000241   0.000092
    16  H   -0.000034  -0.000023   0.007329   0.499953  -0.000001   0.000001
    17  H   -0.001533   0.008732   0.000241  -0.000001   0.586967   0.006230
    18  H   -0.000069   0.000238   0.000092   0.000001   0.006230   0.472827
    19  H    0.005718   0.000539  -0.000022  -0.000000  -0.003634  -0.030885
              19
     1  C   -0.000142
     2  C    0.003823
     3  N   -0.002609
     4  C   -0.000079
     5  N   -0.000003
     6  C   -0.044342
     7  N    0.353387
     8  C    0.004674
     9  N   -0.000021
    10  H   -0.000002
    11  H    0.000012
    12  H    0.000007
    13  H    0.005718
    14  H    0.000539
    15  H   -0.000022
    16  H   -0.000000
    17  H   -0.003634
    18  H   -0.030885
    19  H    0.465360
 Mulliken charges:
               1
     1  C   -0.419362
     2  C   -0.117475
     3  N   -0.135801
     4  C    0.101277
     5  N   -0.495228
     6  C   -0.090227
     7  N   -0.467565
     8  C    0.324852
     9  N   -0.361337
    10  H    0.123665
    11  H    0.148022
    12  H    0.149469
    13  H    0.100626
    14  H    0.109323
    15  H    0.165871
    16  H    0.218225
    17  H    0.147700
    18  H    0.249746
    19  H    0.248219
 Sum of Mulliken charges =  -0.00000
 Mulliken charges with hydrogens summed into heavy atoms:
               1
     1  C    0.001795
     2  C    0.092474
     3  N   -0.135801
     4  C    0.267148
     5  N   -0.277003
     6  C    0.057473
     7  N    0.030400
     8  C    0.324852
     9  N   -0.361337
 Electronic spatial extent (au):  <R**2>=           1376.7196
 Charge=             -0.0000 electrons
 Dipole moment (field-independent basis, Debye):
    X=              3.4701    Y=             -5.0024    Z=             -0.4872  Tot=              6.1076
 Quadrupole moment (field-independent basis, Debye-Ang):
   XX=            -61.8952   YY=            -61.9058   ZZ=            -51.6753
   XY=             -1.1734   XZ=             -0.0855   YZ=             -0.8586
 Traceless Quadrupole moment (field-independent basis, Debye-Ang):
   XX=             -3.4031   YY=             -3.4137   ZZ=              6.8168
   XY=             -1.1734   XZ=             -0.0855   YZ=             -0.8586
 Octapole moment (field-independent basis, Debye-Ang**2):
  XXX=             61.0103  YYY=            -34.8277  ZZZ=              3.5547  XYY=              4.5817
  XXY=            -11.9206  XXZ=             -0.5221  XZZ=             -1.9732  YZZ=             -7.0884
  YYZ=             -2.3041  XYZ=             -3.1998
 Hexadecapole moment (field-independent basis, Debye-Ang**3):
 XXXX=          -1254.4190 YYYY=           -616.4323 ZZZZ=            -99.6943 XXXY=             46.9868
 XXXZ=             -0.1319 YYYX=            -33.8635 YYYZ=            -14.2819 ZZZX=             -5.0439
 ZZZY=             -6.4268 XXYY=           -327.4786 XXZZ=           -206.5008 YYZZ=           -109.3192
 XXYZ=              5.2177 YYXZ=             -1.6738 ZZXY=              4.9425
 N-N= 4.359918177720D+02 E-N=-1.837173158982D+03  KE= 4.116894731820D+02
 PrsmSu:  requested number of processors reduced to:  13 ShMem   1 Linda.
 Calling FoFJK, ICntrl=      2127 FMM=F ISym2X=0 I1Cent= 0 IOpClX= 0 NMat=1 NMatS=1 NMatT=0.
 ***** Axes restored to original set *****
 -------------------------------------------------------------------
 Center     Atomic                   Forces (Hartrees/Bohr)
 Number     Number              X              Y              Z
 -------------------------------------------------------------------
      1        6          -0.011371790   -0.000781722   -0.001325066
      2        6           0.015059059   -0.011389259    0.001639382
      3        7          -0.017847287   -0.049435753   -0.013798103
      4        6          -0.013675147    0.030502747   -0.003426386
      5        7           0.015185942   -0.012479008    0.002645375
      6        6          -0.042951644    0.000229039    0.024970414
      7        7           0.022169653   -0.007969886    0.000715930
      8        6           0.031392748   -0.153720531   -0.001727767
      9        7          -0.024939480    0.180030696   -0.000948544
     10        1           0.006162609    0.003413546   -0.000289002
     11        1          -0.001974110    0.001934568   -0.003710913
     12        1          -0.002668852    0.001698285    0.003547611
     13        1           0.003399806    0.002130745    0.000301728
     14        1           0.002258234    0.002509083   -0.001824621
     15        1           0.010085215    0.010810652    0.000463666
     16        1           0.003450980    0.003449037   -0.000655610
     17        1           0.004657723   -0.000986054    0.001346162
     18        1           0.000642297    0.000820367   -0.004358517
     19        1           0.000964042   -0.000766553   -0.003565737
 -------------------------------------------------------------------
 Cartesian Forces:  Max     0.180030696 RMS     0.034045633

 GradGradGradGradGradGradGradGradGradGradGradGradGradGradGradGradGradGrad
 Berny optimization.
 FormGI is forming the generalized inverse of G from B-inverse, IUseBI=4.
 Internal  Forces:  Max     0.181721257 RMS     0.022961454
 Search for a local minimum.
 Step number   1 out of a maximum of   91
 All quantities printed in internal units (Hartrees-Bohrs-Radians)
 Mixed Optimization -- RFO/linear search
 Second derivative matrix not updated -- first step.
 ITU=  0
     Eigenvalues ---    0.00230   0.00567   0.00577   0.00666   0.00870
     Eigenvalues ---    0.01074   0.01621   0.03228   0.03531   0.03531
     Eigenvalues ---    0.03968   0.04190   0.05542   0.05744   0.05783
     Eigenvalues ---    0.06443   0.07577   0.09816   0.10070   0.13144
     Eigenvalues ---    0.16000   0.16000   0.16000   0.16000   0.16000
     Eigenvalues ---    0.16000   0.16000   0.17524   0.22000   0.22054
     Eigenvalues ---    0.23271   0.24748   0.24856   0.29199   0.30367
     Eigenvalues ---    0.31594   0.34088   0.34164   0.34174   0.34244
     Eigenvalues ---    0.34261   0.34297   0.34535   0.34618   0.36700
     Eigenvalues ---    0.38681   0.44607   0.45618   0.46956   0.71873
     Eigenvalues ---    0.79313
 RFO step:  Lambda=-7.14062119D-02 EMin= 2.30000000D-03
 Linear search not attempted -- first point.
 Maximum step size (   0.300) exceeded in Quadratic search.
    -- Step size scaled by   0.781
 Iteration  1 RMS(Cart)=  0.12488716 RMS(Int)=  0.00572736
 Iteration  2 RMS(Cart)=  0.00910110 RMS(Int)=  0.00077199
 Iteration  3 RMS(Cart)=  0.00002451 RMS(Int)=  0.00077177
 Iteration  4 RMS(Cart)=  0.00000001 RMS(Int)=  0.00077177
 Variable       Old X    -DE/DX   Delta X   Delta X   Delta X     New X
                                 (Linear)    (Quad)   (Total)
    R1        2.84894   0.01070   0.00000   0.02159   0.02159   2.87052
    R2        2.06299   0.00189   0.00000   0.00354   0.00354   2.06653
    R3        2.07054  -0.00301   0.00000  -0.00570  -0.00570   2.06485
    R4        2.06893  -0.00251   0.00000  -0.00473  -0.00473   2.06419
    R5        2.80482  -0.00353   0.00000  -0.00669  -0.00669   2.79813
    R6        2.06920   0.00252   0.00000   0.00476   0.00476   2.07396
    R7        2.07038   0.00343   0.00000   0.00649   0.00649   2.07687
    R8        2.76301  -0.03470   0.00000  -0.06184  -0.06184   2.70117
    R9        2.89590  -0.01163   0.00000  -0.02501  -0.02501   2.87089
   R10        2.42620  -0.01802   0.00000  -0.01782  -0.01782   2.40838
   R11        2.06436  -0.00532   0.00000  -0.00997  -0.00997   2.05439
   R12        1.89768   0.00101   0.00000   0.00146   0.00146   1.89914
   R13        2.73387   0.00037   0.00000   0.00063   0.00063   2.73449
   R14        2.87238  -0.02500   0.00000  -0.05208  -0.05208   2.82031
   R15        2.06832   0.00014   0.00000   0.00027   0.00027   2.06859
   R16        1.92435  -0.00418   0.00000  -0.00630  -0.00630   1.91804
   R17        1.91265  -0.00093   0.00000  -0.00138  -0.00138   1.91126
   R18        2.38288  -0.18172   0.00000  -0.16421  -0.16421   2.21867
    A1        1.95865  -0.01219   0.00000  -0.04353  -0.04331   1.91534
    A2        1.91837   0.00585   0.00000   0.02091   0.02075   1.93912
    A3        1.92259   0.00671   0.00000   0.02389   0.02376   1.94635
    A4        1.85883   0.00194   0.00000   0.00412   0.00431   1.86314
    A5        1.86325   0.00162   0.00000   0.00324   0.00348   1.86672
    A6        1.94103  -0.00452   0.00000  -0.01071  -0.01117   1.92986
    A7        2.01893   0.02428   0.00000   0.06846   0.06838   2.08731
    A8        1.87261  -0.00496   0.00000  -0.00890  -0.00906   1.86355
    A9        1.91132  -0.00680   0.00000  -0.01718  -0.01716   1.89416
   A10        1.88679  -0.00740   0.00000  -0.01774  -0.01813   1.86866
   A11        1.88949  -0.00770   0.00000  -0.01984  -0.01993   1.86956
   A12        1.88018   0.00148   0.00000  -0.00912  -0.00956   1.87062
   A13        2.18546   0.02867   0.00000   0.06988   0.06981   2.25528
   A14        2.03559  -0.03541   0.00000  -0.08677  -0.08674   1.94885
   A15        2.05430   0.00662   0.00000   0.01577   0.01582   2.07011
   A16        2.29655   0.02002   0.00000   0.05366   0.05364   2.35019
   A17        2.03085  -0.02425   0.00000  -0.07493  -0.07494   1.95591
   A18        1.95578   0.00424   0.00000   0.02125   0.02124   1.97702
   A19        2.07791  -0.00901   0.00000  -0.03043  -0.03043   2.04748
   A20        1.86591   0.03961   0.00000   0.11492   0.11415   1.98006
   A21        1.89958   0.00361   0.00000   0.03189   0.03149   1.93107
   A22        1.89367  -0.01092   0.00000  -0.02324  -0.02168   1.87200
   A23        1.92491  -0.01703   0.00000  -0.03893  -0.04314   1.88177
   A24        1.95125  -0.01341   0.00000  -0.04872  -0.04952   1.90173
   A25        1.92661  -0.00015   0.00000  -0.02895  -0.03092   1.89569
   A26        1.92213  -0.00162   0.00000  -0.00557  -0.00560   1.91654
   A27        1.95905  -0.00370   0.00000  -0.01262  -0.01264   1.94641
   A28        1.88544   0.00272   0.00000   0.00898   0.00894   1.89437
   A29        3.14159   0.00797   0.00000   0.05837   0.05837   3.19996
   A30        3.14159   0.00026   0.00000   0.00189   0.00189   3.14348
    D1        3.09583   0.00026   0.00000   0.00280   0.00289   3.09872
    D2        0.98891  -0.00227   0.00000  -0.01213  -0.01216   0.97675
    D3       -1.04710   0.00230   0.00000   0.01263   0.01260  -1.03450
    D4        1.03077   0.00168   0.00000   0.01136   0.01160   1.04237
    D5       -1.07615  -0.00086   0.00000  -0.00357  -0.00345  -1.07960
    D6       -3.11217   0.00372   0.00000   0.02119   0.02132  -3.09085
    D7       -1.11395  -0.00106   0.00000  -0.00518  -0.00529  -1.11924
    D8        3.06231  -0.00359   0.00000  -0.02011  -0.02034   3.04197
    D9        1.02630   0.00098   0.00000   0.00465   0.00443   1.03073
   D10        0.08683   0.00008   0.00000   0.00382   0.00395   0.09077
   D11        3.09067  -0.00088   0.00000  -0.00583  -0.00594   3.08473
   D12        2.18606   0.00416   0.00000   0.02420   0.02415   2.21021
   D13       -1.09328   0.00320   0.00000   0.01456   0.01426  -1.07902
   D14       -2.06494  -0.00210   0.00000  -0.00647  -0.00618  -2.07113
   D15        0.93891  -0.00306   0.00000  -0.01611  -0.01607   0.92283
   D16       -0.07934  -0.00302   0.00000  -0.01825  -0.01833  -0.09767
   D17        3.06558  -0.00186   0.00000  -0.00787  -0.00809   3.05749
   D18       -3.08185   0.00093   0.00000  -0.00126  -0.00105  -3.08290
   D19        0.06307   0.00208   0.00000   0.00912   0.00919   0.07225
   D20        1.11849  -0.00136   0.00000  -0.00773  -0.00928   1.10921
   D21       -3.08565   0.00256   0.00000   0.02761   0.02909  -3.05655
   D22       -0.98862  -0.00194   0.00000  -0.00238  -0.00306  -0.99169
   D23       -2.15014  -0.00011   0.00000  -0.01137  -0.01242  -2.16257
   D24       -0.07110   0.00381   0.00000   0.02397   0.02596  -0.04514
   D25        2.02593  -0.00069   0.00000  -0.00602  -0.00620   2.01973
   D26       -0.00782   0.00125   0.00000   0.01015   0.01030   0.00248
   D27        3.13056   0.00009   0.00000  -0.00003  -0.00017   3.13039
   D28        1.00309   0.00392   0.00000   0.01463   0.01465   1.01775
   D29       -1.09829   0.00404   0.00000   0.01548   0.01547  -1.08281
   D30       -1.05948  -0.01422   0.00000  -0.06930  -0.06761  -1.12709
   D31        3.12233  -0.01409   0.00000  -0.06845  -0.06679   3.05553
   D32        3.07312   0.00768   0.00000   0.03028   0.02861   3.10172
   D33        0.97173   0.00781   0.00000   0.03112   0.02943   1.00116
         Item               Value     Threshold  Converged?
 Maximum Force            0.181721     0.000450     NO 
 RMS     Force            0.022961     0.000300     NO 
 Maximum Displacement     0.370615     0.001800     NO 
 RMS     Displacement     0.123513     0.001200     NO 
 Predicted change in Energy=-3.774126D-02
 GradGradGradGradGradGradGradGradGradGradGradGradGradGradGradGradGradGrad

                          Input orientation:                          
 ---------------------------------------------------------------------
 Center     Atomic      Atomic             Coordinates (Angstroms)
 Number     Number       Type             X           Y           Z
 ---------------------------------------------------------------------
      1          6           0        1.023922    0.297790   -0.104543
      2          6           0        2.488945   -0.101200   -0.060686
      3          7           0        2.854510   -1.533556    0.024217
      4          6           0        2.010523   -2.686140   -0.024887
      5          7           0        0.750276   -2.872713   -0.059844
      6          6           0        4.359995   -1.731805   -0.022837
      7          7           0        5.054139   -1.139748    1.100341
      8          6           0        4.698572   -3.184992   -0.054400
      9          7           0        5.031187   -4.310727   -0.077385
     10          1           0        0.938343    1.387856   -0.122116
     11          1           0        0.495864   -0.045185    0.788458
     12          1           0        0.534055   -0.074790   -1.006977
     13          1           0        2.926346    0.395298    0.814905
     14          1           0        2.989138    0.308176   -0.949556
     15          1           0        2.581757   -3.611091   -0.020613
     16          1           0        0.163099   -2.057121   -0.055777
     17          1           0        4.719745   -1.269045   -0.947332
     18          1           0        4.703205   -1.533077    1.967712
     19          1           0        4.927690   -0.136660    1.127741
 ---------------------------------------------------------------------
                    Distance matrix (angstroms):
                    1          2          3          4          5
     1  C    0.000000
     2  C    1.519015   0.000000
     3  N    2.592578   1.480706   0.000000
     4  C    3.143814   2.629085   1.429397   0.000000
     5  N    3.182604   3.271736   2.495638   1.274462   0.000000
     6  C    3.905805   2.482163   1.519211   2.535898   3.785909
     7  N    4.445325   3.001131   2.480222   3.594589   4.782514
     8  C    5.063135   3.793714   2.476689   2.734105   3.960630
     9  N    6.107155   4.917661   3.530004   3.430226   4.516015
    10  H    1.093561   2.150680   3.496821   4.213842   4.265172
    11  H    1.092670   2.167153   2.891802   3.151248   2.962981
    12  H    1.092325   2.172040   2.928459   3.156518   2.961788
    13  H    2.115209   1.097492   2.085863   3.322536   4.022482
    14  H    2.139213   1.099033   2.087663   3.283083   3.990257
    15  H    4.208711   3.511347   2.095842   1.087134   1.975111
    16  H    2.507788   3.038949   2.743029   1.951818   1.004979
    17  H    4.101753   2.669546   2.119665   3.193580   4.372193
    18  H    4.602547   3.326803   2.682321   3.542675   4.640179
    19  H    4.116634   2.713133   2.732610   4.042062   5.132946
                    6          7          8          9         10
     6  C    0.000000
     7  N    1.447031   0.000000
     8  C    1.492442   2.375475   0.000000
     9  N    2.665392   3.382703   1.174070   0.000000
    10  H    4.631397   4.982265   5.920713   7.016211   0.000000
    11  H    4.293529   4.698213   5.313337   6.285991   1.754576
    12  H    4.283929   5.099617   5.284313   6.247519   1.756633
    13  H    2.698468   2.639194   4.088392   5.231941   2.411501
    14  H    2.626705   3.250045   3.990701   5.124930   2.460920
    15  H    2.587247   3.671070   2.159538   2.548023   5.263134
    16  H    4.209613   5.108861   4.673607   5.364465   3.531751
    17  H    1.094650   2.078823   2.113913   3.178936   4.694583
    18  H    2.029673   1.014985   2.611088   3.464872   5.203212
    19  H    2.047094   1.011398   3.277542   4.345788   4.449852
                   11         12         13         14         15
    11  H    0.000000
    12  H    1.796085   0.000000
    13  H    2.470215   3.043566   0.000000
    14  H    3.059734   2.485436   1.767727   0.000000
    15  H    4.209659   4.203739   4.107065   4.048401   0.000000
    16  H    2.207114   2.229804   3.795784   3.792093   2.875059
    17  H    4.727787   4.353138   3.015261   2.341502   3.303783
    18  H    4.615862   5.325147   2.864406   3.852102   3.573811
    19  H    4.445735   4.885169   2.094331   2.875939   4.346699
                   16         17         18         19
    16  H    0.000000
    17  H    4.709454   0.000000
    18  H    4.998169   2.927024   0.000000
    19  H    5.271642   2.373071   1.644970   0.000000
 Stoichiometry    C5H10N4
 Framework group  C1[X(C5H10N4)]
 Deg. of freedom    51
 Full point group                 C1      NOp   1
 Largest Abelian subgroup         C1      NOp   1
 Largest concise Abelian subgroup C1      NOp   1
                         Standard orientation:                         
 ---------------------------------------------------------------------
 Center     Atomic      Atomic             Coordinates (Angstroms)
 Number     Number       Type             X           Y           Z
 ---------------------------------------------------------------------
      1          6           0        2.860792   -0.511070   -0.119328
      2          6           0        1.431310   -1.005932   -0.257542
      3          7           0        0.308372   -0.059235   -0.069749
      4          6           0        0.343463    1.353996    0.141729
      5          7           0        1.270236    2.209883    0.322841
      6          6           0       -1.033762   -0.723326   -0.325991
      7          7           0       -1.334475   -1.791300    0.602935
      8          6           0       -2.139154    0.276222   -0.246020
      9          7           0       -3.053103    1.011326   -0.193483
     10          1           0        3.554793   -1.346680   -0.245792
     11          1           0        3.040400   -0.100613    0.877263
     12          1           0        3.105805    0.225603   -0.887738
     13          1           0        1.301731   -1.809454    0.478699
     14          1           0        1.312181   -1.455683   -1.253235
     15          1           0       -0.652727    1.788817    0.161652
     16          1           0        2.216455    1.871292    0.325847
     17          1           0       -1.005220   -1.132284   -1.340977
     18          1           0       -1.326945   -1.433383    1.552688
     19          1           0       -0.659576   -2.541666    0.536691
 ---------------------------------------------------------------------
 Rotational constants (GHZ):           2.3585693           1.1679427           0.8283702
 Standard basis: 6-31G(2df,p) (6D, 7F)
 There are   329 symmetry adapted cartesian basis functions of A   symmetry.
 There are   302 symmetry adapted basis functions of A   symmetry.
   302 basis functions,   466 primitive gaussians,   329 cartesian basis functions
    34 alpha electrons       34 beta electrons
       nuclear repulsion energy       436.7560821655 Hartrees.
 NAtoms=   19 NActive=   19 NUniq=   19 SFac= 1.00D+00 NAtFMM=   60 NAOKFM=F Big=F
 Integral buffers will be    131072 words long.
 Raffenetti 2 integral format.
 Two-electron integral symmetry is turned on.
 One-electron integrals computed using PRISM.
 PrsmSu:  requested number of processors reduced to:  13 ShMem   1 Linda.
 NBasis=   302 RedAO= T EigKep=  1.43D-04  NBF=   302
 NBsUse=   302 1.00D-06 EigRej= -1.00D+00 NBFU=   302
 Initial guess from the checkpoint file:  "CCNpCdNpCpNpCtN.chk"
 B after Tr=     0.000000    0.000000    0.000000
         Rot=    0.999977    0.003953    0.002847    0.004668 Ang=   0.77 deg.
 ExpMin= 1.61D-01 ExpMax= 4.17D+03 ExpMxC= 6.27D+02 IAcc=2 IRadAn=         4 AccDes= 0.00D+00
 Harris functional with IExCor=  402 and IRadAn=       4 diagonalized for initial guess.
 HarFok:  IExCor=  402 AccDes= 0.00D+00 IRadAn=         4 IDoV= 1 UseB2=F ITyADJ=14
 ICtDFT=  3500011 ScaDFX=  1.000000  1.000000  1.000000  1.000000
 FoFCou: FMM=F IPFlag=           0 FMFlag=      100000 FMFlg1=           0
         NFxFlg=           0 DoJE=T BraDBF=F KetDBF=T FulRan=T
         wScrn=  0.000000 ICntrl=       500 IOpCl=  0 I1Cent=   200000004 NGrid=           0
         NMat0=    1 NMatS0=      1 NMatT0=    0 NMatD0=    1 NMtDS0=    0 NMtDT0=    0
 Petite list used in FoFCou.
 Requested convergence on RMS density matrix=1.00D-08 within 128 cycles.
 Requested convergence on MAX density matrix=1.00D-06.
 Requested convergence on             energy=1.00D-06.
 No special actions if energy rises.
 Integral accuracy reduced to 1.0D-05 until final iterations.
 Initial convergence to 1.0D-05 achieved.  Increase integral accuracy.
 SCF Done:  E(RB3LYP) =  -415.521043190     A.U. after   13 cycles
            NFock= 13  Conv=0.69D-08     -V/T= 2.0082
 PrsmSu:  requested number of processors reduced to:  13 ShMem   1 Linda.
 Calling FoFJK, ICntrl=      2127 FMM=F ISym2X=0 I1Cent= 0 IOpClX= 0 NMat=1 NMatS=1 NMatT=0.
 ***** Axes restored to original set *****
 -------------------------------------------------------------------
 Center     Atomic                   Forces (Hartrees/Bohr)
 Number     Number              X              Y              Z
 -------------------------------------------------------------------
      1        6          -0.004896517   -0.005589254   -0.000748976
      2        6           0.007648860   -0.006338962    0.001674138
      3        7          -0.005045984   -0.023573054   -0.004611352
      4        6           0.001795333    0.017020637   -0.000494332
      5        7           0.005868297   -0.003191817    0.001169647
      6        6          -0.025233671   -0.003696336    0.010269586
      7        7           0.005605481   -0.003657732   -0.001292250
      8        6           0.014805241   -0.030691539   -0.003712044
      9        7          -0.011329850    0.042203938    0.000965751
     10        1           0.003574050    0.000677467   -0.000184247
     11        1          -0.002107056   -0.001041752   -0.001533907
     12        1          -0.002341026   -0.001259240    0.001519773
     13        1           0.001553001    0.001433271   -0.001029903
     14        1           0.001256591    0.001940801   -0.000385449
     15        1           0.006003998    0.003391667    0.000252502
     16        1          -0.001327794    0.010415946   -0.000438788
     17        1           0.003055516    0.000409359   -0.000722692
     18        1           0.000185374    0.000808790    0.000339586
     19        1           0.000930156    0.000737810   -0.001037044
 -------------------------------------------------------------------
 Cartesian Forces:  Max     0.042203938 RMS     0.009550893

 GradGradGradGradGradGradGradGradGradGradGradGradGradGradGradGradGradGrad
 Berny optimization.
 Using GEDIIS/GDIIS optimizer.
 FormGI is forming the generalized inverse of G from B-inverse, IUseBI=4.
 Internal  Forces:  Max     0.043694922 RMS     0.007629438
 Search for a local minimum.
 Step number   2 out of a maximum of   91
 All quantities printed in internal units (Hartrees-Bohrs-Radians)
 Mixed Optimization -- RFO/linear search
 Update second derivatives using D2CorX and points    1    2
 DE= -3.46D-02 DEPred=-3.77D-02 R= 9.16D-01
 TightC=F SS=  1.41D+00  RLast= 3.26D-01 DXNew= 5.0454D-01 9.7753D-01
 Trust test= 9.16D-01 RLast= 3.26D-01 DXMaxT set to 5.05D-01
 ITU=  1  0
 Use linear search instead of GDIIS.
     Eigenvalues ---    0.00230   0.00577   0.00589   0.00666   0.00870
     Eigenvalues ---    0.01074   0.01666   0.03228   0.03531   0.03556
     Eigenvalues ---    0.03594   0.04275   0.05488   0.05589   0.05898
     Eigenvalues ---    0.05940   0.06804   0.10435   0.10982   0.13520
     Eigenvalues ---    0.15336   0.16000   0.16000   0.16000   0.16000
     Eigenvalues ---    0.16000   0.16046   0.18617   0.21887   0.22095
     Eigenvalues ---    0.23614   0.24450   0.28729   0.29587   0.31412
     Eigenvalues ---    0.32385   0.33940   0.34168   0.34212   0.34251
     Eigenvalues ---    0.34290   0.34366   0.34611   0.34931   0.35245
     Eigenvalues ---    0.38681   0.44631   0.45621   0.46927   0.71833
     Eigenvalues ---    0.81961
 RFO step:  Lambda=-1.46908731D-02 EMin= 2.29877000D-03
 Quartic linear search produced a step of  0.25724.
 Iteration  1 RMS(Cart)=  0.13078776 RMS(Int)=  0.00506983
 Iteration  2 RMS(Cart)=  0.00747447 RMS(Int)=  0.00078774
 Iteration  3 RMS(Cart)=  0.00002808 RMS(Int)=  0.00078761
 Iteration  4 RMS(Cart)=  0.00000000 RMS(Int)=  0.00078761
 Variable       Old X    -DE/DX   Delta X   Delta X   Delta X     New X
                                 (Linear)    (Quad)   (Total)
    R1        2.87052   0.00370   0.00555   0.01060   0.01615   2.88667
    R2        2.06653   0.00040   0.00091   0.00086   0.00177   2.06830
    R3        2.06485   0.00009  -0.00147   0.00117  -0.00030   2.06455
    R4        2.06419   0.00022  -0.00122   0.00148   0.00026   2.06446
    R5        2.79813  -0.01096  -0.00172  -0.03747  -0.03919   2.75894
    R6        2.07396   0.00045   0.00123   0.00085   0.00208   2.07604
    R7        2.07687   0.00161   0.00167   0.00466   0.00633   2.08320
    R8        2.70117  -0.02959  -0.01591  -0.08789  -0.10380   2.59737
    R9        2.87089  -0.01282  -0.00643  -0.04808  -0.05451   2.81638
   R10        2.40838  -0.00557  -0.00458  -0.00765  -0.01223   2.39615
   R11        2.05439   0.00027  -0.00257   0.00241  -0.00016   2.05423
   R12        1.89914   0.00923   0.00038   0.02359   0.02396   1.92310
   R13        2.73449   0.00082   0.00016   0.00245   0.00261   2.73710
   R14        2.82031  -0.01036  -0.01340  -0.03232  -0.04571   2.77459
   R15        2.06859   0.00179   0.00007   0.00620   0.00626   2.07485
   R16        1.91804  -0.00009  -0.00162   0.00057  -0.00105   1.91699
   R17        1.91126   0.00059  -0.00036   0.00173   0.00137   1.91264
   R18        2.21867  -0.04369  -0.04224  -0.05134  -0.09358   2.12509
    A1        1.91534  -0.00579  -0.01114  -0.02853  -0.03939   1.87595
    A2        1.93912   0.00283   0.00534   0.01409   0.01941   1.95853
    A3        1.94635   0.00289   0.00611   0.01352   0.01962   1.96597
    A4        1.86314   0.00167   0.00111   0.01350   0.01487   1.87801
    A5        1.86672   0.00160   0.00089   0.01251   0.01368   1.88040
    A6        1.92986  -0.00339  -0.00287  -0.02555  -0.02866   1.90120
    A7        2.08731  -0.01183   0.01759  -0.07770  -0.06005   2.02727
    A8        1.86355   0.00395  -0.00233   0.02627   0.02421   1.88776
    A9        1.89416   0.00294  -0.00441   0.01203   0.00739   1.90154
   A10        1.86866   0.00391  -0.00466   0.02809   0.02363   1.89229
   A11        1.86956   0.00408  -0.00513   0.02073   0.01517   1.88473
   A12        1.87062  -0.00253  -0.00246  -0.00389  -0.00679   1.86383
   A13        2.25528  -0.01294   0.01796  -0.07528  -0.05726   2.19801
   A14        1.94885  -0.00229  -0.02231   0.00424  -0.01811   1.93074
   A15        2.07011   0.01513   0.00407   0.06856   0.07241   2.14252
   A16        2.35019  -0.01202   0.01380  -0.07437  -0.06057   2.28962
   A17        1.95591  -0.00108  -0.01928  -0.00178  -0.02106   1.93485
   A18        1.97702   0.01309   0.00546   0.07614   0.08160   2.05862
   A19        2.04748  -0.00948  -0.00783  -0.06031  -0.06814   1.97934
   A20        1.98006   0.01050   0.02936   0.04239   0.07059   2.05065
   A21        1.93107   0.00449   0.00810   0.03798   0.04524   1.97631
   A22        1.87200  -0.00240  -0.00558  -0.00656  -0.01049   1.86151
   A23        1.88177  -0.00657  -0.01110  -0.01765  -0.03292   1.84884
   A24        1.90173  -0.00459  -0.01274  -0.03133  -0.04451   1.85722
   A25        1.89569  -0.00192  -0.00795  -0.02865  -0.03830   1.85739
   A26        1.91654   0.00144  -0.00144   0.01404   0.01258   1.92911
   A27        1.94641  -0.00057  -0.00325   0.00131  -0.00197   1.94444
   A28        1.89437  -0.00002   0.00230   0.00218   0.00443   1.89881
   A29        3.19996   0.00242   0.01501   0.01968   0.03469   3.23465
   A30        3.14348   0.00022   0.00049   0.00423   0.00471   3.14819
    D1        3.09872   0.00054   0.00074   0.01425   0.01487   3.11359
    D2        0.97675   0.00022  -0.00313   0.00864   0.00560   0.98235
    D3       -1.03450  -0.00030   0.00324  -0.00621  -0.00293  -1.03743
    D4        1.04237   0.00038   0.00299   0.00687   0.00986   1.05223
    D5       -1.07960   0.00006  -0.00089   0.00126   0.00059  -1.07901
    D6       -3.09085  -0.00046   0.00548  -0.01359  -0.00794  -3.09879
    D7       -1.11924   0.00060  -0.00136   0.01987   0.01825  -1.10099
    D8        3.04197   0.00028  -0.00523   0.01425   0.00898   3.05095
    D9        1.03073  -0.00024   0.00114  -0.00059   0.00045   1.03117
   D10        0.09077  -0.00095   0.00102  -0.01287  -0.01229   0.07848
   D11        3.08473  -0.00027  -0.00153  -0.02616  -0.02710   3.05764
   D12        2.21021  -0.00065   0.00621  -0.00837  -0.00288   2.20733
   D13       -1.07902   0.00003   0.00367  -0.02166  -0.01769  -1.09670
   D14       -2.07113   0.00027  -0.00159   0.01057   0.00860  -2.06253
   D15        0.92283   0.00095  -0.00413  -0.00272  -0.00620   0.91663
   D16       -0.09767  -0.00040  -0.00471   0.00184  -0.00305  -0.10071
   D17        3.05749  -0.00013  -0.00208   0.00188  -0.00048   3.05701
   D18       -3.08290   0.00032  -0.00027   0.02156   0.02156  -3.06134
   D19        0.07225   0.00059   0.00236   0.02159   0.02413   0.09638
   D20        1.10921   0.00068  -0.00239   0.04532   0.04196   1.15117
   D21       -3.05655   0.00287   0.00748   0.08028   0.08990  -2.96665
   D22       -0.99169   0.00162  -0.00079   0.06298   0.06210  -0.92959
   D23       -2.16257  -0.00118  -0.00320   0.02069   0.01580  -2.14677
   D24       -0.04514   0.00101   0.00668   0.05564   0.06374   0.01860
   D25        2.01973  -0.00024  -0.00159   0.03834   0.03594   2.05566
   D26        0.00248   0.00072   0.00265   0.01086   0.01361   0.01608
   D27        3.13039   0.00036  -0.00004   0.01037   0.01023   3.14062
   D28        1.01775   0.00220   0.00377   0.01108   0.01487   1.03262
   D29       -1.08281   0.00163   0.00398  -0.00189   0.00209  -1.08073
   D30       -1.12709  -0.00574  -0.01739  -0.05271  -0.06844  -1.19553
   D31        3.05553  -0.00631  -0.01718  -0.06568  -0.08123   2.97430
   D32        3.10172   0.00270   0.00736   0.00820   0.01392   3.11564
   D33        1.00116   0.00213   0.00757  -0.00477   0.00114   1.00230
         Item               Value     Threshold  Converged?
 Maximum Force            0.043695     0.000450     NO 
 RMS     Force            0.007629     0.000300     NO 
 Maximum Displacement     0.634272     0.001800     NO 
 RMS     Displacement     0.130243     0.001200     NO 
 Predicted change in Energy=-9.988930D-03
 GradGradGradGradGradGradGradGradGradGradGradGradGradGradGradGradGradGrad

                          Input orientation:                          
 ---------------------------------------------------------------------
 Center     Atomic      Atomic             Coordinates (Angstroms)
 Number     Number       Type             X           Y           Z
 ---------------------------------------------------------------------
      1          6           0        0.998468    0.171557   -0.142484
      2          6           0        2.489794   -0.148100   -0.057583
      3          7           0        2.839416   -1.560566    0.061632
      4          6           0        1.959957   -2.615872    0.016353
      5          7           0        0.693334   -2.645625   -0.034432
      6          6           0        4.318211   -1.740782    0.018277
      7          7           0        5.090870   -1.194033    1.114616
      8          6           0        4.727211   -3.145805   -0.101702
      9          7           0        5.139614   -4.188483   -0.187491
     10          1           0        0.898122    1.260024   -0.198083
     11          1           0        0.452708   -0.165800    0.741777
     12          1           0        0.527571   -0.252020   -1.032607
     13          1           0        2.905928    0.386700    0.807127
     14          1           0        2.993385    0.252884   -0.952487
     15          1           0        2.491141   -3.563878    0.044746
     16          1           0        0.267827   -1.721479   -0.057480
     17          1           0        4.670201   -1.236306   -0.891192
     18          1           0        4.797091   -1.602609    1.995425
     19          1           0        4.990460   -0.188538    1.172009
 ---------------------------------------------------------------------
                    Distance matrix (angstroms):
                    1          2          3          4          5
     1  C    0.000000
     2  C    1.527561   0.000000
     3  N    2.535942   1.459968   0.000000
     4  C    2.952872   2.525092   1.374470   0.000000
     5  N    2.835718   3.076594   2.406709   1.267990   0.000000
     6  C    3.834525   2.426005   1.490367   2.515382   3.736476
     7  N    4.493650   3.038688   2.512403   3.609768   4.771347
     8  C    4.991000   3.740885   2.470512   2.820011   4.065325
     9  N    6.013407   4.833541   3.501274   3.553150   4.708847
    10  H    1.094496   2.129783   3.433920   4.024432   3.914437
    11  H    1.092512   2.188380   2.846813   2.966630   2.609585
    12  H    1.092465   2.193579   2.873026   2.956322   2.598687
    13  H    2.141601   1.098591   2.086152   3.245862   3.846919
    14  H    2.154626   1.102382   2.083445   3.199435   3.812402
    15  H    4.026985   3.417311   2.033431   1.087050   2.020289
    16  H    2.030923   2.722620   2.579371   1.915384   1.017661
    17  H    4.003032   2.575514   2.089208   3.173683   4.305309
    18  H    4.706151   3.413804   2.752056   3.604546   4.695638
    19  H    4.218241   2.786909   2.782515   4.051103   5.094906
                    6          7          8          9         10
     6  C    0.000000
     7  N    1.448411   0.000000
     8  C    1.468252   2.328324   0.000000
     9  N    2.590035   3.265669   1.124550   0.000000
    10  H    4.555070   5.032367   5.838026   6.904825   0.000000
    11  H    4.236288   4.765377   5.278567   6.246007   1.764853
    12  H    4.205915   5.130463   5.184356   6.122164   1.766357
    13  H    2.672641   2.714265   4.076963   5.187573   2.409239
    14  H    2.583070   3.281147   3.909101   4.991718   2.444093
    15  H    2.581194   3.676871   2.279527   2.731020   5.085933
    16  H    4.051139   4.991368   4.681535   5.462355   3.050640
    17  H    1.097965   2.049882   2.067058   3.070976   4.576096
    18  H    2.039003   1.014429   2.604665   3.401351   5.311131
    19  H    2.047555   1.012125   3.230645   4.227299   4.552221
                   11         12         13         14         15
    11  H    0.000000
    12  H    1.778054   0.000000
    13  H    2.515515   3.073950   0.000000
    14  H    3.082348   2.518251   1.766861   0.000000
    15  H    4.023431   3.998087   4.044792   3.976732   0.000000
    16  H    1.758729   1.782596   3.485906   3.482501   2.889293
    17  H    4.647561   4.260305   2.937873   2.243469   3.322931
    18  H    4.744440   5.405725   2.990969   3.922549   3.601267
    19  H    4.558159   4.978126   2.193014   2.949007   4.348590
                   16         17         18         19
    16  H    0.000000
    17  H    4.506814   0.000000
    18  H    4.974212   2.912531   0.000000
    19  H    5.115156   2.336062   1.647727   0.000000
 Stoichiometry    C5H10N4
 Framework group  C1[X(C5H10N4)]
 Deg. of freedom    51
 Full point group                 C1      NOp   1
 Largest Abelian subgroup         C1      NOp   1
 Largest concise Abelian subgroup C1      NOp   1
                         Standard orientation:                         
 ---------------------------------------------------------------------
 Center     Atomic      Atomic             Coordinates (Angstroms)
 Number     Number       Type             X           Y           Z
 ---------------------------------------------------------------------
      1          6           0        2.765417   -0.569562   -0.178755
      2          6           0        1.317864   -1.046639   -0.280877
      3          7           0        0.289662   -0.041684   -0.027158
      4          6           0        0.508318    1.295180    0.205551
      5          7           0        1.582685    1.952109    0.353800
      6          6           0       -1.067805   -0.606185   -0.271729
      7          7           0       -1.521459   -1.662401    0.609465
      8          6           0       -2.127867    0.409662   -0.262266
      9          7           0       -3.008134    1.109449   -0.268736
     10          1           0        3.410442   -1.434030   -0.364659
     11          1           0        3.004896   -0.186498    0.815978
     12          1           0        3.009955    0.193922   -0.920896
     13          1           0        1.178668   -1.872781    0.429767
     14          1           0        1.147697   -1.460981   -1.288155
     15          1           0       -0.432801    1.834110    0.279900
     16          1           0        2.420655    1.380530    0.271721
     17          1           0       -1.054213   -1.031181   -1.284014
     18          1           0       -1.534210   -1.341880    1.571842
     19          1           0       -0.925930   -2.478265    0.545379
 ---------------------------------------------------------------------
 Rotational constants (GHZ):           2.5994059           1.1457923           0.8475786
 Standard basis: 6-31G(2df,p) (6D, 7F)
 There are   329 symmetry adapted cartesian basis functions of A   symmetry.
 There are   302 symmetry adapted basis functions of A   symmetry.
   302 basis functions,   466 primitive gaussians,   329 cartesian basis functions
    34 alpha electrons       34 beta electrons
       nuclear repulsion energy       443.3135691539 Hartrees.
 NAtoms=   19 NActive=   19 NUniq=   19 SFac= 1.00D+00 NAtFMM=   60 NAOKFM=F Big=F
 Integral buffers will be    131072 words long.
 Raffenetti 2 integral format.
 Two-electron integral symmetry is turned on.
 One-electron integrals computed using PRISM.
 PrsmSu:  requested number of processors reduced to:  13 ShMem   1 Linda.
 NBasis=   302 RedAO= T EigKep=  1.24D-04  NBF=   302
 NBsUse=   302 1.00D-06 EigRej= -1.00D+00 NBFU=   302
 Initial guess from the checkpoint file:  "CCNpCdNpCpNpCtN.chk"
 B after Tr=    -0.000000    0.000000   -0.000000
         Rot=    0.999333   -0.006127   -0.001337    0.035970 Ang=  -4.18 deg.
 ExpMin= 1.61D-01 ExpMax= 4.17D+03 ExpMxC= 6.27D+02 IAcc=2 IRadAn=         4 AccDes= 0.00D+00
 Harris functional with IExCor=  402 and IRadAn=       4 diagonalized for initial guess.
 HarFok:  IExCor=  402 AccDes= 0.00D+00 IRadAn=         4 IDoV= 1 UseB2=F ITyADJ=14
 ICtDFT=  3500011 ScaDFX=  1.000000  1.000000  1.000000  1.000000
 FoFCou: FMM=F IPFlag=           0 FMFlag=      100000 FMFlg1=           0
         NFxFlg=           0 DoJE=T BraDBF=F KetDBF=T FulRan=T
         wScrn=  0.000000 ICntrl=       500 IOpCl=  0 I1Cent=   200000004 NGrid=           0
         NMat0=    1 NMatS0=      1 NMatT0=    0 NMatD0=    1 NMtDS0=    0 NMtDT0=    0
 Petite list used in FoFCou.
 Requested convergence on RMS density matrix=1.00D-08 within 128 cycles.
 Requested convergence on MAX density matrix=1.00D-06.
 Requested convergence on             energy=1.00D-06.
 No special actions if energy rises.
 Integral accuracy reduced to 1.0D-05 until final iterations.
 Initial convergence to 1.0D-05 achieved.  Increase integral accuracy.
 SCF Done:  E(RB3LYP) =  -415.519932024     A.U. after   13 cycles
            NFock= 13  Conv=0.42D-08     -V/T= 2.0069
 PrsmSu:  requested number of processors reduced to:  13 ShMem   1 Linda.
 Calling FoFJK, ICntrl=      2127 FMM=F ISym2X=0 I1Cent= 0 IOpClX= 0 NMat=1 NMatS=1 NMatT=0.
 ***** Axes restored to original set *****
 -------------------------------------------------------------------
 Center     Atomic                   Forces (Hartrees/Bohr)
 Number     Number              X              Y              Z
 -------------------------------------------------------------------
      1        6           0.000534629    0.011468452   -0.000551013
      2        6          -0.003740652   -0.002026905   -0.000274367
      3        7           0.018099199    0.007063189    0.000853461
      4        6           0.001461207   -0.004125516    0.000956685
      5        7          -0.010452764   -0.004276983   -0.000188237
      6        6          -0.008802615   -0.000390307   -0.001460865
      7        7          -0.001878170    0.001706386    0.002487345
      8        6          -0.028315442    0.069150016    0.003602790
      9        7           0.027358490   -0.074000622   -0.006193887
     10        1          -0.000551321    0.000707634   -0.000246357
     11        1           0.001262745    0.004217865    0.000803204
     12        1           0.001593986    0.003576843   -0.000758359
     13        1          -0.000262287    0.001041528   -0.000689166
     14        1          -0.000509807    0.001351975    0.000562264
     15        1           0.000533407   -0.003627385    0.000078401
     16        1           0.002323571   -0.014363404    0.000641218
     17        1           0.000946489    0.001125488   -0.001035970
     18        1          -0.000078629    0.000633343    0.001159516
     19        1           0.000477965    0.000768405    0.000253339
 -------------------------------------------------------------------
 Cartesian Forces:  Max     0.074000622 RMS     0.015043931

 GradGradGradGradGradGradGradGradGradGradGradGradGradGradGradGradGradGrad
 Berny optimization.
 Using GEDIIS/GDIIS optimizer.
 FormGI is forming the generalized inverse of G from B-inverse, IUseBI=4.
 Internal  Forces:  Max     0.079118694 RMS     0.014006918
 Search for a local minimum.
 Step number   3 out of a maximum of   91
 All quantities printed in internal units (Hartrees-Bohrs-Radians)
 Mixed Optimization -- RFO/linear search
 Update second derivatives using D2CorX and points    1    3    2
 DE=  1.11D-03 DEPred=-9.99D-03 R=-1.11D-01
 Trust test=-1.11D-01 RLast= 3.28D-01 DXMaxT set to 2.52D-01
 ITU= -1  1  0
 Use linear search instead of GDIIS.
     Eigenvalues ---    0.00230   0.00578   0.00593   0.00665   0.00872
     Eigenvalues ---    0.01074   0.01717   0.03228   0.03531   0.03573
     Eigenvalues ---    0.03892   0.04185   0.05296   0.05448   0.05569
     Eigenvalues ---    0.06059   0.06421   0.09928   0.11474   0.13208
     Eigenvalues ---    0.15083   0.16000   0.16000   0.16000   0.16000
     Eigenvalues ---    0.16025   0.16059   0.19644   0.21921   0.23230
     Eigenvalues ---    0.23743   0.24359   0.27569   0.30419   0.31547
     Eigenvalues ---    0.32667   0.34153   0.34167   0.34242   0.34257
     Eigenvalues ---    0.34285   0.34546   0.34618   0.34849   0.38671
     Eigenvalues ---    0.44614   0.45616   0.45995   0.65782   0.72042
     Eigenvalues ---    1.08317
 RFO step:  Lambda=-7.80271824D-03 EMin= 2.30147878D-03
 Quartic linear search produced a step of -0.50492.
 Iteration  1 RMS(Cart)=  0.15849896 RMS(Int)=  0.00595413
 Iteration  2 RMS(Cart)=  0.01121656 RMS(Int)=  0.00045117
 Iteration  3 RMS(Cart)=  0.00004929 RMS(Int)=  0.00045069
 Iteration  4 RMS(Cart)=  0.00000001 RMS(Int)=  0.00045069
 Variable       Old X    -DE/DX   Delta X   Delta X   Delta X     New X
                                 (Linear)    (Quad)   (Total)
    R1        2.88667   0.00145  -0.00815   0.01105   0.00289   2.88956
    R2        2.06830   0.00077  -0.00089   0.00179   0.00090   2.06919
    R3        2.06455  -0.00128   0.00015  -0.00100  -0.00085   2.06369
    R4        2.06446  -0.00146  -0.00013  -0.00096  -0.00110   2.06336
    R5        2.75894   0.02017   0.01979  -0.00163   0.01816   2.77710
    R6        2.07604  -0.00013  -0.00105   0.00061  -0.00044   2.07559
    R7        2.08320  -0.00020  -0.00320   0.00351   0.00032   2.08352
    R8        2.59737   0.02414   0.05241  -0.03838   0.01403   2.61140
    R9        2.81638  -0.01006   0.02752  -0.05458  -0.02706   2.78933
   R10        2.39615   0.00854   0.00618  -0.00017   0.00601   2.40216
   R11        2.05423   0.00343   0.00008   0.00620   0.00628   2.06051
   R12        1.92310  -0.01403  -0.01210   0.00378  -0.00832   1.91478
   R13        2.73710   0.00334  -0.00132   0.00591   0.00459   2.74169
   R14        2.77459   0.00459   0.02308  -0.01996   0.00312   2.77772
   R15        2.07485   0.00168  -0.00316   0.00707   0.00391   2.07876
   R16        1.91699   0.00077   0.00053   0.00112   0.00165   1.91864
   R17        1.91264   0.00073  -0.00069   0.00203   0.00133   1.91397
   R18        2.12509   0.07912   0.04725   0.00838   0.05563   2.18072
    A1        1.87595  -0.00038   0.01989  -0.03301  -0.01322   1.86273
    A2        1.95853   0.00069  -0.00980   0.01812   0.00825   1.96678
    A3        1.96597   0.00013  -0.00991   0.01599   0.00600   1.97197
    A4        1.87801  -0.00146  -0.00751   0.00353  -0.00406   1.87395
    A5        1.88040  -0.00124  -0.00691   0.00285  -0.00415   1.87625
    A6        1.90120   0.00204   0.01447  -0.00874   0.00569   1.90688
    A7        2.02727   0.04257   0.03032   0.03565   0.06575   2.09302
    A8        1.88776  -0.01269  -0.01223  -0.00165  -0.01463   1.87313
    A9        1.90154  -0.01238  -0.00373  -0.01844  -0.02218   1.87936
   A10        1.89229  -0.01214  -0.01193   0.00635  -0.00606   1.88623
   A11        1.88473  -0.01249  -0.00766  -0.00635  -0.01364   1.87108
   A12        1.86383   0.00479   0.00343  -0.01994  -0.01681   1.84702
   A13        2.19801   0.04909   0.02891   0.03309   0.06155   2.25956
   A14        1.93074  -0.01886   0.00914  -0.03665  -0.02752   1.90323
   A15        2.14252  -0.03011  -0.03656  -0.00238  -0.03873   2.10379
   A16        2.28962   0.03353   0.03058   0.01194   0.04251   2.33212
[...]
 18436,-0.00158293,0.00405690,-0.00072377,-0.01002532,-0.03581135,0.011
 24354,-0.03218828,-0.20661392,0.08813061,-0.11196391,0.56327368,0.0007
 1983,-0.00129585,-0.00062723,-0.00145023,0.01825696,-0.00529393,0.0446
 1389,0.07342664,-0.09956678,-0.18697033,-0.13987626,0.28816490,-0.0002
 1701,-0.00314708,-0.00065678,-0.00389059,0.00755716,-0.00048208,-0.041
 97273,-0.03124810,0.03075833,-0.54452723,0.00367648,0.15741336,0.73542
 444,0.00016713,0.00004250,-0.00030260,-0.00217265,0.00164835,-0.002507
 84,-0.03997651,0.00911438,0.02158565,0.05045616,-0.10541176,0.00136126
 ,-0.16161629,0.38976253,-0.00142782,-0.00034275,-0.00015845,0.00122654
 ,-0.00468982,0.00016360,0.03876588,0.01704570,0.00805960,0.13558611,0.
 01808934,-0.11767404,-0.14268476,-0.09246895,0.15714357,0.00118051,-0.
 00237273,0.00039964,-0.01623755,0.01507583,0.00341484,-0.13343399,0.02
 583267,0.03286732,-0.03094129,-0.01884907,0.01988682,0.01121236,0.0031
 0664,-0.00420503,0.39814638,-0.00055391,0.00037099,0.00018036,0.021653
 47,-0.00753349,-0.01281460,0.00741754,-0.09907762,0.01904100,-0.028130
 78,0.01568502,0.00103467,-0.00229551,-0.00664852,0.00644560,0.04813277
 ,0.59052119,-0.00202780,0.00311530,0.00083773,-0.00930415,-0.00484078,
 0.00147138,0.04223417,0.01531923,-0.08141594,0.01656906,-0.00796547,-0
 .01477364,-0.00103475,0.00477987,0.00532027,0.00842457,-0.05063433,0.4
 9547547,-0.00095900,0.00226527,-0.00007498,-0.00374498,-0.00824914,0.0
 0075030,-0.04492055,0.02390203,-0.01670543,0.00508964,0.00434008,-0.00
 509484,-0.00411344,-0.00089080,0.00258796,-0.10491822,0.01579841,-0.04
 004820,0.20247379,0.00026124,-0.00034307,-0.00022803,0.00133240,0.0008
 4140,-0.00016865,0.01676103,0.00179868,0.00535010,-0.00094798,-0.00413
 313,0.00238494,0.00089648,0.00142710,-0.00114528,0.02832737,-0.1181007
 2,0.02351596,0.01512075,0.70324961,0.00018122,-0.00034098,-0.00008720,
 0.00074250,-0.00030048,0.00032537,-0.00433717,-0.00168494,0.01371699,0
 .00020746,0.00425155,-0.00084248,-0.00047518,-0.00163376,0.00080944,-0
 .09279544,0.03230073,-0.14668312,0.10190000,0.03395094,0.55727501,-0.0
 0015515,0.00020430,-0.00025046,0.00055487,-0.00068479,0.00427281,-0.01
 712211,0.02088889,0.02740869,0.00300595,0.00619381,-0.00061870,-0.0023
 4139,-0.00131694,-0.00007880,-0.05613328,-0.01137449,-0.00815348,-0.00
 327367,-0.01616150,-0.02374652,0.11654763,0.00031881,-0.00046819,0.000
 27364,0.00013851,-0.00017708,-0.00102288,0.01674029,-0.00565566,-0.010
 34585,-0.00115549,0.00176153,0.00211037,0.00012274,-0.00100506,-0.0010
 3893,-0.01409985,-0.14048211,-0.07855800,-0.00373721,0.00635045,0.0015
 1281,0.05165966,0.70712937,-0.00000893,-0.00023182,0.00046849,0.000374
 17,-0.00000262,-0.00068755,0.02045358,-0.01532456,-0.01358023,-0.00037
 790,-0.00091452,0.00018983,-0.00012089,-0.00017095,0.00012686,-0.00998
 449,-0.06885225,-0.15599691,-0.01528460,-0.02224040,-0.03673551,0.0676
 0584,0.71121678,0.95061286,0.00006516,0.00009751,-0.00036081,-0.000353
 20,0.00025679,-0.00131839,0.00322794,-0.00152013,-0.00246768,-0.000626
 20,-0.00168309,0.00048891,0.00074503,0.00050873,0.00002398,0.01322207,
 0.00181347,0.00162427,0.00050152,0.00153847,0.00138594,-0.03878345,-0.
 04816492,-0.05705167,0.02169211,-0.00019801,0.00005273,0.00017439,-0.0
 0009616,0.00028707,-0.00072906,-0.00057502,0.00059868,-0.00114064,-0.0
 0067311,-0.00273749,0.00101398,0.00087192,0.00087543,-0.00010967,-0.00
 126446,0.01144312,-0.00438095,0.00076042,-0.00278677,-0.00156984,-0.04
 620139,-0.54338882,-0.60316679,0.04725607,0.53253052,0.00012992,0.0001
 0185,-0.00051691,-0.00068977,0.00072801,-0.00141075,0.00006733,0.00064
 405,-0.00066804,-0.00109008,-0.00164642,0.00095294,0.00110630,0.000465
 08,-0.00047446,-0.00259845,-0.00729254,0.01289124,0.00080179,-0.000303
 60,0.00148419,-0.05472542,-0.60317890,-0.74878176,0.05586075,0.6107810
 3,0.73915464,-0.10256495,0.10323987,-0.02985339,-0.00752112,0.01403165
 ,-0.00142554,-0.00114088,0.00107830,-0.00458180,-0.00186383,-0.0011445
 1,0.00065864,0.00098949,0.00017878,-0.00000960,0.00088594,-0.00021743,
 -0.00019716,-0.00042165,0.00008233,0.00001692,0.00003455,-0.00002796,0
 .00011048,-0.00003863,0.00005573,-0.00006646,0.10842315,0.10407272,-0.
 23987692,0.05525093,-0.00303758,0.00376098,-0.00175159,-0.00058582,0.0
 0127093,-0.00065649,-0.00020569,0.00040241,-0.00046033,0.00002398,0.00
 007948,0.00020137,-0.00040074,0.00016384,-0.00009978,0.00007254,-0.000
 01987,0.00001895,-0.00004819,-0.00008256,-0.00011392,0.00010620,0.0000
 1419,0.00006746,-0.11448951,0.25835414,-0.02921804,0.05363077,-0.06270
 718,-0.01082770,0.02505253,-0.00469857,-0.00423216,0.00150210,-0.00575
 514,-0.00200425,-0.00129806,0.00089577,0.00099402,0.00002164,-0.000217
 27,0.00099547,-0.00027137,-0.00155816,-0.00088562,0.00023680,0.0001582
 8,-0.00014383,-0.00004186,-0.00018409,0.00023265,0.00000462,0.00027982
 ,0.03474920,-0.06035997,0.06662098,-0.17321637,-0.13130807,0.01928552,
 -0.01223626,-0.01210980,0.00075018,0.00122948,0.00050548,0.00110430,-0
 .00115353,-0.00008256,0.00020957,0.00078879,0.00020777,0.00051953,-0.0
 0047726,-0.00016100,0.00015977,0.00013379,0.00007300,-0.00002739,-0.00
 005226,-0.00013836,-0.00010022,0.00014788,0.00009090,0.00001674,0.0116
 9070,0.01162932,-0.00126694,0.18610655,-0.13251244,-0.18636108,0.01898
 802,-0.00160721,-0.00336530,0.00050455,0.00026375,0.00134459,-0.000603
 65,-0.00056451,-0.00014851,0.00052933,0.00027386,0.00000025,0.00038436
 ,0.00020238,-0.00001785,-0.00011781,-0.00008985,0.00003449,-0.00001597
 ,-0.00000561,0.00004599,0.00000953,-0.00002933,-0.00001496,0.00001484,
 -0.01927158,-0.01835416,0.00252497,0.14605240,0.19923045,0.01976848,0.
 02098023,-0.04965858,-0.02185798,-0.02360603,0.00237095,0.00253562,0.0
 0096328,0.00178124,-0.00184522,-0.00041595,0.00077465,0.00133653,0.000
 29517,-0.00036827,-0.00038625,0.00021365,0.00023538,0.00018695,-0.0000
 2709,-0.00005608,0.00007153,-0.00002609,-0.00005931,-0.00010997,-0.000
 02287,-0.00000956,0.00587898,0.00492720,-0.00179027,-0.01858206,-0.020
 58219,0.05421957,-0.15185366,0.04220139,0.12361101,0.01178789,-0.00522
 721,-0.01580009,0.00132020,-0.00077628,0.00152669,-0.00014989,0.000092
 49,0.00015317,0.00021181,0.00005659,0.00021668,0.00001722,0.00030963,0
 .00014160,0.00006741,-0.00013036,-0.00003833,-0.00031387,0.00024071,-0
 .00021782,-0.00026455,0.00016766,0.00001859,-0.00939529,0.00216656,0.0
 1043749,-0.01368137,0.00695655,0.01562519,0.16254082,0.04146178,-0.063
 79682,-0.04968895,0.00308543,-0.00235395,-0.00288542,-0.00057357,0.000
 57153,0.00016307,-0.00074928,-0.00040025,0.00037335,0.00053403,-0.0000
 1695,0.00019742,0.00016692,0.00057958,0.00031564,-0.00004798,-0.000157
 17,-0.00007998,0.00028286,0.00009197,0.00039516,-0.00015464,-0.0002053
 7,-0.00033568,0.01675072,-0.00627011,-0.02106965,-0.01477859,0.0065842
 6,0.01812642,-0.04558830,0.06462415,0.12230974,-0.04843714,-0.19156847
 ,0.01820872,-0.00813396,-0.02279357,0.00044229,-0.00022728,0.00282103,
 0.00037727,0.00053271,-0.00040045,-0.00029982,-0.00003847,0.00021480,-
 0.00009429,0.00037063,-0.00091515,-0.00017134,0.00000644,0.00016235,-0
 .00045797,0.00003955,-0.00037244,0.00037174,-0.00000959,0.00047277,-0.
 00591488,0.00192228,0.00694910,0.00157686,-0.00064464,-0.00231108,-0.1
 3216609,0.05545847,0.21040642,0.01119008,-0.00528286,-0.01387334,-0.14
 461743,0.04469296,0.11454347,-0.01587960,0.01024179,0.00702745,-0.0023
 0016,-0.00223327,0.00136967,0.00126710,-0.00129285,-0.00007317,0.00031
 886,0.00267001,0.00058118,-0.00059118,0.00032485,-0.00005604,-0.000826
 96,0.00040469,0.00002680,0.00021730,0.00009352,0.00030869,0.00067828,0
 .00016264,0.00105781,0.00074454,-0.00005218,0.00067148,-0.00121283,-0.
 00075188,-0.00375628,0.16380691,0.00277631,-0.00030279,-0.00492793,0.0
 4088423,-0.06829195,-0.05037573,0.02557039,-0.01539545,-0.01581267,0.0
 0400397,0.00233979,-0.00221824,-0.00208497,0.00049237,0.00147586,-0.00
 175897,-0.00414499,0.00029137,0.00066049,0.00000809,0.00012052,0.00094
 587,0.00027677,-0.00033345,-0.00024067,-0.00023953,-0.00016492,-0.0001
 2969,0.00033191,0.00019539,0.00048723,-0.00011482,0.00019048,-0.000488
 44,0.00094183,-0.00073355,-0.05435884,0.07802268,0.01723636,-0.0074146
 1,-0.02310278,0.11825036,-0.05393066,-0.18590195,-0.00881386,0.0027329
 1,0.01165275,0.00089133,0.00058307,0.00024801,0.00018308,0.00020931,-0
 .00084400,-0.00097414,0.00194552,-0.00043287,-0.00039185,0.00016422,-0
 .00002855,-0.00043099,0.00003902,-0.00001810,0.00019153,0.00004212,0.0
 0022585,0.00011212,0.00062856,0.00077383,0.00005200,-0.00014799,0.0014
 3334,-0.00415174,-0.00051559,-0.00399920,-0.12339745,0.05557214,0.2017
 6399,-0.01181246,-0.01160311,0.00135734,-0.17357200,-0.13046273,0.0213
 5272,0.01099404,0.01658356,-0.00351079,-0.00361814,0.00190901,0.000359
 39,0.00091577,-0.00062000,-0.00015413,0.00000416,0.00294556,-0.0003464
 8,0.00113335,0.00011779,0.00009622,-0.00006622,-0.00047204,-0.00013739
 ,0.00003546,0.00009586,0.00004516,0.00004146,0.00038294,0.00007500,-0.
 00041222,0.00023648,-0.00348741,0.00110619,0.00040394,-0.00006212,-0.0
 1337438,-0.01413712,0.00192126,0.18801071,-0.00474421,-0.00226376,-0.0
 0051088,-0.12210004,-0.17388027,0.01730253,-0.01544338,-0.03026300,0.0
 1128575,0.00533699,-0.00261314,-0.00263246,-0.00040929,0.00060914,0.00
 030846,-0.00370848,-0.00000865,0.00206143,0.00057018,0.00051084,-0.000
 29441,0.00031417,0.00017715,-0.00032015,-0.00005775,-0.00002607,0.0000
 0458,-0.00017759,0.00034307,-0.00033527,-0.00017542,0.00127102,-0.0007
 2528,0.00027564,-0.00003630,0.00016101,0.00597138,0.00778707,-0.000539
 91,0.13390945,0.19892547,-0.02245424,-0.02141825,0.00197313,0.01798705
 ,0.01824103,-0.04990266,0.00712703,0.01072403,-0.00381442,-0.00008783,
 0.00197611,0.00036128,-0.00047112,0.00102773,0.00013278,0.00112656,-0.
 00112162,0.00009160,-0.00053089,0.00000851,-0.00011074,-0.00009650,-0.
 00005674,0.00001242,0.00007602,0.00002611,0.00006363,0.00062449,0.0005
 8194,0.00105528,-0.00322815,-0.00049944,-0.00519181,0.00094335,-0.0000
 9352,0.00137373,0.01571113,0.01644741,-0.00227262,-0.01662289,-0.02552
 648,0.05626809,0.00007963,-0.00037316,0.00002397,-0.00172674,-0.000973
 05,0.00196971,0.01116639,-0.01240937,0.00379154,-0.12677899,0.11562608
 ,-0.02433687,-0.03186962,0.02497637,-0.00163418,-0.00101864,-0.0003584
 1,0.00080160,-0.00116579,-0.00070058,0.00039862,0.00012783,-0.00010105
 ,0.00009560,-0.00019022,-0.00020522,0.00006314,0.00004840,0.00003571,0
 .00009517,-0.00000315,0.00007286,0.00009151,0.00003725,0.00003619,-0.0
 0003437,-0.00002373,-0.00000191,-0.00029982,0.00025847,-0.00061438,0.0
 0023547,0.15608159,0.00028019,-0.00056573,-0.00001860,-0.00421462,0.00
 069557,0.00153320,0.01283849,-0.02648806,0.01107910,0.11242877,-0.2227
 0756,0.03978731,0.00438036,0.00440712,-0.00463832,0.00280081,-0.001863
 42,0.00090110,0.00105660,0.00129179,-0.00150505,-0.00061777,-0.0001277
 4,0.00020828,0.00023951,0.00028932,-0.00001733,0.00010225,0.00006164,0
 .00022886,-0.00003642,0.00001582,0.00002387,-0.00001571,-0.00000934,0.
 00006632,0.00016644,0.00029641,-0.00024521,0.00049953,-0.00098142,0.00
 045206,-0.12840493,0.24098961,0.00034882,-0.00074250,0.00030326,0.0035
 0123,0.00304671,0.00256266,-0.00647387,0.01717877,-0.00031037,-0.02318
 682,0.03953405,-0.05782600,0.00758089,-0.01131448,-0.00006303,-0.00146
 410,0.00078645,-0.00045109,0.00002571,-0.00013572,-0.00002069,0.000403
 01,0.00005699,-0.00018910,-0.00013803,-0.00032759,-0.00012736,0.000029
 56,-0.00004411,0.00014998,-0.00016247,-0.00016136,-0.00014884,-0.00005
 023,-0.00001185,-0.00004871,0.00010326,0.00035525,-0.00016855,-0.00078
 083,0.00107593,-0.00017808,0.01483397,-0.05220294,0.04538358,0.0003959
 6,0.00007709,0.00024803,-0.00059862,0.00017312,0.00112761,0.00333246,-
 0.00008121,-0.00387544,-0.03250377,0.04266646,-0.00722341,-0.12367220,
 0.13039902,-0.02940496,-0.00076282,0.00095801,-0.00075052,0.00033193,-
 0.00042999,0.00038456,0.00029107,0.00028170,0.00007265,-0.00008882,-0.
 00024294,-0.00013081,0.00003304,0.00017033,-0.00014357,0.00026258,0.00
 003469,0.00004205,-0.00012860,-0.00002792,-0.00022863,0.00012112,-0.00
 224216,-0.00029731,0.00056563,-0.00021408,-0.00059356,-0.00328921,0.00
 014108,0.00553057,0.15547615,0.00042937,0.00032192,0.00024327,-0.00164
 395,-0.00006295,0.00120772,-0.00323964,-0.00183842,-0.00181912,-0.0092
 0799,-0.00599524,0.00745811,0.18263208,-0.29609036,0.06063234,0.000540
 83,-0.00052705,-0.00049070,0.00021722,0.00012773,-0.00008405,0.0001040
 3,0.00041139,0.00006466,-0.00003500,-0.00006621,-0.00003520,-0.0001532
 2,-0.00016702,0.00002854,-0.00027892,-0.00012124,-0.00022743,-0.000132
 68,-0.00009711,-0.00012211,-0.00123634,-0.00229133,0.00092825,0.000010
 12,0.00022374,-0.00058509,0.00374661,0.00359910,0.00316847,-0.17146939
 ,0.30229824,0.00036208,0.00110534,-0.00026510,0.00104709,-0.00001125,-
 0.00093858,-0.00277325,-0.00285430,-0.00554883,0.01666325,-0.00963960,
 0.00305109,-0.05416801,0.07824444,-0.05075018,0.00033598,-0.00060953,-
 0.00111868,-0.00030258,-0.00005043,-0.00004915,0.00038414,0.00060870,-
 0.00006995,-0.00018008,-0.00017656,0.00004281,-0.00018697,-0.00012118,
 -0.00008248,-0.00028570,-0.00014791,-0.00105601,-0.00022993,-0.0002810
 3,0.00007336,0.00010589,-0.00004973,0.00072866,0.00002968,-0.00034296,
 -0.00012395,0.00393573,0.00455852,0.01070756,0.03520485,-0.07036320,0.
 04506913,-0.00020109,0.00047349,-0.00019906,-0.00084611,-0.00347700,0.
 00103241,-0.02060715,-0.02518853,0.01790538,-0.00475571,0.00431334,-0.
 00007257,-0.00077418,-0.00175030,0.00107265,-0.07003341,-0.07304611,0.
 03211720,0.00135807,0.02643883,-0.01260416,0.00076194,-0.00364117,-0.0
 0195063,0.00026775,0.00052532,0.00059527,-0.00002079,0.00001348,-0.000
 13333,0.00020380,0.00000804,0.00013795,-0.00007833,-0.00007367,-0.0001
 8613,0.00040110,0.00025303,-0.00010523,-0.00001440,0.00160936,0.000095
 50,0.00013182,-0.00011037,-0.00015719,0.00021086,0.00000335,-0.0000098
 0,0.09433331,-0.00031426,-0.00026906,-0.00001856,0.00305510,0.00171990
 ,-0.00104021,0.00193445,0.00309102,-0.00046757,0.00115973,-0.00028983,
 -0.00076383,0.00045808,0.00050862,-0.00033946,-0.07907398,-0.24034425,
 0.08137690,0.00535410,-0.00969354,0.00793178,-0.00668427,-0.02597993,-
 0.00053733,0.00057404,0.00259872,-0.00052479,0.00007902,-0.00000893,-0
 .00002939,0.00004571,-0.00002311,-0.00008097,-0.00011900,-0.00006948,-
 0.00015252,0.00044867,0.00029928,-0.00003997,0.00009080,0.00030690,-0.
 00020954,0.00012098,0.00009888,-0.00012045,-0.00015866,0.00019477,0.00
 001749,0.07290407,0.26561982,-0.00003713,-0.00022442,0.00031420,-0.001
 22126,0.00153694,0.00034947,0.01325425,0.01477511,-0.00702551,0.001782
 07,-0.00226820,0.00178400,0.00077377,0.00090202,-0.00100787,0.02919808
 ,0.07061161,-0.08022136,-0.00169220,0.02698600,-0.00966686,-0.00828727
 ,-0.02589771,0.00880412,0.00096161,0.00105002,-0.00380297,0.00005822,0
 .00001483,0.00006331,-0.00000255,-0.00004220,-0.00017530,-0.00002113,-
 0.00008677,-0.00009642,-0.00031071,-0.00004080,-0.00006560,-0.00002741
 ,-0.00087884,0.00038512,-0.00016194,-0.00001522,-0.00013429,-0.0000813
 6,-0.00003059,0.00017768,-0.03310453,-0.08698927,0.09400411,0.00008311
 ,-0.00015932,0.00000589,-0.00063962,0.00061116,0.00004514,0.00046594,-
 0.00058691,-0.00034317,-0.00148550,0.00274354,-0.00091879,0.00093638,-
 0.00073480,0.00003548,-0.00194459,0.02950636,-0.01133008,-0.03288525,-
 0.10134940,0.00992760,0.00019259,0.00005785,0.00143662,-0.00016663,-0.
 00001561,-0.00014501,0.00005064,-0.00002323,0.00007406,-0.00003621,0.0
 0001563,-0.00003156,0.00000395,-0.00000113,0.00003956,-0.00005769,0.00
 004979,-0.00001665,-0.00011459,-0.00017816,0.00015661,-0.00183462,-0.0
 0138942,0.00018526,0.00016207,-0.00020927,0.00008124,-0.00083023,-0.00
 005101,-0.00195465,0.04156990,-0.00005092,0.00015156,0.00001185,-0.000
 02795,-0.00066072,0.00017073,-0.00164480,0.00069519,-0.00015156,0.0005
 8728,-0.00057672,-0.00059866,-0.00083640,0.00011035,0.00002077,-0.0033
 7526,-0.00924934,0.00449657,-0.05798263,-0.38415893,0.09610837,0.00015
 391,0.00166300,-0.00046127,0.00003549,-0.00041295,0.00007614,-0.000036
 13,0.00001164,-0.00006207,0.00000905,-0.00000367,0.00002973,0.00001147
 ,0.00000564,-0.00001704,-0.00002740,0.00002946,-0.00002361,0.00017631,
 0.00006518,-0.00008995,-0.00051831,0.00119577,-0.00008109,-0.00000836,
 0.00015511,0.00013191,0.00119335,0.00196239,0.00073857,0.06938954,0.40
 898352,0.00001053,-0.00003424,0.00006703,0.00008027,0.00008909,0.00008
 036,0.00021157,-0.00105997,0.00102412,-0.00010982,0.00043389,0.0001380
 3,-0.00004536,-0.00035074,-0.00014847,0.01035051,0.02566206,-0.0105302
 4,-0.00145952,0.11621698,-0.08827870,0.00067730,0.00232247,0.00095595,
 0.00005706,-0.00096598,-0.00019509,-0.00001066,-0.00000751,-0.00001755
 ,-0.00003603,-0.00000296,0.00000172,0.00002726,0.00005595,0.00001031,-
 0.00006151,-0.00004376,0.00000155,-0.00006890,-0.00017022,-0.00005572,
 0.00025263,-0.00008763,0.00052293,0.00010748,0.00003653,0.00011127,-0.
 00481372,0.00192716,-0.00385655,-0.00078478,-0.11117333,0.09056926,0.0
 0013218,-0.00031035,0.00000569,-0.00000462,0.00110359,-0.00071133,0.00
 424629,-0.00038372,0.00240777,-0.00196727,-0.00180833,0.00081249,0.000
 88721,0.00031396,-0.00036236,-0.00908647,-0.01506758,-0.02946081,-0.01
 409575,0.02844526,0.01883919,-0.00244807,0.00157310,-0.00494118,0.0003
 8949,-0.00044550,0.00043233,0.00009147,-0.00004564,0.00014457,-0.00003
 949,0.00001605,-0.00004583,-0.00001436,0.00002508,0.00004573,0.0001386
 7,-0.00018856,0.00004098,-0.00008084,-0.00016438,0.00000197,-0.0000306
 9,-0.00014481,-0.00012873,-0.00013882,-0.00007723,-0.00001363,0.000492
 73,0.00017643,0.00087413,-0.00346967,-0.00704825,-0.00438432,0.0249980
 0,0.00003168,-0.00018660,0.00005049,0.00021579,0.00055935,0.00010011,0
 .00052093,-0.00058769,0.00004461,-0.00031674,-0.00008044,0.00010870,0.
 00021047,0.00009504,-0.00002804,0.00071732,0.00923429,0.01091446,0.000
 87950,-0.19624698,-0.16868618,0.00234744,-0.00054047,0.00077562,-0.000
 54077,0.00118838,0.00061636,0.00004897,-0.00001467,0.00004145,-0.00003
 171,-0.00000214,-0.00003613,-0.00000073,0.00001390,-0.00004109,0.00005
 866,-0.00004481,0.00001246,-0.00006636,-0.00014698,0.00011571,0.000045
 57,-0.00019773,-0.00006054,-0.00002680,-0.00007505,-0.00001872,-0.0004
 4851,0.00027782,-0.00014109,0.00232440,-0.01996648,-0.03284779,-0.0059
 6910,0.20672126,0.00011779,-0.00008660,-0.00008533,-0.00004367,0.00014
 690,0.00016103,0.00148459,0.00009467,0.00301144,-0.00049499,-0.0000266
 2,0.00044405,0.00029246,-0.00010437,-0.00026491,0.00550240,-0.01699605
 ,-0.02222591,-0.02361066,-0.18452168,-0.29137257,-0.00383341,0.0019866
 5,-0.00449559,0.00035217,-0.00049271,0.00041900,0.00000785,0.00000137,
 0.00006436,0.00001704,0.00001053,0.00000825,-0.00002567,-0.00003704,0.
 00002162,0.00002168,0.00005237,0.00000623,-0.00003842,0.00007718,-0.00
 006705,-0.00012147,-0.00010830,0.00003616,0.00001175,-0.00001041,0.000
 04136,0.00037997,0.00006053,0.00017072,0.00353724,0.01087396,0.0095997
 8,0.01644335,0.18907962,0.30452737\\0.00000548,0.00000590,-0.00001195,
 -0.00003153,-0.00000461,0.00003841,0.00003260,0.00002585,-0.00000678,-
 0.00000205,-0.00003437,-0.00002073,0.00001259,0.00000794,0.00000248,-0
 .00002661,0.00000507,0.00000223,0.00000845,-0.00000539,0.00000416,0.00
 002620,0.00003241,0.00006264,-0.00000963,-0.00004923,-0.00006873,-0.00
 000319,0.00000150,0.00000014,-0.00000360,-0.00000310,-0.00000253,-0.00
 000106,-0.00000184,0.00000467,-0.00000025,-0.00000430,-0.00000947,-0.0
 0000305,-0.00000121,-0.00000952,0.00000122,0.00000550,0.00001351,-0.00
 000467,0.00001280,-0.00000358,0.00000493,0.00000274,-0.00000037,-0.000
 00269,0.00000383,0.00000067,-0.00000313,0.00000052,0.00000476\\\@


 THE LENGTH OF A MEETING IS PROPORTIONAL TO THE
 SQUARE OF THE PARTICIPANTS.
 Job cpu time:       0 days  2 hours  3 minutes 36.4 seconds.
 Elapsed time:       0 days  0 hours 30 minutes 54.8 seconds.
 File lengths (MBytes):  RWF=    137 Int=      0 D2E=      0 Chk=      8 Scr=      1
 Normal termination of Gaussian 16 at Mon May 31 19:42:01 2021.
### All Done ###
