### Starting Gaussian ###
 Entering Gaussian System, Link 0=g16
 Initial command:
 /cluster/software/gaussian/gaussian-16-A.03/avx2/g16/l1.exe "/local/scratch/linjian/Gau-29501.inp" -scrdir="/local/scratch/linjian/"
 Entering Link 1 = /cluster/software/gaussian/gaussian-16-A.03/avx2/g16/l1.exe PID=     29504.
  
 Copyright (c) 1988,1990,1992,1993,1995,1998,2003,2009,2016,
            Gaussian, Inc.  All Rights Reserved.
  
 This is part of the Gaussian(R) 16 program.  It is based on
 the Gaussian(R) 09 system (copyright 2009, Gaussian, Inc.),
 the Gaussian(R) 03 system (copyright 2003, Gaussian, Inc.),
 the Gaussian(R) 98 system (copyright 1998, Gaussian, Inc.),
 the Gaussian(R) 94 system (copyright 1995, Gaussian, Inc.),
 the Gaussian 92(TM) system (copyright 1992, Gaussian, Inc.),
 the Gaussian 90(TM) system (copyright 1990, Gaussian, Inc.),
 the Gaussian 88(TM) system (copyright 1988, Gaussian, Inc.),
 the Gaussian 86(TM) system (copyright 1986, Carnegie Mellon
 University), and the Gaussian 82(TM) system (copyright 1983,
 Carnegie Mellon University). Gaussian is a federally registered
 trademark of Gaussian, Inc.
  
 This software contains proprietary and confidential information,
 including trade secrets, belonging to Gaussian, Inc.
  
 This software is provided under written license and may be
 used, copied, transmitted, or stored only in accord with that
 written license.
  
 The following legend is applicable only to US Government
 contracts under FAR:
  
                    RESTRICTED RIGHTS LEGEND
  
 Use, reproduction and disclosure by the US Government is
 subject to restrictions as set forth in subparagraphs (a)
 and (c) of the Commercial Computer Software - Restricted
 Rights clause in FAR 52.227-19.
  
 Gaussian, Inc.
 340 Quinnipiac St., Bldg. 40, Wallingford CT 06492
  
  
 ---------------------------------------------------------------
 Warning -- This program may not be used in any manner that
 competes with the business of Gaussian, Inc. or will provide
 assistance to any competitor of Gaussian, Inc.  The licensee
 of this program is prohibited from giving any competitor of
 Gaussian, Inc. access to this program.  By using this program,
 the user acknowledges that Gaussian, Inc. is engaged in the
 business of creating and licensing software in the field of
 computational chemistry and represents and warrants to the
 licensee that it is not a competitor of Gaussian, Inc. and that
 it will not use this program in any manner prohibited above.
 ---------------------------------------------------------------
  

 Cite this work as:
 Gaussian 16, Revision A.03,
 M. J. Frisch, G. W. Trucks, H. B. Schlegel, G. E. Scuseria, 
 M. A. Robb, J. R. Cheeseman, G. Scalmani, V. Barone, 
 G. A. Petersson, H. Nakatsuji, X. Li, M. Caricato, A. V. Marenich, 
 J. Bloino, B. G. Janesko, R. Gomperts, B. Mennucci, H. P. Hratchian, 
 J. V. Ortiz, A. F. Izmaylov, J. L. Sonnenberg, D. Williams-Young, 
 F. Ding, F. Lipparini, F. Egidi, J. Goings, B. Peng, A. Petrone, 
 T. Henderson, D. Ranasinghe, V. G. Zakrzewski, J. Gao, N. Rega, 
 G. Zheng, W. Liang, M. Hada, M. Ehara, K. Toyota, R. Fukuda, 
 J. Hasegawa, M. Ishida, T. Nakajima, Y. Honda, O. Kitao, H. Nakai, 
 T. Vreven, K. Throssell, J. A. Montgomery, Jr., J. E. Peralta, 
 F. Ogliaro, M. J. Bearpark, J. J. Heyd, E. N. Brothers, K. N. Kudin, 
 V. N. Staroverov, T. A. Keith, R. Kobayashi, J. Normand, 
 K. Raghavachari, A. P. Rendell, J. C. Burant, S. S. Iyengar, 
 J. Tomasi, M. Cossi, J. M. Millam, M. Klene, C. Adamo, R. Cammi, 
 J. W. Ochterski, R. L. Martin, K. Morokuma, O. Farkas, 
 J. B. Foresman, and D. J. Fox, Gaussian, Inc., Wallingford CT, 2016.
 
 ******************************************
 Gaussian 16:  ES64L-G16RevA.03 25-Dec-2016
                31-May-2021 
 ******************************************
 %chk=CCpCppCpCdCNdNN.chk
 %NProcShared=20
 Will use up to   20 processors via shared memory.
 -----------------------------
 # opt freq b3lyp/6-31g(2df,p)
 -----------------------------
 1/18=20,19=15,26=3,38=1/1,3;
 2/9=110,12=2,17=6,18=5,40=1/2;
 3/5=1,6=6,7=104,11=2,25=1,30=1,71=1,74=-5/1,2,3;
 4//1;
 5/5=2,38=5/2;
 6/7=2,8=2,9=2,10=2,28=1/1;
 7//1,2,3,16;
 1/18=20,19=15,26=3/3(2);
 2/9=110/2;
 99//99;
 2/9=110/2;
 3/5=1,6=6,7=104,11=2,25=1,30=1,71=1,74=-5/1,2,3;
 4/5=5,16=3,69=1/1;
 5/5=2,38=5/2;
 7//1,2,3,16;
 1/18=20,19=15,26=3/3(-5);
 2/9=110/2;
 6/7=2,8=2,9=2,10=2,19=2,28=1/1;
 99/9=1/99;
 -------------------
 Title Card Required
 -------------------
 Symbolic Z-matrix:
 Charge =  0 Multiplicity = 1
 C                     1.10513  -0.06035   0.00844 
 C                     2.64847  -0.06383   0.00286 
 C                     3.12462   1.40025  -0.02238 
 C                     3.12462  -0.72992   1.30689 
 C                     3.17706  -0.82317  -1.21399 
 C                     4.48023  -1.00513  -1.50558 
 N                     4.93636  -1.69066  -2.60416 
 N                     6.18097  -1.7375   -2.67922 
 N                     6.5523   -2.4173   -3.76861 
 H                     0.71634   0.48313   0.87938 
 H                     0.69921  -1.07753   0.05186 
 H                     0.69921   0.42567  -0.88617 
 H                     2.74569   1.953     0.84574 
 H                     2.77183   1.9171   -0.9224 
 H                     4.21732   1.47294  -0.00011 
 H                     2.74569  -0.19306   2.18492 
 H                     4.21732  -0.74187   1.38197 
 H                     2.77183  -1.76551   1.37562 
 H                     2.4409   -1.24724  -1.89357 
 H                     5.23809  -0.59211  -0.84372 
 H                     7.54135  -2.53258  -3.95334 
 H                     5.83807  -2.79657  -4.37639 
 

 GradGradGradGradGradGradGradGradGradGradGradGradGradGradGradGradGradGrad
 Berny optimization.
 Initialization pass.
                           ----------------------------
                           !    Initial Parameters    !
                           ! (Angstroms and Degrees)  !
 --------------------------                            --------------------------
 ! Name  Definition              Value          Derivative Info.                !
 --------------------------------------------------------------------------------
 ! R1    R(1,2)                  1.5434         estimate D2E/DX2                !
 ! R2    R(1,10)                 1.0978         estimate D2E/DX2                !
 ! R3    R(1,11)                 1.096          estimate D2E/DX2                !
 ! R4    R(1,12)                 1.096          estimate D2E/DX2                !
 ! R5    R(2,3)                  1.5398         estimate D2E/DX2                !
 ! R6    R(2,4)                  1.5398         estimate D2E/DX2                !
 ! R7    R(2,5)                  1.5286         estimate D2E/DX2                !
 ! R8    R(3,13)                 1.0967         estimate D2E/DX2                !
 ! R9    R(3,14)                 1.0962         estimate D2E/DX2                !
 ! R10   R(3,15)                 1.0953         estimate D2E/DX2                !
 ! R11   R(4,16)                 1.0967         estimate D2E/DX2                !
 ! R12   R(4,17)                 1.0953         estimate D2E/DX2                !
 ! R13   R(4,18)                 1.0962         estimate D2E/DX2                !
 ! R14   R(5,6)                  1.3477         estimate D2E/DX2                !
 ! R15   R(5,19)                 1.0879         estimate D2E/DX2                !
 ! R16   R(6,7)                  1.3729         estimate D2E/DX2                !
 ! R17   R(6,20)                 1.0877         estimate D2E/DX2                !
 ! R18   R(7,8)                  1.2478         estimate D2E/DX2                !
 ! R19   R(8,9)                  1.3367         estimate D2E/DX2                !
 ! R20   R(9,21)                 1.0127         estimate D2E/DX2                !
 ! R21   R(9,22)                 1.0116         estimate D2E/DX2                !
 ! A1    A(2,1,10)             110.9866         estimate D2E/DX2                !
 ! A2    A(2,1,11)             111.6168         estimate D2E/DX2                !
 ! A3    A(2,1,12)             111.6167         estimate D2E/DX2                !
 ! A4    A(10,1,11)            107.2694         estimate D2E/DX2                !
 ! A5    A(10,1,12)            107.2698         estimate D2E/DX2                !
 ! A6    A(11,1,12)            107.8605         estimate D2E/DX2                !
 ! A7    A(1,2,3)              107.8874         estimate D2E/DX2                !
 ! A8    A(1,2,4)              107.8873         estimate D2E/DX2                !
 ! A9    A(1,2,5)              110.4743         estimate D2E/DX2                !
 ! A10   A(3,2,4)              109.2435         estimate D2E/DX2                !
 ! A11   A(3,2,5)              110.6309         estimate D2E/DX2                !
 ! A12   A(4,2,5)              110.6308         estimate D2E/DX2                !
 ! A13   A(2,3,13)             111.0643         estimate D2E/DX2                !
 ! A14   A(2,3,14)             111.2389         estimate D2E/DX2                !
 ! A15   A(2,3,15)             111.7931         estimate D2E/DX2                !
 ! A16   A(13,3,14)            107.5224         estimate D2E/DX2                !
 ! A17   A(13,3,15)            107.1661         estimate D2E/DX2                !
 ! A18   A(14,3,15)            107.846          estimate D2E/DX2                !
 ! A19   A(2,4,16)             111.0651         estimate D2E/DX2                !
 ! A20   A(2,4,17)             111.7933         estimate D2E/DX2                !
 ! A21   A(2,4,18)             111.2387         estimate D2E/DX2                !
 ! A22   A(16,4,17)            107.1665         estimate D2E/DX2                !
 ! A23   A(16,4,18)            107.5216         estimate D2E/DX2                !
 ! A24   A(17,4,18)            107.8456         estimate D2E/DX2                !
 ! A25   A(2,5,6)              125.0052         estimate D2E/DX2                !
 ! A26   A(2,5,19)             117.1867         estimate D2E/DX2                !
 ! A27   A(6,5,19)             117.8081         estimate D2E/DX2                !
 ! A28   A(5,6,7)              124.1796         estimate D2E/DX2                !
 ! A29   A(5,6,20)             119.3943         estimate D2E/DX2                !
 ! A30   A(7,6,20)             116.426          estimate D2E/DX2                !
 ! A31   A(6,7,8)              113.4707         estimate D2E/DX2                !
 ! A32   A(7,8,9)              110.1948         estimate D2E/DX2                !
 ! A33   A(8,9,21)             118.5448         estimate D2E/DX2                !
 ! A34   A(8,9,22)             118.9586         estimate D2E/DX2                !
 ! A35   A(21,9,22)            122.4966         estimate D2E/DX2                !
 ! D1    D(10,1,2,3)           -58.955          estimate D2E/DX2                !
 ! D2    D(10,1,2,4)            58.9547         estimate D2E/DX2                !
 ! D3    D(10,1,2,5)           179.9998         estimate D2E/DX2                !
 ! D4    D(11,1,2,3)          -178.56           estimate D2E/DX2                !
 ! D5    D(11,1,2,4)           -60.6503         estimate D2E/DX2                !
 ! D6    D(11,1,2,5)            60.3948         estimate D2E/DX2                !
 ! D7    D(12,1,2,3)            60.6504         estimate D2E/DX2                !
 ! D8    D(12,1,2,4)           178.5601         estimate D2E/DX2                !
 ! D9    D(12,1,2,5)           -60.3948         estimate D2E/DX2                !
 ! D10   D(1,2,3,13)            58.8104         estimate D2E/DX2                !
 ! D11   D(1,2,3,14)           -60.9148         estimate D2E/DX2                !
 ! D12   D(1,2,3,15)           178.4549         estimate D2E/DX2                !
 ! D13   D(4,2,3,13)           -58.2233         estimate D2E/DX2                !
 ! D14   D(4,2,3,14)          -177.9484         estimate D2E/DX2                !
 ! D15   D(4,2,3,15)            61.4213         estimate D2E/DX2                !
 ! D16   D(5,2,3,13)           179.7578         estimate D2E/DX2                !
 ! D17   D(5,2,3,14)            60.0327         estimate D2E/DX2                !
 ! D18   D(5,2,3,15)           -60.5976         estimate D2E/DX2                !
 ! D19   D(1,2,4,16)           -58.8098         estimate D2E/DX2                !
 ! D20   D(1,2,4,17)          -178.4555         estimate D2E/DX2                !
 ! D21   D(1,2,4,18)            60.9148         estimate D2E/DX2                !
 ! D22   D(3,2,4,16)            58.2239         estimate D2E/DX2                !
 ! D23   D(3,2,4,17)           -61.4218         estimate D2E/DX2                !
 ! D24   D(3,2,4,18)           177.9485         estimate D2E/DX2                !
 ! D25   D(5,2,4,16)          -179.7572         estimate D2E/DX2                !
 ! D26   D(5,2,4,17)            60.5971         estimate D2E/DX2                !
 ! D27   D(5,2,4,18)           -60.0326         estimate D2E/DX2                !
 ! D28   D(1,2,5,6)           -179.9999         estimate D2E/DX2                !
 ! D29   D(1,2,5,19)             0.0002         estimate D2E/DX2                !
 ! D30   D(3,2,5,6)             60.6006         estimate D2E/DX2                !
 ! D31   D(3,2,5,19)          -119.3993         estimate D2E/DX2                !
 ! D32   D(4,2,5,6)            -60.6005         estimate D2E/DX2                !
 ! D33   D(4,2,5,19)           119.3995         estimate D2E/DX2                !
 ! D34   D(2,5,6,7)           -179.9997         estimate D2E/DX2                !
 ! D35   D(2,5,6,20)            -0.0004         estimate D2E/DX2                !
 ! D36   D(19,5,6,7)             0.0003         estimate D2E/DX2                !
 ! D37   D(19,5,6,20)          179.9996         estimate D2E/DX2                !
 ! D38   D(5,6,7,8)            179.9999         estimate D2E/DX2                !
 ! D39   D(20,6,7,8)             0.0005         estimate D2E/DX2                !
 ! D40   D(6,7,8,9)            179.9998         estimate D2E/DX2                !
 ! D41   D(7,8,9,21)          -179.9998         estimate D2E/DX2                !
 ! D42   D(7,8,9,22)            -0.0003         estimate D2E/DX2                !
 ! D43   D(8,9,21,22)          179.9995         estimate D2E/DX2                !
 --------------------------------------------------------------------------------
 Trust Radius=3.00D-01 FncErr=1.00D-07 GrdErr=1.00D-06 EigMax=2.50D+02 EigMin=1.00D-04
 Number of steps in this run=    109 maximum allowed number of steps=    132.
 GradGradGradGradGradGradGradGradGradGradGradGradGradGradGradGradGradGrad

                          Input orientation:                          
 ---------------------------------------------------------------------
 Center     Atomic      Atomic             Coordinates (Angstroms)
 Number     Number       Type             X           Y           Z
 ---------------------------------------------------------------------
      1          6           0        1.105130   -0.060350    0.008440
      2          6           0        2.648470   -0.063830    0.002860
      3          6           0        3.124620    1.400250   -0.022380
      4          6           0        3.124620   -0.729920    1.306890
      5          6           0        3.177060   -0.823170   -1.213990
      6          6           0        4.480230   -1.005130   -1.505580
      7          7           0        4.936360   -1.690660   -2.604160
      8          7           0        6.180970   -1.737500   -2.679220
      9          7           0        6.552300   -2.417300   -3.768610
     10          1           0        0.716340    0.483130    0.879380
     11          1           0        0.699210   -1.077530    0.051860
     12          1           0        0.699210    0.425670   -0.886170
     13          1           0        2.745690    1.953000    0.845740
     14          1           0        2.771830    1.917100   -0.922400
     15          1           0        4.217320    1.472940   -0.000110
     16          1           0        2.745690   -0.193060    2.184920
     17          1           0        4.217320   -0.741870    1.381970
     18          1           0        2.771830   -1.765510    1.375620
     19          1           0        2.440900   -1.247240   -1.893570
     20          1           0        5.238090   -0.592110   -0.843720
     21          1           0        7.541350   -2.532580   -3.953340
     22          1           0        5.838070   -2.796570   -4.376390
 ---------------------------------------------------------------------
                    Distance matrix (angstroms):
                    1          2          3          4          5
     1  C    0.000000
     2  C    1.543354   0.000000
     3  C    2.492517   1.539768   0.000000
     4  C    2.492516   1.539769   2.510893   0.000000
     5  C    2.523712   1.528636   2.523149   2.523149   0.000000
     6  C    3.817875   2.552799   3.134233   3.134231   1.347734
     7  N    4.915477   3.831132   4.416075   4.416077   2.404215
     8  N    5.983352   4.740599   5.123041   5.123043   3.465021
     9  N    7.035125   5.916308   6.352709   6.352711   4.523227
    10  H    1.097754   2.191022   2.730218   2.730214   3.484790
    11  H    1.096044   2.197636   3.468071   2.752916   2.794068
    12  H    1.096044   2.197635   2.752917   3.468071   2.794067
    13  H    2.728752   2.188036   1.096701   2.748510   3.483631
    14  H    2.748574   2.189842   1.096189   3.478636   2.785375
    15  H    3.469406   2.196124   1.095342   2.784750   2.797815
    16  H    2.728757   2.188044   2.748527   1.096697   3.483634
    17  H    3.469406   2.196127   2.784757   1.095342   2.797813
    18  H    2.748571   2.189841   3.478635   1.096189   2.785372
    19  H    2.609719   2.244992   3.313311   3.313312   1.087932
    20  H    4.253270   2.775231   3.018419   3.018422   2.106735
    21  H    7.951890   6.759180   7.101204   7.101205   5.428918
    22  H    7.008163   6.067887   6.628236   6.628237   4.579962
                    6          7          8          9         10
     6  C    0.000000
     7  N    1.372911   0.000000
     8  N    2.192331   1.247751   0.000000
     9  N    3.377722   2.120191   1.336707   0.000000
    10  H    4.697853   5.888037   6.888905   8.004670   0.000000
    11  H    4.089862   5.038235   6.159874   7.116856   1.766562
    12  H    4.089862   5.038232   6.159872   7.116853   1.766568
    13  H    4.157868   5.475135   6.151933   7.408241   2.505975
    14  H    3.434845   4.530942   5.297618   6.417156   3.086701
    15  H    2.911424   4.160103   4.619575   5.898109   3.743005
    16  H    4.157869   5.475137   6.151935   7.408242   2.505979
    17  H    2.911421   4.160103   4.619574   5.898107   3.743004
    18  H    3.434839   4.530943   5.297617   6.417156   3.086693
    19  H    2.089981   2.632277   3.853015   4.667807   3.695611
    20  H    1.087656   2.096903   2.360085   3.689641   4.956959
    21  H    4.206553   3.052063   2.026368   1.012736   8.889907
    22  H    3.646167   2.275284   2.029679   1.011616   8.038138
                   11         12         13         14         15
    11  H    0.000000
    12  H    1.771866   0.000000
    13  H    3.741983   3.085503   0.000000
    14  H    3.769979   2.553709   1.768698   0.000000
    15  H    4.345653   3.776106   1.763977   1.771253   0.000000
    16  H    3.085500   3.741992   2.529620   3.756181   3.116987
    17  H    3.776104   4.345654   3.116980   3.803904   2.610657
    18  H    2.553705   3.769976   3.756165   4.340796   3.803897
    19  H    2.616674   2.616671   4.223536   3.326520   3.760351
    20  H    4.651788   4.651786   3.942578   3.519199   2.453178
    21  H    8.060625   8.060624   8.133262   7.192675   6.536160
    22  H    6.998027   6.998025   7.706612   6.599285   6.325138
                   16         17         18         19         20
    16  H    0.000000
    17  H    1.763977   0.000000
    18  H    1.768686   1.771248   0.000000
    19  H    4.223538   3.760350   3.326518   0.000000
    20  H    3.942583   2.453181   3.519201   3.058701   0.000000
    21  H    8.133262   6.536157   7.192672   5.648835   4.328991
    22  H    7.706612   6.325135   6.599283   4.483925   4.207063
                   21         22
    21  H    0.000000
    22  H    1.774775   0.000000
 Stoichiometry    C6H13N3
 Framework group  C1[X(C6H13N3)]
 Deg. of freedom    60
 Full point group                 C1      NOp   1
 Largest Abelian subgroup         C1      NOp   1
 Largest concise Abelian subgroup C1      NOp   1
                         Standard orientation:                         
 ---------------------------------------------------------------------
 Center     Atomic      Atomic             Coordinates (Angstroms)
 Number     Number       Type             X           Y           Z
 ---------------------------------------------------------------------
      1          6           0       -2.854519    1.166473   -0.000002
      2          6           0       -1.810235    0.030070    0.000001
      3          6           0       -2.046664   -0.829487    1.255450
      4          6           0       -2.046666   -0.829493   -1.255443
      5          6           0       -0.393978    0.605349   -0.000002
      6          6           0        0.737760   -0.126467   -0.000003
      7          7           0        2.002163    0.408481    0.000001
      8          7           0        2.905796   -0.451943    0.000001
      9          7           0        4.105081    0.138396   -0.000000
     10          1           0       -3.875225    0.762460   -0.000004
     11          1           0       -2.757078    1.804388   -0.885937
     12          1           0       -2.757075    1.804393    0.885930
     13          1           0       -3.062588   -1.242481    1.264805
     14          1           0       -1.922109   -0.238740    2.170401
     15          1           0       -1.353153   -1.675848    1.305329
     16          1           0       -3.062586   -1.242484   -1.264815
     17          1           0       -1.353151   -1.675850   -1.305327
     18          1           0       -1.922110   -0.238748   -2.170396
     19          1           0       -0.297649    1.689008   -0.000003
     20          1           0        0.671482   -1.212102    0.000005
     21          1           0        4.932155   -0.446055   -0.000003
     22          1           0        4.153622    1.148847   -0.000005
 ---------------------------------------------------------------------
 Rotational constants (GHZ):           4.1980433           0.6211232           0.6141358
 Standard basis: 6-31G(2df,p) (6D, 7F)
 There are   344 symmetry adapted cartesian basis functions of A   symmetry.
 There are   317 symmetry adapted basis functions of A   symmetry.
   317 basis functions,   487 primitive gaussians,   344 cartesian basis functions
    35 alpha electrons       35 beta electrons
       nuclear repulsion energy       441.9217541550 Hartrees.
 NAtoms=   22 NActive=   22 NUniq=   22 SFac= 1.00D+00 NAtFMM=   60 NAOKFM=F Big=F
 Integral buffers will be    131072 words long.
 Raffenetti 2 integral format.
 Two-electron integral symmetry is turned on.
 One-electron integrals computed using PRISM.
 PrsmSu:  requested number of processors reduced to:  13 ShMem   1 Linda.
 NBasis=   317 RedAO= T EigKep=  2.37D-04  NBF=   317
 NBsUse=   317 1.00D-06 EigRej= -1.00D+00 NBFU=   317
 ExpMin= 1.61D-01 ExpMax= 4.17D+03 ExpMxC= 6.27D+02 IAcc=3 IRadAn=         5 AccDes= 0.00D+00
 Harris functional with IExCor=  402 and IRadAn=       5 diagonalized for initial guess.
 HarFok:  IExCor=  402 AccDes= 0.00D+00 IRadAn=         5 IDoV= 1 UseB2=F ITyADJ=14
 ICtDFT=  3500011 ScaDFX=  1.000000  1.000000  1.000000  1.000000
 FoFCou: FMM=F IPFlag=           0 FMFlag=      100000 FMFlg1=           0
         NFxFlg=           0 DoJE=T BraDBF=F KetDBF=T FulRan=T
         wScrn=  0.000000 ICntrl=       500 IOpCl=  0 I1Cent=   200000004 NGrid=           0
         NMat0=    1 NMatS0=      1 NMatT0=    0 NMatD0=    1 NMtDS0=    0 NMtDT0=    0
 Petite list used in FoFCou.
 Requested convergence on RMS density matrix=1.00D-08 within 128 cycles.
 Requested convergence on MAX density matrix=1.00D-06.
 Requested convergence on             energy=1.00D-06.
 No special actions if energy rises.
 Integral accuracy reduced to 1.0D-05 until final iterations.
 Initial convergence to 1.0D-05 achieved.  Increase integral accuracy.
 SCF Done:  E(RB3LYP) =  -400.677217324     A.U. after   15 cycles
            NFock= 15  Conv=0.81D-08     -V/T= 2.0081

 **********************************************************************

            Population analysis using the SCF density.

 **********************************************************************

 Orbital symmetries:
       Occupied  (A) (A) (A) (A) (A) (A) (A) (A) (A) (A) (A) (A)
                 (A) (A) (A) (A) (A) (A) (A) (A) (A) (A) (A) (A)
                 (A) (A) (A) (A) (A) (A) (A) (A) (A) (A) (A)
       Virtual   (A) (A) (A) (A) (A) (A) (A) (A) (A) (A) (A) (A)
                 (A) (A) (A) (A) (A) (A) (A) (A) (A) (A) (A) (A)
                 (A) (A) (A) (A) (A) (A) (A) (A) (A) (A) (A) (A)
                 (A) (A) (A) (A) (A) (A) (A) (A) (A) (A) (A) (A)
                 (A) (A) (A) (A) (A) (A) (A) (A) (A) (A) (A) (A)
                 (A) (A) (A) (A) (A) (A) (A) (A) (A) (A) (A) (A)
                 (A) (A) (A) (A) (A) (A) (A) (A) (A) (A) (A) (A)
                 (A) (A) (A) (A) (A) (A) (A) (A) (A) (A) (A) (A)
                 (A) (A) (A) (A) (A) (A) (A) (A) (A) (A) (A) (A)
                 (A) (A) (A) (A) (A) (A) (A) (A) (A) (A) (A) (A)
                 (A) (A) (A) (A) (A) (A) (A) (A) (A) (A) (A) (A)
                 (A) (A) (A) (A) (A) (A) (A) (A) (A) (A) (A) (A)
                 (A) (A) (A) (A) (A) (A) (A) (A) (A) (A) (A) (A)
                 (A) (A) (A) (A) (A) (A) (A) (A) (A) (A) (A) (A)
                 (A) (A) (A) (A) (A) (A) (A) (A) (A) (A) (A) (A)
                 (A) (A) (A) (A) (A) (A) (A) (A) (A) (A) (A) (A)
                 (A) (A) (A) (A) (A) (A) (A) (A) (A) (A) (A) (A)
                 (A) (A) (A) (A) (A) (A) (A) (A) (A) (A) (A) (A)
                 (A) (A) (A) (A) (A) (A) (A) (A) (A) (A) (A) (A)
                 (A) (A) (A) (A) (A) (A) (A) (A) (A) (A) (A) (A)
                 (A) (A) (A) (A) (A) (A) (A) (A) (A) (A) (A) (A)
                 (A) (A) (A) (A) (A) (A) (A) (A) (A) (A) (A) (A)
                 (A) (A) (A) (A) (A) (A) (A) (A) (A) (A) (A) (A)
                 (A) (A) (A) (A) (A) (A)
 The electronic state is 1-A.
 Alpha  occ. eigenvalues --  -14.40360 -14.36929 -14.34151 -10.19544 -10.19284
 Alpha  occ. eigenvalues --  -10.17323 -10.16760 -10.16650 -10.16649  -1.06689
 Alpha  occ. eigenvalues --   -0.89757  -0.81815  -0.74837  -0.67722  -0.67677
 Alpha  occ. eigenvalues --   -0.65664  -0.58339  -0.54481  -0.51949  -0.49810
 Alpha  occ. eigenvalues --   -0.44420  -0.43488  -0.43153  -0.42866  -0.40791
 Alpha  occ. eigenvalues --   -0.38170  -0.37400  -0.35671  -0.35658  -0.32795
 Alpha  occ. eigenvalues --   -0.32619  -0.31142  -0.29819  -0.23917  -0.20639
 Alpha virt. eigenvalues --   -0.02987   0.06778   0.07981   0.08964   0.12234
 Alpha virt. eigenvalues --    0.13668   0.14495   0.15694   0.15893   0.16178
 Alpha virt. eigenvalues --    0.16637   0.20018   0.20465   0.20576   0.21730
 Alpha virt. eigenvalues --    0.22730   0.23071   0.25280   0.26275   0.28188
 Alpha virt. eigenvalues --    0.31761   0.35341   0.39535   0.43837   0.45756
 Alpha virt. eigenvalues --    0.46342   0.48130   0.48225   0.50222   0.53745
 Alpha virt. eigenvalues --    0.54422   0.56844   0.57272   0.57719   0.58655
 Alpha virt. eigenvalues --    0.59445   0.61471   0.62206   0.64141   0.64383
 Alpha virt. eigenvalues --    0.65008   0.67289   0.68317   0.68837   0.72216
 Alpha virt. eigenvalues --    0.72252   0.73360   0.73364   0.74113   0.74287
 Alpha virt. eigenvalues --    0.75141   0.76608   0.77291   0.77798   0.78719
 Alpha virt. eigenvalues --    0.80280   0.81539   0.83355   0.83712   0.84307
 Alpha virt. eigenvalues --    0.87979   0.88827   0.89443   0.91467   0.92748
 Alpha virt. eigenvalues --    0.93081   0.93887   0.98710   1.01274   1.02614
 Alpha virt. eigenvalues --    1.08257   1.09703   1.11476   1.11811   1.15939
 Alpha virt. eigenvalues --    1.16449   1.21902   1.26001   1.28685   1.30720
 Alpha virt. eigenvalues --    1.36615   1.36767   1.38901   1.39140   1.41202
 Alpha virt. eigenvalues --    1.41367   1.41842   1.46726   1.48379   1.48641
 Alpha virt. eigenvalues --    1.50209   1.52847   1.53113   1.55288   1.55850
 Alpha virt. eigenvalues --    1.59914   1.60607   1.61713   1.65184   1.66818
 Alpha virt. eigenvalues --    1.67987   1.72122   1.75017   1.77955   1.80903
 Alpha virt. eigenvalues --    1.82904   1.84309   1.84855   1.85149   1.90139
 Alpha virt. eigenvalues --    1.92512   1.93468   1.95604   1.97297   1.97820
 Alpha virt. eigenvalues --    1.99357   2.03783   2.08590   2.16725   2.23273
 Alpha virt. eigenvalues --    2.25738   2.28322   2.29152   2.31228   2.31564
 Alpha virt. eigenvalues --    2.32089   2.36877   2.39557   2.42285   2.45856
 Alpha virt. eigenvalues --    2.49883   2.50700   2.52670   2.53347   2.61729
 Alpha virt. eigenvalues --    2.65995   2.66402   2.69989   2.75001   2.80600
 Alpha virt. eigenvalues --    2.81732   2.82236   2.83487   2.84893   2.85146
 Alpha virt. eigenvalues --    2.89178   2.90935   2.91880   2.94974   2.95184
 Alpha virt. eigenvalues --    2.96428   2.96730   2.97488   3.01684   3.01989
 Alpha virt. eigenvalues --    3.04553   3.04734   3.06351   3.08472   3.10794
 Alpha virt. eigenvalues --    3.11376   3.13352   3.14563   3.17130   3.21639
 Alpha virt. eigenvalues --    3.27423   3.27786   3.30036   3.35580   3.35617
 Alpha virt. eigenvalues --    3.37990   3.38459   3.40433   3.41414   3.43921
 Alpha virt. eigenvalues --    3.45818   3.48453   3.51429   3.52787   3.54765
 Alpha virt. eigenvalues --    3.58444   3.60943   3.61044   3.63185   3.64036
 Alpha virt. eigenvalues --    3.65643   3.67169   3.68699   3.69900   3.75369
 Alpha virt. eigenvalues --    3.78454   3.80381   3.82504   3.84727   3.84896
 Alpha virt. eigenvalues --    3.91625   3.96519   3.97694   4.04264   4.05841
 Alpha virt. eigenvalues --    4.06766   4.07823   4.08202   4.11796   4.13623
 Alpha virt. eigenvalues --    4.17132   4.17665   4.22148   4.22215   4.23446
 Alpha virt. eigenvalues --    4.25292   4.26464   4.29498   4.32747   4.36984
 Alpha virt. eigenvalues --    4.37343   4.40382   4.40590   4.40872   4.42845
 Alpha virt. eigenvalues --    4.43796   4.45850   4.48456   4.50700   4.52234
 Alpha virt. eigenvalues --    4.53860   4.58320   4.60977   4.61527   4.62582
 Alpha virt. eigenvalues --    4.66142   4.67177   4.70072   4.70341   4.71580
 Alpha virt. eigenvalues --    4.73893   4.74231   4.75285   4.79350   4.80061
 Alpha virt. eigenvalues --    4.82589   4.82747   4.83395   4.86334   4.87576
 Alpha virt. eigenvalues --    4.88973   4.92195   4.93885   4.95810   4.97357
 Alpha virt. eigenvalues --    5.01132   5.01903   5.12301   5.16758   5.24383
 Alpha virt. eigenvalues --    5.29671   5.31471   5.32223   5.47162   5.48198
 Alpha virt. eigenvalues --    5.51540   5.58151   5.60665   5.60875   5.64666
 Alpha virt. eigenvalues --    5.71683   5.78741   5.83523   5.95920   6.13776
 Alpha virt. eigenvalues --    6.35595   9.31400  10.73623  11.29446  11.30674
 Alpha virt. eigenvalues --   11.41111  11.43718  11.77074  11.93439  12.01612
 Alpha virt. eigenvalues --   12.75499  13.49305
          Condensed to atoms (all electrons):
               1          2          3          4          5          6
     1  C    5.079436   0.395774  -0.055668  -0.055668  -0.028349   0.002566
     2  C    0.395774   4.375131   0.409094   0.409095   0.404770  -0.008738
     3  C   -0.055668   0.409094   5.044938  -0.047659  -0.039577  -0.009010
     4  C   -0.055668   0.409095  -0.047659   5.044938  -0.039576  -0.009010
     5  C   -0.028349   0.404770  -0.039577  -0.039576   4.975421   0.628327
     6  C    0.002566  -0.008738  -0.009010  -0.009010   0.628327   4.602499
     7  N   -0.000103   0.001070   0.000141   0.000141  -0.009159   0.477106
     8  N    0.000000  -0.000033   0.000001   0.000001   0.002422  -0.091511
     9  N   -0.000000   0.000000  -0.000000  -0.000000  -0.000142   0.003741
    10  H    0.368413  -0.018591  -0.004777  -0.004777   0.003108  -0.000104
    11  H    0.362350  -0.017872   0.005388  -0.004311  -0.004093   0.000137
    12  H    0.362350  -0.017872  -0.004311   0.005388  -0.004093   0.000137
    13  H   -0.004935  -0.021036   0.359945  -0.004538   0.004681   0.000233
    14  H   -0.005157  -0.020436   0.365954   0.005476  -0.001936   0.000994
    15  H    0.005601  -0.018057   0.363545  -0.004087  -0.005268   0.002050
    16  H   -0.004935  -0.021035  -0.004538   0.359946   0.004681   0.000233
    17  H    0.005601  -0.018057  -0.004087   0.363545  -0.005268   0.002050
    18  H   -0.005157  -0.020436   0.005476   0.365954  -0.001936   0.000994
    19  H   -0.010982  -0.050257   0.004496   0.004496   0.329959  -0.018040
    20  H    0.000108  -0.008256   0.000432   0.000432  -0.057030   0.363906
    21  H    0.000000   0.000000  -0.000000  -0.000000   0.000001  -0.000326
    22  H    0.000000   0.000001  -0.000000  -0.000000   0.000027   0.001769
               7          8          9         10         11         12
     1  C   -0.000103   0.000000  -0.000000   0.368413   0.362350   0.362350
     2  C    0.001070  -0.000033   0.000000  -0.018591  -0.017872  -0.017872
     3  C    0.000141   0.000001  -0.000000  -0.004777   0.005388  -0.004311
     4  C    0.000141   0.000001  -0.000000  -0.004777  -0.004311   0.005388
     5  C   -0.009159   0.002422  -0.000142   0.003108  -0.004093  -0.004093
     6  C    0.477106  -0.091511   0.003741  -0.000104   0.000137   0.000137
     7  N    6.437109   0.456090  -0.130612   0.000000   0.000002   0.000002
     8  N    0.456090   6.356854   0.382596  -0.000000   0.000000   0.000000
     9  N   -0.130612   0.382596   6.454599   0.000000   0.000000   0.000000
    10  H    0.000000  -0.000000   0.000000   0.605017  -0.032222  -0.032221
    11  H    0.000002   0.000000   0.000000  -0.032222   0.605956  -0.032256
    12  H    0.000002   0.000000   0.000000  -0.032221  -0.032256   0.605956
    13  H   -0.000001  -0.000000   0.000000   0.003972  -0.000072   0.000019
    14  H   -0.000022  -0.000001   0.000000  -0.000016  -0.000058   0.004259
    15  H   -0.000139  -0.000004  -0.000000  -0.000046  -0.000220  -0.000061
    16  H   -0.000001  -0.000000   0.000000   0.003972   0.000019  -0.000072
    17  H   -0.000139  -0.000004  -0.000000  -0.000046  -0.000061  -0.000220
    18  H   -0.000022  -0.000001   0.000000  -0.000016   0.004259  -0.000058
    19  H   -0.007068  -0.000106  -0.000018  -0.000042   0.003152   0.003152
    20  H   -0.071856   0.014672  -0.000164   0.000000   0.000006   0.000006
    21  H    0.005820  -0.029416   0.350053  -0.000000   0.000000   0.000000
    22  H    0.038621  -0.044734   0.313036  -0.000000   0.000000   0.000000
              13         14         15         16         17         18
     1  C   -0.004935  -0.005157   0.005601  -0.004935   0.005601  -0.005157
     2  C   -0.021036  -0.020436  -0.018057  -0.021035  -0.018057  -0.020436
     3  C    0.359945   0.365954   0.363545  -0.004538  -0.004087   0.005476
     4  C   -0.004538   0.005476  -0.004087   0.359946   0.363545   0.365954
     5  C    0.004681  -0.001936  -0.005268   0.004681  -0.005268  -0.001936
     6  C    0.000233   0.000994   0.002050   0.000233   0.002050   0.000994
     7  N   -0.000001  -0.000022  -0.000139  -0.000001  -0.000139  -0.000022
     8  N   -0.000000  -0.000001  -0.000004  -0.000000  -0.000004  -0.000001
     9  N    0.000000   0.000000  -0.000000   0.000000  -0.000000   0.000000
    10  H    0.003972  -0.000016  -0.000046   0.003972  -0.000046  -0.000016
    11  H   -0.000072  -0.000058  -0.000220   0.000019  -0.000061   0.004259
    12  H    0.000019   0.004259  -0.000061  -0.000072  -0.000220  -0.000058
    13  H    0.618559  -0.032155  -0.031853   0.002880  -0.000107  -0.000091
    14  H   -0.032155   0.602241  -0.031044  -0.000091  -0.000087  -0.000210
    15  H   -0.031853  -0.031044   0.602440  -0.000107   0.003146  -0.000087
    16  H    0.002880  -0.000091  -0.000107   0.618558  -0.031853  -0.032156
    17  H   -0.000107  -0.000087   0.003146  -0.031853   0.602440  -0.031044
    18  H   -0.000091  -0.000210  -0.000087  -0.032156  -0.031044   0.602242
    19  H   -0.000168   0.000422  -0.000074  -0.000168  -0.000074   0.000422
    20  H   -0.000091   0.000108   0.003461  -0.000091   0.003461   0.000108
    21  H   -0.000000   0.000000   0.000000  -0.000000   0.000000   0.000000
    22  H    0.000000   0.000000   0.000000   0.000000   0.000000   0.000000
              19         20         21         22
     1  C   -0.010982   0.000108   0.000000   0.000000
     2  C   -0.050257  -0.008256   0.000000   0.000001
     3  C    0.004496   0.000432  -0.000000  -0.000000
     4  C    0.004496   0.000432  -0.000000  -0.000000
     5  C    0.329959  -0.057030   0.000001   0.000027
     6  C   -0.018040   0.363906  -0.000326   0.001769
     7  N   -0.007068  -0.071856   0.005820   0.038621
     8  N   -0.000106   0.014672  -0.029416  -0.044734
     9  N   -0.000018  -0.000164   0.350053   0.313036
    10  H   -0.000042   0.000000  -0.000000  -0.000000
    11  H    0.003152   0.000006   0.000000   0.000000
    12  H    0.003152   0.000006   0.000000   0.000000
    13  H   -0.000168  -0.000091  -0.000000   0.000000
    14  H    0.000422   0.000108   0.000000   0.000000
    15  H   -0.000074   0.003461   0.000000   0.000000
    16  H   -0.000168  -0.000091  -0.000000   0.000000
    17  H   -0.000074   0.003461   0.000000   0.000000
    18  H    0.000422   0.000108   0.000000   0.000000
    19  H    0.647855   0.008462   0.000001   0.000051
    20  H    0.008462   0.661646   0.000084   0.000292
    21  H    0.000001   0.000084   0.425413  -0.023751
    22  H    0.000051   0.000292  -0.023751   0.465504
 Mulliken charges:
               1
     1  C   -0.411244
     2  C    0.245740
     3  C   -0.389784
     4  C   -0.389785
     5  C   -0.156971
     6  C    0.049996
     7  N   -0.196981
     8  N   -0.046824
     9  N   -0.373088
    10  H    0.108374
    11  H    0.109895
    12  H    0.109895
    13  H    0.104756
    14  H    0.111758
    15  H    0.110805
    16  H    0.104757
    17  H    0.110804
    18  H    0.111758
    19  H    0.084528
    20  H    0.080305
    21  H    0.272121
    22  H    0.249184
 Sum of Mulliken charges =  -0.00000
 Mulliken charges with hydrogens summed into heavy atoms:
               1
     1  C   -0.083080
     2  C    0.245740
     3  C   -0.062466
     4  C   -0.062466
     5  C   -0.072443
     6  C    0.130301
     7  N   -0.196981
     8  N   -0.046824
     9  N    0.148218
 Electronic spatial extent (au):  <R**2>=           1934.6159
 Charge=             -0.0000 electrons
 Dipole moment (field-independent basis, Debye):
    X=              1.5605    Y=              0.1840    Z=             -0.0000  Tot=              1.5713
 Quadrupole moment (field-independent basis, Debye-Ang):
   XX=            -38.9788   YY=            -55.6588   ZZ=            -57.8160
   XY=              1.2815   XZ=             -0.0000   YZ=              0.0000
 Traceless Quadrupole moment (field-independent basis, Debye-Ang):
   XX=             11.8391   YY=             -4.8410   ZZ=             -6.9981
   XY=              1.2815   XZ=             -0.0000   YZ=              0.0000
 Octapole moment (field-independent basis, Debye-Ang**2):
  XXX=            121.7172  YYY=              2.8052  ZZZ=             -0.0000  XYY=             10.2052
  XXY=              3.6109  XXZ=             -0.0005  XZZ=              3.7118  YZZ=              1.5651
  YYZ=             -0.0000  XYZ=             -0.0001
 Hexadecapole moment (field-independent basis, Debye-Ang**3):
 XXXX=          -1453.8580 YYYY=           -263.2929 ZZZZ=           -236.1137 XXXY=             20.5703
 XXXZ=             -0.0006 YYYX=             10.0518 YYYZ=              0.0000 ZZZX=              0.0002
 ZZZY=              0.0001 XXYY=           -366.9252 XXZZ=           -397.2400 YYZZ=            -84.3111
 XXYZ=              0.0000 YYXZ=              0.0000 ZZXY=             -4.5515
 N-N= 4.419217541550D+02 E-N=-1.814453368607D+03  KE= 3.974600756955D+02
 PrsmSu:  requested number of processors reduced to:  13 ShMem   1 Linda.
 Calling FoFJK, ICntrl=      2127 FMM=F ISym2X=0 I1Cent= 0 IOpClX= 0 NMat=1 NMatS=1 NMatT=0.
 ***** Axes restored to original set *****
 -------------------------------------------------------------------
 Center     Atomic                   Forces (Hartrees/Bohr)
 Number     Number              X              Y              Z
 -------------------------------------------------------------------
      1        6          -0.001739852   -0.001281935   -0.002054873
      2        6          -0.002582731    0.000503589    0.000808166
      3        6           0.002970506    0.004396120   -0.000853773
      4        6           0.002971357   -0.002702501    0.003571666
      5        6           0.004554468   -0.002361925   -0.003784694
      6        6          -0.012213536    0.012307157    0.019720410
      7        7          -0.022872630   -0.002442919   -0.003913962
      8        7           0.015479321   -0.007261822   -0.011636887
      9        7           0.016037688   -0.000945343   -0.001515276
     10        1           0.001911178   -0.000633410   -0.001015880
     11        1           0.000743341   -0.000081311   -0.000670821
     12        1           0.000743182   -0.000566826   -0.000366957
     13        1          -0.000693154   -0.001097538    0.000199086
     14        1           0.000812841   -0.000937354    0.000250550
     15        1          -0.000491397   -0.000530918   -0.000832552
     16        1          -0.000693821    0.000663996   -0.000897035
     17        1          -0.000491395   -0.000513764   -0.000842663
     18        1           0.000812811    0.000636708   -0.000732483
     19        1           0.000079279   -0.000228783   -0.000366520
     20        1           0.003599121    0.000738358    0.001183944
     21        1          -0.008694006    0.002283574    0.003659422
     22        1          -0.000242573    0.000056847    0.000091135
 -------------------------------------------------------------------
 Cartesian Forces:  Max     0.022872630 RMS     0.005724170

 GradGradGradGradGradGradGradGradGradGradGradGradGradGradGradGradGradGrad
 Berny optimization.
 FormGI is forming the generalized inverse of G from B-inverse, IUseBI=4.
 Internal  Forces:  Max     0.023311185 RMS     0.004252030
 Search for a local minimum.
 Step number   1 out of a maximum of  109
 All quantities printed in internal units (Hartrees-Bohrs-Radians)
 Mixed Optimization -- RFO/linear search
 Second derivative matrix not updated -- first step.
 ITU=  0
     Eigenvalues ---    0.00230   0.00240   0.00240   0.00387   0.01263
     Eigenvalues ---    0.01351   0.02050   0.02132   0.02546   0.02780
     Eigenvalues ---    0.03309   0.04951   0.05167   0.05189   0.05304
     Eigenvalues ---    0.05327   0.05327   0.05409   0.05415   0.05415
     Eigenvalues ---    0.14852   0.15029   0.16000   0.16000   0.16000
     Eigenvalues ---    0.16000   0.16000   0.16000   0.16000   0.16000
     Eigenvalues ---    0.16000   0.16000   0.16000   0.16000   0.16000
     Eigenvalues ---    0.22000   0.22000   0.25000   0.25000   0.28224
     Eigenvalues ---    0.28539   0.28539   0.29550   0.33932   0.34050
     Eigenvalues ---    0.34050   0.34107   0.34107   0.34123   0.34123
     Eigenvalues ---    0.34203   0.34203   0.35053   0.35085   0.45517
     Eigenvalues ---    0.45703   0.50421   0.55506   0.57949   0.84073
 RFO step:  Lambda=-5.14076553D-03 EMin= 2.30000000D-03
 Linear search not attempted -- first point.
 Iteration  1 RMS(Cart)=  0.03551268 RMS(Int)=  0.00073800
 Iteration  2 RMS(Cart)=  0.00135300 RMS(Int)=  0.00006995
 Iteration  3 RMS(Cart)=  0.00000038 RMS(Int)=  0.00006995
 Variable       Old X    -DE/DX   Delta X   Delta X   Delta X     New X
                                 (Linear)    (Quad)   (Total)
    R1        2.91652  -0.00168   0.00000  -0.00584  -0.00584   2.91068
    R2        2.07446  -0.00180   0.00000  -0.00522  -0.00522   2.06924
    R3        2.07122  -0.00023   0.00000  -0.00065  -0.00065   2.07057
    R4        2.07122  -0.00023   0.00000  -0.00065  -0.00065   2.07057
    R5        2.90974   0.00256   0.00000   0.00882   0.00882   2.91856
    R6        2.90974   0.00256   0.00000   0.00882   0.00882   2.91856
    R7        2.88870  -0.00528   0.00000  -0.01756  -0.01756   2.87114
    R8        2.07246  -0.00016   0.00000  -0.00045  -0.00045   2.07201
    R9        2.07150  -0.00091   0.00000  -0.00263  -0.00263   2.06887
   R10        2.06990  -0.00054   0.00000  -0.00156  -0.00156   2.06833
   R11        2.07246  -0.00015   0.00000  -0.00044  -0.00044   2.07201
   R12        2.06990  -0.00054   0.00000  -0.00156  -0.00156   2.06833
   R13        2.07150  -0.00091   0.00000  -0.00263  -0.00263   2.06887
   R14        2.54685  -0.01089   0.00000  -0.01944  -0.01944   2.52741
   R15        2.05589   0.00026   0.00000   0.00074   0.00074   2.05664
   R16        2.59443   0.01471   0.00000   0.02887   0.02887   2.62330
   R17        2.05537   0.00351   0.00000   0.00986   0.00986   2.06523
   R18        2.35791   0.02331   0.00000   0.02756   0.02756   2.38547
   R19        2.52601  -0.00056   0.00000  -0.00096  -0.00096   2.52505
   R20        1.91379  -0.00942   0.00000  -0.02046  -0.02046   1.89333
   R21        1.91168   0.00009   0.00000   0.00020   0.00020   1.91188
    A1        1.93708  -0.00148   0.00000  -0.00757  -0.00758   1.92951
    A2        1.94808  -0.00061   0.00000  -0.00441  -0.00443   1.94365
    A3        1.94808  -0.00061   0.00000  -0.00441  -0.00443   1.94365
    A4        1.87220   0.00126   0.00000   0.00897   0.00897   1.88117
    A5        1.87221   0.00126   0.00000   0.00897   0.00896   1.88117
    A6        1.88252   0.00036   0.00000  -0.00037  -0.00039   1.88213
    A7        1.88299   0.00171   0.00000   0.01853   0.01827   1.90126
    A8        1.88299   0.00171   0.00000   0.01853   0.01827   1.90126
    A9        1.92814  -0.00298   0.00000  -0.03103  -0.03091   1.89723
   A10        1.90666  -0.00107   0.00000   0.00459   0.00426   1.91092
   A11        1.93087   0.00035   0.00000  -0.00462  -0.00449   1.92639
   A12        1.93087   0.00035   0.00000  -0.00462  -0.00449   1.92639
   A13        1.93844  -0.00149   0.00000  -0.00740  -0.00741   1.93103
   A14        1.94148  -0.00019   0.00000  -0.00213  -0.00214   1.93935
   A15        1.95116  -0.00037   0.00000  -0.00287  -0.00288   1.94828
   A16        1.87662   0.00102   0.00000   0.00736   0.00736   1.88398
   A17        1.87040   0.00121   0.00000   0.00918   0.00917   1.87958
   A18        1.88227  -0.00005   0.00000  -0.00326  -0.00328   1.87899
   A19        1.93845  -0.00149   0.00000  -0.00742  -0.00742   1.93103
   A20        1.95116  -0.00037   0.00000  -0.00287  -0.00288   1.94828
   A21        1.94148  -0.00019   0.00000  -0.00213  -0.00214   1.93935
   A22        1.87041   0.00121   0.00000   0.00917   0.00917   1.87958
   A23        1.87661   0.00102   0.00000   0.00737   0.00737   1.88398
   A24        1.88226  -0.00005   0.00000  -0.00326  -0.00327   1.87899
   A25        2.18175   0.00008   0.00000   0.00035   0.00035   2.18211
   A26        2.04529   0.00032   0.00000   0.00201   0.00201   2.04730
   A27        2.05614  -0.00040   0.00000  -0.00236  -0.00236   2.05378
   A28        2.16734  -0.01005   0.00000  -0.04465  -0.04465   2.12270
   A29        2.08382   0.00668   0.00000   0.03234   0.03234   2.11616
   A30        2.03202   0.00337   0.00000   0.01231   0.01231   2.04433
   A31        1.98044  -0.00081   0.00000  -0.00319  -0.00319   1.97725
   A32        1.92326   0.02310   0.00000   0.09053   0.09053   2.01379
   A33        2.06900  -0.00283   0.00000  -0.01715  -0.01715   2.05184
   A34        2.07622   0.00118   0.00000   0.00715   0.00715   2.08337
   A35        2.13797   0.00165   0.00000   0.01001   0.01001   2.14798
    D1       -1.02896  -0.00029   0.00000  -0.01264  -0.01279  -1.04175
    D2        1.02895   0.00029   0.00000   0.01265   0.01280   1.04175
    D3        3.14159   0.00000   0.00000   0.00000   0.00000   3.14159
    D4       -3.11646  -0.00048   0.00000  -0.01596  -0.01610  -3.13256
    D5       -1.05855   0.00009   0.00000   0.00933   0.00949  -1.04906
    D6        1.05409  -0.00019   0.00000  -0.00331  -0.00331   1.05078
    D7        1.05855  -0.00009   0.00000  -0.00933  -0.00949   1.04906
    D8        3.11646   0.00048   0.00000   0.01596   0.01610   3.13256
    D9       -1.05409   0.00019   0.00000   0.00331   0.00331  -1.05078
   D10        1.02643   0.00152   0.00000   0.01606   0.01609   1.04252
   D11       -1.06316   0.00135   0.00000   0.01313   0.01315  -1.05001
   D12        3.11463   0.00180   0.00000   0.02075   0.02077   3.13540
   D13       -1.01619  -0.00088   0.00000  -0.01877  -0.01877  -1.03496
   D14       -3.10579  -0.00106   0.00000  -0.02171  -0.02170  -3.12749
   D15        1.07200  -0.00061   0.00000  -0.01408  -0.01408   1.05792
   D16        3.13737  -0.00084   0.00000  -0.01305  -0.01308   3.12429
   D17        1.04777  -0.00102   0.00000  -0.01599  -0.01601   1.03176
   D18       -1.05763  -0.00057   0.00000  -0.00837  -0.00839  -1.06602
   D19       -1.02643  -0.00152   0.00000  -0.01607  -0.01609  -1.04252
   D20       -3.11464  -0.00180   0.00000  -0.02074  -0.02076  -3.13540
   D21        1.06316  -0.00135   0.00000  -0.01313  -0.01315   1.05001
   D22        1.01620   0.00088   0.00000   0.01876   0.01876   1.03496
   D23       -1.07201   0.00061   0.00000   0.01409   0.01409  -1.05792
   D24        3.10579   0.00106   0.00000   0.02171   0.02170   3.12749
   D25       -3.13735   0.00084   0.00000   0.01305   0.01307  -3.12429
   D26        1.05762   0.00057   0.00000   0.00837   0.00840   1.06602
   D27       -1.04777   0.00102   0.00000   0.01599   0.01601  -1.03176
   D28       -3.14159  -0.00000   0.00000  -0.00000  -0.00000  -3.14159
   D29        0.00000  -0.00000   0.00000  -0.00000  -0.00000   0.00000
   D30        1.05768  -0.00044   0.00000  -0.00019  -0.00030   1.05738
   D31       -2.08391  -0.00044   0.00000  -0.00019  -0.00030  -2.08421
   D32       -1.05768   0.00044   0.00000   0.00019   0.00030  -1.05738
   D33        2.08391   0.00044   0.00000   0.00019   0.00030   2.08421
   D34       -3.14159  -0.00000   0.00000  -0.00001  -0.00001   3.14159
   D35       -0.00001   0.00000   0.00000   0.00001   0.00001  -0.00000
   D36        0.00000  -0.00000   0.00000  -0.00001  -0.00001  -0.00000
   D37        3.14159   0.00000   0.00000   0.00001   0.00001  -3.14159
   D38        3.14159   0.00000   0.00000   0.00001   0.00001  -3.14159
   D39        0.00001  -0.00000   0.00000  -0.00001  -0.00001   0.00000
   D40        3.14159   0.00000   0.00000   0.00001   0.00001  -3.14159
   D41       -3.14159   0.00000   0.00000   0.00000   0.00000  -3.14159
   D42       -0.00000  -0.00000   0.00000  -0.00000  -0.00000  -0.00001
   D43        3.14158  -0.00000   0.00000  -0.00000  -0.00000   3.14158
         Item               Value     Threshold  Converged?
 Maximum Force            0.023311     0.000450     NO 
 RMS     Force            0.004252     0.000300     NO 
 Maximum Displacement     0.127803     0.001800     NO 
 RMS     Displacement     0.035426     0.001200     NO 
 Predicted change in Energy=-2.633566D-03
 GradGradGradGradGradGradGradGradGradGradGradGradGradGradGradGradGradGrad

                          Input orientation:                          
 ---------------------------------------------------------------------
 Center     Atomic      Atomic             Coordinates (Angstroms)
 Number     Number       Type             X           Y           Z
 ---------------------------------------------------------------------
      1          6           0        1.108702   -0.073207   -0.012162
      2          6           0        2.648419   -0.051476    0.022659
      3          6           0        3.129727    1.415721   -0.008371
      4          6           0        3.129729   -0.724140    1.326940
      5          6           0        3.173793   -0.806197   -1.186795
      6          6           0        4.466894   -0.987011   -1.476549
      7          7           0        4.868730   -1.690457   -2.603829
      8          7           0        6.123044   -1.765672   -2.724353
      9          7           0        6.556300   -2.434834   -3.796707
     10          1           0        0.697101    0.463968    0.848674
     11          1           0        0.723220   -1.098425    0.017609
     12          1           0        0.723218    0.404088   -0.919986
     13          1           0        2.738495    1.969134    0.853546
     14          1           0        2.790318    1.923020   -0.917235
     15          1           0        4.221787    1.482756    0.021153
     16          1           0        2.738497   -0.193132    2.202837
     17          1           0        4.221790   -0.727080    1.400128
     18          1           0        2.790323   -1.763479    1.383204
     19          1           0        2.438976   -1.231202   -1.867872
     20          1           0        5.253605   -0.585415   -0.832984
     21          1           0        7.546834   -2.514541   -3.924425
     22          1           0        5.883110   -2.834660   -4.437442
 ---------------------------------------------------------------------
                    Distance matrix (angstroms):
                    1          2          3          4          5
     1  C    0.000000
     2  C    1.540264   0.000000
     3  C    2.510272   1.544438   0.000000
     4  C    2.510271   1.544438   2.522313   0.000000
     5  C    2.486290   1.519342   2.515461   2.515460   0.000000
     6  C    3.775834   2.535685   3.117160   3.117156   1.337445
     7  N    4.844589   3.809787   4.405551   4.405547   2.379645
     8  N    5.946768   4.749480   5.143712   5.143705   3.461612
     9  N    7.041050   5.961500   6.396849   6.396845   4.572248
    10  H    1.094994   2.180740   2.749187   2.749186   3.448255
    11  H    1.095698   2.191464   3.480356   2.765090   2.746141
    12  H    1.095698   2.191464   2.765091   3.480356   2.746142
    13  H    2.752605   2.186631   1.096462   2.762407   3.472022
    14  H    2.762592   2.191386   1.094800   3.486974   2.769178
    15  H    3.480436   2.197581   1.094514   2.787124   2.792264
    16  H    2.752605   2.186632   2.762410   1.096462   3.472022
    17  H    3.480436   2.197581   2.787126   1.094514   2.792262
    18  H    2.762592   2.191386   3.486974   1.094800   2.769175
    19  H    2.560126   2.238242   3.307731   3.307730   1.088325
    20  H    4.256328   2.793601   3.032390   3.032386   2.121212
    21  H    7.919309   6.755784   7.091775   7.091769   5.434753
    22  H    7.071329   6.172668   6.727818   6.727815   4.692735
                    6          7          8          9         10
     6  C    0.000000
     7  N    1.388189   0.000000
     8  N    2.214986   1.262334   0.000000
     9  N    3.441648   2.196576   1.336200   0.000000
    10  H    4.660831   5.827849   6.868674   8.019529   0.000000
    11  H    4.032370   4.940413   6.092755   7.096465   1.769866
    12  H    4.032372   4.940416   6.092759   7.096467   1.769867
    13  H    4.141920   5.466622   6.181045   7.456234   2.536304
    14  H    3.404706   4.496845   5.289536   6.439323   3.103035
    15  H    2.898782   4.168735   4.658849   5.947564   3.761135
    16  H    4.141918   5.466619   6.181040   7.456231   2.536303
    17  H    2.898778   4.168729   4.658840   5.947559   3.761135
    18  H    3.404700   4.496837   5.289524   6.439316   3.103034
    19  H    2.079715   2.579971   3.819892   4.703349   3.645183
    20  H    1.092872   2.122531   2.392950   3.728407   4.968995
    21  H    4.220364   3.097633   2.007026   1.001910   8.864132
    22  H    3.766478   2.387530   2.033464   1.011724   8.106705
                   11         12         13         14         15
    11  H    0.000000
    12  H    1.771054   0.000000
    13  H    3.764312   3.107430   0.000000
    14  H    3.778354   2.565163   1.772139   0.000000
    15  H    4.347698   3.780113   1.769067   1.767346   0.000000
    16  H    3.107430   3.764312   2.548722   3.770363   3.125460
    17  H    3.780112   4.347698   3.125459   3.800306   2.604794
    18  H    2.565163   3.778353   3.770361   4.345377   3.800305
    19  H    2.552741   2.552741   4.211648   3.313046   3.756648
    20  H    4.638002   4.638005   3.961803   3.516693   2.464048
    21  H    8.006667   8.006671   8.127267   7.166560   6.527013
    22  H    7.034660   7.034662   7.807663   6.677780   6.424885
                   16         17         18         19         20
    16  H    0.000000
    17  H    1.769068   0.000000
    18  H    1.772138   1.767345   0.000000
    19  H    4.211648   3.756647   3.313044   0.000000
    20  H    3.961801   2.464042   3.516686   3.067600   0.000000
    21  H    8.127262   6.527005   7.166549   5.653899   4.305512
    22  H    7.807661   6.424881   6.677775   4.586482   4.295055
                   21         22
    21  H    0.000000
    22  H    1.770209   0.000000
 Stoichiometry    C6H13N3
 Framework group  C1[X(C6H13N3)]
 Deg. of freedom    60
 Full point group                 C1      NOp   1
 Largest Abelian subgroup         C1      NOp   1
 Largest concise Abelian subgroup C1      NOp   1
                         Standard orientation:                         
 ---------------------------------------------------------------------
 Center     Atomic      Atomic             Coordinates (Angstroms)
 Number     Number       Type             X           Y           Z
 ---------------------------------------------------------------------
      1          6           0       -2.816210    1.197858   -0.000004
      2          6           0       -1.820106    0.023043    0.000000
      3          6           0       -2.058398   -0.836018    1.261158
      4          6           0       -2.058393   -0.836024   -1.261154
      5          6           0       -0.407370    0.582126    0.000001
      6          6           0        0.709405   -0.153791    0.000002
      7          7           0        1.967584    0.432771   -0.000001
      8          7           0        2.909841   -0.407252   -0.000003
      9          7           0        4.140719    0.112720    0.000003
     10          1           0       -3.846848    0.827995   -0.000006
     11          1           0       -2.687598    1.830197   -0.885532
     12          1           0       -2.687601    1.830201    0.885521
     13          1           0       -3.082542   -1.227404    1.274360
     14          1           0       -1.910246   -0.248014    2.172689
     15          1           0       -1.375319   -1.690222    1.302401
     16          1           0       -3.082538   -1.227409   -1.274362
     17          1           0       -1.375313   -1.690227   -1.302393
     18          1           0       -1.910237   -0.248024   -2.172688
     19          1           0       -0.299074    1.665050   -0.000001
     20          1           0        0.668665   -1.245904    0.000003
     21          1           0        4.913406   -0.525071   -0.000003
     22          1           0        4.254668    1.118007    0.000004
 ---------------------------------------------------------------------
 Rotational constants (GHZ):           4.1532225           0.6199574           0.6126205
 Standard basis: 6-31G(2df,p) (6D, 7F)
 There are   344 symmetry adapted cartesian basis functions of A   symmetry.
 There are   317 symmetry adapted basis functions of A   symmetry.
   317 basis functions,   487 primitive gaussians,   344 cartesian basis functions
    35 alpha electrons       35 beta electrons
       nuclear repulsion energy       441.2022067015 Hartrees.
 NAtoms=   22 NActive=   22 NUniq=   22 SFac= 1.00D+00 NAtFMM=   60 NAOKFM=F Big=F
 Integral buffers will be    131072 words long.
 Raffenetti 2 integral format.
 Two-electron integral symmetry is turned on.
 One-electron integrals computed using PRISM.
 PrsmSu:  requested number of processors reduced to:  13 ShMem   1 Linda.
 NBasis=   317 RedAO= T EigKep=  2.35D-04  NBF=   317
 NBsUse=   317 1.00D-06 EigRej= -1.00D+00 NBFU=   317
 Initial guess from the checkpoint file:  "CCpCppCpCdCNdNN.chk"
 B after Tr=    -0.000000   -0.000000    0.000000
         Rot=    0.999999    0.000000    0.000000    0.001685 Ang=   0.19 deg.
 ExpMin= 1.61D-01 ExpMax= 4.17D+03 ExpMxC= 6.27D+02 IAcc=2 IRadAn=         4 AccDes= 0.00D+00
 Harris functional with IExCor=  402 and IRadAn=       4 diagonalized for initial guess.
 HarFok:  IExCor=  402 AccDes= 0.00D+00 IRadAn=         4 IDoV= 1 UseB2=F ITyADJ=14
 ICtDFT=  3500011 ScaDFX=  1.000000  1.000000  1.000000  1.000000
 FoFCou: FMM=F IPFlag=           0 FMFlag=      100000 FMFlg1=           0
         NFxFlg=           0 DoJE=T BraDBF=F KetDBF=T FulRan=T
         wScrn=  0.000000 ICntrl=       500 IOpCl=  0 I1Cent=   200000004 NGrid=           0
         NMat0=    1 NMatS0=      1 NMatT0=    0 NMatD0=    1 NMtDS0=    0 NMtDT0=    0
 Petite list used in FoFCou.
 Requested convergence on RMS density matrix=1.00D-08 within 128 cycles.
 Requested convergence on MAX density matrix=1.00D-06.
 Requested convergence on             energy=1.00D-06.
 No special actions if energy rises.
 Integral accuracy reduced to 1.0D-05 until final iterations.
 Initial convergence to 1.0D-05 achieved.  Increase integral accuracy.
 SCF Done:  E(RB3LYP) =  -400.678822350     A.U. after   12 cycles
            NFock= 12  Conv=0.40D-08     -V/T= 2.0083
 PrsmSu:  requested number of processors reduced to:  13 ShMem   1 Linda.
 Calling FoFJK, ICntrl=      2127 FMM=F ISym2X=0 I1Cent= 0 IOpClX= 0 NMat=1 NMatS=1 NMatT=0.
 ***** Axes restored to original set *****
 -------------------------------------------------------------------
 Center     Atomic                   Forces (Hartrees/Bohr)
 Number     Number              X              Y              Z
 -------------------------------------------------------------------
      1        6          -0.000719144    0.000620111    0.000993928
      2        6          -0.001079585   -0.000203915   -0.000327041
      3        6           0.000234377    0.001013693    0.000573491
      4        6           0.000234286    0.000068723    0.001162698
      5        6           0.000034284   -0.000977596   -0.001566706
      6        6           0.002083506    0.003841514    0.006156968
      7        7           0.003090386   -0.008991087   -0.014408907
      8        7           0.008732943    0.003416243    0.005474056
      9        7          -0.013926750    0.003089393    0.004950876
     10        1          -0.000481029    0.000017865    0.000028494
     11        1           0.000492141    0.000054407   -0.000107150
     12        1           0.000492092   -0.000120097    0.000001805
     13        1          -0.000153536   -0.000183029    0.000000263
     14        1           0.000037109   -0.000350690   -0.000044529
     15        1          -0.000222663   -0.000508200   -0.000096158
     16        1          -0.000153446    0.000080967   -0.000164245
     17        1          -0.000222700    0.000137195   -0.000498669
     18        1           0.000037161    0.000114418   -0.000334685
     19        1           0.000818755   -0.000117362   -0.000188101
     20        1           0.000465814   -0.000964279   -0.001545371
     21        1          -0.000237764    0.000981533    0.001573168
     22        1           0.000443764   -0.001019809   -0.001634185
 -------------------------------------------------------------------
 Cartesian Forces:  Max     0.014408907 RMS     0.003311516

 GradGradGradGradGradGradGradGradGradGradGradGradGradGradGradGradGradGrad
 Berny optimization.
 Using GEDIIS/GDIIS optimizer.
 FormGI is forming the generalized inverse of G from B-inverse, IUseBI=4.
 Internal  Forces:  Max     0.021564736 RMS     0.002679664
 Search for a local minimum.
 Step number   2 out of a maximum of  109
 All quantities printed in internal units (Hartrees-Bohrs-Radians)
 Mixed Optimization -- RFO/linear search
 Update second derivatives using D2CorX and points    1    2
 DE= -1.61D-03 DEPred=-2.63D-03 R= 6.09D-01
 TightC=F SS=  1.41D+00  RLast= 1.52D-01 DXNew= 5.0454D-01 4.5567D-01
 Trust test= 6.09D-01 RLast= 1.52D-01 DXMaxT set to 4.56D-01
 ITU=  1  0
 Use linear search instead of GDIIS.
     Eigenvalues ---    0.00230   0.00240   0.00240   0.00387   0.01262
     Eigenvalues ---    0.01348   0.02050   0.02132   0.02550   0.02780
     Eigenvalues ---    0.03309   0.04800   0.05087   0.05349   0.05366
     Eigenvalues ---    0.05370   0.05372   0.05458   0.05458   0.05463
     Eigenvalues ---    0.14149   0.14940   0.15364   0.16000   0.16000
     Eigenvalues ---    0.16000   0.16000   0.16000   0.16000   0.16000
     Eigenvalues ---    0.16000   0.16000   0.16000   0.16000   0.16070
     Eigenvalues ---    0.20113   0.22017   0.24759   0.28200   0.28450
     Eigenvalues ---    0.28539   0.29395   0.33890   0.34049   0.34050
     Eigenvalues ---    0.34088   0.34107   0.34120   0.34123   0.34195
     Eigenvalues ---    0.34203   0.34916   0.35051   0.40973   0.44736
     Eigenvalues ---    0.45879   0.48183   0.55014   0.61213   0.89410
 RFO step:  Lambda=-1.03441965D-03 EMin= 2.30000000D-03
 Quartic linear search produced a step of -0.26914.
 Iteration  1 RMS(Cart)=  0.02497492 RMS(Int)=  0.00022247
 Iteration  2 RMS(Cart)=  0.00040570 RMS(Int)=  0.00001844
 Iteration  3 RMS(Cart)=  0.00000003 RMS(Int)=  0.00001844
 Variable       Old X    -DE/DX   Delta X   Delta X   Delta X     New X
                                 (Linear)    (Quad)   (Total)
    R1        2.91068   0.00019   0.00157  -0.00221  -0.00063   2.91004
    R2        2.06924   0.00021   0.00140  -0.00196  -0.00056   2.06868
    R3        2.07057  -0.00023   0.00018  -0.00079  -0.00061   2.06996
    R4        2.07057  -0.00023   0.00018  -0.00079  -0.00061   2.06996
    R5        2.91856  -0.00007  -0.00238   0.00389   0.00152   2.92008
    R6        2.91856  -0.00007  -0.00237   0.00389   0.00152   2.92008
    R7        2.87114   0.00183   0.00473  -0.00358   0.00114   2.87228
    R8        2.07201  -0.00004   0.00012  -0.00029  -0.00017   2.07185
    R9        2.06887  -0.00014   0.00071  -0.00151  -0.00080   2.06807
   R10        2.06833  -0.00026   0.00042  -0.00127  -0.00085   2.06748
   R11        2.07201  -0.00004   0.00012  -0.00028  -0.00017   2.07185
   R12        2.06833  -0.00026   0.00042  -0.00127  -0.00085   2.06748
   R13        2.06887  -0.00014   0.00071  -0.00151  -0.00080   2.06807
   R14        2.52741   0.00046   0.00523  -0.00848  -0.00325   2.52416
   R15        2.05664  -0.00039  -0.00020  -0.00046  -0.00066   2.05597
   R16        2.62330   0.00401  -0.00777   0.01927   0.01150   2.63480
   R17        2.06523  -0.00093  -0.00265   0.00264  -0.00001   2.06521
   R18        2.38547  -0.00633  -0.00742   0.00745   0.00004   2.38550
   R19        2.52505  -0.00990   0.00026  -0.01290  -0.01264   2.51241
   R20        1.89333  -0.00051   0.00551  -0.01035  -0.00484   1.88849
   R21        1.91188   0.00114  -0.00006   0.00192   0.00186   1.91374
    A1        1.92951   0.00091   0.00204   0.00167   0.00371   1.93322
    A2        1.94365  -0.00067   0.00119  -0.00551  -0.00432   1.93933
    A3        1.94365  -0.00067   0.00119  -0.00551  -0.00432   1.93933
    A4        1.88117   0.00001  -0.00241   0.00499   0.00259   1.88375
    A5        1.88117   0.00001  -0.00241   0.00499   0.00258   1.88375
    A6        1.88213   0.00043   0.00011  -0.00001   0.00008   1.88221
    A7        1.90126  -0.00001  -0.00492   0.00727   0.00243   1.90368
    A8        1.90126  -0.00001  -0.00492   0.00727   0.00243   1.90368
    A9        1.89723   0.00015   0.00832  -0.01062  -0.00233   1.89490
   A10        1.91092  -0.00022  -0.00115  -0.00154  -0.00261   1.90831
   A11        1.92639   0.00005   0.00121  -0.00109   0.00008   1.92647
   A12        1.92639   0.00005   0.00121  -0.00109   0.00008   1.92647
   A13        1.93103  -0.00009   0.00199  -0.00342  -0.00143   1.92960
   A14        1.93935  -0.00027   0.00058  -0.00231  -0.00173   1.93761
   A15        1.94828  -0.00061   0.00077  -0.00431  -0.00354   1.94474
   A16        1.88398   0.00027  -0.00198   0.00502   0.00304   1.88702
   A17        1.87958   0.00042  -0.00247   0.00621   0.00374   1.88332
   A18        1.87899   0.00034   0.00088  -0.00056   0.00032   1.87931
   A19        1.93103  -0.00009   0.00200  -0.00343  -0.00143   1.92960
   A20        1.94828  -0.00061   0.00078  -0.00431  -0.00354   1.94474
   A21        1.93935  -0.00027   0.00058  -0.00230  -0.00173   1.93761
   A22        1.87958   0.00042  -0.00247   0.00621   0.00374   1.88332
   A23        1.88398   0.00027  -0.00198   0.00502   0.00304   1.88702
   A24        1.87899   0.00034   0.00088  -0.00056   0.00032   1.87931
   A25        2.18211   0.00191  -0.00010   0.00649   0.00639   2.18850
   A26        2.04730  -0.00018  -0.00054   0.00125   0.00071   2.04802
   A27        2.05378  -0.00173   0.00064  -0.00774  -0.00710   2.04667
   A28        2.12270  -0.00268   0.01202  -0.02923  -0.01721   2.10549
   A29        2.11616   0.00303  -0.00870   0.02677   0.01807   2.13423
   A30        2.04433  -0.00035  -0.00331   0.00245  -0.00086   2.04347
   A31        1.97725  -0.00605   0.00086  -0.01907  -0.01821   1.95904
   A32        2.01379  -0.02156  -0.02437  -0.02119  -0.04556   1.96824
   A33        2.05184  -0.00330   0.00462  -0.02267  -0.01805   2.03379
   A34        2.08337   0.00319  -0.00192   0.01768   0.01576   2.09912
   A35        2.14798   0.00011  -0.00269   0.00499   0.00229   2.15027
    D1       -1.04175   0.00014   0.00344  -0.00333   0.00015  -1.04160
    D2        1.04175  -0.00014  -0.00344   0.00333  -0.00015   1.04160
    D3        3.14159   0.00000  -0.00000   0.00000   0.00000   3.14159
    D4       -3.13256  -0.00004   0.00433  -0.00710  -0.00273  -3.13529
    D5       -1.04906  -0.00032  -0.00255  -0.00044  -0.00302  -1.05209
    D6        1.05078  -0.00018   0.00089  -0.00377  -0.00287   1.04791
    D7        1.04906   0.00032   0.00255   0.00044   0.00302   1.05208
    D8        3.13256   0.00004  -0.00433   0.00710   0.00273   3.13529
    D9       -1.05078   0.00018  -0.00089   0.00377   0.00288  -1.04791
   D10        1.04252  -0.00013  -0.00433   0.00453   0.00019   1.04271
   D11       -1.05001  -0.00023  -0.00354   0.00200  -0.00154  -1.05156
   D12        3.13540  -0.00007  -0.00559   0.00721   0.00161   3.13701
   D13       -1.03496   0.00002   0.00505  -0.00771  -0.00266  -1.03761
   D14       -3.12749  -0.00008   0.00584  -0.01024  -0.00439  -3.13188
   D15        1.05792   0.00008   0.00379  -0.00503  -0.00123   1.05669
   D16        3.12429   0.00007   0.00352  -0.00464  -0.00111   3.12318
   D17        1.03176  -0.00003   0.00431  -0.00717  -0.00285   1.02891
   D18       -1.06602   0.00013   0.00226  -0.00195   0.00031  -1.06571
   D19       -1.04252   0.00013   0.00433  -0.00453  -0.00020  -1.04271
   D20       -3.13540   0.00007   0.00559  -0.00721  -0.00161  -3.13701
   D21        1.05001   0.00023   0.00354  -0.00200   0.00155   1.05156
   D22        1.03496  -0.00002  -0.00505   0.00770   0.00265   1.03761
   D23       -1.05792  -0.00008  -0.00379   0.00503   0.00124  -1.05668
   D24        3.12749   0.00008  -0.00584   0.01024   0.00439   3.13188
   D25       -3.12429  -0.00007  -0.00352   0.00463   0.00111  -3.12318
   D26        1.06602  -0.00013  -0.00226   0.00196  -0.00031   1.06571
   D27       -1.03176   0.00003  -0.00431   0.00717   0.00285  -1.02891
   D28       -3.14159  -0.00000   0.00000  -0.00000  -0.00000  -3.14159
   D29        0.00000   0.00000   0.00000  -0.00000   0.00000   0.00000
   D30        1.05738  -0.00011   0.00008  -0.00169  -0.00158   1.05580
   D31       -2.08421  -0.00011   0.00008  -0.00168  -0.00158  -2.08579
   D32       -1.05738   0.00011  -0.00008   0.00168   0.00158  -1.05580
   D33        2.08421   0.00011  -0.00008   0.00169   0.00158   2.08579
   D34        3.14159   0.00000   0.00000   0.00000   0.00000  -3.14159
   D35       -0.00000  -0.00000  -0.00000   0.00000   0.00000   0.00000
   D36       -0.00000   0.00000   0.00000  -0.00000   0.00000  -0.00000
   D37       -3.14159  -0.00000  -0.00000   0.00000  -0.00000   3.14159
   D38       -3.14159  -0.00000  -0.00000  -0.00000  -0.00000  -3.14159
   D39        0.00000   0.00000   0.00000  -0.00000  -0.00000   0.00000
   D40       -3.14159  -0.00000  -0.00000  -0.00001  -0.00001   3.14159
   D41       -3.14159   0.00000  -0.00000   0.00000   0.00000  -3.14158
   D42       -0.00001   0.00000   0.00000  -0.00000  -0.00000  -0.00001
   D43        3.14158  -0.00000   0.00000  -0.00001  -0.00000   3.14158
         Item               Value     Threshold  Converged?
 Maximum Force            0.021565     0.000450     NO 
 RMS     Force            0.002680     0.000300     NO 
 Maximum Displacement     0.110299     0.001800     NO 
 RMS     Displacement     0.025036     0.001200     NO 
 Predicted change in Energy=-7.650998D-04
 GradGradGradGradGradGradGradGradGradGradGradGradGradGradGradGradGradGrad

                          Input orientation:                          
 ---------------------------------------------------------------------
 Center     Atomic      Atomic             Coordinates (Angstroms)
 Number     Number       Type             X           Y           Z
 ---------------------------------------------------------------------
      1          6           0        1.115226   -0.084533   -0.030311
      2          6           0        2.653849   -0.050982    0.023453
      3          6           0        3.128019    1.419499   -0.001352
      4          6           0        3.128021   -0.719499    1.333420
      5          6           0        3.196769   -0.802557   -1.180960
      6          6           0        4.490161   -0.979173   -1.463991
      7          7           0        4.878497   -1.688093   -2.600051
      8          7           0        6.133768   -1.758790   -2.713344
      9          7           0        6.515796   -2.432953   -3.793693
     10          1           0        0.685316    0.448440    0.823789
     11          1           0        0.741957   -1.114104   -0.007963
     12          1           0        0.741956    0.388010   -0.945308
     13          1           0        2.722703    1.969239    0.856283
     14          1           0        2.797836    1.923003   -0.915202
     15          1           0        4.219128    1.488329    0.040169
     16          1           0        2.722702   -0.190718    2.204134
     17          1           0        4.219130   -0.712449    1.413494
     18          1           0        2.797840   -1.761647    1.384083
     19          1           0        2.472600   -1.232404   -1.869799
     20          1           0        5.286119   -0.582722   -0.828671
     21          1           0        7.500474   -2.523270   -3.938413
     22          1           0        5.824742   -2.824867   -4.421728
 ---------------------------------------------------------------------
                    Distance matrix (angstroms):
                    1          2          3          4          5
     1  C    0.000000
     2  C    1.539928   0.000000
     3  C    2.512825   1.545240   0.000000
     4  C    2.512825   1.545240   2.521295   0.000000
     5  C    2.484426   1.519947   2.516691   2.516690   0.000000
     6  C    3.774389   2.538912   3.122238   3.122237   1.335726
     7  N    4.830857   3.809457   4.412996   4.412996   2.371962
     8  N    5.931911   4.745155   5.146935   5.146934   3.447977
     9  N    6.988869   5.929505   6.379676   6.379673   4.527749
    10  H    1.094700   2.182907   2.755107   2.755107   3.448392
    11  H    1.095375   2.187818   3.480299   2.765560   2.738445
    12  H    1.095375   2.187818   2.765560   3.480299   2.738446
    13  H    2.754634   2.186239   1.096373   2.760662   3.472456
    14  H    2.764852   2.190530   1.094376   3.485418   2.767391
    15  H    3.480384   2.195417   1.094066   2.781639   2.790078
    16  H    2.754633   2.186238   2.760662   1.096374   3.472456
    17  H    3.480384   2.195417   2.781639   1.094066   2.790078
    18  H    2.764853   2.190530   3.485418   1.094376   2.767389
    19  H    2.558084   2.238976   3.309571   3.309571   1.087974
    20  H    4.275736   2.817393   3.057898   3.057896   2.130215
    21  H    7.873506   6.730406   7.082671   7.082666   5.393170
    22  H    6.998108   6.124429   6.695273   6.695267   4.636654
                    6          7          8          9         10
     6  C    0.000000
     7  N    1.394275   0.000000
     8  N    2.206836   1.262354   0.000000
     9  N    3.412358   2.158784   1.329510   0.000000
    10  H    4.663568   5.819813   6.860670   7.976093   0.000000
    11  H    4.023339   4.915216   6.066822   7.029106   1.771034
    12  H    4.023340   4.915217   6.066823   7.029108   1.771034
    13  H    4.147375   5.474466   6.186744   7.442388   2.542603
    14  H    3.404080   4.495317   5.283687   6.409625   3.108242
    15  H    2.902503   4.182725   4.668133   5.945557   3.766067
    16  H    4.147375   5.474466   6.186744   7.442386   2.542601
    17  H    2.902503   4.182726   4.668132   5.945554   3.766067
    18  H    3.404078   4.495316   5.283685   6.409619   3.108242
    19  H    2.073490   2.555242   3.793784   4.635744   3.643492
    20  H    1.092864   2.127389   2.377737   3.704972   4.996129
    21  H    4.191537   3.059983   1.988243   0.999346   8.829270
    22  H    3.733082   2.346517   2.037301   1.012709   8.040130
                   11         12         13         14         15
    11  H    0.000000
    12  H    1.770582   0.000000
    13  H    3.765273   3.109561   0.000000
    14  H    3.778060   2.565882   1.773680   0.000000
    15  H    4.343466   3.777909   1.771047   1.766846   0.000000
    16  H    3.109561   3.765271   2.546001   3.768782   3.121095
    17  H    3.777909   4.343466   3.121095   3.793219   2.594118
    18  H    2.565883   3.778061   3.768784   4.343196   3.793219
    19  H    2.544711   2.544712   4.212433   3.312646   3.755094
    20  H    4.648154   4.648154   3.990323   3.532378   2.486485
    21  H    7.944290   7.944294   8.123968   7.143105   6.533703
    22  H    6.945699   6.945703   7.775828   6.633261   6.410163
                   16         17         18         19         20
    16  H    0.000000
    17  H    1.771047   0.000000
    18  H    1.773682   1.766847   0.000000
    19  H    4.212433   3.755095   3.312647   0.000000
    20  H    3.990323   2.486484   3.532375   3.069514   0.000000
    21  H    8.123963   6.533697   7.143095   5.587935   4.282474
    22  H    7.775824   6.410158   6.633251   4.503902   4.269354
                   21         22
    21  H    0.000000
    22  H    1.769925   0.000000
 Stoichiometry    C6H13N3
 Framework group  C1[X(C6H13N3)]
 Deg. of freedom    60
 Full point group                 C1      NOp   1
 Largest Abelian subgroup         C1      NOp   1
 Largest concise Abelian subgroup C1      NOp   1
[...]
 04479,-0.00006234,-0.00002112,0.00004475,0.00005267,-0.00605314,0.0071
 7059,-0.01398792,0.01029073,-0.01254154,0.02613258,-0.04038515,0.10074
 257,-0.07152408,0.09476077,-0.23063821,0.00063976,0.00021885,-0.001602
 76,0.00037283,0.00004546,-0.00000120,-0.00090105,-0.00047746,0.0008337
 3,0.00041222,-0.00076434,0.00050898,-0.00009145,0.00007110,0.00034585,
 -0.00009635,0.00005049,-0.00003015,0.00006007,-0.00003708,-0.00009106,
 -0.00005828,0.00005861,0.00013310,-0.00813344,0.01168529,-0.02018052,0
 .00053815,-0.00073678,-0.00011674,0.07885576,-0.10486129,0.24937025,0.
 00084696,-0.00039547,-0.00090939,0.00246486,-0.00592282,-0.00768201,-0
 .08511316,0.04882924,0.07690288,-0.00005063,0.00045791,-0.00005975,-0.
 00017091,-0.00134858,0.00056055,0.00003465,-0.00003827,-0.00011289,0.0
 0030351,0.00034334,-0.00005141,-0.00012158,0.00007616,-0.00006624,0.00
 006292,-0.00009527,-0.00009313,-0.00003909,-0.00018995,0.00024514,0.00
 011476,0.00023281,0.00004616,-0.00006045,-0.00000995,-0.00005496,0.088
 73228,0.00149419,0.00106215,-0.00049662,0.01200358,-0.01642604,-0.0244
 4002,0.04812171,-0.10801367,-0.09763979,0.00060605,0.00123498,-0.00146
 743,-0.00218622,-0.00476961,0.00070592,-0.00092187,-0.00017245,-0.0002
 6697,0.00078140,0.00028511,-0.00020435,-0.00055455,0.00039393,0.000626
 96,0.00039250,-0.00054482,-0.00087388,-0.00090942,0.00024325,0.0004415
 0,0.00013669,0.00028415,0.00040919,-0.00016349,-0.00000158,0.00008707,
 -0.05193469,0.11934774,0.00021244,0.00022433,-0.00011311,-0.00022922,0
 .00094104,-0.00086767,0.07695647,-0.09857813,-0.20535702,-0.00011707,0
 .00054789,0.00043044,0.00054140,-0.00060606,0.00104831,-0.00081572,-0.
 00006310,0.00045918,0.00043287,-0.00005154,-0.00012492,-0.00037882,0.0
 0022197,0.00029395,0.00018437,-0.00026237,-0.00039502,-0.00052685,-0.0
 0011360,0.00037648,-0.00024553,0.00016849,0.00022198,0.00005400,-0.000
 08400,-0.00005146,-0.08578147,0.10941910,0.22185228,0.00095383,-0.0001
 6834,0.00102966,0.00166321,-0.00412728,0.00872530,-0.07092825,0.035773
 26,-0.06723139,-0.00053736,-0.00183331,0.00007569,0.00033595,0.0001497
 5,0.00011485,-0.00057640,-0.00014121,-0.00014907,0.00008041,0.00003126
 ,0.00022169,0.00001730,-0.00002589,-0.00000054,-0.00000062,-0.00001731
 ,0.00000184,-0.00003363,-0.00002019,0.00005519,0.00009773,0.00021320,-
 0.00008811,-0.00009401,-0.00013844,-0.00028394,0.00348968,-0.00643814,
 0.01109015,0.07339148,0.00156785,0.00112297,0.00043835,0.01005041,-0.0
 1447475,0.02587417,0.03512238,-0.09793778,0.09738787,-0.00281611,-0.00
 631445,-0.00128160,-0.00061020,0.00160622,0.00135611,0.00049748,0.0002
 3485,-0.00055329,-0.00012972,-0.00007557,0.00002057,0.00019774,-0.0001
 2462,-0.00015151,-0.00008027,0.00015509,0.00018172,-0.00015823,0.00000
 083,-0.00008489,0.00019283,0.00018558,-0.00037481,-0.00086071,0.000240
 65,-0.00048948,-0.00571612,0.00738163,-0.01352995,-0.03725852,0.108576
 06,-0.00012265,-0.00033718,-0.00002118,0.00014602,-0.00076494,-0.00059
 893,-0.06710352,0.09902157,-0.23355825,0.00050683,0.00038519,0.0008745
 4,0.00059432,-0.00054711,0.00071398,-0.00021665,0.00002463,0.00024538,
 -0.00003227,0.00005718,-0.00007157,0.00004043,-0.00004314,-0.00012292,
 -0.00005697,0.00006277,0.00015488,-0.00006203,0.00007661,-0.00006149,0
 .00019598,-0.00012373,0.00023798,0.00051962,0.00014243,0.00037688,-0.0
 0834518,0.01121354,-0.01991149,0.07400503,-0.10886899,0.25188277,0.000
 73955,-0.00299920,0.00011359,-0.01022522,0.00035731,-0.00069690,-0.308
 64070,-0.01254578,-0.01215610,0.00038560,0.00073185,-0.00032620,0.0001
 4491,0.00048793,0.00095766,-0.00023465,0.00042905,-0.00025841,0.000445
 00,0.00015471,0.00008332,-0.00008685,0.00002758,-0.00007459,0.00005976
 ,-0.00005063,-0.00007651,0.00034735,0.00013727,-0.00009176,-0.00075065
 ,-0.00017674,-0.00004729,0.00025428,0.00016126,0.00005531,-0.01114126,
 -0.00046201,-0.00123728,-0.00897251,-0.00025799,0.00033765,0.33632455,
 -0.00094235,-0.00668808,0.00017718,-0.03151580,-0.00217908,-0.00150421
 ,-0.01027411,-0.04661294,-0.00056421,-0.00067160,0.00188548,-0.0010030
 4,-0.00048892,0.00169734,0.00105811,-0.00036687,-0.00026485,-0.0002801
 0,0.00038005,0.00012684,0.00010812,0.00004878,-0.00012357,-0.00026685,
 -0.00005420,0.00009292,0.00017039,0.00004117,0.00003651,0.00027236,-0.
 00233123,-0.00003401,-0.00004500,0.00015089,0.00000352,-0.00020063,0.0
 1572337,0.00026676,0.00176427,0.01445437,0.00027979,-0.00031855,0.0141
 8141,0.05203471,0.00004941,0.00001272,0.00002283,0.00041578,-0.0002818
 1,-0.00173205,-0.01144519,-0.00037062,-0.04700067,0.00097884,-0.000145
 85,0.00018437,-0.00086372,0.00047231,0.00009945,-0.00002388,-0.0001281
 8,-0.00014918,0.00012916,0.00003726,-0.00002925,0.00001432,-0.00003139
 ,-0.00014837,-0.00002401,0.00006204,0.00007779,-0.00039754,0.00007786,
 0.00021802,-0.00001621,0.00002707,0.00069874,0.00040033,-0.00003162,0.
 00026098,0.02570889,0.00172063,0.00150069,-0.02773656,-0.00168291,-0.0
 0103299,0.01261463,0.00050353,0.04665795,0.00084696,-0.00064307,-0.000
 75488,0.00246486,-0.00429754,-0.00869623,-0.00005063,-0.00025491,0.000
 38507,-0.08511310,0.04761960,0.07765766,-0.00017092,0.00109617,-0.0009
 6503,0.00003464,-0.00008457,-0.00008399,0.00030352,-0.00019707,0.00028
 581,-0.00012158,-0.00009298,0.00003929,0.00006292,-0.00004178,-0.00012
 651,-0.00003909,0.00030367,-0.00006290,-0.00006045,-0.00004499,-0.0000
 3309,0.00011476,-0.00006085,0.00022941,0.00025464,-0.00019497,0.000121
 91,-0.00007247,-0.00020002,-0.00010773,-0.00002558,0.00009103,0.000114
 18,0.08873222,-0.00046583,0.00022136,-0.00018703,-0.00548110,0.0054038
 7,0.01162124,-0.00037150,0.00094881,0.00040789,0.04797868,-0.10909844,
 -0.09910888,0.00144709,-0.00011474,0.00167132,-0.00032759,0.00046748,0
 .00024998,0.00004543,0.00005529,-0.00016397,-0.00009657,-0.00002186,0.
 00001854,-0.00000688,0.00002459,0.00001621,-0.00007359,0.00022131,-0.0
 0012433,0.00012035,-0.00004304,-0.00010429,-0.00028062,0.00000594,0.00
 003238,0.00019519,-0.00013382,0.00011319,0.00001470,0.00021057,-0.0002
 1419,-0.00004678,-0.00007799,0.00000528,-0.05423011,0.11566740,0.00143
 553,-0.00090797,0.00072768,0.01068157,-0.01375980,-0.02269755,0.000492
 94,-0.00160743,0.00071660,0.07704566,-0.09817054,-0.20427236,-0.001725
 85,0.00298328,-0.00360656,-0.00118656,0.00004614,-0.00018075,0.0008921
 3,-0.00031681,0.00010489,-0.00066460,0.00042350,0.00070977,0.00043359,
 -0.00059523,-0.00096448,-0.00104843,0.00043076,0.00039841,-0.00012312,
 0.00006679,-0.00001000,0.00001487,0.00027307,0.00050018,-0.00012155,0.
 00107458,0.00044729,-0.00028169,0.00004864,0.00046760,-0.00007030,0.00
 013201,-0.00000828,-0.08434901,0.10761854,0.22553272,0.00073955,0.0014
 2010,-0.00264414,-0.01022523,-0.00078303,0.00001470,0.00038560,-0.0006
 1463,0.00051403,-0.30864067,-0.00540589,-0.01661147,0.00014491,0.00064
 580,0.00085916,-0.00023466,-0.00042067,0.00027184,0.00044501,0.0000068
 6,0.00017559,-0.00008686,-0.00007913,-0.00000801,0.00005976,-0.0000464
 7,-0.00007910,0.00034735,-0.00014275,0.00008298,0.00025428,-0.00002118
 ,0.00016916,-0.00075066,0.00003519,-0.00017954,-0.00002558,-0.00004259
 ,-0.00007291,0.00033359,0.00000497,-0.00001398,0.00061482,0.00060976,-
 0.00014996,-0.01114126,-0.00090836,-0.00095874,0.33632451,0.00045852,-
 0.00134823,0.00262522,0.01422370,-0.00111333,0.00023959,0.00117440,0.0
 0096644,-0.00059549,-0.00576564,-0.04655676,-0.00034314,-0.00056097,-0
 .00019609,-0.00045404,0.00013977,-0.00001035,-0.00000367,-0.00005100,-
 0.00005650,-0.00005243,-0.00000857,-0.00002585,0.00001642,0.00000225,-
 0.00001104,0.00001118,-0.00037519,0.00004471,0.00008188,0.00029328,0.0
 0030294,0.00011487,0.00100995,0.00056430,0.00031979,0.00006255,-0.0000
 7594,0.00000629,-0.00024654,0.00016169,-0.00015062,-0.00040268,-0.0001
 8247,0.00028975,0.01618327,-0.00011331,0.00153467,0.00509895,0.0472988
 4,-0.00082476,0.00278968,-0.00531701,-0.02812658,-0.00098281,-0.002797
 78,-0.00017310,-0.00145268,0.00110341,-0.01425849,-0.00053672,-0.04705
 684,-0.00081875,0.00013176,0.00199288,-0.00034004,-0.00015559,-0.00040
 370,0.00039815,0.00001842,0.00015409,0.00005011,-0.00021903,-0.0002461
 0,-0.00005924,0.00011951,0.00018176,-0.00013773,0.00027637,0.00020982,
 0.00031147,-0.00005414,-0.00003844,-0.00210117,0.00024772,0.00010043,0
 .00013195,0.00013301,-0.00001033,0.00016645,-0.00030189,-0.00001602,0.
 00048182,0.00041210,0.00016091,0.02542191,0.00157832,0.00188075,0.0182
 8216,-0.00181347,0.05139382,0.00095382,0.00099888,0.00030129,0.0016632
 2,0.00965139,0.00012714,-0.00053736,0.00087367,-0.00161352,-0.07092822
 ,-0.07611233,0.00258749,0.00033595,0.00003736,0.00018499,-0.00057640,-
 0.00007184,-0.00019235,0.00008041,0.00018540,0.00012551,0.00001730,0.0
 0001090,-0.00002348,-0.00000062,0.00000926,-0.00001474,-0.00003363,0.0
 0005845,0.00000611,-0.00009401,-0.00019421,-0.00024914,0.00009773,-0.0
 0017284,0.00015279,-0.00007247,-0.00025950,-0.00011059,0.00071174,0.00
 052189,-0.00020021,0.00033359,0.00025787,-0.00014831,0.00348967,0.0127
 9117,-0.00090933,-0.00897250,-0.03126683,0.00079439,0.07339144,-0.0007
 9919,0.00015986,-0.00080838,-0.00428568,-0.01319085,-0.00013679,0.0016
 9286,-0.00016003,0.00339622,-0.07571142,-0.28489941,0.00755133,0.00080
 202,0.00056694,-0.00105557,-0.00041324,0.00045204,0.00013089,0.0000280
 2,-0.00010304,0.00004375,-0.00005058,-0.00004641,-0.00000488,-0.000015
 89,0.00005840,0.00001546,0.00001382,-0.00004619,0.00005361,0.00084501,
 0.00048757,0.00026323,0.00009129,0.00042466,-0.00000676,-0.00000887,0.
 00048331,-0.00008075,-0.00040919,-0.00092735,0.00024077,-0.00001474,0.
 00019693,-0.00013338,-0.00498406,-0.01372586,0.00088678,0.00041667,0.0
 0001063,-0.00045023,0.08284952,0.31015905,0.00135444,-0.00003285,0.000
 94193,0.00909203,0.02650231,-0.00188283,-0.00230686,0.00172943,-0.0052
 7988,0.00205902,0.00591763,-0.04659668,-0.00028694,0.00084765,0.001753
 26,0.00035165,-0.00044704,0.00002819,-0.00013070,0.00000713,-0.0000441
 1,0.00019539,-0.00011324,-0.00020114,-0.00009714,0.00013440,0.00025158
 ,-0.00016939,-0.00010789,-0.00001447,-0.00054478,-0.00036867,0.0001299
 6,0.00025934,-0.00025784,-0.00000110,-0.00022701,0.00018208,0.00019486
 ,0.00038080,0.00206638,0.00020141,-0.00000168,-0.00028465,-0.00005126,
 -0.00880200,-0.02385673,0.00119601,-0.00008335,-0.00181457,-0.00076385
 ,-0.00094482,-0.01024531,0.05029983,0.00063555,0.00108631,0.00174084,0
 .00694596,0.00504758,0.00808880,-0.00053186,0.00062790,0.00095154,-0.0
 0053186,0.00057878,0.00098219,-0.17498169,-0.07114839,-0.11401656,-0.0
 2115227,-0.01431388,-0.02293827,0.00253593,-0.00102756,-0.00164668,0.0
 0070229,0.00043647,0.00069947,0.00005341,0.00007572,0.00012134,0.00000
 945,-0.00003450,-0.00005529,0.00025881,-0.00011901,0.00009573,0.000258
 82,0.00013829,-0.00006482,0.00015878,0.00044536,-0.00008110,0.00001388
 ,-0.00001518,-0.00012637,0.00003358,0.00003339,0.00008230,0.00015878,-
 0.00026857,0.00036441,0.00003358,0.00005925,0.00006616,0.00001388,-0.0
 0010684,-0.00006917,0.18988303,-0.00123512,0.00098195,-0.00018672,-0.0
 0852767,-0.00121819,-0.00885567,0.00062663,-0.00060508,-0.00120323,0.0
 0080964,-0.00175400,-0.00021378,-0.07357491,-0.08394291,-0.07597559,0.
 00288770,0.00800875,-0.00077905,0.00071945,-0.00548001,0.00388904,-0.0
 0013553,-0.00037731,0.00011131,-0.00002739,-0.00005326,-0.00015696,0.0
 0002575,0.00010436,0.00034311,0.00030229,0.00017504,-0.00000565,0.0004
 4591,-0.00050861,0.00024155,0.00014899,-0.00078419,-0.00004040,0.00005
 753,-0.00027733,0.00017498,0.00006623,0.00024651,0.00002805,-0.0003855
 8,0.00019718,-0.00028918,-0.00010263,0.00009352,-0.00009678,-0.0000291
 8,0.00006207,0.00008373,0.07723182,0.07748714,-0.00197929,-0.00018672,
 0.00079923,-0.01366567,-0.00885565,-0.00988340,0.00120792,0.00034832,-
 0.00244727,0.00109372,-0.00176534,-0.00129835,-0.11790525,-0.07597553,
 -0.15828497,0.00462770,-0.00077922,0.00724622,0.00115279,0.00388909,-0
 .00167451,-0.00021714,0.00011134,-0.00026834,-0.00004388,-0.00015694,-
 0.00020684,0.00004127,0.00034311,0.00044010,0.00064431,0.00057602,-0.0
 0039319,0.00055469,-0.00034012,0.00029045,-0.00035636,-0.00076932,0.00
 003594,-0.00000433,-0.00008232,0.00018864,-0.00008186,-0.00002193,0.00
 005989,-0.00002277,0.00043974,-0.00094544,0.00002351,-0.00004680,0.000
 21288,0.00004977,0.00034103,-0.00015076,0.12376544,0.08777967,0.163379
 48,0.00004414,0.00011630,0.00018637,0.00059137,-0.00068571,-0.00109886
 ,-0.00061570,-0.00015572,-0.00004287,-0.00061570,0.00002993,-0.0001587
 2,-0.01599464,-0.01176344,-0.01885117,-0.20253401,-0.06877637,-0.11021
 579,0.00510869,0.00352865,0.00565454,0.00383150,0.00132081,0.00211678,
 -0.00002703,0.00004978,0.00007974,-0.00007611,0.00008474,0.00013580,0.
 00012274,0.00011131,-0.00007621,0.00012274,-0.00011737,0.00006649,0.00
 031815,0.00012855,0.00003199,0.00012684,-0.00006554,0.00003355,0.00039
 063,0.00065079,0.00028238,0.00031815,-0.00002776,0.00012953,0.00039065
 ,-0.00003235,0.00070868,0.00012684,0.00005894,-0.00004413,-0.00436001,
 0.00068756,0.00110181,0.21331307,-0.00007236,-0.00004742,0.00016589,-0
 .00012912,-0.00360389,0.00215508,0.00037160,-0.00022937,-0.00034457,-0
 .00029868,0.00017619,0.00007308,0.00319429,0.00697424,0.00094018,-0.06
 741047,-0.07925868,-0.05640912,-0.01026127,-0.00252697,-0.01990559,-0.
 00291540,-0.00009627,0.00381407,0.00094335,-0.00052478,0.00006124,-0.0
 0002149,-0.00003086,-0.00000339,-0.00009177,-0.00002039,0.00004508,0.0
 0006992,-0.00002744,-0.00000674,-0.00038733,-0.00004985,-0.00000928,0.
 00010125,-0.00000100,-0.00004225,0.00024516,-0.00070281,-0.00040500,0.
 00039741,-0.00008668,0.00011833,0.00031332,0.00022552,0.00034471,-0.00
 011325,0.00005430,0.00004923,0.00124080,0.00751398,-0.00474441,0.07505
 390,0.07192081,-0.00011596,0.00016589,0.00011490,-0.00020691,0.0021551
 0,-0.00149516,-0.00015072,-0.00012534,0.00004337,0.00026756,-0.0001461
 6,-0.00036220,0.00511881,0.00094011,0.00789413,-0.10802705,-0.05640923
 ,-0.13445544,-0.01644376,-0.01990538,-0.02200430,-0.00467194,0.0038140
 2,0.00363577,0.00151172,0.00006129,-0.00046489,-0.00003443,-0.00000339
 ,-0.00003418,0.00003294,-0.00000329,-0.00000869,-0.00006795,0.00004162
 ,-0.00000163,0.00025293,0.00013635,-0.00003332,-0.00007653,0.00002217,
 0.00005772,0.00046876,-0.00010946,0.00019601,-0.00023676,-0.00002730,0
 .00000350,0.00042623,0.00004917,-0.00073231,0.00005731,-0.00001519,0.0
 0000241,0.00198836,-0.00474443,0.00287162,0.12027578,0.07382978,0.1441
 6349,-0.00006384,-0.00003418,-0.00005478,-0.00023155,0.00008067,0.0001
 2928,0.00015149,0.00002209,-0.00014909,0.00015149,-0.00014363,-0.00004
 568,0.00015580,-0.00007757,-0.00012430,0.00075472,0.00037094,0.0005945
 6,0.00208199,0.00119321,0.00191167,-0.00586832,0.00045406,0.00072783,-
 0.47226857,0.03253864,0.05212790,0.00004407,-0.00002416,-0.00003872,-0
 .00001484,0.00000829,0.00001422,-0.00001484,0.00000913,0.00001369,-0.0
 0001147,-0.00010861,-0.00005462,-0.00000580,0.00002856,0.00001606,-0.0
 0001050,0.00001838,0.00001300,-0.00001147,-0.00000133,-0.00012156,-0.0
 0001050,0.00000360,0.00002223,-0.00000580,0.00000187,0.00003271,-0.000
 01613,-0.00003527,-0.00005652,-0.00013951,0.00006697,0.00010731,0.4808
 4985,-0.00000649,-0.00003332,-0.00002748,0.00005391,-0.00049558,0.0003
 7564,0.00007459,-0.00002486,-0.00009627,-0.00002188,0.00003172,0.00007
 009,-0.00007117,-0.00017788,-0.00036337,0.00125673,0.00311123,-0.00158
 221,0.00036710,0.00064739,-0.00555389,0.02175314,-0.01263719,0.0062972
 9,0.02755787,-0.01168428,-0.04326409,0.00001719,0.00000523,-0.00000723
 ,-0.00000670,-0.00000061,0.00000504,0.00000417,-0.00000422,0.00000264,
 -0.00002740,-0.00004218,-0.00000363,0.00001578,-0.00000307,0.00000345,
 -0.00001729,0.00000169,-0.00001360,0.00001949,-0.00001004,0.00000761,0
 .00000648,0.00001169,0.00000678,-0.00001558,-0.00000224,0.00000496,-0.
 00000025,0.00036990,-0.00022655,-0.00003317,-0.00004958,-0.00000008,-0
 .03963959,0.02429112,-0.00001039,-0.00002747,-0.00006020,0.00008644,0.
 00037560,-0.00012803,0.00001212,0.00004241,0.00001893,0.00007231,-0.00
 006857,-0.00003766,-0.00011410,-0.00036337,-0.00053344,0.00201400,-0.0
 0158216,0.00156280,0.00058824,-0.00555404,-0.00478741,0.03486231,0.006
 29574,-0.00647536,0.04414192,-0.04326313,-0.05401623,0.00002755,-0.000
 00723,-0.00000184,0.00000137,0.00000440,-0.00000046,-0.00000542,0.0000
 0327,0.00000315,0.00000829,-0.00000810,-0.00000808,-0.00000963,0.00000
 455,0.00000187,-0.00000125,0.00000189,0.00000835,-0.00002097,0.0000121
 0,-0.00004022,-0.00001608,-0.00000871,-0.00000165,0.00000994,0.0000038
 5,0.00000104,-0.00000040,-0.00022654,0.00014822,-0.00005314,-0.0000000
 8,-0.00004965,-0.06350650,0.03574804,0.05926917,0.00004498,0.00001980,
 0.00003173,0.00011366,-0.00004638,-0.00007433,-0.00012412,-0.00002227,
 0.00009703,-0.00012412,0.00009695,0.00002264,-0.00000880,0.00009319,0.
 00014934,-0.00239382,0.00008293,0.00013267,0.00486488,0.00035729,0.000
 57295,0.01666465,-0.00004295,-0.00006903,-0.25672343,-0.09248367,-0.14
 820900,-0.00002184,0.00000646,0.00001035,0.00000511,-0.00000959,0.0000
 0003,0.00000511,0.00000424,-0.00000860,0.00002542,0.00006600,0.0000255
 8,0.00000539,-0.00001551,-0.00000793,0.00001429,0.00000381,0.00000217,
 0.00002542,-0.00000603,0.00007053,0.00001429,0.00000027,0.00000438,0.0
 0000539,-0.00000031,-0.00001742,-0.00012192,0.00004377,0.00007013,-0.0
 0044280,-0.00029684,-0.00047569,-0.00551626,-0.01128692,-0.01808660,0.
 24368852,0.00001003,0.00001677,0.00000285,0.00003196,0.00024804,-0.000
 21641,-0.00004270,0.00003660,0.00006673,-0.00000550,-0.00000747,-0.000
 04259,-0.00011120,-0.00009254,0.00026141,0.00058352,0.00035959,-0.0003
 0310,-0.00190854,-0.00475836,0.00899522,-0.01286018,-0.00349959,-0.023
 66852,-0.09428197,-0.06887594,-0.11406726,-0.00000721,0.00000171,0.000
 00605,-0.00000372,-0.00001105,-0.00000268,0.00000976,-0.00000410,0.000
 00656,0.00000515,0.00003115,0.00001624,0.00001325,-0.00002000,0.000007
 57,-0.00000594,-0.00000320,-0.00001213,0.00000184,0.00000197,0.0000022
 6,0.00000924,0.00000960,0.00000495,-0.00001020,-0.00001439,0.00000387,
 0.00003251,-0.00023950,0.00012253,-0.00016382,0.00039095,0.00027375,0.
 00526794,-0.00330491,0.00861755,0.10343576,0.07973467,0.00001608,0.000
 00286,0.00001957,0.00005124,-0.00021643,0.00003626,-0.00002704,-0.0000
 2103,0.00000437,-0.00005025,0.00004520,0.00004842,-0.00017820,0.000261
 44,0.00016330,0.00093503,-0.00030303,0.00006287,-0.00305904,0.00899514
 ,0.00404406,-0.02060873,-0.02366992,-0.02666206,-0.15108857,-0.1140652
 4,-0.18049033,-0.00001156,0.00000606,0.00000764,0.00000905,0.00000316,
 -0.00000221,0.00000064,0.00000072,-0.00000916,0.00000457,0.00001656,0.
 00001103,-0.00000487,0.00000112,-0.00000879,0.00000738,-0.00000132,0.0
 0000608,0.00000664,0.00000196,0.00004022,-0.00000209,-0.00000587,-0.00
 000672,0.00000976,0.00001032,-0.00001441,0.00005210,0.00012253,-0.0001
 1960,-0.00026254,0.00027378,0.00065885,0.00844132,0.00861688,0.0051267
 0,0.16575908,0.11992514,0.19708391\\-0.00001033,-0.00000398,-0.0000063
 7,0.00000221,0.00001402,0.00002266,-0.00000245,0.00001073,0.00000012,-
 0.00000248,-0.00000462,0.00000972,-0.00001838,0.00000186,0.00000292,0.
 00002726,0.00000548,0.00000689,-0.00009838,0.00001034,0.00001777,0.000
 11522,-0.00003119,-0.00004844,-0.00003731,0.00003006,0.00004807,0.0000
 0998,-0.00000380,-0.00000611,0.00000077,-0.00000609,0.00000133,0.00000
 076,0.00000387,-0.00000489,0.00000164,-0.00000532,-0.00000535,0.000000
 21,0.00000153,-0.00000184,0.00000337,-0.00000331,0.00000015,0.00000166
 ,-0.00000248,-0.00000713,0.00000339,0.00000160,-0.00000292,0.00000021,
 -0.00000232,0.00000056,-0.00000398,0.00000230,0.00000371,-0.00002486,-
 0.00001422,-0.00002266,0.00003324,-0.00000860,-0.00001446,-0.00000177,
 0.00000413,0.00000629\\\@


 ABALONE: AN EXPRESSION OF DISBELIEF.
 Job cpu time:       0 days  2 hours 45 minutes 11.3 seconds.
 Elapsed time:       0 days  0 hours 41 minutes 20.6 seconds.
 File lengths (MBytes):  RWF=    168 Int=      0 D2E=      0 Chk=      9 Scr=      1
 Normal termination of Gaussian 16 at Mon May 31 20:44:19 2021.
### All Done ###
