### Starting Gaussian ###
 Entering Gaussian System, Link 0=g16
 Initial command:
 /cluster/software/gaussian/gaussian-16-A.03/avx2/g16/l1.exe "/local/scratch/linjian/Gau-4448.inp" -scrdir="/local/scratch/linjian/"
 Entering Link 1 = /cluster/software/gaussian/gaussian-16-A.03/avx2/g16/l1.exe PID=      4449.
  
 Copyright (c) 1988,1990,1992,1993,1995,1998,2003,2009,2016,
            Gaussian, Inc.  All Rights Reserved.
  
 This is part of the Gaussian(R) 16 program.  It is based on
 the Gaussian(R) 09 system (copyright 2009, Gaussian, Inc.),
 the Gaussian(R) 03 system (copyright 2003, Gaussian, Inc.),
 the Gaussian(R) 98 system (copyright 1998, Gaussian, Inc.),
 the Gaussian(R) 94 system (copyright 1995, Gaussian, Inc.),
 the Gaussian 92(TM) system (copyright 1992, Gaussian, Inc.),
 the Gaussian 90(TM) system (copyright 1990, Gaussian, Inc.),
 the Gaussian 88(TM) system (copyright 1988, Gaussian, Inc.),
 the Gaussian 86(TM) system (copyright 1986, Carnegie Mellon
 University), and the Gaussian 82(TM) system (copyright 1983,
 Carnegie Mellon University). Gaussian is a federally registered
 trademark of Gaussian, Inc.
  
 This software contains proprietary and confidential information,
 including trade secrets, belonging to Gaussian, Inc.
  
 This software is provided under written license and may be
 used, copied, transmitted, or stored only in accord with that
 written license.
  
 The following legend is applicable only to US Government
 contracts under FAR:
  
                    RESTRICTED RIGHTS LEGEND
  
 Use, reproduction and disclosure by the US Government is
 subject to restrictions as set forth in subparagraphs (a)
 and (c) of the Commercial Computer Software - Restricted
 Rights clause in FAR 52.227-19.
  
 Gaussian, Inc.
 340 Quinnipiac St., Bldg. 40, Wallingford CT 06492
  
  
 ---------------------------------------------------------------
 Warning -- This program may not be used in any manner that
 competes with the business of Gaussian, Inc. or will provide
 assistance to any competitor of Gaussian, Inc.  The licensee
 of this program is prohibited from giving any competitor of
 Gaussian, Inc. access to this program.  By using this program,
 the user acknowledges that Gaussian, Inc. is engaged in the
 business of creating and licensing software in the field of
 computational chemistry and represents and warrants to the
 licensee that it is not a competitor of Gaussian, Inc. and that
 it will not use this program in any manner prohibited above.
 ---------------------------------------------------------------
  

 Cite this work as:
 Gaussian 16, Revision A.03,
 M. J. Frisch, G. W. Trucks, H. B. Schlegel, G. E. Scuseria, 
 M. A. Robb, J. R. Cheeseman, G. Scalmani, V. Barone, 
 G. A. Petersson, H. Nakatsuji, X. Li, M. Caricato, A. V. Marenich, 
 J. Bloino, B. G. Janesko, R. Gomperts, B. Mennucci, H. P. Hratchian, 
 J. V. Ortiz, A. F. Izmaylov, J. L. Sonnenberg, D. Williams-Young, 
 F. Ding, F. Lipparini, F. Egidi, J. Goings, B. Peng, A. Petrone, 
 T. Henderson, D. Ranasinghe, V. G. Zakrzewski, J. Gao, N. Rega, 
 G. Zheng, W. Liang, M. Hada, M. Ehara, K. Toyota, R. Fukuda, 
 J. Hasegawa, M. Ishida, T. Nakajima, Y. Honda, O. Kitao, H. Nakai, 
 T. Vreven, K. Throssell, J. A. Montgomery, Jr., J. E. Peralta, 
 F. Ogliaro, M. J. Bearpark, J. J. Heyd, E. N. Brothers, K. N. Kudin, 
 V. N. Staroverov, T. A. Keith, R. Kobayashi, J. Normand, 
 K. Raghavachari, A. P. Rendell, J. C. Burant, S. S. Iyengar, 
 J. Tomasi, M. Cossi, J. M. Millam, M. Klene, C. Adamo, R. Cammi, 
 J. W. Ochterski, R. L. Martin, K. Morokuma, O. Farkas, 
 J. B. Foresman, and D. J. Fox, Gaussian, Inc., Wallingford CT, 2016.
 
 ******************************************
 Gaussian 16:  ES64L-G16RevA.03 25-Dec-2016
                31-May-2021 
 ******************************************
 %chk=CCpCppNpNCNCdN.chk
 %NProcShared=20
 Will use up to   20 processors via shared memory.
 -----------------------------
 # opt freq b3lyp/6-31g(2df,p)
 -----------------------------
 1/18=20,19=15,26=3,38=1/1,3;
 2/9=110,12=2,17=6,18=5,40=1/2;
 3/5=1,6=6,7=104,11=2,25=1,30=1,71=1,74=-5/1,2,3;
 4//1;
 5/5=2,38=5/2;
 6/7=2,8=2,9=2,10=2,28=1/1;
 7//1,2,3,16;
 1/18=20,19=15,26=3/3(2);
 2/9=110/2;
 99//99;
 2/9=110/2;
 3/5=1,6=6,7=104,11=2,25=1,30=1,71=1,74=-5/1,2,3;
 4/5=5,16=3,69=1/1;
 5/5=2,38=5/2;
 7//1,2,3,16;
 1/18=20,19=15,26=3/3(-5);
 2/9=110/2;
 6/7=2,8=2,9=2,10=2,19=2,28=1/1;
 99/9=1/99;
 -------------------
 Title Card Required
 -------------------
 Symbolic Z-matrix:
 Charge =  0 Multiplicity = 1
 C                     1.06674   0.06407   0.04517 
 C                     2.60661   0.06482   0.08156 
 C                     3.06456   0.95273   1.24665 
 N                     3.02755  -1.30697   0.26867 
 N                     3.1034    0.52594  -1.20718 
 C                     4.54938   0.60637  -1.33416 
 N                     5.08006   1.14179  -2.55657 
 C                     6.40363   1.20514  -2.82179 
 N                     6.92699   1.61137  -3.9228 
 H                     0.64988  -0.30741   0.99067 
 H                     0.67255  -0.57363  -0.75604 
 H                     0.6678    1.07386  -0.10833 
 H                     2.65298   0.60302   2.19946 
 H                     2.73165   1.98717   1.09842 
 H                     4.15281   0.9645    1.36272 
 H                     2.66293  -1.66448   1.14934 
 H                     4.03645  -1.36693   0.34827 
 H                     2.73239   1.45761  -1.37689 
 H                     4.98123  -0.39192  -1.20511 
 H                     4.95512   1.23524  -0.53639 
 H                     4.40469   1.29713  -3.28999 
 H                     7.05412   0.8798   -1.99123 
 H                     6.18566   1.87955  -4.57122 
 

 GradGradGradGradGradGradGradGradGradGradGradGradGradGradGradGradGradGrad
 Berny optimization.
 Initialization pass.
                           ----------------------------
                           !    Initial Parameters    !
                           ! (Angstroms and Degrees)  !
 --------------------------                            --------------------------
 ! Name  Definition              Value          Derivative Info.                !
 --------------------------------------------------------------------------------
 ! R1    R(1,2)                  1.5403         estimate D2E/DX2                !
 ! R2    R(1,10)                 1.0981         estimate D2E/DX2                !
 ! R3    R(1,11)                 1.0973         estimate D2E/DX2                !
 ! R4    R(1,12)                 1.0965         estimate D2E/DX2                !
 ! R5    R(2,3)                  1.5348         estimate D2E/DX2                !
 ! R6    R(2,4)                  1.4471         estimate D2E/DX2                !
 ! R7    R(2,5)                  1.4561         estimate D2E/DX2                !
 ! R8    R(3,13)                 1.0952         estimate D2E/DX2                !
 ! R9    R(3,14)                 1.0968         estimate D2E/DX2                !
 ! R10   R(3,15)                 1.0945         estimate D2E/DX2                !
 ! R11   R(4,16)                 1.018          estimate D2E/DX2                !
 ! R12   R(4,17)                 1.0138         estimate D2E/DX2                !
 ! R13   R(5,6)                  1.4538         estimate D2E/DX2                !
 ! R14   R(5,18)                 1.0171         estimate D2E/DX2                !
 ! R15   R(6,7)                  1.4362         estimate D2E/DX2                !
 ! R16   R(6,19)                 1.0953         estimate D2E/DX2                !
 ! R17   R(6,20)                 1.0939         estimate D2E/DX2                !
 ! R18   R(7,8)                  1.3514         estimate D2E/DX2                !
 ! R19   R(7,21)                 1.009          estimate D2E/DX2                !
 ! R20   R(8,9)                  1.285          estimate D2E/DX2                !
 ! R21   R(8,22)                 1.104          estimate D2E/DX2                !
 ! R22   R(9,23)                 1.0208         estimate D2E/DX2                !
 ! A1    A(2,1,10)             111.0602         estimate D2E/DX2                !
 ! A2    A(2,1,11)             112.1283         estimate D2E/DX2                !
 ! A3    A(2,1,12)             111.5046         estimate D2E/DX2                !
 ! A4    A(10,1,11)            107.2021         estimate D2E/DX2                !
 ! A5    A(10,1,12)            107.0953         estimate D2E/DX2                !
 ! A6    A(11,1,12)            107.5946         estimate D2E/DX2                !
 ! A7    A(1,2,3)              108.4523         estimate D2E/DX2                !
 ! A8    A(1,2,4)              107.0618         estimate D2E/DX2                !
 ! A9    A(1,2,5)              108.6825         estimate D2E/DX2                !
 ! A10   A(3,2,4)              111.3139         estimate D2E/DX2                !
 ! A11   A(3,2,5)              112.7592         estimate D2E/DX2                !
 ! A12   A(4,2,5)              108.3849         estimate D2E/DX2                !
 ! A13   A(2,3,13)             111.3187         estimate D2E/DX2                !
 ! A14   A(2,3,14)             110.6396         estimate D2E/DX2                !
 ! A15   A(2,3,15)             112.545          estimate D2E/DX2                !
 ! A16   A(13,3,14)            107.7383         estimate D2E/DX2                !
 ! A17   A(13,3,15)            106.5484         estimate D2E/DX2                !
 ! A18   A(14,3,15)            107.8185         estimate D2E/DX2                !
 ! A19   A(2,4,16)             109.9126         estimate D2E/DX2                !
 ! A20   A(2,4,17)             110.8364         estimate D2E/DX2                !
 ! A21   A(16,4,17)            105.5299         estimate D2E/DX2                !
 ! A22   A(2,5,6)              115.7325         estimate D2E/DX2                !
 ! A23   A(2,5,18)             108.2588         estimate D2E/DX2                !
 ! A24   A(6,5,18)             107.3117         estimate D2E/DX2                !
 ! A25   A(5,6,7)              117.5486         estimate D2E/DX2                !
 ! A26   A(5,6,19)             109.3562         estimate D2E/DX2                !
 ! A27   A(5,6,20)             109.6967         estimate D2E/DX2                !
 ! A28   A(7,6,19)             107.1205         estimate D2E/DX2                !
 ! A29   A(7,6,20)             105.6268         estimate D2E/DX2                !
 ! A30   A(19,6,20)            106.9662         estimate D2E/DX2                !
 ! A31   A(6,7,8)              123.1229         estimate D2E/DX2                !
 ! A32   A(6,7,21)             115.3875         estimate D2E/DX2                !
 ! A33   A(8,7,21)             120.3767         estimate D2E/DX2                !
 ! A34   A(7,8,9)              125.5842         estimate D2E/DX2                !
 ! A35   A(7,8,22)             114.5588         estimate D2E/DX2                !
 ! A36   A(9,8,22)             119.8543         estimate D2E/DX2                !
 ! A37   A(8,9,23)             109.363          estimate D2E/DX2                !
 ! D1    D(10,1,2,3)           -58.8128         estimate D2E/DX2                !
 ! D2    D(10,1,2,4)            61.4008         estimate D2E/DX2                !
 ! D3    D(10,1,2,5)           178.2759         estimate D2E/DX2                !
 ! D4    D(11,1,2,3)          -178.7264         estimate D2E/DX2                !
 ! D5    D(11,1,2,4)           -58.5128         estimate D2E/DX2                !
 ! D6    D(11,1,2,5)            58.3624         estimate D2E/DX2                !
 ! D7    D(12,1,2,3)            60.5468         estimate D2E/DX2                !
 ! D8    D(12,1,2,4)          -179.2396         estimate D2E/DX2                !
 ! D9    D(12,1,2,5)           -62.3644         estimate D2E/DX2                !
 ! D10   D(1,2,3,13)            57.8407         estimate D2E/DX2                !
 ! D11   D(1,2,3,14)           -61.9264         estimate D2E/DX2                !
 ! D12   D(1,2,3,15)           177.3823         estimate D2E/DX2                !
 ! D13   D(4,2,3,13)           -59.6885         estimate D2E/DX2                !
 ! D14   D(4,2,3,14)          -179.4556         estimate D2E/DX2                !
 ! D15   D(4,2,3,15)            59.8531         estimate D2E/DX2                !
 ! D16   D(5,2,3,13)           178.2504         estimate D2E/DX2                !
 ! D17   D(5,2,3,14)            58.4833         estimate D2E/DX2                !
 ! D18   D(5,2,3,15)           -62.208          estimate D2E/DX2                !
 ! D19   D(1,2,4,16)           -60.8564         estimate D2E/DX2                !
 ! D20   D(1,2,4,17)          -177.1238         estimate D2E/DX2                !
 ! D21   D(3,2,4,16)            57.5121         estimate D2E/DX2                !
 ! D22   D(3,2,4,17)           -58.7553         estimate D2E/DX2                !
 ! D23   D(5,2,4,16)          -177.9276         estimate D2E/DX2                !
 ! D24   D(5,2,4,17)            65.805          estimate D2E/DX2                !
 ! D25   D(1,2,5,6)            179.0674         estimate D2E/DX2                !
 ! D26   D(1,2,5,18)            58.613          estimate D2E/DX2                !
 ! D27   D(3,2,5,6)             58.7898         estimate D2E/DX2                !
 ! D28   D(3,2,5,18)           -61.6647         estimate D2E/DX2                !
 ! D29   D(4,2,5,6)            -64.9074         estimate D2E/DX2                !
 ! D30   D(4,2,5,18)           174.6382         estimate D2E/DX2                !
 ! D31   D(2,5,6,7)           -175.895          estimate D2E/DX2                !
 ! D32   D(2,5,6,19)            61.7495         estimate D2E/DX2                !
 ! D33   D(2,5,6,20)           -55.2684         estimate D2E/DX2                !
 ! D34   D(18,5,6,7)           -54.9291         estimate D2E/DX2                !
 ! D35   D(18,5,6,19)         -177.2846         estimate D2E/DX2                !
 ! D36   D(18,5,6,20)           65.6975         estimate D2E/DX2                !
 ! D37   D(5,6,7,8)           -176.5397         estimate D2E/DX2                !
 ! D38   D(5,6,7,21)            -8.5857         estimate D2E/DX2                !
 ! D39   D(19,6,7,8)           -53.0463         estimate D2E/DX2                !
 ! D40   D(19,6,7,21)          114.9077         estimate D2E/DX2                !
 ! D41   D(20,6,7,8)            60.733          estimate D2E/DX2                !
 ! D42   D(20,6,7,21)         -131.313          estimate D2E/DX2                !
 ! D43   D(6,7,8,9)            176.3085         estimate D2E/DX2                !
 ! D44   D(6,7,8,22)            -4.2894         estimate D2E/DX2                !
 ! D45   D(21,7,8,9)             8.9321         estimate D2E/DX2                !
 ! D46   D(21,7,8,22)         -171.6659         estimate D2E/DX2                !
 ! D47   D(7,8,9,23)            -0.0725         estimate D2E/DX2                !
 ! D48   D(22,8,9,23)         -179.4454         estimate D2E/DX2                !
 --------------------------------------------------------------------------------
 Trust Radius=3.00D-01 FncErr=1.00D-07 GrdErr=1.00D-06 EigMax=2.50D+02 EigMin=1.00D-04
 Number of steps in this run=    117 maximum allowed number of steps=    138.
 GradGradGradGradGradGradGradGradGradGradGradGradGradGradGradGradGradGrad

                          Input orientation:                          
 ---------------------------------------------------------------------
 Center     Atomic      Atomic             Coordinates (Angstroms)
 Number     Number       Type             X           Y           Z
 ---------------------------------------------------------------------
      1          6           0        1.066740    0.064070    0.045170
      2          6           0        2.606610    0.064820    0.081560
      3          6           0        3.064560    0.952730    1.246650
      4          7           0        3.027550   -1.306970    0.268670
      5          7           0        3.103400    0.525940   -1.207180
      6          6           0        4.549380    0.606370   -1.334160
      7          7           0        5.080060    1.141790   -2.556570
      8          6           0        6.403630    1.205140   -2.821790
      9          7           0        6.926990    1.611370   -3.922800
     10          1           0        0.649880   -0.307410    0.990670
     11          1           0        0.672550   -0.573630   -0.756040
     12          1           0        0.667800    1.073860   -0.108330
     13          1           0        2.652980    0.603020    2.199460
     14          1           0        2.731650    1.987170    1.098420
     15          1           0        4.152810    0.964500    1.362720
     16          1           0        2.662930   -1.664480    1.149340
     17          1           0        4.036450   -1.366930    0.348270
     18          1           0        2.732390    1.457610   -1.376890
     19          1           0        4.981230   -0.391920   -1.205110
     20          1           0        4.955120    1.235240   -0.536390
     21          1           0        4.404690    1.297130   -3.289990
     22          1           0        7.054120    0.879800   -1.991230
     23          1           0        6.185660    1.879550   -4.571220
 ---------------------------------------------------------------------
                    Distance matrix (angstroms):
                    1          2          3          4          5
     1  C    0.000000
     2  C    1.540300   0.000000
     3  C    2.494906   1.534776   0.000000
     4  N    2.403015   1.447069   2.462531   0.000000
     5  N    2.435095   1.456119   2.490972   2.354452   0.000000
     6  C    3.784894   2.464122   2.997538   2.923337   1.453771
     7  N    4.902782   3.773268   4.308418   4.265115   2.471297
     8  C    6.164730   4.913973   5.269279   5.221068   3.736281
     9  N    7.244408   6.090353   6.486554   6.425789   4.813792
    10  H    1.098062   2.189481   2.735719   2.678380   3.397761
    11  H    1.097262   2.202222   3.473076   2.670926   2.705848
    12  H    1.096536   2.193902   2.755921   3.373263   2.727606
    13  H    2.729027   2.185706   1.095236   2.741590   3.437152
    14  H    2.753103   2.178318   1.096753   3.409897   2.754847
    15  H    3.474268   2.200348   1.094486   2.760929   2.810335
    16  H    2.599019   2.033176   2.649635   1.018008   3.247328
    17  H    3.310409   2.040952   2.670670   1.013810   2.621634
    18  H    2.595881   2.020584   2.692249   3.230772   1.017084
    19  H    4.134532   2.739152   3.390108   2.612702   2.090148
    20  H    4.102359   2.695783   2.614051   3.290362   2.093307
    21  H    4.877052   4.014851   4.742959   4.619731   2.574138
    22  H    6.376603   4.974032   5.138655   5.109049   4.043283
    23  H    7.128139   6.144201   6.666924   6.599402   4.759134
                    6          7          8          9         10
     6  C    0.000000
     7  N    1.436169   0.000000
     8  C    2.451492   1.351367   0.000000
     9  N    3.655696   2.344833   1.284971   0.000000
    10  H    4.630975   5.857439   7.065996   8.199147   0.000000
    11  H    4.093462   5.060703   6.346387   7.343066   1.767027
    12  H    4.097300   5.046438   6.346640   7.349596   1.765228
    13  H    4.010338   5.366639   6.296259   7.534321   2.510471
    14  H    3.335895   4.425907   5.427988   6.553988   3.100076
    15  H    2.749307   4.031384   4.757544   6.004268   3.745223
    16  H    3.857878   5.239412   6.164205   7.391888   2.432938
    17  H    2.643403   3.977549   4.718937   5.955462   3.606122
    18  H    2.006960   2.646307   3.953414   4.909172   3.613514
    19  H    1.095322   2.046577   2.680947   3.896792   4.856870
    20  H    1.093864   2.026196   2.705945   3.936689   4.821491
    21  H    2.079268   1.009039   2.055100   2.619388   5.915843
    22  H    2.603887   2.070063   1.103999   2.069377   7.163483
    23  H    3.844081   2.413598   1.887550   1.020754   8.146304
                   11         12         13         14         15
    11  H    0.000000
    12  H    1.770247   0.000000
    13  H    3.747211   3.080345   0.000000
    14  H    3.773143   2.559269   1.770409   0.000000
    15  H    4.355135   3.784342   1.755076   1.770707   0.000000
    16  H    2.963451   3.613971   2.498881   3.652652   3.029325
    17  H    3.628312   4.184942   3.036708   3.676305   2.545234
    18  H    2.958772   2.453373   3.677895   2.531323   3.125094
    19  H    4.335828   4.685842   4.242847   4.003365   3.019918
    20  H    4.654102   4.311658   3.631036   2.860388   2.079332
    21  H    4.883596   4.912958   5.803821   4.746932   4.671381
    22  H    6.660525   6.660935   6.083463   5.427334   4.435511
    23  H    7.139193   7.142360   7.742833   6.639773   6.338883
                   16         17         18         19         20
    16  H    0.000000
    17  H    1.617655   0.000000
    18  H    4.016729   3.557355   0.000000
    19  H    3.540813   2.063066   2.916771   0.000000
    20  H    4.062536   2.897907   2.386717   1.759408   0.000000
    21  H    5.613601   4.524351   2.546035   2.744451   2.808757
    22  H    5.968173   4.430281   4.403252   2.555803   2.578507
    23  H    7.595695   6.273764   4.723013   4.235673   4.267226
                   21         22         23
    21  H    0.000000
    22  H    2.980004   0.000000
    23  H    2.269938   2.900012   0.000000
 Stoichiometry    C5H14N4
 Framework group  C1[X(C5H14N4)]
 Deg. of freedom    63
 Full point group                 C1      NOp   1
 Largest Abelian subgroup         C1      NOp   1
 Largest concise Abelian subgroup C1      NOp   1
                         Standard orientation:                         
 ---------------------------------------------------------------------
 Center     Atomic      Atomic             Coordinates (Angstroms)
 Number     Number       Type             X           Y           Z
 ---------------------------------------------------------------------
      1          6           0       -2.870647    1.123385   -0.022839
      2          6           0       -1.786087    0.029720   -0.035122
      3          6           0       -1.994208   -0.874563    1.187373
      4          7           0       -1.942732   -0.709726   -1.269096
      5          7           0       -0.478271    0.669860   -0.046172
      6          6           0        0.664435   -0.228803   -0.037310
      7          7           0        1.971880    0.359964    0.043453
      8          6           0        3.112051   -0.363566   -0.008579
      9          7           0        4.303574    0.117501   -0.008093
     10          1           0       -3.876009    0.682373   -0.045078
     11          1           0       -2.791240    1.793956   -0.887717
     12          1           0       -2.809200    1.740280    0.881625
     13          1           0       -2.995153   -1.319144    1.188003
     14          1           0       -1.882597   -0.301352    2.115725
     15          1           0       -1.283625   -1.706377    1.219879
     16          1           0       -2.864971   -1.139605   -1.301018
     17          1           0       -1.283242   -1.478339   -1.315118
     18          1           0       -0.405454    1.260191    0.778853
     19          1           0        0.645377   -0.849217   -0.939781
     20          1           0        0.593396   -0.907109    0.817906
     21          1           0        2.000380    1.364463   -0.047816
     22          1           0        2.960688   -1.456568   -0.043908
     23          1           0        4.257233    1.136220    0.036673
 ---------------------------------------------------------------------
 Rotational constants (GHZ):           4.2273991           0.6186331           0.6102152
 Standard basis: 6-31G(2df,p) (6D, 7F)
 There are   349 symmetry adapted cartesian basis functions of A   symmetry.
 There are   322 symmetry adapted basis functions of A   symmetry.
   322 basis functions,   494 primitive gaussians,   349 cartesian basis functions
    36 alpha electrons       36 beta electrons
       nuclear repulsion energy       473.7237408173 Hartrees.
 NAtoms=   23 NActive=   23 NUniq=   23 SFac= 1.00D+00 NAtFMM=   60 NAOKFM=F Big=F
 Integral buffers will be    131072 words long.
 Raffenetti 2 integral format.
 Two-electron integral symmetry is turned on.
 One-electron integrals computed using PRISM.
 PrsmSu:  requested number of processors reduced to:  13 ShMem   1 Linda.
 NBasis=   322 RedAO= T EigKep=  2.47D-04  NBF=   322
 NBsUse=   322 1.00D-06 EigRej= -1.00D+00 NBFU=   322
 ExpMin= 1.61D-01 ExpMax= 4.17D+03 ExpMxC= 6.27D+02 IAcc=3 IRadAn=         5 AccDes= 0.00D+00
 Harris functional with IExCor=  402 and IRadAn=       5 diagonalized for initial guess.
 HarFok:  IExCor=  402 AccDes= 0.00D+00 IRadAn=         5 IDoV= 1 UseB2=F ITyADJ=14
 ICtDFT=  3500011 ScaDFX=  1.000000  1.000000  1.000000  1.000000
 FoFCou: FMM=F IPFlag=           0 FMFlag=      100000 FMFlg1=           0
         NFxFlg=           0 DoJE=T BraDBF=F KetDBF=T FulRan=T
         wScrn=  0.000000 ICntrl=       500 IOpCl=  0 I1Cent=   200000004 NGrid=           0
         NMat0=    1 NMatS0=      1 NMatT0=    0 NMatD0=    1 NMtDS0=    0 NMtDT0=    0
 Petite list used in FoFCou.
 Requested convergence on RMS density matrix=1.00D-08 within 128 cycles.
 Requested convergence on MAX density matrix=1.00D-06.
 Requested convergence on             energy=1.00D-06.
 No special actions if energy rises.
 Integral accuracy reduced to 1.0D-05 until final iterations.
 Initial convergence to 1.0D-05 achieved.  Increase integral accuracy.
 SCF Done:  E(RB3LYP) =  -417.960511014     A.U. after   13 cycles
            NFock= 13  Conv=0.67D-08     -V/T= 2.0075

 **********************************************************************

            Population analysis using the SCF density.

 **********************************************************************

 Orbital symmetries:
       Occupied  (A) (A) (A) (A) (A) (A) (A) (A) (A) (A) (A) (A)
                 (A) (A) (A) (A) (A) (A) (A) (A) (A) (A) (A) (A)
                 (A) (A) (A) (A) (A) (A) (A) (A) (A) (A) (A) (A)
       Virtual   (A) (A) (A) (A) (A) (A) (A) (A) (A) (A) (A) (A)
                 (A) (A) (A) (A) (A) (A) (A) (A) (A) (A) (A) (A)
                 (A) (A) (A) (A) (A) (A) (A) (A) (A) (A) (A) (A)
                 (A) (A) (A) (A) (A) (A) (A) (A) (A) (A) (A) (A)
                 (A) (A) (A) (A) (A) (A) (A) (A) (A) (A) (A) (A)
                 (A) (A) (A) (A) (A) (A) (A) (A) (A) (A) (A) (A)
                 (A) (A) (A) (A) (A) (A) (A) (A) (A) (A) (A) (A)
                 (A) (A) (A) (A) (A) (A) (A) (A) (A) (A) (A) (A)
                 (A) (A) (A) (A) (A) (A) (A) (A) (A) (A) (A) (A)
                 (A) (A) (A) (A) (A) (A) (A) (A) (A) (A) (A) (A)
                 (A) (A) (A) (A) (A) (A) (A) (A) (A) (A) (A) (A)
                 (A) (A) (A) (A) (A) (A) (A) (A) (A) (A) (A) (A)
                 (A) (A) (A) (A) (A) (A) (A) (A) (A) (A) (A) (A)
                 (A) (A) (A) (A) (A) (A) (A) (A) (A) (A) (A) (A)
                 (A) (A) (A) (A) (A) (A) (A) (A) (A) (A) (A) (A)
                 (A) (A) (A) (A) (A) (A) (A) (A) (A) (A) (A) (A)
                 (A) (A) (A) (A) (A) (A) (A) (A) (A) (A) (A) (A)
                 (A) (A) (A) (A) (A) (A) (A) (A) (A) (A) (A) (A)
                 (A) (A) (A) (A) (A) (A) (A) (A) (A) (A) (A) (A)
                 (A) (A) (A) (A) (A) (A) (A) (A) (A) (A) (A) (A)
                 (A) (A) (A) (A) (A) (A) (A) (A) (A) (A) (A) (A)
                 (A) (A) (A) (A) (A) (A) (A) (A) (A) (A) (A) (A)
                 (A) (A) (A) (A) (A) (A) (A) (A) (A) (A) (A) (A)
                 (A) (A) (A) (A) (A) (A) (A) (A) (A) (A)
 The electronic state is 1-A.
 Alpha  occ. eigenvalues --  -14.34737 -14.32870 -14.31186 -14.27926 -10.25321
 Alpha  occ. eigenvalues --  -10.24661 -10.24382 -10.18065 -10.17979  -0.96910
 Alpha  occ. eigenvalues --   -0.93688  -0.87085  -0.83641  -0.75114  -0.69873
 Alpha  occ. eigenvalues --   -0.66669  -0.62598  -0.58132  -0.52518  -0.51217
 Alpha  occ. eigenvalues --   -0.48957  -0.47406  -0.45943  -0.44614  -0.41579
 Alpha  occ. eigenvalues --   -0.41214  -0.39784  -0.39335  -0.38401  -0.37027
 Alpha  occ. eigenvalues --   -0.35138  -0.34234  -0.25399  -0.25024  -0.23565
 Alpha  occ. eigenvalues --   -0.21556
 Alpha virt. eigenvalues --    0.03689   0.05399   0.07865   0.10312   0.11231
 Alpha virt. eigenvalues --    0.11446   0.12601   0.14043   0.14691   0.15119
 Alpha virt. eigenvalues --    0.16585   0.17842   0.18271   0.18593   0.20453
 Alpha virt. eigenvalues --    0.21816   0.22690   0.23966   0.26083   0.26710
 Alpha virt. eigenvalues --    0.28174   0.32862   0.36449   0.42075   0.45316
 Alpha virt. eigenvalues --    0.46536   0.47883   0.49627   0.50524   0.51559
 Alpha virt. eigenvalues --    0.52469   0.53874   0.54625   0.55477   0.56755
 Alpha virt. eigenvalues --    0.59498   0.61118   0.62565   0.63209   0.64252
 Alpha virt. eigenvalues --    0.65412   0.67104   0.68031   0.71730   0.72198
 Alpha virt. eigenvalues --    0.72490   0.72986   0.73259   0.74243   0.74344
 Alpha virt. eigenvalues --    0.75804   0.76278   0.77173   0.78427   0.79099
 Alpha virt. eigenvalues --    0.80724   0.81182   0.82408   0.83336   0.84291
 Alpha virt. eigenvalues --    0.86116   0.87948   0.89064   0.90275   0.91376
 Alpha virt. eigenvalues --    0.91963   0.96154   0.97358   1.00184   1.02376
 Alpha virt. eigenvalues --    1.03342   1.07068   1.09230   1.14290   1.15655
 Alpha virt. eigenvalues --    1.19517   1.21036   1.25016   1.26682   1.27726
 Alpha virt. eigenvalues --    1.33421   1.35035   1.36792   1.38441   1.41003
 Alpha virt. eigenvalues --    1.41885   1.42980   1.44136   1.45727   1.46573
 Alpha virt. eigenvalues --    1.48225   1.50705   1.52372   1.53482   1.54846
 Alpha virt. eigenvalues --    1.57876   1.59343   1.60787   1.62150   1.65078
 Alpha virt. eigenvalues --    1.67566   1.70210   1.74021   1.78745   1.82563
 Alpha virt. eigenvalues --    1.83980   1.85948   1.87506   1.89204   1.89329
 Alpha virt. eigenvalues --    1.93918   1.95889   1.96358   1.98086   2.00904
 Alpha virt. eigenvalues --    2.04657   2.06912   2.11897   2.14254   2.17012
 Alpha virt. eigenvalues --    2.21696   2.26060   2.27097   2.29613   2.30910
 Alpha virt. eigenvalues --    2.33117   2.34994   2.39201   2.44843   2.47784
 Alpha virt. eigenvalues --    2.48660   2.49421   2.50470   2.51160   2.54515
 Alpha virt. eigenvalues --    2.60010   2.61405   2.63964   2.67258   2.72503
 Alpha virt. eigenvalues --    2.75637   2.79505   2.80670   2.82099   2.83190
 Alpha virt. eigenvalues --    2.84359   2.85665   2.88123   2.88734   2.91378
 Alpha virt. eigenvalues --    2.92175   2.93088   2.94327   2.95726   2.97463
 Alpha virt. eigenvalues --    2.98115   2.99388   3.00710   3.03734   3.05690
 Alpha virt. eigenvalues --    3.06933   3.09882   3.11859   3.14088   3.15338
 Alpha virt. eigenvalues --    3.16905   3.20544   3.21916   3.24586   3.27757
 Alpha virt. eigenvalues --    3.30316   3.32764   3.35974   3.37067   3.39448
 Alpha virt. eigenvalues --    3.42241   3.45519   3.46439   3.48647   3.53128
 Alpha virt. eigenvalues --    3.54439   3.58145   3.59785   3.63550   3.64638
 Alpha virt. eigenvalues --    3.68038   3.72547   3.76757   3.79854   3.80353
 Alpha virt. eigenvalues --    3.83773   3.89475   3.91088   3.92812   3.95051
 Alpha virt. eigenvalues --    3.96210   3.98969   4.00586   4.01686   4.04817
 Alpha virt. eigenvalues --    4.07042   4.09514   4.12332   4.15355   4.16185
 Alpha virt. eigenvalues --    4.18082   4.19800   4.22060   4.25222   4.27691
 Alpha virt. eigenvalues --    4.28582   4.30025   4.31012   4.34092   4.35315
 Alpha virt. eigenvalues --    4.37245   4.37996   4.41514   4.42484   4.43744
 Alpha virt. eigenvalues --    4.44928   4.47290   4.48557   4.49820   4.52262
 Alpha virt. eigenvalues --    4.54632   4.55479   4.56556   4.58370   4.59851
 Alpha virt. eigenvalues --    4.61440   4.63683   4.65603   4.66648   4.69191
 Alpha virt. eigenvalues --    4.70099   4.72262   4.73332   4.74914   4.75426
 Alpha virt. eigenvalues --    4.77819   4.81120   4.83276   4.84173   4.87124
 Alpha virt. eigenvalues --    4.88988   4.91069   4.93569   4.95204   4.95816
 Alpha virt. eigenvalues --    4.96363   4.99580   5.02430   5.04218   5.08378
 Alpha virt. eigenvalues --    5.08810   5.10511   5.16661   5.17686   5.23759
 Alpha virt. eigenvalues --    5.26845   5.33899   5.34184   5.39684   5.46441
 Alpha virt. eigenvalues --    5.55975   5.60097   5.64947   5.67795   5.70320
 Alpha virt. eigenvalues --    5.75326   5.78909   5.92101   9.47941  10.19562
 Alpha virt. eigenvalues --   10.46367  11.21143  11.31667  11.40331  11.45867
 Alpha virt. eigenvalues --   11.55886  11.83721  12.05289  13.45597  14.20027
 Alpha virt. eigenvalues --   18.72894
          Condensed to atoms (all electrons):
               1          2          3          4          5          6
     1  C    5.078093   0.376851  -0.074625  -0.032040  -0.027251   0.003018
     2  C    0.376851   4.448614   0.423206   0.388921   0.387684  -0.056063
     3  C   -0.074625   0.423206   5.179396  -0.094077  -0.081325  -0.005149
     4  N   -0.032040   0.388921  -0.094077   6.596588  -0.036726  -0.003896
     5  N   -0.027251   0.387684  -0.081325  -0.036726   6.433410   0.385387
     6  C    0.003018  -0.056063  -0.005149  -0.003896   0.385387   4.854254
     7  N   -0.000071   0.000791   0.000156   0.000213  -0.017502   0.378991
     8  C   -0.000000  -0.000088   0.000016  -0.000001   0.001608  -0.058625
     9  N   -0.000000   0.000000   0.000000   0.000000  -0.000097   0.004702
    10  H    0.364101  -0.016734  -0.000835  -0.005308   0.002768  -0.000162
    11  H    0.359819  -0.010013   0.006098  -0.000442   0.000857   0.000155
    12  H    0.361188  -0.017533  -0.001381   0.003231  -0.004976   0.000034
    13  H   -0.003914  -0.016101   0.353705   0.000798   0.004736   0.000122
    14  H   -0.003119  -0.016073   0.340844   0.006438   0.000969   0.000017
    15  H    0.005437  -0.016581   0.359657  -0.000792  -0.003097  -0.001764
    16  H   -0.006553  -0.049658  -0.000937   0.341378   0.005444  -0.000030
    17  H    0.008031  -0.053243  -0.006161   0.332356  -0.002568   0.001666
    18  H   -0.004836  -0.039722  -0.003731   0.005198   0.334159  -0.057870
    19  H    0.000073  -0.006481  -0.000895   0.003419  -0.018729   0.337618
    20  H    0.000081   0.003568   0.007841  -0.002485  -0.049136   0.340319
    21  H   -0.000013   0.000283   0.000042  -0.000030   0.006331  -0.057097
    22  H   -0.000000   0.000015  -0.000004  -0.000003   0.000082  -0.006014
    23  H   -0.000000  -0.000000  -0.000000   0.000000  -0.000014   0.000208
               7          8          9         10         11         12
     1  C   -0.000071  -0.000000  -0.000000   0.364101   0.359819   0.361188
     2  C    0.000791  -0.000088   0.000000  -0.016734  -0.010013  -0.017533
     3  C    0.000156   0.000016   0.000000  -0.000835   0.006098  -0.001381
     4  N    0.000213  -0.000001   0.000000  -0.005308  -0.000442   0.003231
     5  N   -0.017502   0.001608  -0.000097   0.002768   0.000857  -0.004976
     6  C    0.378991  -0.058625   0.004702  -0.000162   0.000155   0.000034
     7  N    6.314452   0.479229  -0.058507   0.000000  -0.000002   0.000002
     8  C    0.479229   4.519390   0.697499  -0.000000   0.000000   0.000000
     9  N   -0.058507   0.697499   6.541892   0.000000   0.000000   0.000000
    10  H    0.000000  -0.000000   0.000000   0.598040  -0.029395  -0.030189
    11  H   -0.000002   0.000000   0.000000  -0.029395   0.567815  -0.029909
    12  H    0.000002   0.000000   0.000000  -0.030189  -0.029909   0.606732
    13  H   -0.000003  -0.000000   0.000000   0.002009  -0.000130   0.000147
    14  H    0.000008  -0.000000  -0.000000   0.000178  -0.000191   0.001689
    15  H    0.000039  -0.000006  -0.000000  -0.000007  -0.000207  -0.000062
    16  H   -0.000003  -0.000000   0.000000   0.003524  -0.000022  -0.000199
    17  H   -0.000035  -0.000011  -0.000000  -0.000108  -0.000224  -0.000294
    18  H    0.005331   0.000093  -0.000016  -0.000195  -0.000043   0.004249
    19  H   -0.027687  -0.002199   0.000142   0.000000  -0.000015   0.000006
    20  H   -0.044624  -0.001030   0.000159   0.000018   0.000031  -0.000011
    21  H    0.333791  -0.026413   0.000961   0.000000   0.000008   0.000000
    22  H   -0.053872   0.349618  -0.022105   0.000000   0.000000  -0.000000
    23  H   -0.018936  -0.092860   0.332723   0.000000  -0.000000   0.000000
              13         14         15         16         17         18
     1  C   -0.003914  -0.003119   0.005437  -0.006553   0.008031  -0.004836
     2  C   -0.016101  -0.016073  -0.016581  -0.049658  -0.053243  -0.039722
     3  C    0.353705   0.340844   0.359657  -0.000937  -0.006161  -0.003731
     4  N    0.000798   0.006438  -0.000792   0.341378   0.332356   0.005198
     5  N    0.004736   0.000969  -0.003097   0.005444  -0.002568   0.334159
     6  C    0.000122   0.000017  -0.001764  -0.000030   0.001666  -0.057870
     7  N   -0.000003   0.000008   0.000039  -0.000003  -0.000035   0.005331
     8  C   -0.000000  -0.000000  -0.000006  -0.000000  -0.000011   0.000093
     9  N    0.000000  -0.000000  -0.000000   0.000000  -0.000000  -0.000016
    10  H    0.002009   0.000178  -0.000007   0.003524  -0.000108  -0.000195
    11  H   -0.000130  -0.000191  -0.000207  -0.000022  -0.000224  -0.000043
    12  H    0.000147   0.001689  -0.000062  -0.000199  -0.000294   0.004249
    13  H    0.606531  -0.027338  -0.030746   0.002735   0.000195  -0.000103
    14  H   -0.027338   0.620728  -0.030456   0.000013   0.000044   0.002662
    15  H   -0.030746  -0.030456   0.596402   0.000133   0.004315  -0.000208
    16  H    0.002735   0.000013   0.000133   0.507497  -0.027449  -0.000288
    17  H    0.000195   0.000044   0.004315  -0.027449   0.519038  -0.000167
    18  H   -0.000103   0.002662  -0.000208  -0.000288  -0.000167   0.540838
    19  H   -0.000019  -0.000007  -0.000035  -0.000271   0.003020   0.008404
    20  H   -0.000622  -0.000143   0.003799  -0.000057  -0.001026  -0.008102
    21  H   -0.000001  -0.000002  -0.000003  -0.000000  -0.000007   0.001969
    22  H   -0.000000   0.000000  -0.000000   0.000000  -0.000000   0.000026
    23  H    0.000000   0.000000  -0.000000   0.000000  -0.000000  -0.000000
              19         20         21         22         23
     1  C    0.000073   0.000081  -0.000013  -0.000000  -0.000000
     2  C   -0.006481   0.003568   0.000283   0.000015  -0.000000
     3  C   -0.000895   0.007841   0.000042  -0.000004  -0.000000
     4  N    0.003419  -0.002485  -0.000030  -0.000003   0.000000
     5  N   -0.018729  -0.049136   0.006331   0.000082  -0.000014
     6  C    0.337618   0.340319  -0.057097  -0.006014   0.000208
     7  N   -0.027687  -0.044624   0.333791  -0.053872  -0.018936
     8  C   -0.002199  -0.001030  -0.026413   0.349618  -0.092860
     9  N    0.000142   0.000159   0.000961  -0.022105   0.332723
    10  H    0.000000   0.000018   0.000000   0.000000   0.000000
    11  H   -0.000015   0.000031   0.000008   0.000000  -0.000000
    12  H    0.000006  -0.000011   0.000000  -0.000000   0.000000
    13  H   -0.000019  -0.000622  -0.000001  -0.000000   0.000000
    14  H   -0.000007  -0.000143  -0.000002   0.000000   0.000000
    15  H   -0.000035   0.003799  -0.000003  -0.000000  -0.000000
    16  H   -0.000271  -0.000057  -0.000000   0.000000   0.000000
    17  H    0.003020  -0.001026  -0.000007  -0.000000  -0.000000
    18  H    0.008404  -0.008102   0.001969   0.000026  -0.000000
    19  H    0.656376  -0.067472   0.002725   0.003105   0.000038
    20  H   -0.067472   0.723309   0.007290   0.002615  -0.000004
    21  H    0.002725   0.007290   0.475662   0.006293   0.009468
    22  H    0.003105   0.002615   0.006293   0.600628   0.009308
    23  H    0.000038  -0.000004   0.009468   0.009308   0.567040
 Mulliken charges:
               1
     1  C   -0.404269
     2  C    0.268357
     3  C   -0.401843
     4  N   -0.502740
     5  N   -0.322016
     6  C   -0.059819
     7  N   -0.291760
     8  C    0.133782
     9  N   -0.497354
    10  H    0.112293
    11  H    0.135811
    12  H    0.107272
    13  H    0.107999
    14  H    0.103739
    15  H    0.114181
    16  H    0.224742
    17  H    0.222628
    18  H    0.212350
    19  H    0.108884
    20  H    0.085682
    21  H    0.238741
    22  H    0.110308
    23  H    0.193031
 Sum of Mulliken charges =  -0.00000
 Mulliken charges with hydrogens summed into heavy atoms:
               1
     1  C   -0.048892
     2  C    0.268357
     3  C   -0.075924
     4  N   -0.055370
     5  N   -0.109666
     6  C    0.134747
     7  N   -0.053019
     8  C    0.244089
     9  N   -0.304322
 Electronic spatial extent (au):  <R**2>=           1935.0982
 Charge=             -0.0000 electrons
 Dipole moment (field-independent basis, Debye):
    X=             -4.1910    Y=             -0.0842    Z=              1.4327  Tot=              4.4300
 Quadrupole moment (field-independent basis, Debye-Ang):
   XX=            -75.0825   YY=            -50.4294   ZZ=            -60.1143
   XY=              5.7247   XZ=             -1.3075   YZ=              3.1498
 Traceless Quadrupole moment (field-independent basis, Debye-Ang):
   XX=            -13.2071   YY=             11.4460   ZZ=              1.7611
   XY=              5.7247   XZ=             -1.3075   YZ=              3.1498
 Octapole moment (field-independent basis, Debye-Ang**2):
  XXX=           -139.3105  YYY=              1.9231  ZZZ=              3.4146  XYY=              9.1651
  XXY=             12.3191  XXZ=             -2.2238  XZZ=              1.7339  YZZ=              0.0841
  YYZ=             -2.5946  XYZ=             -3.3433
 Hexadecapole moment (field-independent basis, Debye-Ang**3):
 XXXX=          -2673.3635 YYYY=           -243.6997 ZZZZ=           -230.9703 XXXY=            110.9738
 XXXZ=             24.4743 YYYX=             21.3433 YYYZ=             11.2014 ZZZX=             -3.7581
 ZZZY=              8.5433 XXYY=           -341.4791 XXZZ=           -403.0882 YYZZ=            -73.2363
 XXYZ=              9.4623 YYXZ=              7.9914 ZZXY=              2.5876
 N-N= 4.737237408173D+02 E-N=-1.918784062701D+03  KE= 4.148644413968D+02
 PrsmSu:  requested number of processors reduced to:  13 ShMem   1 Linda.
 Calling FoFJK, ICntrl=      2127 FMM=F ISym2X=0 I1Cent= 0 IOpClX= 0 NMat=1 NMatS=1 NMatT=0.
 ***** Axes restored to original set *****
 -------------------------------------------------------------------
 Center     Atomic                   Forces (Hartrees/Bohr)
 Number     Number              X              Y              Z
 -------------------------------------------------------------------
      1        6          -0.005800478    0.000173147   -0.004992041
      2        6          -0.009718227   -0.001109248    0.011406481
      3        6           0.001684708    0.009318234    0.006214879
      4        7           0.003176926   -0.017293195   -0.000641046
      5        7           0.003225512    0.009135818   -0.028861233
      6        6           0.014810185   -0.006757759    0.026512149
      7        7          -0.033452972    0.002123589   -0.003138284
      8        6           0.010219530    0.005976960   -0.016171661
      9        7           0.006374850   -0.004245257    0.011127892
     10        1           0.003115121    0.001391275   -0.000642441
     11        1           0.005347887    0.001058977    0.000873598
     12        1           0.001560517    0.000193350    0.000740348
     13        1          -0.001433019   -0.000261724   -0.001043313
     14        1           0.000653837    0.001005968    0.001837696
     15        1          -0.000305973   -0.000513780   -0.000802805
     16        1          -0.000321000    0.001523330   -0.002463302
     17        1           0.001463350   -0.000047318    0.001202181
     18        1          -0.001936828   -0.000169602    0.000892622
     19        1          -0.004109930   -0.004754167    0.003870702
     20        1           0.006133036    0.000490768    0.007006032
     21        1           0.004325573   -0.000617566   -0.004246854
     22        1          -0.004645927    0.002631761   -0.005684280
     23        1          -0.000366678    0.000746441   -0.002997319
 -------------------------------------------------------------------
 Cartesian Forces:  Max     0.033452972 RMS     0.008213536

 GradGradGradGradGradGradGradGradGradGradGradGradGradGradGradGradGradGrad
 Berny optimization.
 FormGI is forming the generalized inverse of G from B-inverse, IUseBI=4.
 Internal  Forces:  Max     0.040616397 RMS     0.006395353
 Search for a local minimum.
 Step number   1 out of a maximum of  117
 All quantities printed in internal units (Hartrees-Bohrs-Radians)
 Mixed Optimization -- RFO/linear search
 Second derivative matrix not updated -- first step.
 ITU=  0
     Eigenvalues ---    0.00233   0.00306   0.00949   0.00980   0.01069
     Eigenvalues ---    0.01213   0.01759   0.02335   0.02647   0.02837
     Eigenvalues ---    0.03213   0.04530   0.04728   0.05080   0.05264
     Eigenvalues ---    0.05314   0.05394   0.05450   0.05466   0.06598
     Eigenvalues ---    0.06681   0.10886   0.11424   0.13778   0.15412
     Eigenvalues ---    0.15774   0.16000   0.16000   0.16000   0.16000
     Eigenvalues ---    0.16000   0.16000   0.16000   0.16000   0.16000
     Eigenvalues ---    0.16000   0.16085   0.22000   0.22055   0.22090
     Eigenvalues ---    0.23512   0.28492   0.28987   0.33244   0.33897
     Eigenvalues ---    0.33987   0.34044   0.34068   0.34205   0.34214
     Eigenvalues ---    0.34299   0.34370   0.37454   0.37755   0.38632
     Eigenvalues ---    0.40116   0.44218   0.44657   0.44807   0.45340
     Eigenvalues ---    0.46134   0.54732   0.71546
 RFO step:  Lambda=-1.86816855D-02 EMin= 2.32854405D-03
 Linear search not attempted -- first point.
 Iteration  1 RMS(Cart)=  0.15682458 RMS(Int)=  0.00612931
 Iteration  2 RMS(Cart)=  0.01510200 RMS(Int)=  0.00096105
 Iteration  3 RMS(Cart)=  0.00008407 RMS(Int)=  0.00096061
 Iteration  4 RMS(Cart)=  0.00000023 RMS(Int)=  0.00096061
 Variable       Old X    -DE/DX   Delta X   Delta X   Delta X     New X
                                 (Linear)    (Quad)   (Total)
    R1        2.91075  -0.00413   0.00000  -0.01360  -0.01360   2.89715
    R2        2.07504  -0.00221   0.00000  -0.00617  -0.00617   2.06887
    R3        2.07353  -0.00317   0.00000  -0.00885  -0.00885   2.06467
    R4        2.07215  -0.00049   0.00000  -0.00137  -0.00137   2.07078
    R5        2.90031   0.01041   0.00000   0.03375   0.03375   2.93406
    R6        2.73456   0.01600   0.00000   0.03952   0.03952   2.77408
    R7        2.75167   0.01199   0.00000   0.03048   0.03048   2.78215
    R8        2.06970  -0.00029   0.00000  -0.00079  -0.00079   2.06891
    R9        2.07256   0.00050   0.00000   0.00140   0.00140   2.07396
   R10        2.06828  -0.00040   0.00000  -0.00109  -0.00109   2.06719
   R11        1.92376  -0.00255   0.00000  -0.00548  -0.00548   1.91827
   R12        1.91582   0.00155   0.00000   0.00329   0.00329   1.91911
   R13        2.74723  -0.00237   0.00000  -0.00599  -0.00599   2.74124
   R14        1.92201   0.00040   0.00000   0.00086   0.00086   1.92287
   R15        2.71397   0.01395   0.00000   0.03323   0.03323   2.74720
   R16        2.06986   0.00317   0.00000   0.00878   0.00878   2.07864
   R17        2.06710   0.00767   0.00000   0.02116   0.02116   2.08826
   R18        2.55371   0.01428   0.00000   0.02522   0.02522   2.57894
   R19        1.90681   0.00010   0.00000   0.00020   0.00020   1.90701
   R20        2.42824  -0.00563   0.00000  -0.00766  -0.00766   2.42058
   R21        2.08626  -0.00779   0.00000  -0.02218  -0.02218   2.06407
   R22        1.92895   0.00237   0.00000   0.00513   0.00513   1.93408
    A1        1.93837  -0.00217   0.00000  -0.01211  -0.01223   1.92614
    A2        1.95701  -0.00541   0.00000  -0.03031  -0.03046   1.92655
    A3        1.94612  -0.00056   0.00000  -0.00315  -0.00321   1.94292
    A4        1.87103   0.00405   0.00000   0.02269   0.02249   1.89351
    A5        1.86917   0.00145   0.00000   0.00812   0.00811   1.87728
    A6        1.87788   0.00325   0.00000   0.01817   0.01809   1.89597
    A7        1.89285   0.00054   0.00000   0.00264   0.00265   1.89550
    A8        1.86858   0.00094   0.00000   0.00273   0.00237   1.87095
    A9        1.89687  -0.00475   0.00000  -0.04735  -0.04731   1.84955
   A10        1.94279   0.00087   0.00000   0.02473   0.02457   1.96737
   A11        1.96802   0.00248   0.00000   0.01684   0.01655   1.98457
   A12        1.89167  -0.00030   0.00000  -0.00211  -0.00268   1.88899
   A13        1.94288  -0.00234   0.00000  -0.01480  -0.01481   1.92807
   A14        1.93102   0.00359   0.00000   0.02144   0.02149   1.95251
   A15        1.96428  -0.00141   0.00000  -0.00748  -0.00753   1.95675
   A16        1.88039  -0.00080   0.00000  -0.00526  -0.00517   1.87522
   A17        1.85962   0.00165   0.00000   0.00679   0.00669   1.86631
   A18        1.88179  -0.00073   0.00000  -0.00092  -0.00092   1.88087
   A19        1.91834  -0.00180   0.00000  -0.01095  -0.01096   1.90738
   A20        1.93446   0.00037   0.00000   0.00118   0.00118   1.93564
   A21        1.84184   0.00045   0.00000   0.00071   0.00069   1.84254
   A22        2.01991   0.00802   0.00000   0.03666   0.03626   2.05617
   A23        1.88947  -0.00278   0.00000  -0.00222  -0.00300   1.88647
   A24        1.87294  -0.00045   0.00000   0.01574   0.01530   1.88825
   A25        2.05161  -0.04062   0.00000  -0.17455  -0.17424   1.87737
   A26        1.90863   0.00520   0.00000  -0.01072  -0.01205   1.89658
   A27        1.91457   0.01355   0.00000   0.07086   0.07389   1.98846
   A28        1.86960   0.01629   0.00000   0.06028   0.05437   1.92398
   A29        1.84354   0.01341   0.00000   0.06977   0.07142   1.91496
   A30        1.86691  -0.00543   0.00000  -0.00157  -0.00439   1.86253
   A31        2.14890  -0.00034   0.00000  -0.00201  -0.00205   2.14685
   A32        2.01389   0.00528   0.00000   0.02880   0.02873   2.04262
   A33        2.10097  -0.00504   0.00000  -0.02981  -0.02981   2.07116
   A34        2.19186   0.01733   0.00000   0.07262   0.07262   2.26447
   A35        1.99943  -0.00875   0.00000  -0.03680  -0.03680   1.96263
   A36        2.09185  -0.00858   0.00000  -0.03584  -0.03584   2.05602
   A37        1.90874   0.00382   0.00000   0.02140   0.02140   1.93015
    D1       -1.02648  -0.00048   0.00000  -0.01351  -0.01336  -1.03983
    D2        1.07165   0.00138   0.00000   0.01889   0.01888   1.09052
    D3        3.11150  -0.00092   0.00000  -0.00654  -0.00654   3.10496
    D4       -3.11936  -0.00048   0.00000  -0.01351  -0.01344  -3.13280
    D5       -1.02124   0.00138   0.00000   0.01889   0.01880  -1.00244
    D6        1.01862  -0.00092   0.00000  -0.00654  -0.00662   1.01199
    D7        1.05674  -0.00048   0.00000  -0.01344  -0.01335   1.04339
    D8       -3.12832   0.00138   0.00000   0.01895   0.01888  -3.10944
    D9       -1.08846  -0.00092   0.00000  -0.00648  -0.00654  -1.09501
   D10        1.00951   0.00191   0.00000   0.01464   0.01465   1.02416
   D11       -1.08082   0.00207   0.00000   0.01673   0.01681  -1.06401
   D12        3.09591   0.00143   0.00000   0.00788   0.00796   3.10387
   D13       -1.04176  -0.00007   0.00000  -0.00465  -0.00460  -1.04636
   D14       -3.13209   0.00009   0.00000  -0.00256  -0.00244  -3.13453
   D15        1.04463  -0.00055   0.00000  -0.01141  -0.01129   1.03335
   D16        3.11106  -0.00211   0.00000  -0.03236  -0.03257   3.07848
   D17        1.02073  -0.00195   0.00000  -0.03027  -0.03041   0.99031
   D18       -1.08573  -0.00259   0.00000  -0.03912  -0.03926  -1.12500
   D19       -1.06214  -0.00187   0.00000  -0.00652  -0.00661  -1.06875
   D20       -3.09139  -0.00155   0.00000  -0.00148  -0.00158  -3.09297
   D21        1.00378  -0.00016   0.00000   0.01218   0.01227   1.01604
   D22       -1.02547   0.00017   0.00000   0.01722   0.01730  -1.00817
   D23       -3.10542   0.00336   0.00000   0.04865   0.04866  -3.05676
   D24        1.14851   0.00368   0.00000   0.05369   0.05370   1.20221
   D25        3.12532   0.00185   0.00000   0.03415   0.03394  -3.12393
   D26        1.02299  -0.00082   0.00000  -0.00898  -0.00915   1.01384
   D27        1.02607   0.00283   0.00000   0.05246   0.05248   1.07855
   D28       -1.07625   0.00016   0.00000   0.00933   0.00939  -1.06687
   D29       -1.13285   0.00026   0.00000   0.01091   0.01104  -1.12181
   D30        3.04801  -0.00242   0.00000  -0.03222  -0.03205   3.01596
   D31       -3.06995  -0.00280   0.00000  -0.07783  -0.07515   3.13809
   D32        1.07773   0.00111   0.00000  -0.02008  -0.02239   1.05534
   D33       -0.96462  -0.00317   0.00000  -0.05283  -0.05382  -1.01844
   D34       -0.95869  -0.00148   0.00000  -0.04497  -0.04188  -1.00058
   D35       -3.09420   0.00242   0.00000   0.01277   0.01088  -3.08332
   D36        1.14664  -0.00185   0.00000  -0.01997  -0.02056   1.12608
   D37       -3.08120   0.00284   0.00000   0.01724   0.01694  -3.06426
   D38       -0.14985   0.00176   0.00000  -0.00224  -0.00275  -0.15259
   D39       -0.92583  -0.00573   0.00000  -0.07179  -0.07326  -0.99909
   D40        2.00552  -0.00681   0.00000  -0.09128  -0.09294   1.91257
   D41        1.05999   0.00147   0.00000  -0.01489  -0.01282   1.04717
   D42       -2.29184   0.00039   0.00000  -0.03437  -0.03250  -2.32435
   D43        3.07716  -0.00033   0.00000  -0.01567  -0.01552   3.06165
   D44       -0.07486  -0.00043   0.00000  -0.01807  -0.01792  -0.09278
   D45        0.15589  -0.00042   0.00000  -0.00220  -0.00236   0.15354
   D46       -2.99613  -0.00052   0.00000  -0.00460  -0.00476  -3.00089
   D47       -0.00126  -0.00039   0.00000  -0.00807  -0.00806  -0.00933
   D48       -3.13191  -0.00030   0.00000  -0.00559  -0.00560  -3.13751
         Item               Value     Threshold  Converged?
 Maximum Force            0.040616     0.000450     NO 
 RMS     Force            0.006395     0.000300     NO 
 Maximum Displacement     0.449962     0.001800     NO 
 RMS     Displacement     0.162790     0.001200     NO 
 Predicted change in Energy=-1.038583D-02
 GradGradGradGradGradGradGradGradGradGradGradGradGradGradGradGradGradGrad

                          Input orientation:                          
 ---------------------------------------------------------------------
 Center     Atomic      Atomic             Coordinates (Angstroms)
 Number     Number       Type             X           Y           Z
 ---------------------------------------------------------------------
      1          6           0        1.128064    0.103697   -0.093655
      2          6           0        2.645011    0.071248    0.125954
      3          6           0        2.984271    0.938155    1.368554
      4          7           0        3.029250   -1.335552    0.294017
      5          7           0        3.245903    0.566743   -1.123420
      6          6           0        4.693280    0.621525   -1.203064
      7          7           0        5.041238    1.133329   -2.518504
      8          6           0        6.328290    1.230565   -2.961777
      9          7           0        6.774784    1.582879   -4.109499
     10          1           0        0.607393   -0.288645    0.785862
     11          1           0        0.855596   -0.506114   -0.958304
     12          1           0        0.771372    1.126365   -0.260148
     13          1           0        2.460908    0.560869    2.253072
     14          1           0        2.684917    1.985005    1.230781
     15          1           0        4.053147    0.924450    1.600830
     16          1           0        2.558219   -1.716741    1.108428
     17          1           0        4.022300   -1.419075    0.489516
     18          1           0        2.882509    1.500618   -1.300084
     19          1           0        5.091765   -0.395428   -1.072862
     20          1           0        5.161703    1.248706   -0.423076
     21          1           0        4.290643    1.231118   -3.185901
     22          1           0        7.056080    0.971344   -2.189666
     23          1           0        6.002540    1.803709   -4.743823
 ---------------------------------------------------------------------
                    Distance matrix (angstroms):
                    1          2          3          4          5
     1  C    0.000000
     2  C    1.533105   0.000000
     3  C    2.505969   1.552637   0.000000
     4  N    2.415830   1.467981   2.515233   0.000000
     5  N    2.400015   1.472251   2.533048   2.382182   0.000000
     6  C    3.769576   2.502898   3.103898   2.973280   1.450602
     7  N    4.717305   3.723315   4.402093   4.248969   2.343183
     8  C    6.044693   4.944152   5.479026   5.298001   3.649839
     9  N    7.085226   6.105662   6.692736   6.475895   4.733096
    10  H    1.094797   2.171840   2.737539   2.683899   3.367311
    11  H    1.092577   2.170476   3.468636   2.642166   2.625233
    12  H    1.095809   2.184690   2.754091   3.386169   2.679873
    13  H    2.737262   2.190492   1.094817   2.785197   3.466547
    14  H    2.777993   2.210136   1.097493   3.467303   2.805073
    15  H    3.478652   2.210443   1.093908   2.804234   2.863762
    16  H    2.608513   2.041983   2.701418   1.015107   3.266245
    17  H    3.321976   2.061592   2.721533   1.015551   2.673542
    18  H    2.546554   2.032999   2.729166   3.256769   1.017540
    19  H    4.113259   2.764335   3.490054   2.646915   2.082195
    20  H    4.205926   2.832239   2.836827   3.426364   2.150778
    21  H    4.564534   3.875794   4.747156   4.504301   2.405556
    22  H    6.347240   5.062588   5.407556   5.263631   3.977190
    23  H    6.947994   6.163533   6.871701   6.638918   4.715554
                    6          7          8          9         10
     6  C    0.000000
     7  N    1.453754   0.000000
     8  C    2.477349   1.364715   0.000000
     9  N    3.701922   2.395525   1.280916   0.000000
    10  H    4.634513   5.709626   7.005817   8.093446   0.000000
    11  H    4.007404   4.758318   6.081146   7.023582   1.775109
    12  H    4.065134   4.830318   6.179724   7.146108   1.767280
    13  H    4.114855   5.454700   6.526851   7.754762   2.511951
    14  H    3.437470   4.509406   5.605434   6.738494   3.111840
    15  H    2.891946   4.241328   5.107579   6.359928   3.742858
    16  H    3.920328   5.238599   6.282247   7.476207   2.439104
    17  H    2.734792   4.074455   4.924389   6.143194   3.609333
    18  H    2.015219   2.505905   3.835044   4.800977   3.567742
    19  H    1.099971   2.104645   2.782238   3.995925   4.855497
    20  H    1.105060   2.102057   2.793968   4.037749   4.956483
    21  H    2.113140   1.009146   2.049936   2.673523   5.625914
    22  H    2.584296   2.047917   1.092259   2.034419   7.212969
    23  H    3.955843   2.515065   1.900077   1.023471   8.003935
                   11         12         13         14         15
    11  H    0.000000
    12  H    1.777498   0.000000
    13  H    3.745452   3.080680   0.000000
    14  H    3.787371   2.573284   1.767320   0.000000
    15  H    4.338203   3.778102   1.758645   1.770245   0.000000
    16  H    2.938694   3.626165   2.550919   3.705934   3.074599
    17  H    3.599679   4.196402   3.077053   3.731733   2.593854
    18  H    2.872657   2.382946   3.699431   2.584367   3.180827
    19  H    4.239162   4.652112   4.347153   4.094648   3.157440
    20  H    4.680642   4.395056   3.863829   3.067873   2.330286
    21  H    4.447438   4.577802   5.777507   4.759599   4.802420
    22  H    6.491929   6.576065   6.404843   5.642166   4.836080
    23  H    6.793855   6.922951   7.940046   6.836328   6.695360
                   16         17         18         19         20
    16  H    0.000000
    17  H    1.617155   0.000000
    18  H    4.032058   3.609210   0.000000
    19  H    3.594823   2.152355   2.920176   0.000000
    20  H    4.232908   3.041072   2.455062   1.769262   0.000000
    21  H    5.489301   4.539187   2.368919   2.784310   2.896939
    22  H    6.191445   4.700633   4.300022   2.640806   2.605079
    23  H    7.648906   6.457207   4.656801   4.375119   4.436653
                   21         22         23
    21  H    0.000000
    22  H    2.950866   0.000000
    23  H    2.384444   2.885567   0.000000
 Stoichiometry    C5H14N4
 Framework group  C1[X(C5H14N4)]
 Deg. of freedom    63
 Full point group                 C1      NOp   1
 Largest Abelian subgroup         C1      NOp   1
 Largest concise Abelian subgroup C1      NOp   1
                         Standard orientation:                         
 ---------------------------------------------------------------------
 Center     Atomic      Atomic             Coordinates (Angstroms)
 Number     Number       Type             X           Y           Z
 ---------------------------------------------------------------------
      1          6           0       -2.686688    1.280307   -0.001143
      2          6           0       -1.788805    0.038138   -0.036272
      3          6           0       -2.183034   -0.891524    1.143132
      4          7           0       -1.977422   -0.596851   -1.346303
      5          7           0       -0.405359    0.536014    0.039347
      6          6           0        0.667851   -0.439216    0.002057
      7          7           0        1.924161    0.287539    0.085216
      8          6           0        3.142294   -0.320057   -0.011872
      9          7           0        4.314841    0.195027   -0.035742
     10          1           0       -3.739050    0.992282   -0.091456
     11          1           0       -2.439266    1.952165   -0.826440
     12          1           0       -2.573362    1.827307    0.941590
     13          1           0       -3.236991   -1.178355    1.068787
     14          1           0       -2.043410   -0.400800    2.114824
     15          1           0       -1.600601   -1.817460    1.150065
     16          1           0       -2.948519   -0.874645   -1.447506
     17          1           0       -1.439780   -1.455793   -1.413412
     18          1           0       -0.311395    1.079155    0.894657
     19          1           0        0.609519   -0.990734   -0.947869
     20          1           0        0.618135   -1.191555    0.809938
     21          1           0        1.877799    1.293186    0.015226
     22          1           0        3.062713   -1.408171   -0.063878
     23          1           0        4.260963    1.215422    0.022438
 ---------------------------------------------------------------------
 Rotational constants (GHZ):           4.0601805           0.6175965           0.6086809
 Standard basis: 6-31G(2df,p) (6D, 7F)
 There are   349 symmetry adapted cartesian basis functions of A   symmetry.
 There are   322 symmetry adapted basis functions of A   symmetry.
   322 basis functions,   494 primitive gaussians,   349 cartesian basis functions
    36 alpha electrons       36 beta electrons
       nuclear repulsion energy       471.5499018693 Hartrees.
 NAtoms=   23 NActive=   23 NUniq=   23 SFac= 1.00D+00 NAtFMM=   60 NAOKFM=F Big=F
 Integral buffers will be    131072 words long.
 Raffenetti 2 integral format.
 Two-electron integral symmetry is turned on.
 One-electron integrals computed using PRISM.
 PrsmSu:  requested number of processors reduced to:  13 ShMem   1 Linda.
 NBasis=   322 RedAO= T EigKep=  2.63D-04  NBF=   322
 NBsUse=   322 1.00D-06 EigRej= -1.00D+00 NBFU=   322
 Initial guess from the checkpoint file:  "CCpCppNpNCNCdN.chk"
 B after Tr=     0.000000    0.000000   -0.000000
         Rot=    0.999595   -0.026244    0.003646    0.010382 Ang=  -3.26 deg.
 ExpMin= 1.61D-01 ExpMax= 4.17D+03 ExpMxC= 6.27D+02 IAcc=2 IRadAn=         4 AccDes= 0.00D+00
 Harris functional with IExCor=  402 and IRadAn=       4 diagonalized for initial guess.
 HarFok:  IExCor=  402 AccDes= 0.00D+00 IRadAn=         4 IDoV= 1 UseB2=F ITyADJ=14
 ICtDFT=  3500011 ScaDFX=  1.000000  1.000000  1.000000  1.000000
 FoFCou: FMM=F IPFlag=           0 FMFlag=      100000 FMFlg1=           0
         NFxFlg=           0 DoJE=T BraDBF=F KetDBF=T FulRan=T
         wScrn=  0.000000 ICntrl=       500 IOpCl=  0 I1Cent=   200000004 NGrid=           0
         NMat0=    1 NMatS0=      1 NMatT0=    0 NMatD0=    1 NMtDS0=    0 NMtDT0=    0
 Petite list used in FoFCou.
 Requested convergence on RMS density matrix=1.00D-08 within 128 cycles.
 Requested convergence on MAX density matrix=1.00D-06.
 Requested convergence on             energy=1.00D-06.
 No special actions if energy rises.
 Integral accuracy reduced to 1.0D-05 until final iterations.
 Initial convergence to 1.0D-05 achieved.  Increase integral accuracy.
 SCF Done:  E(RB3LYP) =  -417.970006914     A.U. after   11 cycles
            NFock= 11  Conv=0.88D-08     -V/T= 2.0078
 PrsmSu:  requested number of processors reduced to:  13 ShMem   1 Linda.
 Calling FoFJK, ICntrl=      2127 FMM=F ISym2X=0 I1Cent= 0 IOpClX= 0 NMat=1 NMatS=1 NMatT=0.
 ***** Axes restored to original set *****
 -------------------------------------------------------------------
 Center     Atomic                   Forces (Hartrees/Bohr)
 Number     Number              X              Y              Z
 -------------------------------------------------------------------
      1        6          -0.003302323   -0.001378245   -0.000670290
      2        6          -0.004867008    0.000474951    0.002138120
      3        6           0.002288251    0.000785928   -0.000825472
      4        7           0.002016032   -0.000790460   -0.002425729
      5        7           0.000632977    0.002784208   -0.000851573
      6        6           0.000233784   -0.003708431    0.000545790
      7        7          -0.000429670    0.003543170    0.001076277
      8        6           0.003803332    0.002260222   -0.005060373
      9        7          -0.002204928   -0.001630876    0.004786510
     10        1          -0.000272572    0.000466563    0.000156394
     11        1           0.001444315    0.000093422    0.000284120
     12        1           0.000765144   -0.000170241    0.000546211
     13        1          -0.000649493   -0.000496347   -0.000387854
     14        1           0.000129313   -0.000869495   -0.000586972
     15        1           0.001114515   -0.000320246   -0.000910901
     16        1          -0.001000025    0.000395942    0.000119506
     17        1           0.000540683    0.000928303    0.001154846
     18        1           0.000308197   -0.000212720    0.001640214
     19        1          -0.001507731   -0.000545655    0.000024170
     20        1           0.000993854    0.001477953   -0.001688080
     21        1          -0.000554917   -0.003247011    0.000851133
     22        1           0.000911859    0.000077575    0.001048257
     23        1          -0.000393588    0.000081488   -0.000964303
 -------------------------------------------------------------------
 Cartesian Forces:  Max     0.005060373 RMS     0.001738489

 GradGradGradGradGradGradGradGradGradGradGradGradGradGradGradGradGradGrad
 Berny optimization.
 Using GEDIIS/GDIIS optimizer.
 FormGI is forming the generalized inverse of G from B-inverse, IUseBI=4.
 Internal  Forces:  Max     0.004756492 RMS     0.001049778
 Search for a local minimum.
 Step number   2 out of a maximum of  117
 All quantities printed in internal units (Hartrees-Bohrs-Radians)
 Mixed Optimization -- RFO/linear search
 Update second derivatives using D2CorX and points    1    2
 DE= -9.50D-03 DEPred=-1.04D-02 R= 9.14D-01
 TightC=F SS=  1.41D+00  RLast= 3.36D-01 DXNew= 5.0454D-01 1.0089D+00
 Trust test= 9.14D-01 RLast= 3.36D-01 DXMaxT set to 5.05D-01
 ITU=  1  0
 Use linear search instead of GDIIS.
     Eigenvalues ---    0.00233   0.00306   0.00950   0.00975   0.01067
     Eigenvalues ---    0.01198   0.01749   0.02332   0.02638   0.02646
     Eigenvalues ---    0.03213   0.04583   0.05051   0.05269   0.05304
     Eigenvalues ---    0.05440   0.05496   0.05542   0.05770   0.06833
     Eigenvalues ---    0.07161   0.09516   0.11822   0.12856   0.15407
     Eigenvalues ---    0.15629   0.15870   0.16000   0.16000   0.16000
     Eigenvalues ---    0.16000   0.16000   0.16000   0.16000   0.16000
     Eigenvalues ---    0.16037   0.16159   0.21685   0.22004   0.23148
     Eigenvalues ---    0.23895   0.28547   0.29388   0.33388   0.33899
     Eigenvalues ---    0.33964   0.34054   0.34068   0.34206   0.34216
     Eigenvalues ---    0.34295   0.34408   0.37473   0.37786   0.38681
     Eigenvalues ---    0.40286   0.44204   0.44671   0.44816   0.45335
     Eigenvalues ---    0.46137   0.54396   0.71439
 RFO step:  Lambda=-1.91008226D-03 EMin= 2.32855470D-03
 Quartic linear search produced a step of  0.00938.
 Iteration  1 RMS(Cart)=  0.06231663 RMS(Int)=  0.00258226
 Iteration  2 RMS(Cart)=  0.00307691 RMS(Int)=  0.00008820
 Iteration  3 RMS(Cart)=  0.00000383 RMS(Int)=  0.00008816
 Iteration  4 RMS(Cart)=  0.00000000 RMS(Int)=  0.00008816
 Variable       Old X    -DE/DX   Delta X   Delta X   Delta X     New X
                                 (Linear)    (Quad)   (Total)
    R1        2.89715   0.00128  -0.00013   0.00370   0.00357   2.90072
    R2        2.06887   0.00009  -0.00006  -0.00011  -0.00016   2.06870
    R3        2.06467  -0.00064  -0.00008  -0.00240  -0.00249   2.06219
    R4        2.07078  -0.00049  -0.00001  -0.00152  -0.00153   2.06925
    R5        2.93406  -0.00204   0.00032  -0.00503  -0.00472   2.92934
    R6        2.77408  -0.00024   0.00037   0.00174   0.00211   2.77619
    R7        2.78215  -0.00017   0.00029   0.00137   0.00166   2.78381
    R8        2.06891   0.00017  -0.00001   0.00044   0.00044   2.06934
    R9        2.07396  -0.00079   0.00001  -0.00224  -0.00223   2.07173
   R10        2.06719   0.00090  -0.00001   0.00256   0.00255   2.06974
   R11        1.91827   0.00041  -0.00005   0.00060   0.00054   1.91882
   R12        1.91911   0.00067   0.00003   0.00169   0.00172   1.92083
   R13        2.74124   0.00075  -0.00006   0.00163   0.00158   2.74282
   R14        1.92287  -0.00059   0.00001  -0.00127  -0.00126   1.92161
   R15        2.74720  -0.00092   0.00031  -0.00031  -0.00000   2.74720
   R16        2.07864  -0.00004   0.00008   0.00041   0.00049   2.07913
   R17        2.08826   0.00007   0.00020   0.00146   0.00166   2.08992
   R18        2.57894   0.00211   0.00024   0.00538   0.00561   2.58455
   R19        1.90701  -0.00046   0.00000  -0.00100  -0.00099   1.90601
   R20        2.42058  -0.00476  -0.00007  -0.00713  -0.00720   2.41338
   R21        2.06407   0.00133  -0.00021   0.00268   0.00247   2.06654
   R22        1.93408   0.00091   0.00005   0.00237   0.00242   1.93650
    A1        1.92614   0.00084  -0.00011   0.00534   0.00524   1.93138
    A2        1.92655  -0.00174  -0.00029  -0.01240  -0.01271   1.91385
    A3        1.94292  -0.00086  -0.00003  -0.00662  -0.00667   1.93624
    A4        1.89351   0.00070   0.00021   0.00775   0.00799   1.90150
    A5        1.87728  -0.00004   0.00008  -0.00022  -0.00014   1.87714
    A6        1.89597   0.00120   0.00017   0.00687   0.00698   1.90294
    A7        1.89550   0.00176   0.00002   0.02148   0.02157   1.91706
    A8        1.87095  -0.00033   0.00002   0.00731   0.00733   1.87829
    A9        1.84955   0.00076  -0.00044   0.00893   0.00865   1.85820
   A10        1.96737  -0.00019   0.00023  -0.00477  -0.00492   1.96244
   A11        1.98457  -0.00182   0.00016  -0.01822  -0.01830   1.96627
   A12        1.88899  -0.00003  -0.00003  -0.01223  -0.01246   1.87653
   A13        1.92807  -0.00072  -0.00014  -0.00419  -0.00433   1.92374
   A14        1.95251  -0.00060   0.00020  -0.00338  -0.00320   1.94931
   A15        1.95675  -0.00119  -0.00007  -0.00809  -0.00818   1.94858
   A16        1.87522   0.00073  -0.00005   0.00464   0.00458   1.87980
   A17        1.86631   0.00119   0.00006   0.00948   0.00953   1.87584
   A18        1.88087   0.00078  -0.00001   0.00275   0.00272   1.88358
   A19        1.90738  -0.00121  -0.00010  -0.01092  -0.01110   1.89628
   A20        1.93564  -0.00143   0.00001  -0.01148  -0.01154   1.92410
   A21        1.84254   0.00070   0.00001  -0.00126  -0.00141   1.84113
   A22        2.05617  -0.00057   0.00034  -0.00096  -0.00063   2.05554
   A23        1.88647   0.00005  -0.00003  -0.00192  -0.00196   1.88451
   A24        1.88825   0.00021   0.00014   0.00046   0.00060   1.88884
   A25        1.87737  -0.00064  -0.00163  -0.01575  -0.01742   1.85995
   A26        1.89658  -0.00006  -0.00011   0.00142   0.00130   1.89788
   A27        1.98846   0.00064   0.00069   0.00599   0.00656   1.99502
   A28        1.92398   0.00061   0.00051   0.00849   0.00896   1.93294
   A29        1.91496  -0.00118   0.00067  -0.01004  -0.00938   1.90558
   A30        1.86253   0.00068  -0.00004   0.01065   0.01057   1.87309
   A31        2.14685   0.00188  -0.00002   0.00654   0.00624   2.15310
   A32        2.04262  -0.00296   0.00027  -0.01803  -0.01801   2.02461
   A33        2.07116   0.00094  -0.00028   0.00270   0.00209   2.07326
   A34        2.26447  -0.00102   0.00068  -0.00034   0.00034   2.26481
   A35        1.96263   0.00053  -0.00035   0.00025  -0.00010   1.96253
   A36        2.05602   0.00049  -0.00034   0.00008  -0.00026   2.05576
   A37        1.93015   0.00089   0.00020   0.00675   0.00695   1.93710
    D1       -1.03983  -0.00032  -0.00013  -0.00125  -0.00136  -1.04119
    D2        1.09052   0.00026   0.00018   0.00971   0.00993   1.10045
    D3        3.10496   0.00043  -0.00006   0.00337   0.00325   3.10821
    D4       -3.13280  -0.00061  -0.00013  -0.00637  -0.00646  -3.13926
    D5       -1.00244  -0.00003   0.00018   0.00459   0.00483  -0.99761
    D6        1.01199   0.00014  -0.00006  -0.00175  -0.00185   1.01014
    D7        1.04339  -0.00038  -0.00013  -0.00229  -0.00242   1.04097
    D8       -3.10944   0.00020   0.00018   0.00867   0.00887  -3.10057
    D9       -1.09501   0.00037  -0.00006   0.00233   0.00219  -1.09282
   D10        1.02416  -0.00020   0.00014   0.00012   0.00031   1.02447
   D11       -1.06401  -0.00024   0.00016  -0.00068  -0.00047  -1.06447
   D12        3.10387   0.00004   0.00007   0.00397   0.00409   3.10796
   D13       -1.04636  -0.00082  -0.00004  -0.02025  -0.02026  -1.06662
   D14       -3.13453  -0.00087  -0.00002  -0.02105  -0.02103   3.12762
   D15        1.03335  -0.00059  -0.00011  -0.01640  -0.01647   1.01687
   D16        3.07848   0.00082  -0.00031   0.01462   0.01422   3.09270
   D17        0.99031   0.00078  -0.00029   0.01381   0.01345   1.00376
   D18       -1.12500   0.00106  -0.00037   0.01847   0.01801  -1.10699
   D19       -1.06875  -0.00022  -0.00006   0.02692   0.02691  -1.04184
   D20       -3.09297   0.00047  -0.00001   0.04156   0.04152  -3.05145
   D21        1.01604   0.00162   0.00012   0.05542   0.05556   1.07161
   D22       -1.00817   0.00230   0.00016   0.07006   0.07017  -0.93800
   D23       -3.05676  -0.00091   0.00046   0.01886   0.01935  -3.03741
   D24        1.20221  -0.00023   0.00050   0.03350   0.03396   1.23617
   D25       -3.12393   0.00055   0.00032   0.00846   0.00876  -3.11517
   D26        1.01384   0.00064  -0.00009   0.01016   0.01006   1.02390
   D27        1.07855  -0.00108   0.00049  -0.01351  -0.01292   1.06563
   D28       -1.06687  -0.00098   0.00009  -0.01181  -0.01162  -1.07848
   D29       -1.12181   0.00052   0.00010   0.01558   0.01559  -1.10622
   D30        3.01596   0.00062  -0.00030   0.01728   0.01688   3.03284
   D31        3.13809  -0.00011  -0.00070  -0.06336  -0.06402   3.07408
   D32        1.05534  -0.00044  -0.00021  -0.06536  -0.06559   0.98976
   D33       -1.01844  -0.00166  -0.00050  -0.08356  -0.08411  -1.10255
   D34       -1.00058  -0.00029  -0.00039  -0.06627  -0.06661  -1.06719
   D35       -3.08332  -0.00062   0.00010  -0.06828  -0.06818   3.13168
   D36        1.12608  -0.00183  -0.00019  -0.08648  -0.08671   1.03937
   D37       -3.06426  -0.00094   0.00016  -0.06601  -0.06587  -3.13013
   D38       -0.15259  -0.00159  -0.00003  -0.10999  -0.10984  -0.26243
   D39       -0.99909  -0.00105  -0.00069  -0.06884  -0.06965  -1.06874
   D40        1.91257  -0.00170  -0.00087  -0.11282  -0.11361   1.79896
   D41        1.04717  -0.00057  -0.00012  -0.05682  -0.05710   0.99007
   D42       -2.32435  -0.00122  -0.00030  -0.10081  -0.10106  -2.42541
   D43        3.06165  -0.00103  -0.00015  -0.04224  -0.04250   3.01914
   D44       -0.09278  -0.00106  -0.00017  -0.04351  -0.04379  -0.13658
   D45        0.15354   0.00012  -0.00002   0.00499   0.00509   0.15863
   D46       -3.00089   0.00008  -0.00004   0.00372   0.00379  -2.99710
   D47       -0.00933  -0.00022  -0.00008  -0.00701  -0.00708  -0.01641
   D48       -3.13751  -0.00018  -0.00005  -0.00568  -0.00573   3.13994
         Item               Value     Threshold  Converged?
 Maximum Force            0.004756     0.000450     NO 
 RMS     Force            0.001050     0.000300     NO 
 Maximum Displacement     0.310318     0.001800     NO 
 RMS     Displacement     0.062559     0.001200     NO 
 Predicted change in Energy=-1.050426D-03
 GradGradGradGradGradGradGradGradGradGradGradGradGradGradGradGradGradGrad

                          Input orientation:                          
 ---------------------------------------------------------------------
 Center     Atomic      Atomic             Coordinates (Angstroms)
 Number     Number       Type             X           Y           Z
 ---------------------------------------------------------------------
      1          6           0        1.114566    0.117960   -0.099801
      2          6           0        2.633093    0.079344    0.121092
      3          6           0        3.003328    0.909303    1.376890
      4          7           0        3.028888   -1.330111    0.243706
      5          7           0        3.247605    0.607036   -1.109362
      6          6           0        4.696848    0.648342   -1.177603
      7          7           0        5.035856    1.115615   -2.511818
      8          6           0        6.322052    1.269705   -2.950590
      9          7           0        6.759002    1.551260   -4.117125
     10          1           0        0.587601   -0.293937    0.766823
     11          1           0        0.857072   -0.469035   -0.982969
     12          1           0        0.765605    1.146302   -0.240365
     13          1           0        2.487334    0.513416    2.257887
     14          1           0        2.715363    1.961354    1.266580
     15          1           0        4.078640    0.873931    1.581929
     16          1           0        2.535489   -1.738553    1.031588
     17          1           0        4.015987   -1.399275    0.476174
     18          1           0        2.895332    1.549477   -1.256809
     19          1           0        5.087731   -0.366178   -1.008881
     20          1           0        5.169077    1.311799   -0.429326
     21          1           0        4.290378    1.093302   -3.190845
     22          1           0        7.055113    1.135557   -2.150266
     23          1           0        5.987223    1.652153   -4.783680
 ---------------------------------------------------------------------
                    Distance matrix (angstroms):
                    1          2          3          4          5
     1  C    0.000000
[...]
 577,0.00028169,-0.00022180,-0.00018558,0.00005722,0.00017584,-0.000004
 97,-0.00005381,-0.00012302,-0.00006997,0.00000649,0.00003982,0.0000100
 5,0.00006957,0.00004257,-0.00010997,-0.00003755,0.00039429,-0.00008937
 ,-0.00055622,0.00079601,-0.00021617,0.00121785,-0.00858634,0.00047379,
 -0.02758532,0.33270944,0.00077958,0.00018175,0.00059396,0.00382274,-0.
 02660557,0.00341599,-0.00319791,0.02550458,-0.04870271,-0.00178545,-0.
 00323553,-0.00551834,-0.00010666,0.00080072,0.00296066,0.00055734,-0.0
 0009272,-0.00013358,-0.00004354,-0.00001246,0.00006554,0.00003626,0.00
 005398,-0.00011389,-0.00003056,-0.00002262,0.00008549,-0.00008205,0.00
 009095,-0.00001675,0.00026582,0.00015088,0.00006595,-0.00049196,0.0001
 4552,-0.00002762,-0.00349908,0.02553622,-0.00201907,0.00406606,-0.0251
 2641,0.05137927,0.00053414,-0.00175625,-0.00265446,-0.01139200,0.00302
 020,-0.00043842,-0.29325902,0.05758717,-0.04245056,0.00130328,0.000446
 05,0.00124343,0.00074086,-0.00022609,-0.00004496,-0.00085228,-0.000195
 78,0.00022151,0.00040153,0.00006700,0.00033077,0.00007589,0.00010416,-
 0.00006950,-0.00004229,-0.00004665,0.00009136,0.00042640,0.00010210,0.
 00008550,-0.00072130,0.00018167,-0.00025958,0.00019426,0.00005208,0.00
 017591,-0.01564944,0.00416871,-0.00313854,-0.00113936,-0.00023099,0.00
 033797,0.31929479,-0.00059959,-0.00165162,-0.00248381,-0.01556899,0.00
 227435,-0.00169540,0.05892541,-0.06026229,0.01027886,-0.00001426,0.001
 16612,0.00060490,0.00027900,-0.00009601,0.00104330,0.00082692,0.001173
 26,0.00013579,-0.00017775,-0.00033639,-0.00015746,0.00000756,-0.000020
 67,0.00013118,0.00000077,0.00001453,-0.00007686,0.00026078,-0.00002331
 ,-0.00002754,-0.00094184,0.00065006,-0.00041735,-0.00017678,0.00028047
 ,-0.00015166,-0.01028463,0.00174252,-0.00196423,0.03099735,-0.00572279
 ,0.00475828,-0.06337953,0.06120326,-0.00056345,-0.00314260,-0.00466251
 ,-0.02858492,0.00711233,-0.00391850,-0.04044316,0.00951635,-0.05397116
 ,0.00102342,0.00152055,0.00147664,0.00103098,0.00030023,0.00203796,-0.
 00020120,0.00048649,-0.00126517,0.00019756,-0.00019369,0.00020292,0.00
 017395,0.00030322,-0.00017256,-0.00009712,-0.00013493,0.00023745,-0.00
 018646,-0.00022165,0.00021591,-0.00196730,0.00001829,-0.00017289,0.000
 36828,0.00000079,-0.00001298,0.02484863,-0.00663401,0.00463425,-0.0028
 0156,0.00063278,-0.00152566,0.04590099,-0.00971595,0.05784425,0.001432
 36,0.00035671,0.00196534,-0.00166576,0.01011063,0.00531426,0.00010959,
 0.00036895,0.00034742,-0.09272092,-0.10252611,-0.15256437,-0.00055390,
 0.00042276,0.00041746,-0.00054511,-0.00060332,0.00013138,-0.00004634,0
 .00015181,-0.00004613,-0.00012480,-0.00028344,0.00027037,0.00002720,0.
 00009495,-0.00015465,-0.00017377,0.00014700,0.00017162,0.00008953,0.00
 016558,-0.00065644,0.00004326,-0.00043096,-0.00015692,0.00002839,0.000
 04358,-0.00022537,0.00084493,-0.00007612,-0.00013702,0.00040851,0.0002
 4570,0.00028866,0.09074548,-0.00075128,0.00178568,-0.00101839,-0.01839
 093,-0.02226149,-0.03366458,0.00188014,-0.00745958,0.00245363,-0.07298
 515,-0.13349967,-0.12165563,0.00081751,0.00299812,-0.00001330,-0.00101
 320,-0.00000751,0.00013286,0.00023441,0.00016718,-0.00012791,-0.000123
 02,-0.00026126,0.00017669,0.00008342,0.00008183,-0.00016250,0.00022058
 ,-0.00001896,0.00009853,0.00122988,-0.00004827,0.00077352,-0.00044267,
 0.00060229,0.00029785,0.00023751,0.00019960,-0.00003279,-0.00069675,-0
 .00103949,-0.00206716,-0.00004434,0.00019930,0.00034057,0.08296732,0.1
 5077609,0.00040855,0.00180039,0.00064576,-0.00046334,0.00074030,0.0018
 1679,0.00054948,-0.00009532,0.00111116,-0.10999191,-0.12677213,-0.2690
 2684,-0.00040326,-0.00019832,0.00102708,0.00044876,-0.00008606,-0.0001
 1968,-0.00000873,-0.00007849,0.00005704,0.00006502,0.00015224,-0.00014
 473,-0.00003426,-0.00005037,0.00008789,0.00016768,-0.00025006,-0.00024
 736,0.00029847,-0.00026532,0.00019624,-0.00037903,0.00052049,-0.000003
 59,-0.00003610,0.00027124,0.00023363,-0.00019170,0.00000094,0.00038242
 ,0.00001910,0.00015998,0.00000551,0.12822248,0.14169775,0.28866301,0.0
 0111349,0.00012934,-0.00123184,-0.00356476,0.01047876,-0.00788396,0.00
 042387,-0.00021103,-0.00019018,-0.08510277,-0.07681127,0.16439558,-0.0
 0016026,-0.00023583,0.00011373,0.00064256,-0.00020324,-0.00010716,-0.0
 0041321,-0.00045424,0.00042316,0.00025574,0.00048837,-0.00019312,-0.00
 014871,-0.00016406,0.00028949,-0.00033731,0.00030405,0.00040709,-0.000
 01396,0.00008911,-0.00006696,-0.00007388,-0.00019708,0.00035261,0.0004
 8905,-0.00018608,-0.00022968,-0.00020756,0.00029415,-0.00027387,-0.000
 53240,-0.00041421,0.00010718,0.00215265,0.00617368,-0.01846674,0.08447
 200,-0.00057631,0.00101138,0.00032697,-0.01784398,-0.01046761,0.033270
 59,-0.00080599,0.00076010,0.00052042,-0.05351075,-0.09908822,0.0949735
 7,0.00228019,-0.00775341,0.00196441,0.00122853,-0.00016523,0.00001411,
 -0.00025752,0.00004100,0.00005649,0.00003952,0.00008031,-0.00004795,0.
 00000065,-0.00001567,0.00001835,0.00095348,0.00005122,-0.00027776,0.00
 005659,0.00000116,-0.00010993,-0.00017779,0.00026888,-0.00039411,0.000
 29003,-0.00057396,-0.00131014,0.00047501,0.00059835,-0.00017663,-0.000
 01279,-0.00007069,-0.00007537,0.00875459,0.00734307,-0.01752430,0.0612
 2105,0.10900433,-0.00003363,-0.00135375,-0.00011570,0.00349395,-0.0001
 7430,-0.00395025,-0.00021666,-0.00096558,0.00085431,0.11848689,0.10120
 675,-0.31305674,-0.00076053,0.00158784,0.00045655,-0.00051157,-0.00009
 715,0.00023201,-0.00000176,0.00003400,-0.00008588,-0.00003887,-0.00008
 112,0.00009758,0.00001046,0.00002903,-0.00005506,-0.00055991,0.0002452
 0,0.00030249,-0.00000858,0.00013451,-0.00010618,0.00024884,-0.00042145
 ,0.00031989,0.00023823,-0.00049160,0.00012072,-0.00019245,0.00005710,-
 0.00016855,-0.00019422,0.,-0.00001387,0.01686963,0.01241639,-0.0245710
 8,-0.13761193,-0.11238121,0.33909002,0.00015993,-0.00161681,0.00080478
 ,0.00624705,-0.01522299,0.00072692,-0.00054731,0.00012788,0.00006901,-
 0.00153053,-0.00254505,0.00491549,-0.08529508,0.09806384,-0.01278991,-
 0.01613062,0.03930523,-0.01251420,0.00253509,-0.00202262,0.00002908,-0
 .00015063,0.00025677,0.00088599,-0.00011481,-0.00023588,0.00001296,0.0
 0002380,0.00036650,-0.00050734,-0.00024495,-0.00035337,-0.00017318,-0.
 00070836,0.00064938,0.00076315,0.00006190,-0.00008690,0.00024318,0.000
 22431,0.00000704,-0.00017119,-0.00004634,0.00006140,-0.00003183,0.0001
 4334,0.00033052,-0.00007765,0.00009744,-0.00168576,0.00054152,0.101220
 02,0.00029445,0.00093264,-0.00059995,0.00483765,-0.01157058,-0.0071431
 1,0.00042833,0.00105458,-0.00052411,-0.00171849,-0.00052958,0.00442869
 ,0.11650219,-0.36115044,0.11841903,-0.00601880,-0.00195290,-0.00204299
 ,0.00027246,0.00059053,-0.00143587,0.00055453,0.00038517,-0.00002164,-
 0.00018129,-0.00008041,-0.00012593,0.00022156,0.00034993,-0.00034650,-
 0.00039832,-0.00036138,0.00003593,-0.00042298,0.00064091,-0.00003073,-
 0.00002231,-0.00013991,-0.00028908,0.00015383,0.00016376,0.00025821,-0
 .00007319,0.00001589,-0.00005364,0.00029035,0.00038806,-0.00011360,-0.
 00016380,-0.00110895,0.00036513,-0.11482844,0.36947653,-0.00054041,0.0
 0085632,0.00117266,-0.00883303,0.03037016,-0.01159603,-0.00049509,0.00
 099899,0.00059554,0.00194670,0.00037796,-0.00413392,-0.00725287,0.0783
 5224,-0.05070481,-0.00399582,0.00030059,-0.00058353,-0.00185326,-0.000
 23260,0.00038041,0.00065040,0.00060701,0.00040673,-0.00027236,0.000054
 01,-0.00043322,-0.00035896,-0.00050159,-0.00024472,-0.00015197,-0.0004
 7833,-0.00010419,0.00087175,-0.00055229,0.00012972,0.00014009,-0.00048
 941,0.00025548,0.00002806,-0.00086892,-0.00059551,0.00003388,0.0000016
 5,0.00000410,0.00028869,0.00025224,-0.00010217,0.00014756,0.00132005,0
 .00062981,0.01729262,-0.11081065,0.06388217,0.00009977,-0.00039380,0.0
 0017357,0.00032930,0.00358357,-0.00145739,-0.00018933,-0.00035752,0.00
 049440,-0.00016715,-0.00088879,-0.00040562,-0.01905952,0.03439366,-0.0
 1541571,-0.06396540,0.05353658,-0.02675860,0.00210542,-0.01367411,0.00
 839318,0.00150087,-0.00011005,0.00262881,-0.00091571,-0.00039057,0.000
 55123,-0.00015740,-0.00017165,0.00015761,0.00003859,0.00006688,-0.0000
 2752,0.00033708,-0.00032427,-0.00000578,0.00002450,0.00001201,0.000196
 82,0.00002815,-0.00016884,-0.00017859,0.00007244,0.00021871,0.00018862
 ,-0.00019694,0.00001089,-0.00011007,0.00088458,-0.00022682,0.00014710,
 -0.00727202,0.00023689,0.00054875,0.08196214,0.00018953,-0.00045799,-0
 .00024218,0.00061895,-0.00030406,0.00149112,0.00051790,-0.00028491,0.0
 0021997,-0.00288392,-0.00094313,0.00043758,0.00467420,-0.00151277,0.00
 035082,0.06038310,-0.25678843,0.09041301,-0.00299463,0.00521048,0.0003
 5986,0.00004246,-0.00012476,0.00026895,0.00056040,0.00026913,-0.000325
 27,0.00005474,0.00001270,-0.00001653,-0.00007952,0.00000109,-0.0000171
 8,0.00017474,0.00007046,-0.00003829,-0.00023998,0.00005746,-0.00004179
 ,-0.00014843,0.00009510,-0.00000673,-0.00018967,-0.00010896,-0.0004553
 1,-0.00025791,-0.00008537,0.00001908,0.00009716,0.00011642,-0.00000397
 ,-0.00000565,0.00159246,0.00007857,-0.06483432,0.27172700,-0.00011439,
 0.00023573,-0.00001959,0.00039414,-0.00024788,0.00034598,0.00034537,-0
 .00015754,-0.00001346,0.00159501,0.00032912,-0.00100812,-0.00400354,0.
 00275895,0.00117363,-0.02949439,0.08330057,-0.08995890,0.00388094,0.03
 175673,-0.02111170,-0.00445886,-0.00327364,-0.00417382,0.00231101,0.00
 164355,-0.00082855,0.00000764,-0.00001992,-0.00000784,-0.00000652,-0.0
 0000376,-0.00000422,-0.00010451,0.00000797,0.00003464,-0.00000741,0.00
 004457,-0.00003450,-0.00007831,0.00007999,0.00000945,0.00005820,-0.000
 29775,-0.00016118,-0.00053375,0.00002860,0.00010695,-0.00001141,-0.000
 12811,-0.00006593,0.00042775,0.00034537,0.00093017,0.02634845,-0.10141
 973,0.10521477,-0.00016172,-0.00011833,0.00063460,0.00150454,0.0012097
 2,-0.00627722,-0.00000577,-0.00032626,0.00095515,0.00031301,-0.0002788
 7,0.00058583,-0.03257500,-0.02418254,-0.01468485,-0.08780694,-0.073030
 38,-0.05256327,0.00593164,0.00813074,0.00706124,-0.00033832,0.00010654
 ,0.00069773,-0.00009054,0.00016680,0.00053790,-0.00028900,0.00012689,0
 .00028248,0.00039682,0.00009191,0.00014717,-0.00001476,0.00004099,-0.0
 0001003,0.00043836,0.00027743,0.00031337,-0.00031023,0.00029431,0.0000
 9050,0.00024109,-0.00026637,0.00082516,-0.00000234,0.00041990,-0.00010
 212,-0.00003914,-0.00022383,0.00013170,0.00173868,-0.00028819,0.001388
 85,0.00421436,0.00443110,0.00411356,0.10652084,-0.00000379,0.00003264,
 0.00024367,0.00022123,0.00016139,-0.00087943,-0.00078894,0.00037499,-0
 .00040230,-0.00056931,-0.00008779,0.00075257,-0.00188018,0.00759702,0.
 00236635,-0.07058625,-0.18782457,-0.09228742,0.00036336,0.00037727,-0.
 00111852,-0.00073732,-0.00102276,0.00299297,0.00029932,0.00081615,-0.0
 0007621,-0.00007437,-0.00002182,-0.00001326,0.00010772,0.00001539,0.00
 003374,0.00000351,0.00000086,-0.00002775,0.00047081,-0.00001746,0.0003
 7205,-0.00012717,-0.00008142,-0.00012702,0.00043180,-0.00042281,0.0003
 9097,0.00023399,0.00007847,0.00002780,-0.00022137,0.00002042,-0.000105
 19,-0.00044943,0.00175016,0.00111313,-0.01099311,-0.01916156,-0.015499
 44,0.08425335,0.19613128,-0.00008383,-0.00010066,-0.00000972,-0.000107
 27,0.00032338,0.00036338,-0.00027510,-0.00005277,-0.00012764,0.0002775
 1,0.00004193,-0.00024938,-0.00132228,0.00166064,0.00416904,-0.04792426
 ,-0.08296343,-0.11039812,-0.01027271,-0.02749504,-0.02885797,-0.002360
 10,-0.00542188,0.00065351,0.00061557,0.00118447,-0.00019773,-0.0000419
 3,0.00001493,-0.00001867,-0.00002553,0.00001395,0.00002500,-0.00000234
 ,-0.00001417,0.00001274,-0.00003735,0.00008450,0.00040687,-0.00002476,
 -0.00010735,-0.00014240,0.00064664,-0.00002023,-0.00083280,-0.00006255
 ,0.00000713,-0.00003835,0.00010684,-0.00004737,0.00004510,-0.00028788,
 -0.00008984,0.00019450,0.00500519,0.00846733,0.00852575,0.05347289,0.1
 0120960,0.13134348,-0.00002429,0.00007582,-0.00003867,-0.00053608,-0.0
 0093210,0.00071511,0.00021263,0.00011586,-0.00026993,-0.00026662,0.000
 19140,-0.00004526,0.00204361,0.00036572,-0.00197093,0.00292841,0.01090
 048,0.01081610,-0.07290995,-0.12664107,-0.08416893,-0.00311215,-0.0015
 6710,-0.01144106,-0.00163395,0.00154679,0.00145703,0.00005398,-0.00000
 051,-0.00007466,-0.00007589,-0.00003460,-0.00000861,-0.00002833,0.0000
 1487,0.00000587,-0.00006607,-0.00003044,-0.00018474,0.00001292,0.00000
 796,0.00001399,-0.00006683,0.00000840,-0.00010155,-0.00001868,-0.00012
 724,0.00007788,0.00001933,0.00001548,-0.00003794,-0.00016540,0.0003517
 2,0.00027178,0.00006355,-0.00018010,-0.00038987,0.00012425,0.00003308,
 0.00211836,0.07010385,-0.00002153,-0.00011406,0.00016254,0.00017971,0.
 00079165,-0.00034742,-0.00012474,-0.00016044,0.00024832,0.00019194,-0.
 00026785,0.00001478,-0.00035674,-0.00110784,0.00144392,0.00227150,0.00
 459761,0.00180476,-0.10753946,-0.22728382,-0.15838727,-0.01177911,-0.0
 2460437,-0.02386633,0.00430548,0.00330949,-0.00084690,-0.00008477,-0.0
 0001172,0.00004389,0.00001036,0.00002581,-0.00002163,0.00003610,-0.000
 03564,-0.00001209,-0.00004926,0.00001798,0.00012816,0.00001150,-0.0000
 3992,-0.00003548,-0.00002880,0.00003373,-0.00004478,-0.00019925,0.0000
 7096,0.00005159,-0.00003172,-0.00005879,0.00000313,0.00014549,-0.00027
 621,-0.00051793,0.00032500,0.00020054,-0.00000990,-0.00102805,0.000841
 19,0.00132331,0.11795867,0.24665797,0.00003119,0.00005962,0.00000562,0
 .00013765,0.00007605,-0.00007943,-0.00025785,0.00001866,0.00000993,-0.
 00005695,0.00009413,0.00012082,-0.00030777,0.00094143,0.00296558,-0.01
 549907,-0.02319597,-0.01799089,-0.07300162,-0.16714072,-0.21340079,0.0
 0466091,0.01126250,0.01244927,0.00019902,0.00077772,0.00131156,-0.0000
 0738,-0.00000583,0.00000303,0.00002765,-0.00000091,0.00001275,-0.00002
 163,0.00001688,-0.00000292,0.00012318,0.00003545,0.00011581,-0.0000500
 7,0.00003042,0.00000647,0.00012471,-0.00011444,0.00008915,0.00020982,0
 .00003966,-0.00005486,-0.00003674,0.00001117,0.00003003,0.00003060,-0.
 00001017,-0.00006435,-0.00036211,0.00036285,0.00061562,0.00243386,0.00
 047646,-0.00542537,0.08084876,0.17455245,0.22110461,-0.00000212,-0.000
 01716,0.00000484,-0.00017205,-0.00005968,0.00010625,0.00002579,-0.0000
 1760,-0.00002971,0.00000502,0.00007497,-0.00005405,0.00011536,-0.00013
 477,0.00005515,-0.00082130,0.00027589,-0.00209026,0.00160859,-0.011586
 75,-0.00658150,-0.05960790,-0.03678707,-0.03103094,-0.00013857,0.00658
 636,0.00491360,-0.00000095,0.00000843,-0.00000711,-0.00000117,0.000000
 37,0.00000275,-0.00001129,0.00001018,0.00000401,0.00000570,0.00001346,
 -0.00001557,-0.00001395,0.00001933,0.00001848,0.00000181,-0.00000383,0
 .00000888,0.00001705,-0.00000815,-0.00000272,0.00001813,0.00000666,0.0
 0000199,-0.00018242,-0.00011848,-0.00001699,0.00020928,0.00029148,0.00
 024162,0.00019347,0.00014463,0.00058395,0.00350460,-0.00335200,0.00134
 875,0.04323851,0.00000290,0.00000129,-0.00000996,-0.00017721,-0.000026
 81,0.00015976,-0.00003294,-0.00000492,-0.00002871,0.00002414,0.0000645
 8,-0.00003839,0.00020916,0.00036375,0.00078893,0.00021098,-0.00068144,
 -0.00386269,-0.01129685,-0.02704588,-0.01968540,-0.03504456,-0.1834576
 9,-0.11729230,0.00391009,0.00959946,0.00229100,0.00000119,0.00000033,-
 0.00000431,0.00000586,0.00000364,0.00000594,-0.00000844,0.00000588,0.0
 0000089,0.00002401,0.00001588,0.00000027,-0.00002045,0.00002289,0.0000
 1782,0.00001609,-0.00002746,0.00002647,0.00003751,-0.00000370,-0.00001
 375,0.00000438,0.00000672,0.00000257,-0.00019292,-0.00010745,-0.000138
 11,0.00013863,0.00033934,0.00042419,0.00029738,0.00074805,0.00165998,-
 0.00207037,-0.00345602,0.00277071,0.04812680,0.20034108,-0.00001161,-0
 .00002846,0.00002432,-0.00007631,0.00005543,-0.00001970,0.00001677,-0.
 00002489,0.00000530,-0.00001648,0.00001542,-0.00000902,-0.00018463,-0.
 00020619,0.00015947,0.00095578,0.00238774,0.00069935,0.00337979,0.0078
 9380,0.00632467,-0.03240565,-0.12272098,-0.16208938,-0.00345075,-0.018
 64795,-0.03427608,-0.00001215,0.00000242,0.00000085,0.00000324,0.00000
 359,0.00000101,-0.00000600,0.00000958,0.00000152,-0.00000798,0.0000066
 1,0.00000058,-0.00000150,0.00001280,0.00000588,-0.00000993,0.00000578,
 -0.00000753,0.00000470,0.00000308,-0.00000393,-0.00000286,-0.00000114,
 0.00000170,-0.00015552,-0.00015323,0.00004975,-0.00008221,0.00004345,0
 .00019985,-0.00004466,0.00030572,0.00007013,0.00121579,0.00225671,-0.0
 0065131,0.02960074,0.13092799,0.19412664,0.00000378,-0.00000508,0.0000
 1468,-0.00016235,0.00008565,0.00016500,-0.00001753,-0.00000691,-0.0000
 2574,0.00001500,0.00007193,-0.00005603,-0.00039118,-0.00000121,0.00047
 148,-0.00133076,0.00052103,-0.00034211,-0.00581924,0.00396096,0.000383
 25,0.00397908,0.00257289,0.01116824,-0.05019763,-0.06506250,-0.0566336
 9,-0.00000118,0.00000491,-0.00002230,-0.00001265,-0.00001352,-0.000000
 36,-0.00000674,0.00000981,0.00001074,0.00001969,0.00000377,-0.00001084
 ,-0.00000506,0.00000664,0.00000915,0.00000625,-0.00000421,0.00001625,0
 .00000627,-0.00002304,0.00001023,0.00002511,-0.00000026,-0.00000226,-0
 .00006308,0.00009030,0.00016164,0.00005345,-0.00022164,-0.00052071,0.0
 0001671,-0.00013155,0.00000094,-0.00016290,-0.00084030,-0.00057493,0.0
 1200843,-0.00416539,0.00129143,0.04203651,0.00000874,0.00001067,-0.000
 03784,-0.00008013,-0.00012351,0.00009190,0.00001868,0.00000957,-0.0000
 2749,0.00004907,0.00003115,-0.00003489,0.00032844,0.00006411,-0.000173
 18,0.00010596,0.00023413,0.00058819,0.00397698,0.00181610,0.00274070,-
 0.00548643,-0.00423210,0.01749503,-0.05845272,-0.25515165,-0.19437923,
 0.00002023,0.00000171,-0.00000154,0.00000096,0.00001080,0.00000879,-0.
 00000396,-0.00000591,-0.00000402,0.00000897,0.00000846,-0.00002327,-0.
 00001191,0.00001048,0.00000942,0.00000705,-0.00001049,0.00002291,-0.00
 001431,-0.00000537,0.00000590,0.00001390,-0.00000083,-0.00000634,-0.00
 006822,-0.00006280,-0.00009310,0.00001101,0.00007978,0.00010234,-0.000
 10424,-0.00030508,0.00032158,-0.00000273,0.00086979,-0.00105810,-0.003
 47305,0.00329849,-0.00214729,0.06314771,0.25345249,-0.00002020,-0.0000
 3897,0.00006902,0.00010585,0.00021305,-0.00021737,-0.00002035,-0.00005
 246,0.00006408,-0.00006491,-0.00004266,0.00007882,-0.00041968,-0.00006
 118,0.00050912,0.00054541,-0.00029338,-0.00091559,-0.00247204,-0.00127
 084,0.00596245,-0.00995693,-0.04075339,-0.03917480,-0.03620530,-0.1386
 4659,-0.15631318,-0.00004111,-0.00000448,0.00001640,0.00001628,0.00000
 325,-0.00000734,0.00000090,0.00001119,-0.00000354,-0.00001223,0.000005
 87,0.00004651,-0.00000541,0.00000862,-0.00000701,-0.00000981,0.0000029
 7,-0.00003132,0.00003537,0.00002377,-0.00002088,-0.00003678,-0.0000021
 1,0.00000904,-0.00003435,-0.00006132,-0.00006861,-0.00003014,0.0000543
 8,0.00023100,0.00001016,0.00025150,0.00048867,0.00119149,0.00205617,-0
 .00117034,0.00293782,0.00199708,-0.00461406,0.04448595,0.17659952,0.19
 506892\\-0.00000635,0.00000115,-0.00000400,0.00000250,0.00000341,0.000
 01063,0.00000276,0.00000098,-0.00000036,0.00000799,0.00000211,-0.00000
 324,-0.00001037,-0.00000696,-0.00000404,0.00001037,0.00000125,-0.00000
 161,0.00000289,0.00000059,-0.00000009,-0.00000681,0.00000853,-0.000010
 10,-0.00000034,-0.00000476,0.00000481,0.00000018,-0.00000048,0.0000007
 0,0.00000158,-0.00000147,0.00000090,0.00000075,-0.00000137,0.00000159,
 0.00000030,0.00000013,-0.00000097,-0.00000137,-0.00000016,-0.00000110,
 -0.00000082,-0.00000023,0.00000032,-0.00000295,0.00000016,-0.00000098,
 -0.00000251,-0.00000119,0.00000324,0.00000224,0.00000142,-0.00000243,-
 0.00000155,0.00000011,-0.00000110,-0.00000092,-0.00000154,0.00000038,-
 0.00000043,-0.00000082,0.00000498,0.00000209,-0.00000258,0.00000184,0.
 00000079,0.00000172,0.00000062\\\@


 WE STILL HAVE JUDGEMENT HERE,
 THAT WE TEACH BUT BLOODY INSTRUCTIONS,
 WHICH, BEING TAUGHT,
 RETURN TO PLAGUE THE INVENTOR.
           MACBETH ACT I, SCENE VII
 Job cpu time:       0 days  2 hours  9 minutes 56.3 seconds.
 Elapsed time:       0 days  0 hours 32 minutes 30.2 seconds.
 File lengths (MBytes):  RWF=    181 Int=      0 D2E=      0 Chk=     10 Scr=      1
 Normal termination of Gaussian 16 at Mon May 31 17:48:35 2021.
### All Done ###
