### Starting Gaussian ###
 Entering Gaussian System, Link 0=g16
 Initial command:
 /cluster/software/gaussian/gaussian-16-A.03/avx2/g16/l1.exe "/local/scratch/cz9n3/Gau-31763.inp" -scrdir="/local/scratch/cz9n3/"
 Entering Link 1 = /cluster/software/gaussian/gaussian-16-A.03/avx2/g16/l1.exe PID=     31764.
  
 Copyright (c) 1988,1990,1992,1993,1995,1998,2003,2009,2016,
            Gaussian, Inc.  All Rights Reserved.
  
 This is part of the Gaussian(R) 16 program.  It is based on
 the Gaussian(R) 09 system (copyright 2009, Gaussian, Inc.),
 the Gaussian(R) 03 system (copyright 2003, Gaussian, Inc.),
 the Gaussian(R) 98 system (copyright 1998, Gaussian, Inc.),
 the Gaussian(R) 94 system (copyright 1995, Gaussian, Inc.),
 the Gaussian 92(TM) system (copyright 1992, Gaussian, Inc.),
 the Gaussian 90(TM) system (copyright 1990, Gaussian, Inc.),
 the Gaussian 88(TM) system (copyright 1988, Gaussian, Inc.),
 the Gaussian 86(TM) system (copyright 1986, Carnegie Mellon
 University), and the Gaussian 82(TM) system (copyright 1983,
 Carnegie Mellon University). Gaussian is a federally registered
 trademark of Gaussian, Inc.
  
 This software contains proprietary and confidential information,
 including trade secrets, belonging to Gaussian, Inc.
  
 This software is provided under written license and may be
 used, copied, transmitted, or stored only in accord with that
 written license.
  
 The following legend is applicable only to US Government
 contracts under FAR:
  
                    RESTRICTED RIGHTS LEGEND
  
 Use, reproduction and disclosure by the US Government is
 subject to restrictions as set forth in subparagraphs (a)
 and (c) of the Commercial Computer Software - Restricted
 Rights clause in FAR 52.227-19.
  
 Gaussian, Inc.
 340 Quinnipiac St., Bldg. 40, Wallingford CT 06492
  
  
 ---------------------------------------------------------------
 Warning -- This program may not be used in any manner that
 competes with the business of Gaussian, Inc. or will provide
 assistance to any competitor of Gaussian, Inc.  The licensee
 of this program is prohibited from giving any competitor of
 Gaussian, Inc. access to this program.  By using this program,
 the user acknowledges that Gaussian, Inc. is engaged in the
 business of creating and licensing software in the field of
 computational chemistry and represents and warrants to the
 licensee that it is not a competitor of Gaussian, Inc. and that
 it will not use this program in any manner prohibited above.
 ---------------------------------------------------------------
  

 Cite this work as:
 Gaussian 16, Revision A.03,
 M. J. Frisch, G. W. Trucks, H. B. Schlegel, G. E. Scuseria, 
 M. A. Robb, J. R. Cheeseman, G. Scalmani, V. Barone, 
 G. A. Petersson, H. Nakatsuji, X. Li, M. Caricato, A. V. Marenich, 
 J. Bloino, B. G. Janesko, R. Gomperts, B. Mennucci, H. P. Hratchian, 
 J. V. Ortiz, A. F. Izmaylov, J. L. Sonnenberg, D. Williams-Young, 
 F. Ding, F. Lipparini, F. Egidi, J. Goings, B. Peng, A. Petrone, 
 T. Henderson, D. Ranasinghe, V. G. Zakrzewski, J. Gao, N. Rega, 
 G. Zheng, W. Liang, M. Hada, M. Ehara, K. Toyota, R. Fukuda, 
 J. Hasegawa, M. Ishida, T. Nakajima, Y. Honda, O. Kitao, H. Nakai, 
 T. Vreven, K. Throssell, J. A. Montgomery, Jr., J. E. Peralta, 
 F. Ogliaro, M. J. Bearpark, J. J. Heyd, E. N. Brothers, K. N. Kudin, 
 V. N. Staroverov, T. A. Keith, R. Kobayashi, J. Normand, 
 K. Raghavachari, A. P. Rendell, J. C. Burant, S. S. Iyengar, 
 J. Tomasi, M. Cossi, J. M. Millam, M. Klene, C. Adamo, R. Cammi, 
 J. W. Ochterski, R. L. Martin, K. Morokuma, O. Farkas, 
 J. B. Foresman, and D. J. Fox, Gaussian, Inc., Wallingford CT, 2016.
 
 ******************************************
 Gaussian 16:  ES64L-G16RevA.03 25-Dec-2016
                31-May-2021 
 ******************************************
 %chk=CCpCpNpCpN.chk
 %NProcShared=20
 Will use up to   20 processors via shared memory.
 -----------------------------
 # opt freq b3lyp/6-31g(2df,p)
 -----------------------------
 1/18=20,19=15,26=3,38=1/1,3;
 2/9=110,12=2,17=6,18=5,40=1/2;
 3/5=1,6=6,7=104,11=2,25=1,30=1,71=1,74=-5/1,2,3;
 4//1;
 5/5=2,38=5/2;
 6/7=2,8=2,9=2,10=2,28=1/1;
 7//1,2,3,16;
 1/18=20,19=15,26=3/3(2);
 2/9=110/2;
 99//99;
 2/9=110/2;
 3/5=1,6=6,7=104,11=2,25=1,30=1,71=1,74=-5/1,2,3;
 4/5=5,16=3,69=1/1;
 5/5=2,38=5/2;
 7//1,2,3,16;
 1/18=20,19=15,26=3/3(-5);
 2/9=110/2;
 6/7=2,8=2,9=2,10=2,19=2,28=1/1;
 99/9=1/99;
 -------------------
 Title Card Required
 -------------------
 Symbolic Z-matrix:
 Charge =  0 Multiplicity = 1
 C                     0.90776  -0.02259  -0.12725 
 C                     2.44483  -0.02043  -0.07383 
 C                     2.9372    0.99009  -1.12579 
 N                     2.94594   0.31911   1.28425 
 C                     2.48278  -0.62916   2.30848 
 N                     4.39855   0.30435   1.32757 
 H                     0.55675  -0.24142  -1.14171 
 H                     0.49996   0.95151   0.16667 
 H                     0.47074  -0.7868    0.52178 
 H                     2.80059  -1.01858  -0.36279 
 H                     2.61309   2.00833  -0.88216 
 H                     2.53966   0.73913  -2.11568 
 H                     4.02755   0.99233  -1.21997 
 H                     1.39591  -0.60413   2.42487 
 H                     2.89021  -0.36271   3.29124 
 H                     2.78729  -1.65772   2.07876 
 H                     4.79751   1.05427   0.76344 
 H                     4.79004  -0.57465   0.98091 
 

 GradGradGradGradGradGradGradGradGradGradGradGradGradGradGradGradGradGrad
 Berny optimization.
 Initialization pass.
                           ----------------------------
                           !    Initial Parameters    !
                           ! (Angstroms and Degrees)  !
 --------------------------                            --------------------------
 ! Name  Definition              Value          Derivative Info.                !
 --------------------------------------------------------------------------------
 ! R1    R(1,2)                  1.538          estimate D2E/DX2                !
 ! R2    R(1,7)                  1.0955         estimate D2E/DX2                !
 ! R3    R(1,8)                  1.0962         estimate D2E/DX2                !
 ! R4    R(1,9)                  1.0937         estimate D2E/DX2                !
 ! R5    R(2,3)                  1.5395         estimate D2E/DX2                !
 ! R6    R(2,4)                  1.4869         estimate D2E/DX2                !
 ! R7    R(2,10)                 1.0983         estimate D2E/DX2                !
 ! R8    R(3,11)                 1.096          estimate D2E/DX2                !
 ! R9    R(3,12)                 1.0959         estimate D2E/DX2                !
 ! R10   R(3,13)                 1.0944         estimate D2E/DX2                !
 ! R11   R(4,5)                  1.4706         estimate D2E/DX2                !
 ! R12   R(4,6)                  1.4533         estimate D2E/DX2                !
 ! R13   R(5,14)                 1.0934         estimate D2E/DX2                !
 ! R14   R(5,15)                 1.0967         estimate D2E/DX2                !
 ! R15   R(5,16)                 1.097          estimate D2E/DX2                !
 ! R16   R(6,17)                 1.0197         estimate D2E/DX2                !
 ! R17   R(6,18)                 1.0228         estimate D2E/DX2                !
 ! A1    A(2,1,7)              110.6493         estimate D2E/DX2                !
 ! A2    A(2,1,8)              111.1764         estimate D2E/DX2                !
 ! A3    A(2,1,9)              112.3149         estimate D2E/DX2                !
 ! A4    A(7,1,8)              107.8543         estimate D2E/DX2                !
 ! A5    A(7,1,9)              106.3738         estimate D2E/DX2                !
 ! A6    A(8,1,9)              108.2493         estimate D2E/DX2                !
 ! A7    A(1,2,3)              107.2661         estimate D2E/DX2                !
 ! A8    A(1,2,4)              111.6457         estimate D2E/DX2                !
 ! A9    A(1,2,10)             108.2579         estimate D2E/DX2                !
 ! A10   A(3,2,4)              111.4958         estimate D2E/DX2                !
 ! A11   A(3,2,10)             108.2487         estimate D2E/DX2                !
 ! A12   A(4,2,10)             109.7954         estimate D2E/DX2                !
 ! A13   A(2,3,11)             111.3055         estimate D2E/DX2                !
 ! A14   A(2,3,12)             110.5416         estimate D2E/DX2                !
 ! A15   A(2,3,13)             112.2577         estimate D2E/DX2                !
 ! A16   A(11,3,12)            107.8351         estimate D2E/DX2                !
 ! A17   A(11,3,13)            108.1708         estimate D2E/DX2                !
 ! A18   A(12,3,13)            106.5083         estimate D2E/DX2                !
 ! A19   A(2,4,5)              112.5035         estimate D2E/DX2                !
 ! A20   A(2,4,6)              111.2085         estimate D2E/DX2                !
 ! A21   A(5,4,6)              106.7068         estimate D2E/DX2                !
 ! A22   A(4,5,14)             111.8663         estimate D2E/DX2                !
 ! A23   A(4,5,15)             110.5134         estimate D2E/DX2                !
 ! A24   A(4,5,16)             111.7961         estimate D2E/DX2                !
 ! A25   A(14,5,15)            105.5653         estimate D2E/DX2                !
 ! A26   A(14,5,16)            108.644          estimate D2E/DX2                !
 ! A27   A(15,5,16)            108.1988         estimate D2E/DX2                !
 ! A28   A(4,6,17)             111.5368         estimate D2E/DX2                !
 ! A29   A(4,6,18)             112.4084         estimate D2E/DX2                !
 ! A30   A(17,6,18)            107.144          estimate D2E/DX2                !
 ! D1    D(7,1,2,3)             55.6804         estimate D2E/DX2                !
 ! D2    D(7,1,2,4)            178.1047         estimate D2E/DX2                !
 ! D3    D(7,1,2,10)           -60.925          estimate D2E/DX2                !
 ! D4    D(8,1,2,3)            -64.1457         estimate D2E/DX2                !
 ! D5    D(8,1,2,4)             58.2787         estimate D2E/DX2                !
 ! D6    D(8,1,2,10)           179.2489         estimate D2E/DX2                !
 ! D7    D(9,1,2,3)            174.3866         estimate D2E/DX2                !
 ! D8    D(9,1,2,4)            -63.1891         estimate D2E/DX2                !
 ! D9    D(9,1,2,10)            57.7812         estimate D2E/DX2                !
 ! D10   D(1,2,3,11)            63.6876         estimate D2E/DX2                !
 ! D11   D(1,2,3,12)           -56.1275         estimate D2E/DX2                !
 ! D12   D(1,2,3,13)          -174.8936         estimate D2E/DX2                !
 ! D13   D(4,2,3,11)           -58.8298         estimate D2E/DX2                !
 ! D14   D(4,2,3,12)          -178.6449         estimate D2E/DX2                !
 ! D15   D(4,2,3,13)            62.5889         estimate D2E/DX2                !
 ! D16   D(10,2,3,11)         -179.7009         estimate D2E/DX2                !
 ! D17   D(10,2,3,12)           60.484          estimate D2E/DX2                !
 ! D18   D(10,2,3,13)          -58.2822         estimate D2E/DX2                !
 ! D19   D(1,2,4,5)             59.7463         estimate D2E/DX2                !
 ! D20   D(1,2,4,6)            179.3854         estimate D2E/DX2                !
 ! D21   D(3,2,4,5)            179.7126         estimate D2E/DX2                !
 ! D22   D(3,2,4,6)            -60.6483         estimate D2E/DX2                !
 ! D23   D(10,2,4,5)           -60.3245         estimate D2E/DX2                !
 ! D24   D(10,2,4,6)            59.3145         estimate D2E/DX2                !
 ! D25   D(2,4,5,14)           -64.0554         estimate D2E/DX2                !
 ! D26   D(2,4,5,15)           178.6306         estimate D2E/DX2                !
 ! D27   D(2,4,5,16)            58.0497         estimate D2E/DX2                !
 ! D28   D(6,4,5,14)           173.724          estimate D2E/DX2                !
 ! D29   D(6,4,5,15)            56.41           estimate D2E/DX2                !
 ! D30   D(6,4,5,16)           -64.1709         estimate D2E/DX2                !
 ! D31   D(2,4,6,17)            67.0377         estimate D2E/DX2                !
 ! D32   D(2,4,6,18)           -53.3279         estimate D2E/DX2                !
 ! D33   D(5,4,6,17)          -169.9303         estimate D2E/DX2                !
 ! D34   D(5,4,6,18)            69.7041         estimate D2E/DX2                !
 --------------------------------------------------------------------------------
 Trust Radius=3.00D-01 FncErr=1.00D-07 GrdErr=1.00D-06 EigMax=2.50D+02 EigMin=1.00D-04
 Number of steps in this run=     91 maximum allowed number of steps=    108.
 GradGradGradGradGradGradGradGradGradGradGradGradGradGradGradGradGradGrad

                          Input orientation:                          
 ---------------------------------------------------------------------
 Center     Atomic      Atomic             Coordinates (Angstroms)
 Number     Number       Type             X           Y           Z
 ---------------------------------------------------------------------
      1          6           0        0.907760   -0.022590   -0.127250
      2          6           0        2.444830   -0.020430   -0.073830
      3          6           0        2.937200    0.990090   -1.125790
      4          7           0        2.945940    0.319110    1.284250
      5          6           0        2.482780   -0.629160    2.308480
      6          7           0        4.398550    0.304350    1.327570
      7          1           0        0.556750   -0.241420   -1.141710
      8          1           0        0.499960    0.951510    0.166670
      9          1           0        0.470740   -0.786800    0.521780
     10          1           0        2.800590   -1.018580   -0.362790
     11          1           0        2.613090    2.008330   -0.882160
     12          1           0        2.539660    0.739130   -2.115680
     13          1           0        4.027550    0.992330   -1.219970
     14          1           0        1.395910   -0.604130    2.424870
     15          1           0        2.890210   -0.362710    3.291240
     16          1           0        2.787290   -1.657720    2.078760
     17          1           0        4.797510    1.054270    0.763440
     18          1           0        4.790040   -0.574650    0.980910
 ---------------------------------------------------------------------
                    Distance matrix (angstroms):
                    1          2          3          4          5
     1  C    0.000000
     2  C    1.538000   0.000000
     3  C    2.478150   1.539545   0.000000
     4  N    2.502652   1.486869   2.501716   0.000000
     5  C    2.963342   2.459145   3.823961   1.470639   0.000000
     6  N    3.795920   2.426196   2.936794   1.453331   2.346018
     7  H    1.095547   2.180378   2.680189   3.450754   3.970358
     8  H    1.096157   2.187470   2.759000   2.762559   3.319253
     9  H    1.093729   2.199797   3.457636   2.816205   2.695450
    10  H    2.151809   1.098347   2.153041   2.126801   2.718149
    11  H    2.757295   2.190337   1.096000   2.767234   4.141681
    12  H    2.682754   2.180614   1.095856   3.449783   4.631268
    13  H    3.457917   2.200982   1.094412   2.809666   4.179175
    14  H    2.662667   2.772082   4.186203   2.134474   1.093371
    15  H    3.966341   3.411629   4.619787   2.120376   1.096728
    16  H    3.327576   2.726104   4.159629   2.136416   1.097011
    17  H    4.133172   2.718659   2.652181   2.059130   3.252547
    18  H    4.074909   2.630522   3.212415   2.071600   2.662492
                    6          7          8          9         10
     6  N    0.000000
     7  H    4.599417   0.000000
     8  H    4.118921   1.771487   0.000000
     9  H    4.155430   1.752722   1.774452   0.000000
    10  H    2.675993   2.499102   3.074814   2.502876   0.000000
    11  H    3.312751   3.058966   2.585001   3.791235   3.076863
    12  H    3.937064   2.417029   3.068322   3.683081   2.496047
    13  H    2.664755   3.684388   3.790558   4.341646   2.506780
    14  H    3.323440   3.681880   2.884824   2.123925   3.148959
    15  H    2.564383   5.011067   4.147699   3.701837   3.713507
    16  H    2.647671   4.165650   3.961824   2.923883   2.523855
    17  H    1.019702   4.826226   4.340003   4.708384   3.090759
    18  H    1.022780   4.747347   4.625682   4.348811   2.441417
                   11         12         13         14         15
    11  H    0.000000
    12  H    1.771393   0.000000
    13  H    1.773998   1.755056   0.000000
    14  H    4.386675   4.871253   4.770647   0.000000
    15  H    4.807899   5.529170   4.845688   1.744079   0.000000
    16  H    4.715646   4.837307   4.409380   1.779265   1.777006
    17  H    2.896536   3.672401   2.128518   4.132980   3.469207
    18  H    3.857710   4.047110   2.807257   3.688632   2.998649
                   16         17         18
    16  H    0.000000
    17  H    3.622974   0.000000
    18  H    2.527711   1.643390   0.000000
 Stoichiometry    C4H12N2
 Framework group  C1[X(C4H12N2)]
 Deg. of freedom    48
 Full point group                 C1      NOp   1
 Largest Abelian subgroup         C1      NOp   1
 Largest concise Abelian subgroup C1      NOp   1
                         Standard orientation:                         
 ---------------------------------------------------------------------
 Center     Atomic      Atomic             Coordinates (Angstroms)
 Number     Number       Type             X           Y           Z
 ---------------------------------------------------------------------
      1          6           0       -1.392506    1.315829   -0.042360
      2          6           0       -0.631894    0.028360    0.317272
      3          6           0       -1.527652   -1.158312   -0.082260
      4          7           0        0.690303   -0.034850   -0.359913
      5          6           0        1.562135    1.093118    0.001166
      6          7           0        1.406692   -1.247742   -0.002350
      7          1           0       -2.377003    1.329919    0.438047
      8          1           0       -1.545573    1.396067   -1.124808
      9          1           0       -0.870759    2.215059    0.297358
     10          1           0       -0.493479    0.003344    1.406575
     11          1           0       -1.694628   -1.184318   -1.165153
     12          1           0       -2.505645   -1.083477    0.406443
     13          1           0       -1.101454   -2.119774    0.220537
     14          1           0        1.150568    2.049240   -0.333356
     15          1           0        2.535197    1.001364   -0.496372
     16          1           0        1.734192    1.144773    1.083368
     17          1           0        0.943158   -2.078372   -0.369747
     18          1           0        1.485955   -1.369650    1.010041
 ---------------------------------------------------------------------
 Rotational constants (GHZ):           4.4946850           3.0769334           1.9831324
 Standard basis: 6-31G(2df,p) (6D, 7F)
 There are   246 symmetry adapted cartesian basis functions of A   symmetry.
 There are   228 symmetry adapted basis functions of A   symmetry.
   228 basis functions,   348 primitive gaussians,   246 cartesian basis functions
    25 alpha electrons       25 beta electrons
       nuclear repulsion energy       267.7420273336 Hartrees.
 NAtoms=   18 NActive=   18 NUniq=   18 SFac= 1.00D+00 NAtFMM=   60 NAOKFM=F Big=F
 Integral buffers will be    131072 words long.
 Raffenetti 2 integral format.
 Two-electron integral symmetry is turned on.
 One-electron integrals computed using PRISM.
 PrsmSu:  requested number of processors reduced to:  13 ShMem   1 Linda.
 NBasis=   228 RedAO= T EigKep=  3.62D-04  NBF=   228
 NBsUse=   228 1.00D-06 EigRej= -1.00D+00 NBFU=   228
 ExpMin= 1.61D-01 ExpMax= 4.17D+03 ExpMxC= 6.27D+02 IAcc=3 IRadAn=         5 AccDes= 0.00D+00
 Harris functional with IExCor=  402 and IRadAn=       5 diagonalized for initial guess.
 HarFok:  IExCor=  402 AccDes= 0.00D+00 IRadAn=         5 IDoV= 1 UseB2=F ITyADJ=14
 ICtDFT=  3500011 ScaDFX=  1.000000  1.000000  1.000000  1.000000
 FoFCou: FMM=F IPFlag=           0 FMFlag=      100000 FMFlg1=           0
         NFxFlg=           0 DoJE=T BraDBF=F KetDBF=T FulRan=T
         wScrn=  0.000000 ICntrl=       500 IOpCl=  0 I1Cent=   200000004 NGrid=           0
         NMat0=    1 NMatS0=      1 NMatT0=    0 NMatD0=    1 NMtDS0=    0 NMtDT0=    0
 Petite list used in FoFCou.
 Requested convergence on RMS density matrix=1.00D-08 within 128 cycles.
 Requested convergence on MAX density matrix=1.00D-06.
 Requested convergence on             energy=1.00D-06.
 No special actions if energy rises.
 Integral accuracy reduced to 1.0D-05 until final iterations.
 Initial convergence to 1.0D-05 achieved.  Increase integral accuracy.
 SCF Done:  E(RB3LYP) =  -269.132559026     A.U. after   12 cycles
            NFock= 12  Conv=0.55D-08     -V/T= 2.0087

 **********************************************************************

            Population analysis using the SCF density.

 **********************************************************************

 Orbital symmetries:
       Occupied  (A) (A) (A) (A) (A) (A) (A) (A) (A) (A) (A) (A)
                 (A) (A) (A) (A) (A) (A) (A) (A) (A) (A) (A) (A)
                 (A)
       Virtual   (A) (A) (A) (A) (A) (A) (A) (A) (A) (A) (A) (A)
                 (A) (A) (A) (A) (A) (A) (A) (A) (A) (A) (A) (A)
                 (A) (A) (A) (A) (A) (A) (A) (A) (A) (A) (A) (A)
                 (A) (A) (A) (A) (A) (A) (A) (A) (A) (A) (A) (A)
                 (A) (A) (A) (A) (A) (A) (A) (A) (A) (A) (A) (A)
                 (A) (A) (A) (A) (A) (A) (A) (A) (A) (A) (A) (A)
                 (A) (A) (A) (A) (A) (A) (A) (A) (A) (A) (A) (A)
                 (A) (A) (A) (A) (A) (A) (A) (A) (A) (A) (A) (A)
                 (A) (A) (A) (A) (A) (A) (A) (A) (A) (A) (A) (A)
                 (A) (A) (A) (A) (A) (A) (A) (A) (A) (A) (A) (A)
                 (A) (A) (A) (A) (A) (A) (A) (A) (A) (A) (A) (A)
                 (A) (A) (A) (A) (A) (A) (A) (A) (A) (A) (A) (A)
                 (A) (A) (A) (A) (A) (A) (A) (A) (A) (A) (A) (A)
                 (A) (A) (A) (A) (A) (A) (A) (A) (A) (A) (A) (A)
                 (A) (A) (A) (A) (A) (A) (A) (A) (A) (A) (A) (A)
                 (A) (A) (A) (A) (A) (A) (A) (A) (A) (A) (A) (A)
                 (A) (A) (A) (A) (A) (A) (A) (A) (A) (A) (A)
 The electronic state is 1-A.
 Alpha  occ. eigenvalues --  -14.34299 -14.32643 -10.20979 -10.19339 -10.17361
 Alpha  occ. eigenvalues --  -10.17251  -0.95165  -0.79975  -0.75312  -0.67992
 Alpha  occ. eigenvalues --   -0.64652  -0.56636  -0.49769  -0.47507  -0.45011
 Alpha  occ. eigenvalues --   -0.44068  -0.40432  -0.38963  -0.38332  -0.37790
 Alpha  occ. eigenvalues --   -0.35340  -0.34233  -0.32823  -0.24884  -0.21245
 Alpha virt. eigenvalues --    0.07395   0.10738   0.11570   0.12688   0.15245
 Alpha virt. eigenvalues --    0.15966   0.16391   0.17206   0.18098   0.18795
 Alpha virt. eigenvalues --    0.18951   0.20151   0.22613   0.22806   0.23704
 Alpha virt. eigenvalues --    0.26056   0.26792   0.44183   0.44783   0.46876
 Alpha virt. eigenvalues --    0.49067   0.51108   0.53518   0.54172   0.56990
 Alpha virt. eigenvalues --    0.57869   0.59310   0.60341   0.64784   0.66896
 Alpha virt. eigenvalues --    0.70479   0.71537   0.71790   0.72749   0.73774
 Alpha virt. eigenvalues --    0.74135   0.74679   0.75425   0.76738   0.77614
 Alpha virt. eigenvalues --    0.78590   0.80568   0.82899   0.85332   0.86889
 Alpha virt. eigenvalues --    0.88281   0.89759   0.91136   0.91719   0.95013
 Alpha virt. eigenvalues --    0.96782   1.08504   1.12510   1.14303   1.15061
 Alpha virt. eigenvalues --    1.23458   1.28459   1.30664   1.32462   1.35925
 Alpha virt. eigenvalues --    1.37544   1.43211   1.44283   1.45485   1.49730
 Alpha virt. eigenvalues --    1.50466   1.55976   1.57163   1.58100   1.59953
 Alpha virt. eigenvalues --    1.62993   1.67834   1.72950   1.77062   1.78611
 Alpha virt. eigenvalues --    1.82445   1.84072   1.86673   1.89273   1.94662
 Alpha virt. eigenvalues --    1.96701   1.97423   1.98719   1.99478   2.03775
 Alpha virt. eigenvalues --    2.15103   2.21305   2.22508   2.25050   2.29906
 Alpha virt. eigenvalues --    2.30628   2.32505   2.40119   2.42810   2.44512
 Alpha virt. eigenvalues --    2.47661   2.51477   2.57107   2.57951   2.61477
 Alpha virt. eigenvalues --    2.67814   2.75017   2.75549   2.78350   2.80903
 Alpha virt. eigenvalues --    2.82465   2.85099   2.87299   2.88270   2.88523
 Alpha virt. eigenvalues --    2.90514   2.92765   2.94687   2.95739   2.96393
 Alpha virt. eigenvalues --    2.98217   3.01588   3.02990   3.05752   3.14223
 Alpha virt. eigenvalues --    3.15847   3.18663   3.24212   3.27322   3.33547
 Alpha virt. eigenvalues --    3.37169   3.37433   3.40148   3.41351   3.47971
 Alpha virt. eigenvalues --    3.48807   3.54006   3.59612   3.60777   3.64689
 Alpha virt. eigenvalues --    3.65327   3.67922   3.69108   3.70560   3.75341
 Alpha virt. eigenvalues --    3.82775   3.83822   3.88586   3.90256   3.94838
 Alpha virt. eigenvalues --    3.98309   4.03785   4.06846   4.08142   4.10759
 Alpha virt. eigenvalues --    4.12879   4.22207   4.26781   4.28584   4.36864
 Alpha virt. eigenvalues --    4.38678   4.41817   4.43477   4.45171   4.49459
 Alpha virt. eigenvalues --    4.50924   4.51209   4.52686   4.53777   4.57566
 Alpha virt. eigenvalues --    4.59962   4.62320   4.63837   4.67918   4.69866
 Alpha virt. eigenvalues --    4.71369   4.73099   4.74102   4.75324   4.80432
 Alpha virt. eigenvalues --    4.81017   4.82935   4.86055   4.89802   4.91337
 Alpha virt. eigenvalues --    4.94232   5.01496   5.04760   5.08298   5.13868
 Alpha virt. eigenvalues --    5.18057   5.27404   5.32133   5.34042   5.40654
 Alpha virt. eigenvalues --    5.44868   5.46363   5.51786   5.64103   5.83487
 Alpha virt. eigenvalues --    8.63852  11.17910  11.41708  11.49955  11.60399
 Alpha virt. eigenvalues --   11.82740  12.36194  14.70086
          Condensed to atoms (all electrons):
               1          2          3          4          5          6
     1  C    5.032887   0.379275  -0.035295  -0.029739  -0.003307   0.005046
     2  C    0.379275   4.684388   0.394985   0.384136  -0.064311  -0.082119
     3  C   -0.035295   0.394985   5.037948  -0.032790   0.004230  -0.005664
     4  N   -0.029739   0.384136  -0.032790   6.267951   0.390562   0.333154
     5  C   -0.003307  -0.064311   0.004230   0.390562   4.921581  -0.056685
     6  N    0.005046  -0.082119  -0.005664   0.333154  -0.056685   6.608845
     7  H    0.367939  -0.018133  -0.005075   0.002262   0.000009  -0.000139
     8  H    0.368592  -0.022492  -0.006698   0.000705  -0.000189   0.000068
     9  H    0.370059  -0.022608   0.004922  -0.002690   0.000261   0.000033
    10  H   -0.049102   0.333998  -0.056284  -0.054948  -0.006508  -0.000239
    11  H   -0.006137  -0.023015   0.366688   0.001038   0.000053   0.000390
    12  H   -0.004359  -0.021291   0.367951   0.002412  -0.000166   0.000310
    13  H    0.005540  -0.026366   0.359252  -0.003757   0.000039   0.007457
    14  H   -0.001215   0.000941   0.000037  -0.025556   0.378589   0.003450
    15  H    0.000185   0.005215  -0.000198  -0.019361   0.375674   0.003855
    16  H   -0.001005  -0.009065  -0.000071  -0.043881   0.354123  -0.002739
    17  H   -0.000016  -0.002946   0.002484  -0.036054   0.005397   0.348492
    18  H   -0.000086  -0.010078  -0.000996  -0.055366  -0.005343   0.315445
               7          8          9         10         11         12
     1  C    0.367939   0.368592   0.370059  -0.049102  -0.006137  -0.004359
     2  C   -0.018133  -0.022492  -0.022608   0.333998  -0.023015  -0.021291
     3  C   -0.005075  -0.006698   0.004922  -0.056284   0.366688   0.367951
     4  N    0.002262   0.000705  -0.002690  -0.054948   0.001038   0.002412
     5  C    0.000009  -0.000189   0.000261  -0.006508   0.000053  -0.000166
     6  N   -0.000139   0.000068   0.000033  -0.000239   0.000390   0.000310
     7  H    0.598767  -0.030608  -0.030736  -0.000931   0.000074   0.003004
     8  H   -0.030608   0.587295  -0.033290   0.006767   0.005162   0.000237
     9  H   -0.030736  -0.033290   0.601113  -0.003123  -0.000033  -0.000011
    10  H   -0.000931   0.006767  -0.003123   0.750385   0.006836   0.000552
    11  H    0.000074   0.005162  -0.000033   0.006836   0.587864  -0.029469
    12  H    0.003004   0.000237  -0.000011   0.000552  -0.029469   0.595735
    13  H   -0.000076  -0.000035  -0.000224  -0.002682  -0.033524  -0.029739
    14  H    0.000037   0.000606   0.001925  -0.000809  -0.000021  -0.000006
    15  H   -0.000002  -0.000067  -0.000116  -0.000380  -0.000005   0.000002
    16  H   -0.000008   0.000273   0.000748   0.014483   0.000038   0.000014
    17  H   -0.000002  -0.000010  -0.000001  -0.000379   0.000525  -0.000194
    18  H    0.000006   0.000046   0.000001   0.015586   0.000314   0.000054
              13         14         15         16         17         18
     1  C    0.005540  -0.001215   0.000185  -0.001005  -0.000016  -0.000086
     2  C   -0.026366   0.000941   0.005215  -0.009065  -0.002946  -0.010078
     3  C    0.359252   0.000037  -0.000198  -0.000071   0.002484  -0.000996
     4  N   -0.003757  -0.025556  -0.019361  -0.043881  -0.036054  -0.055366
     5  C    0.000039   0.378589   0.375674   0.354123   0.005397  -0.005343
     6  N    0.007457   0.003450   0.003855  -0.002739   0.348492   0.315445
     7  H   -0.000076   0.000037  -0.000002  -0.000008  -0.000002   0.000006
     8  H   -0.000035   0.000606  -0.000067   0.000273  -0.000010   0.000046
     9  H   -0.000224   0.001925  -0.000116   0.000748  -0.000001   0.000001
    10  H   -0.002682  -0.000809  -0.000380   0.014483  -0.000379   0.015586
    11  H   -0.033524  -0.000021  -0.000005   0.000038   0.000525   0.000314
    12  H   -0.029739  -0.000006   0.000002   0.000014  -0.000194   0.000054
    13  H    0.619430  -0.000012  -0.000004  -0.000008   0.004852   0.001580
    14  H   -0.000012   0.590463  -0.028267  -0.042054  -0.000250  -0.000529
    15  H   -0.000004  -0.028267   0.574189  -0.040751   0.000059  -0.001418
    16  H   -0.000008  -0.042054  -0.040751   0.670485  -0.000214   0.012238
    17  H    0.004852  -0.000250   0.000059  -0.000214   0.477814  -0.042236
    18  H    0.001580  -0.000529  -0.001418   0.012238  -0.042236   0.562926
 Mulliken charges:
               1
     1  C   -0.399262
     2  C    0.119487
     3  C   -0.395425
     4  N   -0.078078
     5  C   -0.294009
     6  N   -0.478962
     7  H    0.113613
     8  H    0.123637
     9  H    0.113771
    10  H    0.046779
    11  H    0.123222
    12  H    0.114966
    13  H    0.098276
    14  H    0.122672
    15  H    0.131389
    16  H    0.087391
    17  H    0.242678
    18  H    0.207856
 Sum of Mulliken charges =  -0.00000
 Mulliken charges with hydrogens summed into heavy atoms:
               1
     1  C   -0.048242
     2  C    0.166266
     3  C   -0.058961
     4  N   -0.078078
     5  C    0.047443
     6  N   -0.028428
 Electronic spatial extent (au):  <R**2>=            685.9002
 Charge=             -0.0000 electrons
 Dipole moment (field-independent basis, Debye):
    X=             -1.0149    Y=             -0.0722    Z=              1.1832  Tot=              1.5605
 Quadrupole moment (field-independent basis, Debye-Ang):
   XX=            -41.6654   YY=            -36.7815   ZZ=            -40.1113
   XY=              1.3131   XZ=              1.5332   YZ=             -0.8560
 Traceless Quadrupole moment (field-independent basis, Debye-Ang):
   XX=             -2.1460   YY=              2.7379   ZZ=             -0.5918
   XY=              1.3131   XZ=              1.5332   YZ=             -0.8560
 Octapole moment (field-independent basis, Debye-Ang**2):
  XXX=             -3.0525  YYY=             -8.8447  ZZZ=              0.5082  XYY=              4.0170
  XXY=              4.3051  XXZ=              2.2863  XZZ=              1.3454  YZZ=             -2.2772
  YYZ=             -0.5596  XYZ=             -2.3140
 Hexadecapole moment (field-independent basis, Debye-Ang**3):
 XXXX=           -497.7799 YYYY=           -327.3399 ZZZZ=            -82.1530 XXXY=              9.6119
 XXXZ=             -2.5525 YYYX=             -7.6411 YYYZ=             -0.3925 ZZZX=              4.7071
 ZZZY=             -1.6953 XXYY=           -145.7627 XXZZ=            -92.4737 YYZZ=            -69.9956
 XXYZ=             -5.0958 YYXZ=              1.0102 ZZXY=             -3.0832
 N-N= 2.677420273336D+02 E-N=-1.159829716548D+03  KE= 2.668045872098D+02
 PrsmSu:  requested number of processors reduced to:  13 ShMem   1 Linda.
 Calling FoFJK, ICntrl=      2127 FMM=F ISym2X=0 I1Cent= 0 IOpClX= 0 NMat=1 NMatS=1 NMatT=0.
 ***** Axes restored to original set *****
 -------------------------------------------------------------------
 Center     Atomic                   Forces (Hartrees/Bohr)
 Number     Number              X              Y              Z
 -------------------------------------------------------------------
      1        6          -0.002595156   -0.004209448    0.003358492
      2        6          -0.008880714    0.010255554   -0.001764776
      3        6           0.005285812   -0.000692912    0.000703274
      4        7           0.012246092   -0.003014494   -0.007841825
      5        6           0.001739405    0.008218828    0.002994044
      6        7          -0.004865405    0.003524989    0.010683523
      7        1           0.002219232    0.000885970    0.000089615
      8        1           0.001542657   -0.000566270    0.000569942
      9        1          -0.000218834    0.000927957   -0.000138071
     10        1           0.002668835   -0.005579362   -0.000612575
     11        1          -0.000143016   -0.001184738    0.001457173
     12        1          -0.000639356   -0.000995770    0.001925639
     13        1          -0.000450992    0.000403911    0.000220271
     14        1           0.000918529    0.001027032   -0.004890099
     15        1           0.003856131    0.001612049   -0.005476335
     16        1           0.000456626   -0.005701192   -0.000254618
     17        1          -0.009148685   -0.002305808    0.002921944
     18        1          -0.003991161   -0.002606296   -0.003945619
 -------------------------------------------------------------------
 Cartesian Forces:  Max     0.012246092 RMS     0.004306301

 GradGradGradGradGradGradGradGradGradGradGradGradGradGradGradGradGradGrad
 Berny optimization.
 FormGI is forming the generalized inverse of G from B-inverse, IUseBI=4.
 Internal  Forces:  Max     0.017692712 RMS     0.003763602
 Search for a local minimum.
 Step number   1 out of a maximum of   91
 All quantities printed in internal units (Hartrees-Bohrs-Radians)
 Mixed Optimization -- RFO/linear search
 Second derivative matrix not updated -- first step.
 ITU=  0
     Eigenvalues ---    0.00243   0.00263   0.00543   0.00589   0.00757
     Eigenvalues ---    0.03099   0.04135   0.04811   0.05009   0.05264
     Eigenvalues ---    0.05271   0.05286   0.05471   0.05480   0.07005
     Eigenvalues ---    0.07294   0.15929   0.16000   0.16000   0.16000
     Eigenvalues ---    0.16000   0.16000   0.16000   0.16000   0.16000
     Eigenvalues ---    0.16000   0.16000   0.16000   0.16770   0.17923
     Eigenvalues ---    0.18089   0.28559   0.28697   0.33795   0.33866
     Eigenvalues ---    0.34015   0.34047   0.34111   0.34128   0.34145
     Eigenvalues ---    0.34179   0.34308   0.34385   0.34426   0.35664
     Eigenvalues ---    0.37812   0.43898   0.44386
 RFO step:  Lambda=-6.33980858D-03 EMin= 2.42843324D-03
 Linear search not attempted -- first point.
 Iteration  1 RMS(Cart)=  0.05120996 RMS(Int)=  0.00327544
 Iteration  2 RMS(Cart)=  0.00317444 RMS(Int)=  0.00095547
 Iteration  3 RMS(Cart)=  0.00001625 RMS(Int)=  0.00095536
 Iteration  4 RMS(Cart)=  0.00000002 RMS(Int)=  0.00095536
 Variable       Old X    -DE/DX   Delta X   Delta X   Delta X     New X
                                 (Linear)    (Quad)   (Total)
    R1        2.90640  -0.00108   0.00000  -0.00367  -0.00367   2.90273
    R2        2.07028  -0.00097   0.00000  -0.00279  -0.00279   2.06749
    R3        2.07144  -0.00092   0.00000  -0.00266  -0.00266   2.06878
    R4        2.06685  -0.00064   0.00000  -0.00183  -0.00183   2.06502
    R5        2.90932  -0.00327   0.00000  -0.01120  -0.01120   2.89812
    R6        2.80978  -0.00473   0.00000  -0.01372  -0.01372   2.79605
    R7        2.07558   0.00610   0.00000   0.01767   0.01767   2.09324
    R8        2.07114  -0.00074   0.00000  -0.00211  -0.00211   2.06902
    R9        2.07087  -0.00128   0.00000  -0.00368  -0.00368   2.06719
   R10        2.06814  -0.00047   0.00000  -0.00134  -0.00134   2.06680
   R11        2.77911  -0.01084   0.00000  -0.02985  -0.02985   2.74925
   R12        2.74640  -0.01769   0.00000  -0.04602  -0.04602   2.70038
   R13        2.06617  -0.00141   0.00000  -0.00403  -0.00403   2.06215
   R14        2.07252  -0.00308   0.00000  -0.00889  -0.00889   2.06363
   R15        2.07305   0.00553   0.00000   0.01595   0.01595   2.08900
   R16        1.92696  -0.00689   0.00000  -0.01531  -0.01531   1.91165
   R17        1.93277   0.00205   0.00000   0.00460   0.00460   1.93738
    A1        1.93119  -0.00263   0.00000  -0.01569  -0.01576   1.91543
    A2        1.94039  -0.00178   0.00000  -0.01329  -0.01336   1.92703
    A3        1.96027   0.00167   0.00000   0.01246   0.01251   1.97278
    A4        1.88241   0.00174   0.00000   0.00572   0.00552   1.88793
    A5        1.85657   0.00114   0.00000   0.01175   0.01181   1.86838
    A6        1.88931   0.00006   0.00000   0.00020   0.00025   1.88956
    A7        1.87215   0.00537   0.00000   0.03330   0.03325   1.90540
    A8        1.94858  -0.00138   0.00000  -0.00601  -0.00581   1.94277
    A9        1.88946  -0.00099   0.00000   0.00198   0.00183   1.89128
   A10        1.94597  -0.00347   0.00000  -0.02031  -0.02033   1.92564
   A11        1.88930  -0.00056   0.00000  -0.00106  -0.00138   1.88792
   A12        1.91629   0.00117   0.00000  -0.00650  -0.00660   1.90969
   A13        1.94265  -0.00216   0.00000  -0.01480  -0.01486   1.92778
   A14        1.92931  -0.00225   0.00000  -0.01330  -0.01336   1.91595
   A15        1.95927   0.00115   0.00000   0.00854   0.00858   1.96784
   A16        1.88208   0.00193   0.00000   0.00844   0.00828   1.89036
   A17        1.88794   0.00052   0.00000   0.00277   0.00280   1.89074
   A18        1.85892   0.00103   0.00000   0.00975   0.00979   1.86871
   A19        1.96356   0.00098   0.00000   0.00718   0.00735   1.97091
   A20        1.94095   0.00494   0.00000   0.03132   0.03140   1.97236
   A21        1.86238  -0.00524   0.00000  -0.02622  -0.02636   1.83602
   A22        1.95244  -0.00490   0.00000  -0.02818  -0.02830   1.92413
   A23        1.92882  -0.00692   0.00000  -0.04119  -0.04131   1.88752
   A24        1.95121   0.00382   0.00000   0.02123   0.02137   1.97258
   A25        1.84246   0.00669   0.00000   0.04360   0.04318   1.88565
   A26        1.89619   0.00046   0.00000   0.00206   0.00218   1.89837
   A27        1.88843   0.00123   0.00000   0.00490   0.00505   1.89347
   A28        1.94668  -0.01049   0.00000  -0.08126  -0.08386   1.86283
   A29        1.96190  -0.00722   0.00000  -0.06137  -0.06384   1.89806
   A30        1.87002   0.00542   0.00000  -0.00048  -0.00636   1.86365
    D1        0.97181   0.00036   0.00000  -0.02450  -0.02440   0.94740
    D2        3.10851  -0.00122   0.00000  -0.03122  -0.03114   3.07738
    D3       -1.06334  -0.00129   0.00000  -0.04174  -0.04172  -1.10507
    D4       -1.11955   0.00109   0.00000  -0.01257  -0.01261  -1.13216
    D5        1.01715  -0.00049   0.00000  -0.01929  -0.01934   0.99781
    D6        3.12848  -0.00055   0.00000  -0.02981  -0.02993   3.09856
    D7        3.04362   0.00112   0.00000  -0.01208  -0.01205   3.03157
    D8       -1.10286  -0.00046   0.00000  -0.01880  -0.01878  -1.12164
    D9        1.00847  -0.00053   0.00000  -0.02932  -0.02937   0.97910
   D10        1.11156  -0.00062   0.00000   0.00067   0.00063   1.11219
   D11       -0.97961  -0.00013   0.00000   0.00858   0.00844  -0.97116
   D12       -3.05247  -0.00068   0.00000  -0.00035  -0.00043  -3.05290
   D13       -1.02677  -0.00032   0.00000  -0.00144  -0.00131  -1.02808
   D14       -3.11794   0.00016   0.00000   0.00648   0.00651  -3.11143
   D15        1.09238  -0.00038   0.00000  -0.00245  -0.00237   1.09001
   D16       -3.13637   0.00074   0.00000   0.01991   0.01996  -3.11641
   D17        1.05565   0.00123   0.00000   0.02783   0.02778   1.08342
   D18       -1.01722   0.00069   0.00000   0.01889   0.01890  -0.99832
   D19        1.04277  -0.00032   0.00000  -0.00490  -0.00501   1.03776
   D20        3.13087  -0.00290   0.00000  -0.01170  -0.01161   3.11926
   D21        3.13658   0.00321   0.00000   0.01952   0.01939  -3.12722
   D22       -1.05851   0.00062   0.00000   0.01272   0.01279  -1.04572
   D23       -1.05286   0.00105   0.00000   0.00083   0.00076  -1.05210
   D24        1.03523  -0.00154   0.00000  -0.00597  -0.00583   1.02940
   D25       -1.11798   0.00159   0.00000  -0.00743  -0.00725  -1.12522
   D26        3.11769   0.00079   0.00000  -0.01754  -0.01780   3.09989
   D27        1.01316   0.00141   0.00000  -0.00977  -0.00979   1.00337
   D28        3.03206  -0.00161   0.00000  -0.03306  -0.03281   2.99925
   D29        0.98454  -0.00241   0.00000  -0.04317  -0.04336   0.94118
   D30       -1.11999  -0.00180   0.00000  -0.03540  -0.03535  -1.15534
   D31        1.17003  -0.00153   0.00000   0.07631   0.07896   1.24899
   D32       -0.93075   0.00398   0.00000   0.17745   0.17505  -0.75570
   D33       -2.96584  -0.00075   0.00000   0.08704   0.08943  -2.87641
   D34        1.21657   0.00476   0.00000   0.18818   0.18553   1.40209
         Item               Value     Threshold  Converged?
 Maximum Force            0.017693     0.000450     NO 
 RMS     Force            0.003764     0.000300     NO 
 Maximum Displacement     0.236050     0.001800     NO 
 RMS     Displacement     0.051950     0.001200     NO 
 Predicted change in Energy=-3.467658D-03
 GradGradGradGradGradGradGradGradGradGradGradGradGradGradGradGradGradGrad

                          Input orientation:                          
 ---------------------------------------------------------------------
 Center     Atomic      Atomic             Coordinates (Angstroms)
 Number     Number       Type             X           Y           Z
 ---------------------------------------------------------------------
      1          6           0        0.904297   -0.032658   -0.115647
      2          6           0        2.439925   -0.030840   -0.079332
      3          6           0        2.966968    0.971663   -1.113353
      4          7           0        2.945556    0.307937    1.269298
      5          6           0        2.493953   -0.621134    2.293726
      6          7           0        4.372082    0.291548    1.351345
      7          1           0        0.558924   -0.221118   -1.136523
      8          1           0        0.513712    0.939150    0.202964
      9          1           0        0.462534   -0.804273    0.519631
     10          1           0        2.796897   -1.040166   -0.363631
     11          1           0        2.656215    1.988756   -0.853125
     12          1           0        2.563332    0.731151   -2.101217
     13          1           0        4.057158    0.956534   -1.199623
     14          1           0        1.409496   -0.565950    2.401958
     15          1           0        2.944104   -0.325152    3.243609
     16          1           0        2.777498   -1.668559    2.082726
     17          1           0        4.702513    1.099425    0.839985
     18          1           0        4.721197   -0.535386    0.855998
 ---------------------------------------------------------------------
                    Distance matrix (angstroms):
                    1          2          3          4          5
     1  C    0.000000
     2  C    1.536058   0.000000
     3  C    2.501738   1.533619   0.000000
     4  N    2.490144   1.479606   2.473463   0.000000
     5  C    2.945910   2.445970   3.790638   1.454843   0.000000
     6  N    3.779247   2.425696   2.917472   1.428978   2.290947
     7  H    1.094069   2.166108   2.687367   3.429852   3.958656
     8  H    1.094751   2.175056   2.784280   2.729352   3.275229
     9  H    1.092759   2.206135   3.477467   2.822128   2.703260
    10  H    2.158357   1.107698   2.153709   2.122720   2.707196
    11  H    2.774745   2.173547   1.094881   2.722784   4.091519
    12  H    2.697830   2.164227   1.093912   3.418417   4.598805
    13  H    3.477648   2.201227   1.093703   2.784225   4.139581
    14  H    2.622587   2.739512   4.140940   2.099065   1.091240
    15  H    3.940934   3.373833   4.545918   2.073332   1.092025
    16  H    3.319322   2.733235   4.149891   2.143932   1.105449
    17  H    4.076922   2.691087   2.616098   1.974251   3.154588
    18  H    3.970586   2.516666   3.037575   2.008709   2.652363
                    6          7          8          9         10
     6  N    0.000000
     7  H    4.581756   0.000000
     8  H    4.077400   1.772707   0.000000
     9  H    4.144531   1.758467   1.772687   0.000000
    10  H    2.682502   2.505339   3.074354   2.507000   0.000000
    11  H    3.268700   3.059819   2.609084   3.807586   3.071443
    12  H    3.922373   2.419732   3.090866   3.693199   2.492251
    13  H    2.654961   3.691678   3.810979   4.356328   2.504785
    14  H    3.258221   3.655575   2.811286   2.120540   3.130215
    15  H    2.449511   4.988533   4.092772   3.715885   3.680367
    16  H    2.630520   4.169019   3.931714   2.923921   2.525850
    17  H    1.011602   4.777002   4.239993   4.658768   3.107719
    18  H    1.025217   4.625302   4.505955   4.280380   2.333501
                   11         12         13         14         15
    11  H    0.000000
    12  H    1.774241   0.000000
    13  H    1.774312   1.759314   0.000000
    14  H    4.321620   4.826219   4.722230   0.000000
    15  H    4.713839   5.461495   4.756461   1.766743   0.000000
    16  H    4.691469   4.828028   4.393456   1.785800   1.783297
    17  H    2.800869   3.655460   2.144038   4.007143   3.301339
    18  H    3.681921   3.873708   2.625328   3.654899   2.983781
                   16         17         18
    16  H    0.000000
    17  H    3.593303   0.000000
    18  H    2.562598   1.634996   0.000000
 Stoichiometry    C4H12N2
 Framework group  C1[X(C4H12N2)]
 Deg. of freedom    48
 Full point group                 C1      NOp   1
 Largest Abelian subgroup         C1      NOp   1
 Largest concise Abelian subgroup C1      NOp   1
                         Standard orientation:                         
 ---------------------------------------------------------------------
 Center     Atomic      Atomic             Coordinates (Angstroms)
 Number     Number       Type             X           Y           Z
 ---------------------------------------------------------------------
      1          6           0       -1.391221    1.316580   -0.054804
      2          6           0       -0.641637    0.028680    0.317905
      3          6           0       -1.494805   -1.182911   -0.077241
      4          7           0        0.679919   -0.035207   -0.344397
      5          6           0        1.544575    1.080706    0.007280
      6          7           0        1.421528   -1.206925    0.000673
      7          1           0       -2.388546    1.307117    0.394907
      8          1           0       -1.507150    1.390154   -1.140910
      9          1           0       -0.889204    2.220790    0.298050
     10          1           0       -0.504042    0.010602    1.416874
     11          1           0       -1.633062   -1.215797   -1.162859
     12          1           0       -2.480030   -1.110883    0.392638
     13          1           0       -1.055279   -2.132017    0.242450
     14          1           0        1.118065    2.017594   -0.354847
     15          1           0        2.507214    0.933999   -0.487009
     16          1           0        1.718765    1.166369    1.095553
     17          1           0        0.965989   -1.985348   -0.457455
     18          1           0        1.335676   -1.365982    1.009831
 ---------------------------------------------------------------------
 Rotational constants (GHZ):           4.5545329           3.1240224           2.0143037
 Standard basis: 6-31G(2df,p) (6D, 7F)
 There are   246 symmetry adapted cartesian basis functions of A   symmetry.
 There are   228 symmetry adapted basis functions of A   symmetry.
   228 basis functions,   348 primitive gaussians,   246 cartesian basis functions
    25 alpha electrons       25 beta electrons
       nuclear repulsion energy       269.6386977537 Hartrees.
 NAtoms=   18 NActive=   18 NUniq=   18 SFac= 1.00D+00 NAtFMM=   60 NAOKFM=F Big=F
 Integral buffers will be    131072 words long.
 Raffenetti 2 integral format.
 Two-electron integral symmetry is turned on.
 One-electron integrals computed using PRISM.
 PrsmSu:  requested number of processors reduced to:  13 ShMem   1 Linda.
 NBasis=   228 RedAO= T EigKep=  3.40D-04  NBF=   228
 NBsUse=   228 1.00D-06 EigRej= -1.00D+00 NBFU=   228
 Initial guess from the checkpoint file:  "CCpCpNpCpN.chk"
 B after Tr=    -0.000000    0.000000   -0.000000
         Rot=    0.999988    0.001047    0.002777   -0.003935 Ang=   0.56 deg.
 ExpMin= 1.61D-01 ExpMax= 4.17D+03 ExpMxC= 6.27D+02 IAcc=2 IRadAn=         4 AccDes= 0.00D+00
 Harris functional with IExCor=  402 and IRadAn=       4 diagonalized for initial guess.
 HarFok:  IExCor=  402 AccDes= 0.00D+00 IRadAn=         4 IDoV= 1 UseB2=F ITyADJ=14
 ICtDFT=  3500011 ScaDFX=  1.000000  1.000000  1.000000  1.000000
 FoFCou: FMM=F IPFlag=           0 FMFlag=      100000 FMFlg1=           0
         NFxFlg=           0 DoJE=T BraDBF=F KetDBF=T FulRan=T
         wScrn=  0.000000 ICntrl=       500 IOpCl=  0 I1Cent=   200000004 NGrid=           0
         NMat0=    1 NMatS0=      1 NMatT0=    0 NMatD0=    1 NMtDS0=    0 NMtDT0=    0
 Petite list used in FoFCou.
 Requested convergence on RMS density matrix=1.00D-08 within 128 cycles.
 Requested convergence on MAX density matrix=1.00D-06.
 Requested convergence on             energy=1.00D-06.
 No special actions if energy rises.
 Integral accuracy reduced to 1.0D-05 until final iterations.
 Initial convergence to 1.0D-05 achieved.  Increase integral accuracy.
 SCF Done:  E(RB3LYP) =  -269.135324707     A.U. after   10 cycles
            NFock= 10  Conv=0.65D-08     -V/T= 2.0082
 PrsmSu:  requested number of processors reduced to:  13 ShMem   1 Linda.
 Calling FoFJK, ICntrl=      2127 FMM=F ISym2X=0 I1Cent= 0 IOpClX= 0 NMat=1 NMatS=1 NMatT=0.
 ***** Axes restored to original set *****
 -------------------------------------------------------------------
 Center     Atomic                   Forces (Hartrees/Bohr)
 Number     Number              X              Y              Z
 -------------------------------------------------------------------
      1        6          -0.000007832   -0.001021437   -0.000004440
      2        6          -0.001102101    0.003717047    0.001107336
      3        6           0.000202191   -0.000580328   -0.001201293
      4        7          -0.002328460   -0.003946143    0.000347426
      5        6          -0.004991950    0.003483794    0.003815854
      6        7          -0.000093462    0.001697216   -0.002063700
      7        1           0.000238106    0.000434350   -0.000227086
      8        1           0.000243568    0.000132253    0.000328755
      9        1           0.000778575    0.000202643   -0.000356577
     10        1           0.000745087   -0.001776935    0.000132244
     11        1          -0.000085585    0.000114511    0.000307899
     12        1          -0.000043334    0.000314048   -0.000150420
     13        1          -0.000524346   -0.000295745    0.000256956
     14        1          -0.000402771   -0.001434724    0.000242358
     15        1           0.000588213   -0.000949621   -0.000825580
     16        1           0.000004449   -0.000896728   -0.000295940
     17        1           0.003459585    0.001934987   -0.000399111
     18        1           0.003320068   -0.001129190   -0.001014680
 -------------------------------------------------------------------
 Cartesian Forces:  Max     0.004991950 RMS     0.001604129

 GradGradGradGradGradGradGradGradGradGradGradGradGradGradGradGradGradGrad
 Berny optimization.
 Using GEDIIS/GDIIS optimizer.
 FormGI is forming the generalized inverse of G from B-inverse, IUseBI=4.
 Internal  Forces:  Max     0.006447665 RMS     0.001411529
 Search for a local minimum.
 Step number   2 out of a maximum of   91
 All quantities printed in internal units (Hartrees-Bohrs-Radians)
 Mixed Optimization -- RFO/linear search
 Update second derivatives using D2CorX and points    1    2
 DE= -2.77D-03 DEPred=-3.47D-03 R= 7.98D-01
 TightC=F SS=  1.41D+00  RLast= 3.43D-01 DXNew= 5.0454D-01 1.0283D+00
 Trust test= 7.98D-01 RLast= 3.43D-01 DXMaxT set to 5.05D-01
 ITU=  1  0
 Use linear search instead of GDIIS.
     Eigenvalues ---    0.00243   0.00263   0.00542   0.00609   0.00755
     Eigenvalues ---    0.02951   0.04076   0.04827   0.05268   0.05286
     Eigenvalues ---    0.05476   0.05588   0.05603   0.06108   0.07050
     Eigenvalues ---    0.07539   0.15506   0.16000   0.16000   0.16000
     Eigenvalues ---    0.16000   0.16000   0.16000   0.16000   0.16000
     Eigenvalues ---    0.16000   0.16258   0.16442   0.17571   0.17878
     Eigenvalues ---    0.19903   0.28496   0.28694   0.33022   0.33817
     Eigenvalues ---    0.33969   0.34040   0.34112   0.34130   0.34145
     Eigenvalues ---    0.34180   0.34307   0.34382   0.34431   0.36009
     Eigenvalues ---    0.40787   0.43839   0.45763
 RFO step:  Lambda=-1.03193069D-03 EMin= 2.42693801D-03
 Quartic linear search produced a step of -0.13230.
 Iteration  1 RMS(Cart)=  0.04200566 RMS(Int)=  0.00140178
 Iteration  2 RMS(Cart)=  0.00139405 RMS(Int)=  0.00011075
 Iteration  3 RMS(Cart)=  0.00000093 RMS(Int)=  0.00011075
 Variable       Old X    -DE/DX   Delta X   Delta X   Delta X     New X
                                 (Linear)    (Quad)   (Total)
    R1        2.90273  -0.00124   0.00049  -0.00448  -0.00400   2.89873
    R2        2.06749   0.00006   0.00037  -0.00044  -0.00007   2.06742
    R3        2.06878   0.00013   0.00035  -0.00024   0.00011   2.06889
    R4        2.06502  -0.00066   0.00024  -0.00204  -0.00180   2.06322
    R5        2.89812   0.00008   0.00148  -0.00213  -0.00065   2.89747
    R6        2.79605  -0.00061   0.00182  -0.00444  -0.00263   2.79342
    R7        2.09324   0.00183  -0.00234   0.00834   0.00600   2.09924
    R8        2.06902   0.00020   0.00028   0.00006   0.00034   2.06937
    R9        2.06719   0.00008   0.00049  -0.00056  -0.00008   2.06711
   R10        2.06680  -0.00054   0.00018  -0.00163  -0.00145   2.06535
   R11        2.74925   0.00343   0.00395   0.00193   0.00588   2.75513
   R12        2.70038   0.00645   0.00609   0.00490   0.01099   2.71137
   R13        2.06215   0.00035   0.00053   0.00002   0.00055   2.06270
   R14        2.06363  -0.00073   0.00118  -0.00371  -0.00254   2.06109
   R15        2.08900   0.00091  -0.00211   0.00564   0.00353   2.09253
   R16        1.91165   0.00288   0.00202   0.00234   0.00436   1.91601
   R17        1.93738   0.00253  -0.00061   0.00590   0.00530   1.94267
    A1        1.91543  -0.00016   0.00209  -0.00388  -0.00179   1.91364
    A2        1.92703  -0.00030   0.00177  -0.00490  -0.00313   1.92390
    A3        1.97278  -0.00065  -0.00166  -0.00070  -0.00237   1.97041
    A4        1.88793   0.00022  -0.00073   0.00224   0.00153   1.88946
    A5        1.86838   0.00051  -0.00156   0.00608   0.00451   1.87289
    A6        1.88956   0.00044  -0.00003   0.00169   0.00165   1.89120
    A7        1.90540  -0.00025  -0.00440   0.00761   0.00321   1.90861
    A8        1.94277  -0.00002   0.00077  -0.00052   0.00021   1.94298
    A9        1.89128   0.00004  -0.00024  -0.00125  -0.00147   1.88981
   A10        1.92564   0.00051   0.00269  -0.00020   0.00249   1.92813
   A11        1.88792   0.00002   0.00018  -0.00004   0.00019   1.88811
   A12        1.90969  -0.00030   0.00087  -0.00560  -0.00471   1.90497
   A13        1.92778  -0.00036   0.00197  -0.00561  -0.00364   1.92415
   A14        1.91595   0.00058   0.00177   0.00093   0.00271   1.91866
   A15        1.96784  -0.00054  -0.00113  -0.00128  -0.00243   1.96541
   A16        1.89036  -0.00006  -0.00110   0.00192   0.00085   1.89121
   A17        1.89074   0.00033  -0.00037   0.00109   0.00071   1.89144
   A18        1.86871   0.00006  -0.00130   0.00336   0.00206   1.87077
   A19        1.97091  -0.00036  -0.00097   0.01200   0.01061   1.98152
   A20        1.97236  -0.00181  -0.00415   0.00988   0.00517   1.97753
   A21        1.83602   0.00356   0.00349   0.02508   0.02831   1.86433
   A22        1.92413   0.00191   0.00374   0.00573   0.00948   1.93361
   A23        1.88752   0.00003   0.00547  -0.00803  -0.00258   1.88493
   A24        1.97258  -0.00072  -0.00283  -0.00174  -0.00460   1.96799
   A25        1.88565   0.00018  -0.00571   0.01566   0.00997   1.89562
   A26        1.89837  -0.00101  -0.00029  -0.00640  -0.00669   1.89168
   A27        1.89347  -0.00038  -0.00067  -0.00442  -0.00514   1.88834
   A28        1.86283   0.00426   0.01109   0.00964   0.02090   1.88373
   A29        1.89806   0.00417   0.00845   0.01336   0.02196   1.92002
   A30        1.86365  -0.00203   0.00084  -0.00188  -0.00069   1.86296
    D1        0.94740  -0.00042   0.00323  -0.06284  -0.05962   0.88778
    D2        3.07738   0.00004   0.00412  -0.05827  -0.05416   3.02321
    D3       -1.10507  -0.00032   0.00552  -0.06632  -0.06080  -1.16586
    D4       -1.13216  -0.00041   0.00167  -0.06013  -0.05846  -1.19062
    D5        0.99781   0.00005   0.00256  -0.05556  -0.05300   0.94482
    D6        3.09856  -0.00031   0.00396  -0.06361  -0.05963   3.03892
    D7        3.03157  -0.00031   0.00159  -0.05827  -0.05668   2.97489
    D8       -1.12164   0.00015   0.00249  -0.05370  -0.05122  -1.17286
    D9        0.97910  -0.00021   0.00389  -0.06175  -0.05786   0.92125
   D10        1.11219   0.00025  -0.00008   0.02649   0.02642   1.13860
   D11       -0.97116   0.00017  -0.00112   0.02703   0.02593  -0.94523
   D12       -3.05290   0.00004   0.00006   0.02298   0.02306  -3.02985
   D13       -1.02808   0.00010   0.00017   0.02223   0.02238  -1.00570
   D14       -3.11143   0.00003  -0.00086   0.02277   0.02190  -3.08953
   D15        1.09001  -0.00010   0.00031   0.01872   0.01902   1.10904
   D16       -3.11641   0.00016  -0.00264   0.02919   0.02654  -3.08987
   D17        1.08342   0.00009  -0.00367   0.02973   0.02606   1.10948
   D18       -0.99832  -0.00004  -0.00250   0.02568   0.02318  -0.97513
   D19        1.03776  -0.00170   0.00066  -0.04123  -0.04051   0.99724
   D20        3.11926   0.00138   0.00154   0.00732   0.00881   3.12806
   D21       -3.12722  -0.00168  -0.00257  -0.03208  -0.03459   3.12138
   D22       -1.04572   0.00140  -0.00169   0.01647   0.01473  -1.03099
   D23       -1.05210  -0.00154  -0.00010  -0.03571  -0.03576  -1.08786
   D24        1.02940   0.00155   0.00077   0.01284   0.01355   1.04295
   D25       -1.12522   0.00039   0.00096  -0.00132  -0.00023  -1.12546
   D26        3.09989  -0.00093   0.00236  -0.01872  -0.01620   3.08369
   D27        1.00337  -0.00002   0.00130  -0.00662  -0.00520   0.99817
   D28        2.99925   0.00041   0.00434  -0.03820  -0.03401   2.96524
   D29        0.94118  -0.00092   0.00574  -0.05560  -0.04998   0.89120
   D30       -1.15534  -0.00000   0.00468  -0.04350  -0.03898  -1.19432
   D31        1.24899   0.00094  -0.01045   0.10006   0.08936   1.33835
   D32       -0.75570  -0.00092  -0.02316   0.09077   0.06765  -0.68804
   D33       -2.87641   0.00185  -0.01183   0.13834   0.12647  -2.74994
   D34        1.40209  -0.00001  -0.02455   0.12905   0.10476   1.50685
         Item               Value     Threshold  Converged?
 Maximum Force            0.006448     0.000450     NO 
 RMS     Force            0.001412     0.000300     NO 
 Maximum Displacement     0.137115     0.001800     NO 
 RMS     Displacement     0.041912     0.001200     NO 
 Predicted change in Energy=-5.832223D-04
 GradGradGradGradGradGradGradGradGradGradGradGradGradGradGradGradGradGrad

                          Input orientation:                          
 ---------------------------------------------------------------------
 Center     Atomic      Atomic             Coordinates (Angstroms)
 Number     Number       Type             X           Y           Z
 ---------------------------------------------------------------------
      1          6           0        0.907179   -0.045370   -0.114808
      2          6           0        2.440851   -0.042387   -0.086125
      3          6           0        2.966517    0.959428   -1.121007
      4          7           0        2.952676    0.288818    1.260523
      5          6           0        2.470864   -0.608874    2.303419
      6          7           0        4.385279    0.286191    1.339755
      7          1           0        0.558829   -0.173264   -1.143985
      8          1           0        0.519604    0.906400    0.262719
      9          1           0        0.472806   -0.852893    0.477873
     10          1           0        2.796636   -1.055106   -0.372230
     11          1           0        2.678840    1.978531   -0.842026
     12          1           0        2.540718    0.738126   -2.103999
     13          1           0        4.053953    0.924669   -1.224838
     14          1           0        1.389144   -0.521504    2.420447
     15          1           0        2.946827   -0.321559    3.241768
     16          1           0        2.715821   -1.669839    2.102159
     17          1           0        4.723081    1.141407    0.912543
     18          1           0        4.766737   -0.491842    0.786603
 ---------------------------------------------------------------------
                    Distance matrix (angstroms):
                    1          2          3          4          5
     1  C    0.000000
     2  C    1.533944   0.000000
     3  C    2.502584   1.533277   0.000000
     4  N    2.487423   1.478216   2.474186   0.000000
     5  C    2.934361   2.455958   3.798940   1.457953   0.000000
     6  N    3.784556   2.433494   2.919158   1.434795   2.322666
     7  H    1.094033   2.162916   2.660918   3.424278   3.966135
     8  H    1.094809   2.170963   2.811564   2.701270   3.204361
     9  H    1.091809   2.201867   3.472683   2.840035   2.717425
    10  H    2.157749   1.110872   2.155893   2.120463   2.732096
    11  H    2.786360   2.170746   1.095062   2.711241   4.078204
    12  H    2.690576   2.165869   1.093870   3.419298   4.609189
    13  H    3.474958   2.198627   1.092935   2.791799   4.160112
    14  H    2.624216   2.760171   4.150079   2.108714   1.091534
    15  H    3.937391   3.377694   4.546990   2.073144   1.090683
    16  H    3.290141   2.740948   4.167096   2.144944   1.107319
    17  H    4.126136   2.758129   2.693317   1.995579   3.173406
    18  H    3.988493   2.524561   2.997658   2.030973   2.754172
                    6          7          8          9         10
     6  N    0.000000
     7  H    4.584951   0.000000
     8  H    4.060555   1.773704   0.000000
     9  H    4.165069   1.760602   1.773018   0.000000
    10  H    2.693280   2.526070   3.071732   2.482690   0.000000
    11  H    3.245938   3.035762   2.651834   3.824354   3.072058
    12  H    3.932695   2.383306   3.116821   3.670650   2.506033
    13  H    2.663563   3.664409   3.834682   4.345523   2.495456
    14  H    3.285892   3.676393   2.729615   2.173266   3.172508
    15  H    2.460926   4.995933   4.034108   3.747293   3.690749
    16  H    2.682238   4.174901   3.852780   2.887355   2.550887
    17  H    1.013911   4.826869   4.259896   4.714977   3.191630
    18  H    1.028019   4.640599   4.501964   4.320130   2.354031
                   11         12         13         14         15
    11  H    0.000000
    12  H    1.774897   0.000000
    13  H    1.774291   1.760001   0.000000
    14  H    4.307809   4.835638   4.741384   0.000000
    15  H    4.694636   5.464895   4.767534   1.772264   0.000000
    16  H    4.688304   4.849816   4.426170   1.783270   1.780430
    17  H    2.821029   3.744979   2.250134   4.019226   3.274239
    18  H    3.621394   3.850138   2.561340   3.752127   3.060866
                   16         17         18
    16  H    0.000000
    17  H    3.653407   0.000000
    18  H    2.706403   1.638680   0.000000
 Stoichiometry    C4H12N2
 Framework group  C1[X(C4H12N2)]
 Deg. of freedom    48
 Full point group                 C1      NOp   1
 Largest Abelian subgroup         C1      NOp   1
 Largest concise Abelian subgroup C1      NOp   1
                         Standard orientation:                         
 ---------------------------------------------------------------------
 Center     Atomic      Atomic             Coordinates (Angstroms)
 Number     Number       Type             X           Y           Z
 ---------------------------------------------------------------------
      1          6           0       -1.386462    1.317408   -0.053101
      2          6           0       -0.645987    0.026942    0.320235
      3          6           0       -1.495991   -1.182554   -0.086644
      4          7           0        0.683380   -0.035394   -0.323210
      5          6           0        1.539405    1.100239   -0.001987
      6          7           0        1.421268   -1.219378    0.011957
      7          1           0       -2.408118    1.281069    0.336523
      8          1           0       -1.438026    1.422945   -1.141590
      9          1           0       -0.913988    2.212127    0.357132
     10          1           0       -0.518142    0.005345    1.423515
     11          1           0       -1.599458   -1.223747   -1.176029
     12          1           0       -2.494945   -1.100608    0.351452
     13          1           0       -1.070195   -2.129386    0.254987
     14          1           0        1.116838    2.027066   -0.394257
     15          1           0        2.509855    0.934137   -0.471269
     16          1           0        1.698348    1.222304    1.087046
     17          1           0        1.036217   -1.989263   -0.523793
     18          1           0        1.283290   -1.450795    1.004041
 ---------------------------------------------------------------------
 Rotational constants (GHZ):           4.5029429           3.1314107           2.0058762
 Standard basis: 6-31G(2df,p) (6D, 7F)
 There are   246 symmetry adapted cartesian basis functions of A   symmetry.
 There are   228 symmetry adapted basis functions of A   symmetry.
   228 basis functions,   348 primitive gaussians,   246 cartesian basis functions
    25 alpha electrons       25 beta electrons
       nuclear repulsion energy       269.1097448685 Hartrees.
 NAtoms=   18 NActive=   18 NUniq=   18 SFac= 1.00D+00 NAtFMM=   60 NAOKFM=F Big=F
 Integral buffers will be    131072 words long.
 Raffenetti 2 integral format.
 Two-electron integral symmetry is turned on.
 One-electron integrals computed using PRISM.
 PrsmSu:  requested number of processors reduced to:  13 ShMem   1 Linda.
 NBasis=   228 RedAO= T EigKep=  3.44D-04  NBF=   228
 NBsUse=   228 1.00D-06 EigRej= -1.00D+00 NBFU=   228
 Initial guess from the checkpoint file:  "CCpCpNpCpN.chk"
 B after Tr=    -0.000000    0.000000    0.000000
         Rot=    0.999995   -0.000991    0.002887   -0.000342 Ang=  -0.35 deg.
 ExpMin= 1.61D-01 ExpMax= 4.17D+03 ExpMxC= 6.27D+02 IAcc=2 IRadAn=         4 AccDes= 0.00D+00
 Harris functional with IExCor=  402 and IRadAn=       4 diagonalized for initial guess.
 HarFok:  IExCor=  402 AccDes= 0.00D+00 IRadAn=         4 IDoV= 1 UseB2=F ITyADJ=14
 ICtDFT=  3500011 ScaDFX=  1.000000  1.000000  1.000000  1.000000
 FoFCou: FMM=F IPFlag=           0 FMFlag=      100000 FMFlg1=           0
         NFxFlg=           0 DoJE=T BraDBF=F KetDBF=T FulRan=T
         wScrn=  0.000000 ICntrl=       500 IOpCl=  0 I1Cent=   200000004 NGrid=           0
         NMat0=    1 NMatS0=      1 NMatT0=    0 NMatD0=    1 NMtDS0=    0 NMtDT0=    0
 Petite list used in FoFCou.
 Requested convergence on RMS density matrix=1.00D-08 within 128 cycles.
 Requested convergence on MAX density matrix=1.00D-06.
 Requested convergence on             energy=1.00D-06.
 No special actions if energy rises.
 Integral accuracy reduced to 1.0D-05 until final iterations.
 Initial convergence to 1.0D-05 achieved.  Increase integral accuracy.
 SCF Done:  E(RB3LYP) =  -269.135853265     A.U. after   10 cycles
            NFock= 10  Conv=0.53D-08     -V/T= 2.0084
 PrsmSu:  requested number of processors reduced to:  13 ShMem   1 Linda.
 Calling FoFJK, ICntrl=      2127 FMM=F ISym2X=0 I1Cent= 0 IOpClX= 0 NMat=1 NMatS=1 NMatT=0.
 ***** Axes restored to original set *****
 -------------------------------------------------------------------
 Center     Atomic                   Forces (Hartrees/Bohr)
 Number     Number              X              Y              Z
 -------------------------------------------------------------------
      1        6          -0.000129636   -0.000318807   -0.000040887
      2        6           0.001448441    0.000636994    0.001448384
      3        6           0.000215115   -0.000188265   -0.000437466
      4        7           0.000682282    0.000168740   -0.000815154
      5        6           0.000674517    0.000281116   -0.000102215
      6        7          -0.002253449   -0.001755185   -0.001299361
      7        1          -0.000134615    0.000114423    0.000110979
      8        1          -0.000061669    0.000185609    0.000044859
      9        1           0.000268184   -0.000187296    0.000163265
     10        1          -0.000054658   -0.000234713   -0.000173415
     11        1          -0.000064962    0.000191225    0.000018610
     12        1          -0.000010412    0.000141695   -0.000056352
     13        1          -0.000022309   -0.000019370    0.000549905
     14        1          -0.000101324    0.000120444   -0.000272984
     15        1           0.000131061   -0.000347158    0.000019479
     16        1          -0.000386056   -0.000094308    0.000344814
     17        1          -0.000118792    0.000503449   -0.000374188
     18        1          -0.000081718    0.000801407    0.000871728
 -------------------------------------------------------------------
 Cartesian Forces:  Max     0.002253449 RMS     0.000601675

 GradGradGradGradGradGradGradGradGradGradGradGradGradGradGradGradGradGrad
 Berny optimization.
 Using GEDIIS/GDIIS optimizer.
 FormGI is forming the generalized inverse of G from B-inverse, IUseBI=4.
 Internal  Forces:  Max     0.002492858 RMS     0.000488240
 Search for a local minimum.
 Step number   3 out of a maximum of   91
 All quantities printed in internal units (Hartrees-Bohrs-Radians)
 Mixed Optimization -- En-DIIS/RFO-DIIS
 Update second derivatives using D2CorX and points    1    2    3
 DE= -5.29D-04 DEPred=-5.83D-04 R= 9.06D-01
 TightC=F SS=  1.41D+00  RLast= 2.94D-01 DXNew= 8.4853D-01 8.8210D-01
 Trust test= 9.06D-01 RLast= 2.94D-01 DXMaxT set to 8.49D-01
 ITU=  1  1  0
 Use linear search instead of GDIIS.
     Eigenvalues ---    0.00244   0.00271   0.00513   0.00672   0.00750
     Eigenvalues ---    0.02732   0.04036   0.04796   0.05282   0.05307
     Eigenvalues ---    0.05502   0.05590   0.05632   0.05840   0.07059
     Eigenvalues ---    0.07458   0.14946   0.15998   0.16000   0.16000
     Eigenvalues ---    0.16000   0.16000   0.16000   0.16000   0.16000
     Eigenvalues ---    0.16262   0.16322   0.16987   0.17550   0.18109
     Eigenvalues ---    0.19939   0.28487   0.28664   0.32365   0.33940
     Eigenvalues ---    0.34038   0.34096   0.34122   0.34144   0.34179
     Eigenvalues ---    0.34199   0.34307   0.34403   0.34432   0.35997
     Eigenvalues ---    0.41773   0.44462   0.47284
 RFO step:  Lambda=-1.29224249D-04 EMin= 2.44101873D-03
 Quartic linear search produced a step of -0.04123.
 Iteration  1 RMS(Cart)=  0.02513945 RMS(Int)=  0.00026023
 Iteration  2 RMS(Cart)=  0.00030451 RMS(Int)=  0.00000530
 Iteration  3 RMS(Cart)=  0.00000004 RMS(Int)=  0.00000530
 Variable       Old X    -DE/DX   Delta X   Delta X   Delta X     New X
                                 (Linear)    (Quad)   (Total)
    R1        2.89873   0.00005   0.00016  -0.00066  -0.00050   2.89824
    R2        2.06742  -0.00008   0.00000  -0.00030  -0.00030   2.06713
    R3        2.06889   0.00020  -0.00000   0.00051   0.00051   2.06940
    R4        2.06322   0.00012   0.00007  -0.00005   0.00003   2.06325
    R5        2.89747   0.00007   0.00003  -0.00018  -0.00015   2.89732
    R6        2.79342  -0.00206   0.00011  -0.00670  -0.00659   2.78683
    R7        2.09924   0.00024  -0.00025   0.00227   0.00202   2.10127
    R8        2.06937   0.00020  -0.00001   0.00057   0.00056   2.06992
    R9        2.06711   0.00003   0.00000  -0.00004  -0.00003   2.06708
   R10        2.06535  -0.00007   0.00006  -0.00051  -0.00045   2.06489
   R11        2.75513  -0.00009  -0.00024   0.00007  -0.00017   2.75496
   R12        2.71137  -0.00249  -0.00045  -0.00550  -0.00595   2.70542
   R13        2.06270   0.00008  -0.00002   0.00022   0.00020   2.06290
   R14        2.06109  -0.00002   0.00010  -0.00076  -0.00065   2.06044
   R15        2.09253  -0.00006  -0.00015   0.00092   0.00077   2.09330
   R16        1.91601   0.00054  -0.00018   0.00158   0.00140   1.91742
   R17        1.94267  -0.00111  -0.00022  -0.00131  -0.00153   1.94115
    A1        1.91364   0.00035   0.00007   0.00172   0.00179   1.91543
    A2        1.92390   0.00003   0.00013  -0.00091  -0.00078   1.92312
    A3        1.97041  -0.00055   0.00010  -0.00365  -0.00355   1.96686
    A4        1.88946  -0.00013  -0.00006   0.00017   0.00011   1.88957
    A5        1.87289   0.00012  -0.00019   0.00207   0.00189   1.87478
    A6        1.89120   0.00020  -0.00007   0.00079   0.00072   1.89192
    A7        1.90861   0.00082  -0.00013   0.00594   0.00581   1.91442
    A8        1.94298  -0.00033  -0.00001  -0.00233  -0.00233   1.94065
    A9        1.88981  -0.00024   0.00006  -0.00154  -0.00149   1.88832
   A10        1.92813  -0.00045  -0.00010  -0.00261  -0.00270   1.92542
   A11        1.88811  -0.00008  -0.00001   0.00075   0.00074   1.88885
   A12        1.90497   0.00029   0.00019  -0.00013   0.00006   1.90503
   A13        1.92415   0.00005   0.00015  -0.00141  -0.00126   1.92288
   A14        1.91866   0.00034  -0.00011   0.00314   0.00303   1.92169
   A15        1.96541  -0.00062   0.00010  -0.00429  -0.00419   1.96122
   A16        1.89121  -0.00012  -0.00003   0.00033   0.00029   1.89150
   A17        1.89144   0.00011  -0.00003  -0.00088  -0.00092   1.89053
   A18        1.87077   0.00026  -0.00008   0.00333   0.00325   1.87402
   A19        1.98152   0.00047  -0.00044   0.00420   0.00378   1.98529
   A20        1.97753  -0.00094  -0.00021  -0.00409  -0.00430   1.97323
   A21        1.86433   0.00043  -0.00117   0.00631   0.00516   1.86949
   A22        1.93361  -0.00062  -0.00039  -0.00307  -0.00346   1.93015
   A23        1.88493   0.00029   0.00011   0.00070   0.00081   1.88574
   A24        1.96799   0.00073   0.00019   0.00397   0.00416   1.97215
   A25        1.89562   0.00018  -0.00041   0.00422   0.00381   1.89943
   A26        1.89168  -0.00021   0.00028  -0.00331  -0.00303   1.88865
   A27        1.88834  -0.00038   0.00021  -0.00238  -0.00217   1.88617
   A28        1.88373  -0.00060  -0.00086  -0.00165  -0.00250   1.88123
   A29        1.92002   0.00073  -0.00091   0.00702   0.00612   1.92614
   A30        1.86296   0.00003   0.00003   0.00047   0.00052   1.86348
    D1        0.88778   0.00015   0.00246  -0.01379  -0.01133   0.87645
    D2        3.02321  -0.00008   0.00223  -0.01456  -0.01233   3.01089
    D3       -1.16586  -0.00007   0.00251  -0.01712  -0.01461  -1.18048
    D4       -1.19062   0.00008   0.00241  -0.01451  -0.01210  -1.20271
    D5        0.94482  -0.00015   0.00218  -0.01527  -0.01309   0.93173
    D6        3.03892  -0.00014   0.00246  -0.01784  -0.01538   3.02354
    D7        2.97489   0.00018   0.00234  -0.01236  -0.01002   2.96487
    D8       -1.17286  -0.00005   0.00211  -0.01312  -0.01102  -1.18388
    D9        0.92125  -0.00004   0.00239  -0.01569  -0.01331   0.90794
   D10        1.13860  -0.00005  -0.00109  -0.01970  -0.02079   1.11781
   D11       -0.94523  -0.00014  -0.00107  -0.02119  -0.02226  -0.96750
   D12       -3.02985  -0.00030  -0.00095  -0.02475  -0.02570  -3.05554
   D13       -1.00570   0.00011  -0.00092  -0.01904  -0.01997  -1.02567
   D14       -3.08953   0.00002  -0.00090  -0.02054  -0.02144  -3.11098
   D15        1.10904  -0.00013  -0.00078  -0.02410  -0.02488   1.08416
   D16       -3.08987   0.00007  -0.00109  -0.01781  -0.01891  -3.10878
   D17        1.10948  -0.00002  -0.00107  -0.01931  -0.02038   1.08910
   D18       -0.97513  -0.00017  -0.00096  -0.02287  -0.02382  -0.99895
   D19        0.99724  -0.00051   0.00167  -0.03300  -0.03133   0.96592
   D20        3.12806  -0.00031  -0.00036  -0.02447  -0.02483   3.10323
   D21        3.12138  -0.00001   0.00143  -0.02883  -0.02740   3.09397
   D22       -1.03099   0.00019  -0.00061  -0.02030  -0.02091  -1.05190
   D23       -1.08786  -0.00019   0.00147  -0.02956  -0.02808  -1.11595
   D24        1.04295   0.00000  -0.00056  -0.02103  -0.02159   1.02137
   D25       -1.12546  -0.00033   0.00001  -0.01648  -0.01647  -1.14192
   D26        3.08369  -0.00037   0.00067  -0.02026  -0.01958   3.06411
   D27        0.99817  -0.00053   0.00021  -0.02019  -0.01997   0.97819
   D28        2.96524   0.00024   0.00140  -0.01882  -0.01742   2.94781
   D29        0.89120   0.00021   0.00206  -0.02260  -0.02054   0.87066
   D30       -1.19432   0.00004   0.00161  -0.02253  -0.02093  -1.21525
   D31        1.33835  -0.00024  -0.00368  -0.00590  -0.00958   1.32877
   D32       -0.68804  -0.00033  -0.00279  -0.00931  -0.01209  -0.70013
   D33       -2.74994   0.00004  -0.00521   0.00142  -0.00381  -2.75375
   D34        1.50685  -0.00005  -0.00432  -0.00199  -0.00631   1.50054
         Item               Value     Threshold  Converged?
 Maximum Force            0.002493     0.000450     NO 
 RMS     Force            0.000488     0.000300     NO 
 Maximum Displacement     0.092508     0.001800     NO 
 RMS     Displacement     0.025170     0.001200     NO 
 Predicted change in Energy=-6.650607D-05
 GradGradGradGradGradGradGradGradGradGradGradGradGradGradGradGradGradGrad

                          Input orientation:                          
 ---------------------------------------------------------------------
 Center     Atomic      Atomic             Coordinates (Angstroms)
 Number     Number       Type             X           Y           Z
 ---------------------------------------------------------------------
[...]
 7581,0.0222996,0.0979541,-0.2715986,0.0803681,-0.4428091,0.0060802,0.0
 027071,-0.0475019,0.0008124,0.060956,-0.0138251,-0.0935454,-0.019473,-
 0.127846,0.0129499,0.0217442,0.014973,0.0729812,-0.0768349,-0.0508223,
 0.0486187,-0.059423,0.03783,-0.0090348,-0.0404279,0.0546373,-0.0544111
 ,-0.0538381,0.0838425,0.0712393,0.0824828,0.0046355,-0.09252,0.1058987
 ,0.0302524,0.0497239,-0.2198462,-0.0915339,-0.0309764,0.0183344,-0.088
 7111,0.0332148,0.0508915,0.0205408,0.0322576,-0.1067217,-0.003771,0.02
 89168,-0.0653709,0.0396028,0.0324128,-0.0135798,-0.0861948,-0.0230507,
 0.0329812,-0.0400857,-0.0568666,-0.0053156,-0.1206793,-0.1621399,-0.02
 68995,0.0397481,-0.0070808,0.0221603,0.01194,0.0106401,0.0047616,0.080
 0014,-0.1476189,0.0031394,0.06394,0.0206089,0.0150768,0.0320685,0.0220
 992,0.0049763,0.069697,0.0444674,-0.0068369,-0.09934,-0.0266234,0.0326
 137,-0.0230071,-0.0428513,-0.0094471,-0.0905885,0.0082139,0.0548297,0.
 0359728,-0.0056112,-0.2420719,0.0746372,0.0430101,-0.0833404,-0.036717
 7,0.1354539,0.0080066,0.0734793,0.0167234,0.0748289,0.0721541,0.177444
 ,0.1152224,0.1772844,0.0561082,-0.044421,0.0454566,0.081468,0.0068928,
 -0.1079014,0.1955268,-0.1442013,0.1250682\Polar=64.5538085,2.1635184,5
 5.2049616,0.7404634,-4.2007102,63.516793\Quadrupole=0.7921004,0.185637
 5,-0.9777378,0.3355814,-1.9131028,-0.5874303\PG=C01 [X(C4H12N2)]\NImag
 =0\\0.46109129,0.00839109,0.57280966,-0.00677584,-0.00357156,0.5778677
 0,-0.17860592,0.00271646,0.00692547,0.50147322,0.00113405,-0.07852520,
 -0.00089637,-0.02627689,0.53641898,0.00241695,-0.00027460,-0.07883848,
 -0.02309382,-0.00346647,0.45919662,-0.01913725,-0.02652244,0.02375212,
 -0.08993873,-0.02414457,0.02337572,0.56774039,-0.00544231,-0.00155392,
 0.00162108,-0.02426550,-0.13024393,0.04740066,-0.01908106,0.51777666,0
 .00607285,0.00255119,-0.00101562,0.02128256,0.04315230,-0.11415158,0.0
 2223962,0.05207008,0.52607108,-0.01770599,-0.00822362,-0.03423216,-0.0
 8978939,-0.02809496,-0.02376123,0.00613657,0.00527402,0.00922157,0.465
 74756,-0.00159431,-0.00049768,-0.00176539,-0.00435221,-0.07674070,0.00
 244096,0.00784333,0.00696123,0.02178903,0.07203240,0.29127382,-0.00594
 052,0.00012997,0.00046318,0.00021754,-0.03983057,-0.16378579,-0.009330
 79,-0.00293555,-0.03594289,-0.02020061,-0.06716156,0.49051762,0.001307
 97,0.00083066,-0.00121969,0.01020189,0.00922549,-0.00311070,-0.0018589
 6,-0.00136801,-0.00384731,-0.09533253,-0.01602945,0.01073043,0.6049021
 7,0.00061385,0.00015470,-0.00053384,0.00722682,-0.00369830,-0.00851118
 ,-0.00060655,-0.00077286,-0.00125748,-0.04899194,-0.11550689,0.0819097
 4,-0.00821394,0.49196102,-0.00266649,-0.00135545,-0.00210107,0.0066023
 7,0.02361228,-0.03513484,-0.00272291,-0.00213527,-0.00350762,0.0278879
 1,0.04226180,-0.14984243,0.03801499,0.04597138,0.54190940,0.00033966,-
 0.00068059,-0.00627272,-0.03907400,0.00896910,-0.00555287,0.00118290,-
 0.00016161,0.00090681,-0.19824499,-0.03069438,-0.03141188,-0.03893365,
 0.00139160,0.00935066,0.43290613,0.00032914,0.00069980,-0.00115561,-0.
 01161746,-0.00741271,-0.00709767,0.00105693,0.00084447,0.00076284,0.01
 396143,-0.07919722,0.00716322,-0.03297881,-0.00682412,0.00592748,0.054
 05384,0.65726302,-0.00061139,-0.00128539,-0.00637612,-0.03593288,-0.00
 022822,-0.00095968,0.00012528,-0.00041655,-0.00290218,0.03512681,0.003
 89806,-0.07569409,0.03123385,0.00002962,-0.00011177,-0.12948988,-0.005
 44556,0.29961257,-0.07148249,-0.00798734,-0.07672733,-0.00928987,-0.00
 545887,-0.03276693,0.00103297,0.00009186,-0.00162837,-0.00580220,0.000
 40712,0.00308653,-0.00038492,-0.00036602,0.00111381,-0.00216047,-0.000
 30881,-0.00233164,0.07985467,-0.00807226,-0.04896795,-0.02579497,0.000
 28632,-0.00171045,0.00031967,-0.00046895,0.00003791,-0.00054197,-0.000
 96546,0.00004891,-0.00010364,-0.00019385,0.00012615,0.00073294,-0.0001
 0635,0.00062442,-0.00015670,0.01061042,0.04902096,-0.07951905,-0.02674
 731,-0.28235527,0.00124995,-0.00027856,-0.00094891,0.00133590,0.000291
 22,0.00006201,0.00028241,0.00080250,0.00080267,0.00064234,-0.00038261,
 -0.00046896,0.00015235,0.00000633,0.00025521,0.08525466,0.02802154,0.3
 0679085,-0.07932592,0.07873068,0.03445188,-0.01390382,0.03147169,0.013
 40520,0.00138090,0.00129811,-0.00061805,0.00286370,-0.00016731,0.00075
 922,-0.00014020,0.00022432,-0.00027330,-0.00005078,-0.00056952,-0.0001
 4407,0.00333809,-0.00955731,-0.00315976,0.08779847,0.07972817,-0.24069
 336,-0.08122883,0.00092389,-0.00106024,0.00040681,-0.00024112,0.000802
 41,0.00015758,-0.00027740,0.00067117,0.00012968,0.00057669,-0.00020408
 ,-0.00015778,-0.00014239,0.00025837,0.00037185,0.00011061,-0.00195856,
 -0.00000063,-0.08912481,0.26037610,0.03531234,-0.08160744,-0.08181776,
 -0.00077998,0.00072564,-0.00064463,-0.00002819,-0.00061997,-0.00030688
 ,0.00005278,0.00074349,0.00095212,-0.00007269,0.00062212,0.00010832,-0
 .00023184,0.00004955,0.00005157,0.01166534,-0.02652266,-0.00998005,-0.
 03883190,0.09036941,0.08446388,-0.08244654,-0.07249203,0.05145352,-0.0
 0997834,-0.02627406,0.01927968,-0.00683390,0.00109704,-0.00148626,0.00
 107711,0.00023177,0.00058462,-0.00065313,-0.00061901,0.00001722,0.0001
 1054,0.00039898,-0.00050181,0.00334801,0.00852705,-0.00504902,0.003980
 49,0.00867278,-0.00742731,0.08990273,-0.07475575,-0.20293402,0.1088996
 8,0.00174514,0.00013256,-0.00153173,-0.00016299,0.00092962,-0.00030662
 ,-0.00051934,0.00006418,0.00036432,-0.00087068,0.00055626,0.00168411,-
 0.00009734,0.00019097,-0.00049351,0.00212454,0.00292870,-0.00245804,-0
 .01001036,-0.01975430,0.01591196,0.08088370,0.21656846,0.05327628,0.10
 977128,-0.12241569,-0.00053673,-0.00162190,-0.00079240,0.00068939,-0.0
 0039726,0.00016014,0.00023714,-0.00016651,0.00023890,-0.00090380,-0.00
 030858,-0.00172904,0.00004617,0.00018064,0.00018849,0.01102698,0.02377
 782,-0.01580579,-0.00524553,-0.00996292,0.00668486,-0.05706736,-0.1211
 1729,0.13480006,-0.01439169,0.03002632,0.00904185,-0.07479439,0.065539
 83,0.01626915,0.00337835,-0.01114027,-0.00095798,0.00083132,-0.0100613
 0,-0.00726269,-0.00045730,-0.00020377,0.00067951,0.00558636,-0.0036724
 6,-0.00130457,0.00088199,-0.00021469,-0.00055249,-0.00671833,0.0002017
 6,-0.00022161,0.00161628,-0.00048487,0.00035009,0.08267906,-0.00054425
 ,-0.00000868,0.00048170,0.06790841,-0.22223042,-0.04054344,0.00781008,
 -0.02265601,-0.00380176,-0.00031100,-0.01109774,-0.01585360,-0.0012062
 7,0.00131160,0.00171637,0.00076924,0.00264624,0.00151931,0.00062691,-0
 .00005286,0.00027096,-0.00058800,0.00132249,0.00015856,0.00048576,0.00
 086752,-0.00022365,-0.07115515,0.24978168,0.00122690,-0.00000767,0.001
 02950,0.01718878,-0.04378304,-0.05844918,-0.00644184,0.02102421,0.0050
 9299,0.00306644,-0.03521646,-0.02954071,-0.00140025,-0.00551417,0.0039
 9623,0.00588244,0.00083091,0.00078007,0.00047091,0.00016071,0.00020177
 ,-0.00029361,-0.00002217,0.00062580,-0.00008601,-0.00043586,0.00003470
 ,-0.01889057,0.05541542,0.07523966,0.00101202,-0.00062847,-0.00071059,
 0.00268011,-0.01040906,-0.00359150,-0.07236432,0.07271836,0.02078526,0
 .00036798,0.00052672,-0.00031468,-0.00002530,-0.00007399,-0.00011469,-
 0.00025209,0.00012475,-0.00043188,0.00000228,-0.00004849,-0.00008381,-
 0.00003686,0.00009522,0.00035315,0.00004291,0.00025674,-0.00005963,0.0
 0011083,-0.00175440,0.00164897,0.07390021,0.00109496,0.00076833,-0.000
 71136,0.00701788,-0.02403570,-0.00646262,0.07199418,-0.26564937,-0.061
 99840,-0.00013310,0.00245994,-0.00121825,-0.00004392,0.00037221,0.0001
 2915,0.00045179,-0.00005350,0.00043886,-0.00010300,-0.00006173,0.00001
 769,-0.00097580,0.00032628,0.00033087,-0.00007936,0.00046739,0.0001580
 3,-0.00204384,-0.00223716,0.00379813,-0.07866750,0.29234456,-0.0011022
 3,-0.00029996,0.00061836,-0.00696073,0.02242619,0.00538690,0.02060021,
 -0.06336903,-0.06384679,-0.00018985,-0.00068715,0.00261609,0.00031428,
 0.00032921,-0.00024897,-0.00048807,-0.00014555,-0.00005018,0.00014284,
 -0.00015957,-0.00002913,0.00029548,-0.00030791,0.00010822,-0.00018766,
 -0.00012816,-0.00006644,0.00154552,0.00330338,-0.00269061,-0.02405025,
 0.06655149,0.06595226,0.00033923,0.00014198,0.00108132,0.00251494,0.00
 318017,0.01016696,-0.08165728,-0.02173214,-0.09035934,-0.00220999,-0.0
 0197706,0.00234507,0.00058562,-0.00008328,0.00057554,0.00005273,0.0000
 6733,-0.00168352,-0.00040279,-0.00045309,0.00040507,-0.00004689,-0.000
 00514,0.00008303,0.00012633,0.00015367,-0.00008434,0.00015413,0.000307
 79,-0.00045196,0.00336101,0.00193219,0.01008783,0.08808550,0.00070662,
 0.00049658,-0.00000763,0.00884014,0.00536266,0.01984936,-0.02201920,-0
 .06007592,-0.05444947,-0.00252201,-0.00274931,0.00269451,0.00077114,0.
 00067974,0.00125421,-0.00036441,0.00002323,0.00017671,-0.00034576,0.00
 019515,0.00004620,-0.00010625,0.00002844,-0.00009032,0.00029623,-0.000
 05884,-0.00007477,0.00054066,0.00048944,-0.00080933,-0.01245789,-0.005
 37684,-0.02633450,0.02588583,0.06215882,-0.00144551,-0.00106004,0.0000
 5151,-0.00857980,-0.00826307,-0.01849972,-0.08789358,-0.05214095,-0.26
 135882,0.00244351,0.00423745,-0.00305392,-0.00142242,-0.00036060,-0.00
 049015,0.00082935,0.00005214,0.00003776,0.00101943,0.00029252,0.000785
 20,0.00001613,0.00005329,0.00004959,-0.00000901,0.00009743,0.00058874,
 -0.00022792,0.00047938,0.00074656,-0.00264990,-0.00098471,-0.00645425,
 0.09663816,0.05647833,0.28534606,0.00029770,-0.00274912,0.00183015,-0.
 01000028,0.00124904,-0.00018325,-0.30970146,0.00270163,0.01841319,-0.0
 0117531,-0.00046889,-0.00020190,0.00013914,0.00004463,0.00016512,0.000
 04430,0.00045784,-0.00335662,0.00044835,0.00018736,0.00008546,0.000232
 75,0.00009802,-0.00010462,-0.00081950,0.00009790,0.00017638,0.00077002
 ,-0.00043164,0.00013623,-0.00850733,-0.00041822,-0.00019050,-0.0115470
 4,0.00066905,0.00092082,0.33904294,-0.00084699,-0.00296048,0.00350127,
 -0.02341111,0.00046349,-0.00055358,0.00433512,-0.04794352,-0.00055558,
 0.00016074,0.00053443,-0.00078518,-0.00014081,-0.00003222,-0.00011658,
 0.00020720,0.00041151,-0.00027663,0.00039277,-0.00013955,0.00014587,-0
 .00041144,0.00012748,0.00029169,-0.00159856,0.00027931,0.00039980,0.00
 031253,0.00086324,-0.00094366,0.03021736,0.00075298,-0.00066090,-0.007
 67967,-0.00075665,0.00070881,-0.00209901,0.04868126,0.00010722,0.00316
 742,-0.00328330,0.02239681,-0.00245115,-0.00048034,0.01685132,-0.00029
 213,-0.04658566,0.00034999,-0.00051130,0.00069012,-0.00002723,0.000165
 56,-0.00004346,-0.00046714,-0.00000944,0.00014797,0.00010973,0.0001200
 0,0.00037892,-0.00026914,-0.00000402,0.00006459,0.00149102,0.00019940,
 0.00033242,-0.00085546,-0.00054767,0.00066742,0.00899934,0.00017814,-0
 .00125748,-0.02958664,0.00107434,0.00249374,-0.01725660,-0.00138010,0.
 04990446,-0.00122633,-0.00081254,-0.00210765,-0.00103959,-0.00033794,-
 0.00024277,0.00012227,0.00009723,0.00011033,-0.01025711,-0.00176533,0.
 00055044,-0.30356402,0.03656564,0.03005377,-0.00120607,-0.00223639,0.0
 0234603,0.00034593,0.00046402,-0.00062920,0.00000523,-0.00015622,0.000
 03515,0.00023258,0.00087216,-0.00183458,0.00007517,0.00015014,0.000164
 42,-0.00001835,-0.00002207,-0.00003022,0.00006860,-0.00001049,0.000137
 44,0.00006751,0.00006158,-0.00015103,0.33441467,0.00042055,0.00110701,
 0.00033671,0.00007392,0.00040408,-0.00023907,-0.00016410,0.00007531,-0
 .00011034,-0.02195812,0.00129853,-0.00018981,0.04299004,-0.05471216,-0
 .00315172,-0.00385074,-0.00113380,0.00348631,-0.00000880,-0.00030874,0
 .00015834,0.00014033,-0.00031885,0.00017880,-0.00026922,-0.00018953,-0
 .00028594,0.00006085,0.00011510,0.00030956,0.00000951,-0.00001698,-0.0
 0002132,0.00007682,0.00001023,-0.00002505,0.00001107,-0.00000509,-0.00
 007610,-0.03739365,0.05740076,-0.00052150,0.00011390,-0.00176322,0.000
 95632,-0.00076800,0.00049782,-0.00017840,0.00012266,0.00013191,0.02426
 575,-0.00107512,-0.00188673,0.02197141,-0.00221648,-0.05213923,0.00243
 824,0.00234985,-0.00232169,-0.00023831,0.00007229,0.00013723,-0.000166
 89,0.00026597,-0.00009065,-0.00109974,-0.00050305,-0.00215508,-0.00018
 470,0.00001100,-0.00013578,0.00003379,0.00002203,0.00000031,-0.0000286
 9,-0.00002646,0.00000955,-0.00009774,-0.00008644,0.00013142,-0.0309139
 8,-0.00043869,0.05540966,-0.00041274,-0.00061913,-0.00052721,-0.001871
 83,-0.00143429,0.00188166,0.00053913,0.00005358,0.00062617,0.00374860,
 0.00143562,0.01212282,-0.10768491,-0.03220523,-0.11440047,0.00066720,-
 0.00013397,0.00235511,0.00014794,0.00018803,-0.00024394,0.00005970,-0.
 00008958,0.00009178,0.00025574,0.00062274,-0.00022375,0.00009729,-0.00
 004581,-0.00018404,-0.00001358,-0.00002814,0.00001284,-0.00001038,-0.0
 0018228,0.00019806,0.00003594,0.00007654,-0.00001990,-0.01220668,-0.00
 829902,-0.02569613,0.11341329,-0.00046408,-0.00014047,0.00008377,-0.00
 244787,-0.00176854,0.00172279,0.00036204,0.00066613,0.00109840,0.01052
 327,0.00318638,0.02340350,-0.03529832,-0.06683652,-0.06542413,0.001062
 28,0.00020838,0.00003848,0.00004538,0.00008089,0.00001481,-0.00000263,
 0.00008873,-0.00011312,0.00025022,0.00004623,-0.00008736,-0.00009590,0
 .00026936,0.00073121,0.00002960,0.00002443,-0.00011137,-0.00010795,-0.
 00030665,0.00028551,-0.00000911,0.00001099,-0.00002505,0.00301492,0.00
 083907,0.00509168,0.03771977,0.07149875,0.00074056,0.00010644,0.000427
 76,0.00338357,0.00357032,-0.00120905,-0.00085059,-0.00070146,-0.001027
 21,-0.01172071,-0.00142184,-0.02861364,-0.10541273,-0.05773932,-0.2371
 6243,-0.00212075,-0.00113578,0.00214414,-0.00007835,-0.00006023,0.0000
 9339,-0.00006672,0.00009142,-0.00001935,-0.00006182,-0.00018342,0.0001
 0335,0.00006133,-0.00016203,0.00009737,-0.00000408,0.00008181,0.000003
 56,0.00022058,0.00039475,-0.00034810,0.00014592,0.00000705,-0.00004547
 ,0.00191441,0.00122483,0.00529587,0.11718674,0.05900651,0.26463017,0.0
 0008461,0.00047910,0.00018131,-0.00016670,0.00011575,-0.00151028,-0.00
 000626,-0.00003818,-0.00004813,0.00279733,-0.01490571,0.00043949,-0.06
 066087,0.04115296,0.01007902,0.00331562,-0.00119855,-0.00133807,0.0000
 4699,-0.00013999,-0.00002220,0.00001928,-0.00020171,0.00001166,-0.0002
 1657,-0.00000394,0.00015589,-0.00016349,0.00055810,-0.00009249,-0.0000
 2133,0.00002088,-0.00000107,-0.00001624,0.00003702,0.00003062,-0.00002
 393,-0.00000809,0.00001849,-0.00506029,0.03047440,0.00771899,0.0032456
 6,-0.01468000,-0.00344341,0.05640939,-0.00013928,-0.00011538,0.0006168
 3,-0.00209265,0.00071682,-0.00427327,0.00009683,0.00061838,0.00040743,
 -0.00169041,-0.03077075,0.01127659,0.04219172,-0.25035253,-0.05074701,
 0.00213003,0.00212487,-0.00003555,0.00015831,0.00010153,0.00003085,-0.
 00015808,0.00013553,-0.00020507,0.00051689,-0.00003822,0.00000434,0.00
 001164,0.00108724,0.00248747,0.00002996,0.00021775,-0.00039022,-0.0000
 5134,-0.00000375,0.00028097,0.00001909,0.00001748,-0.00010234,0.001101
 37,-0.00430013,-0.00269033,0.00290005,-0.00779462,-0.00276987,-0.04286
 705,0.28806224,-0.00003914,-0.00009163,-0.00006864,-0.00005053,0.00405
 973,0.00542869,0.00013343,-0.00015898,-0.00028365,-0.00122716,0.032224
 88,-0.00094807,0.01043005,-0.04903691,-0.06302890,-0.00339021,0.000243
 88,0.00080140,-0.00010496,-0.00007631,0.00002386,0.00013294,0.00003550
 ,-0.00001344,-0.00012453,-0.00002449,-0.00004849,0.00056724,-0.0018665
 7,0.00075151,0.00000710,-0.00027608,-0.00001009,0.00002719,-0.00008630
 ,-0.00016009,-0.00002493,-0.00001802,0.00004477,-0.00065662,-0.0028868
 6,-0.00069082,0.00660541,-0.02558297,-0.00481207,-0.01246891,0.0451395
 9,0.06314491,0.00010643,0.00010679,-0.00013027,-0.00091084,-0.00228679
 ,0.00116670,0.00010660,0.00001976,-0.00009999,-0.02641737,-0.03231106,
 0.02231557,-0.00739658,-0.00032446,-0.00209039,-0.08237709,-0.08151144
 ,0.05115824,-0.00000758,0.00011062,-0.00004223,-0.00002089,-0.00000071
 ,0.00004432,0.00020112,0.00009096,0.00001316,-0.00003137,-0.00003115,-
 0.00031264,-0.00028353,0.00026185,-0.00006347,0.00040150,0.00024501,0.
 00008872,0.00056222,0.00006518,-0.00116456,-0.00048965,-0.00123987,0.0
 0126617,0.00023190,0.00037706,-0.00010908,-0.00009676,-0.00042458,-0.0
 0000426,0.11028662,0.00002073,0.00024692,0.00029177,0.00014664,-0.0006
 3627,0.00003626,-0.00090307,0.00051740,0.00138651,0.00240158,0.0065166
 3,0.00049740,-0.00002737,0.00126292,-0.00036618,-0.10107668,-0.3195426
 9,0.12183881,0.00011439,0.00000640,-0.00000732,-0.00000890,-0.00003821
 ,-0.00002814,0.00006159,0.00000524,-0.00003793,0.00017827,-0.00000705,
 0.00016710,0.00035717,-0.00032326,0.00006748,0.00069689,-0.00019335,-0
 .00011150,0.00113288,0.00025733,-0.00014042,0.00033082,0.00018610,-0.0
 0010943,0.00003084,-0.00006449,-0.00013683,0.00030795,0.00043853,-0.00
 031208,0.10593212,0.33856097,-0.00009260,0.00055902,-0.00035673,-0.001
 97031,-0.00239375,0.00045054,-0.00138499,0.00040775,-0.00031072,-0.007
 65333,-0.00426466,-0.00457935,0.00269387,0.00004655,-0.00011061,0.0801
 3657,0.16958373,-0.09081140,-0.00008250,0.00001588,0.00006603,-0.00005
 055,-0.00000804,-0.00001030,0.00015941,-0.00002025,-0.00008377,0.00023
 384,0.00023592,0.00012677,0.00008314,0.00007983,-0.00004411,0.00044235
 ,-0.00001442,0.00020752,-0.00045271,-0.00002753,-0.00274093,0.00093753
 ,0.00065764,-0.00032245,0.00039128,0.00024698,0.00051675,-0.00011276,-
 0.00005993,-0.00004769,-0.06553049,-0.14065041,0.09580890,0.00015596,-
 0.00070780,-0.00001416,0.00249353,0.00383232,0.00585133,-0.00012191,-0
 .00012251,-0.00061293,-0.03663529,0.03185003,0.02151135,-0.00004440,0.
 00446837,-0.00227165,-0.08190629,0.06377718,0.05478100,0.00008309,-0.0
 0015339,-0.00010644,0.00056508,-0.00016807,0.00004858,0.00005415,0.000
 05772,-0.00001577,0.00037579,-0.00254876,-0.00163169,0.00004533,-0.000
 25880,0.00026505,0.00020103,0.00001658,-0.00009412,0.00013401,0.000366
 66,-0.00052623,-0.00026385,-0.00107398,0.00047539,-0.00024228,-0.00027
 868,0.00021512,0.00051355,-0.00173250,0.00018789,0.00613528,-0.0096958
 5,-0.00774774,0.10845723,-0.00057992,0.00011414,-0.00016727,-0.0024219
 3,0.00456388,0.00077710,0.00081553,-0.00033399,-0.00035373,0.00933392,
 0.00354506,0.00050923,-0.00021432,0.00251508,0.00016440,0.06813940,-0.
 25113125,-0.12345989,-0.00010372,0.00002883,0.00006817,-0.00018474,-0.
 00010941,-0.00019537,-0.00008977,-0.00006151,-0.00000781,0.00220039,-0
 .00046400,0.00180765,-0.00032562,0.00002069,-0.00006212,-0.00035300,0.
 00007703,-0.00001993,-0.00049252,-0.00056200,0.00063485,0.00007674,-0.
 00045092,-0.00013537,0.00001030,-0.00000806,-0.00017234,0.00089708,-0.
 00014498,-0.00128638,0.01092071,-0.02719313,-0.02439429,-0.08762853,0.
 26959456,-0.00043884,-0.00009816,-0.00006611,-0.00229858,0.00643463,0.
 00293403,-0.00027169,0.00022951,-0.00027852,-0.00394928,0.00387182,-0.
 00239308,0.00138559,-0.00321302,0.00010554,0.07968275,-0.17216099,-0.1
 2479207,0.00006817,-0.00009732,-0.00000903,0.00005867,-0.00018920,-0.0
 0022589,0.00011505,0.00004552,-0.00003496,0.00170946,-0.00059327,0.001
 42592,0.00010025,-0.00013462,0.00001236,0.00012141,-0.00007521,0.00004
 882,-0.00000439,0.00034971,-0.00041917,0.00031653,0.00107271,-0.000108
 10,-0.00017643,-0.00037966,-0.00007504,0.00040186,0.00102954,-0.000083
 20,-0.00650551,0.01761492,0.00224155,-0.07031500,0.14629309,0.12171695
 \\-0.00000312,0.00000641,0.00000048,0.00001829,-0.00002408,-0.00001001
 ,-0.00001742,0.00000829,0.00001157,0.00000053,0.00001049,0.00001591,-0
 .00000058,-0.00000691,-0.00000856,-0.00000121,-0.00000397,-0.00002500,
 0.00000279,0.00000499,0.00000298,-0.00000201,0.00000212,-0.00000629,0.
 00000226,-0.00000515,0.00000217,-0.00000818,0.00001300,0.00000154,0.00
 000399,-0.00000236,-0.00000531,0.00000066,-0.00000469,0.00000117,0.000
 00826,-0.00000098,0.00000256,-0.00000115,0.00000100,0.00001100,-0.0000
 0123,0.00000376,0.00000259,0.00000217,0.00000384,-0.00000144,-0.000010
 52,-0.00000885,0.00000161,0.00000648,0.00000310,0.00000302\\\@


 IT TAKES GREATER CHARACTER TO CARRY OFF GOOD FORTUNE THAN BAD.
                     FRENCH PROVERB.
 Job cpu time:       0 days  1 hours 19 minutes 55.1 seconds.
 Elapsed time:       0 days  0 hours 20 minutes  0.2 seconds.
 File lengths (MBytes):  RWF=     77 Int=      0 D2E=      0 Chk=      5 Scr=      1
 Normal termination of Gaussian 16 at Mon May 31 19:15:40 2021.
### All Done ###
