### Starting Gaussian ###
 Entering Gaussian System, Link 0=g16
 Initial command:
 /cluster/software/gaussian/gaussian-16-A.03/avx2/g16/l1.exe "/local/scratch/cz9n3/Gau-16593.inp" -scrdir="/local/scratch/cz9n3/"
 Entering Link 1 = /cluster/software/gaussian/gaussian-16-A.03/avx2/g16/l1.exe PID=     16594.
  
 Copyright (c) 1988,1990,1992,1993,1995,1998,2003,2009,2016,
            Gaussian, Inc.  All Rights Reserved.
  
 This is part of the Gaussian(R) 16 program.  It is based on
 the Gaussian(R) 09 system (copyright 2009, Gaussian, Inc.),
 the Gaussian(R) 03 system (copyright 2003, Gaussian, Inc.),
 the Gaussian(R) 98 system (copyright 1998, Gaussian, Inc.),
 the Gaussian(R) 94 system (copyright 1995, Gaussian, Inc.),
 the Gaussian 92(TM) system (copyright 1992, Gaussian, Inc.),
 the Gaussian 90(TM) system (copyright 1990, Gaussian, Inc.),
 the Gaussian 88(TM) system (copyright 1988, Gaussian, Inc.),
 the Gaussian 86(TM) system (copyright 1986, Carnegie Mellon
 University), and the Gaussian 82(TM) system (copyright 1983,
 Carnegie Mellon University). Gaussian is a federally registered
 trademark of Gaussian, Inc.
  
 This software contains proprietary and confidential information,
 including trade secrets, belonging to Gaussian, Inc.
  
 This software is provided under written license and may be
 used, copied, transmitted, or stored only in accord with that
 written license.
  
 The following legend is applicable only to US Government
 contracts under FAR:
  
                    RESTRICTED RIGHTS LEGEND
  
 Use, reproduction and disclosure by the US Government is
 subject to restrictions as set forth in subparagraphs (a)
 and (c) of the Commercial Computer Software - Restricted
 Rights clause in FAR 52.227-19.
  
 Gaussian, Inc.
 340 Quinnipiac St., Bldg. 40, Wallingford CT 06492
  
  
 ---------------------------------------------------------------
 Warning -- This program may not be used in any manner that
 competes with the business of Gaussian, Inc. or will provide
 assistance to any competitor of Gaussian, Inc.  The licensee
 of this program is prohibited from giving any competitor of
 Gaussian, Inc. access to this program.  By using this program,
 the user acknowledges that Gaussian, Inc. is engaged in the
 business of creating and licensing software in the field of
 computational chemistry and represents and warrants to the
 licensee that it is not a competitor of Gaussian, Inc. and that
 it will not use this program in any manner prohibited above.
 ---------------------------------------------------------------
  

 Cite this work as:
 Gaussian 16, Revision A.03,
 M. J. Frisch, G. W. Trucks, H. B. Schlegel, G. E. Scuseria, 
 M. A. Robb, J. R. Cheeseman, G. Scalmani, V. Barone, 
 G. A. Petersson, H. Nakatsuji, X. Li, M. Caricato, A. V. Marenich, 
 J. Bloino, B. G. Janesko, R. Gomperts, B. Mennucci, H. P. Hratchian, 
 J. V. Ortiz, A. F. Izmaylov, J. L. Sonnenberg, D. Williams-Young, 
 F. Ding, F. Lipparini, F. Egidi, J. Goings, B. Peng, A. Petrone, 
 T. Henderson, D. Ranasinghe, V. G. Zakrzewski, J. Gao, N. Rega, 
 G. Zheng, W. Liang, M. Hada, M. Ehara, K. Toyota, R. Fukuda, 
 J. Hasegawa, M. Ishida, T. Nakajima, Y. Honda, O. Kitao, H. Nakai, 
 T. Vreven, K. Throssell, J. A. Montgomery, Jr., J. E. Peralta, 
 F. Ogliaro, M. J. Bearpark, J. J. Heyd, E. N. Brothers, K. N. Kudin, 
 V. N. Staroverov, T. A. Keith, R. Kobayashi, J. Normand, 
 K. Raghavachari, A. P. Rendell, J. C. Burant, S. S. Iyengar, 
 J. Tomasi, M. Cossi, J. M. Millam, M. Klene, C. Adamo, R. Cammi, 
 J. W. Ochterski, R. L. Martin, K. Morokuma, O. Farkas, 
 J. B. Foresman, and D. J. Fox, Gaussian, Inc., Wallingford CT, 2016.
 
 ******************************************
 Gaussian 16:  ES64L-G16RevA.03 25-Dec-2016
                31-May-2021 
 ******************************************
 %chk=CCpNpCpdNpCNCN.chk
 %NProcShared=20
 Will use up to   20 processors via shared memory.
 -----------------------------
 # opt freq b3lyp/6-31g(2df,p)
 -----------------------------
 1/18=20,19=15,26=3,38=1/1,3;
 2/9=110,12=2,17=6,18=5,40=1/2;
 3/5=1,6=6,7=104,11=2,25=1,30=1,71=1,74=-5/1,2,3;
 4//1;
 5/5=2,38=5/2;
 6/7=2,8=2,9=2,10=2,28=1/1;
 7//1,2,3,16;
 1/18=20,19=15,26=3/3(2);
 2/9=110/2;
 99//99;
 2/9=110/2;
 3/5=1,6=6,7=104,11=2,25=1,30=1,71=1,74=-5/1,2,3;
 4/5=5,16=3,69=1/1;
 5/5=2,38=5/2;
 7//1,2,3,16;
 1/18=20,19=15,26=3/3(-5);
 2/9=110/2;
 6/7=2,8=2,9=2,10=2,19=2,28=1/1;
 99/9=1/99;
 -------------------
 Title Card Required
 -------------------
 Symbolic Z-matrix:
 Charge =  0 Multiplicity = 1
 C                     0.93453  -0.00115  -0.04098 
 C                     2.45624   0.08545  -0.10612 
 N                     2.98043  -1.10174  -0.79538 
 C                     2.95719   1.36008  -0.82495 
 N                     2.15142   2.27117  -1.29564 
 C                     4.47601   1.55917  -0.92934 
 N                     4.78441   2.79253  -1.66747 
 C                     6.19251   3.0291   -1.7266 
 N                     6.32687   4.29296  -2.39754 
 H                     0.59691  -0.90495   0.47533 
 H                     0.49704  -0.00599  -1.04696 
 H                     0.52467   0.8609    0.49716 
 H                     2.86148   0.10147   0.9128 
 H                     2.61052  -1.13214  -1.74696 
 H                     2.62702  -1.94404  -0.33882 
 H                     1.16792   2.03727  -1.17825 
 H                     4.90138   0.70041  -1.4582 
 H                     4.8819    1.59155   0.08837 
 H                     4.31486   3.57534  -1.21168 
 H                     6.68814   2.24406  -2.30598 
 H                     6.64691   3.08788  -0.7339 
 H                     5.88016   4.19827  -3.30866 
 H                     7.31236   4.4646   -2.57981 
 

 GradGradGradGradGradGradGradGradGradGradGradGradGradGradGradGradGradGrad
 Berny optimization.
 Initialization pass.
                           ----------------------------
                           !    Initial Parameters    !
                           ! (Angstroms and Degrees)  !
 --------------------------                            --------------------------
 ! Name  Definition              Value          Derivative Info.                !
 --------------------------------------------------------------------------------
 ! R1    R(1,2)                  1.5256         estimate D2E/DX2                !
 ! R2    R(1,10)                 1.0943         estimate D2E/DX2                !
 ! R3    R(1,11)                 1.097          estimate D2E/DX2                !
 ! R4    R(1,12)                 1.0958         estimate D2E/DX2                !
 ! R5    R(2,3)                  1.4694         estimate D2E/DX2                !
 ! R6    R(2,4)                  1.5467         estimate D2E/DX2                !
 ! R7    R(2,13)                 1.0967         estimate D2E/DX2                !
 ! R8    R(3,14)                 1.0214         estimate D2E/DX2                !
 ! R9    R(3,15)                 1.0212         estimate D2E/DX2                !
 ! R10   R(4,5)                  1.3042         estimate D2E/DX2                !
 ! R11   R(4,6)                  1.5354         estimate D2E/DX2                !
 ! R12   R(5,16)                 1.0177         estimate D2E/DX2                !
 ! R13   R(6,7)                  1.4701         estimate D2E/DX2                !
 ! R14   R(6,17)                 1.0946         estimate D2E/DX2                !
 ! R15   R(6,18)                 1.0961         estimate D2E/DX2                !
 ! R16   R(7,8)                  1.4291         estimate D2E/DX2                !
 ! R17   R(7,19)                 1.0203         estimate D2E/DX2                !
 ! R18   R(8,9)                  1.4372         estimate D2E/DX2                !
 ! R19   R(8,20)                 1.0944         estimate D2E/DX2                !
 ! R20   R(8,21)                 1.0933         estimate D2E/DX2                !
 ! R21   R(9,22)                 1.0191         estimate D2E/DX2                !
 ! R22   R(9,23)                 1.0168         estimate D2E/DX2                !
 ! A1    A(2,1,10)             112.0112         estimate D2E/DX2                !
 ! A2    A(2,1,11)             111.0321         estimate D2E/DX2                !
 ! A3    A(2,1,12)             110.451          estimate D2E/DX2                !
 ! A4    A(10,1,11)            107.8179         estimate D2E/DX2                !
 ! A5    A(10,1,12)            107.6169         estimate D2E/DX2                !
 ! A6    A(11,1,12)            107.7377         estimate D2E/DX2                !
 ! A7    A(1,2,3)              109.2682         estimate D2E/DX2                !
 ! A8    A(1,2,4)              112.9349         estimate D2E/DX2                !
 ! A9    A(1,2,13)             109.2533         estimate D2E/DX2                !
 ! A10   A(3,2,4)              109.4061         estimate D2E/DX2                !
 ! A11   A(3,2,13)             108.4087         estimate D2E/DX2                !
 ! A12   A(4,2,13)             107.4624         estimate D2E/DX2                !
 ! A13   A(2,3,14)             109.3811         estimate D2E/DX2                !
 ! A14   A(2,3,15)             109.4646         estimate D2E/DX2                !
 ! A15   A(14,3,15)            105.4645         estimate D2E/DX2                !
 ! A16   A(2,4,5)              122.9102         estimate D2E/DX2                !
 ! A17   A(2,4,6)              117.3126         estimate D2E/DX2                !
 ! A18   A(5,4,6)              119.7391         estimate D2E/DX2                !
 ! A19   A(4,5,16)             113.2581         estimate D2E/DX2                !
 ! A20   A(4,6,7)              110.515          estimate D2E/DX2                !
 ! A21   A(4,6,17)             108.3937         estimate D2E/DX2                !
 ! A22   A(4,6,18)             107.8788         estimate D2E/DX2                !
 ! A23   A(7,6,17)             109.518          estimate D2E/DX2                !
 ! A24   A(7,6,18)             111.3283         estimate D2E/DX2                !
 ! A25   A(17,6,18)            109.1394         estimate D2E/DX2                !
 ! A26   A(6,7,8)              111.4919         estimate D2E/DX2                !
 ! A27   A(6,7,19)             108.8352         estimate D2E/DX2                !
 ! A28   A(8,7,19)             110.1777         estimate D2E/DX2                !
 ! A29   A(7,8,9)              104.8926         estimate D2E/DX2                !
 ! A30   A(7,8,20)             110.4511         estimate D2E/DX2                !
 ! A31   A(7,8,21)             112.386          estimate D2E/DX2                !
 ! A32   A(9,8,20)             109.9583         estimate D2E/DX2                !
 ! A33   A(9,8,21)             109.7389         estimate D2E/DX2                !
 ! A34   A(20,8,21)            109.3314         estimate D2E/DX2                !
 ! A35   A(8,9,22)             107.1379         estimate D2E/DX2                !
 ! A36   A(8,9,23)             108.8286         estimate D2E/DX2                !
 ! A37   A(22,9,23)            106.275          estimate D2E/DX2                !
 ! D1    D(10,1,2,3)            58.3225         estimate D2E/DX2                !
 ! D2    D(10,1,2,4)          -179.6647         estimate D2E/DX2                !
 ! D3    D(10,1,2,13)          -60.1312         estimate D2E/DX2                !
 ! D4    D(11,1,2,3)           -62.2778         estimate D2E/DX2                !
 ! D5    D(11,1,2,4)            59.7349         estimate D2E/DX2                !
 ! D6    D(11,1,2,13)          179.2685         estimate D2E/DX2                !
 ! D7    D(12,1,2,3)           178.2666         estimate D2E/DX2                !
 ! D8    D(12,1,2,4)           -59.7207         estimate D2E/DX2                !
 ! D9    D(12,1,2,13)           59.8129         estimate D2E/DX2                !
 ! D10   D(1,2,3,14)            60.9306         estimate D2E/DX2                !
 ! D11   D(1,2,3,15)           -54.1646         estimate D2E/DX2                !
 ! D12   D(4,2,3,14)           -63.1819         estimate D2E/DX2                !
 ! D13   D(4,2,3,15)          -178.2771         estimate D2E/DX2                !
 ! D14   D(13,2,3,14)          179.9101         estimate D2E/DX2                !
 ! D15   D(13,2,3,15)           64.8149         estimate D2E/DX2                !
 ! D16   D(1,2,4,5)              1.3868         estimate D2E/DX2                !
 ! D17   D(1,2,4,6)            179.1324         estimate D2E/DX2                !
 ! D18   D(3,2,4,5)            123.322          estimate D2E/DX2                !
 ! D19   D(3,2,4,6)            -58.9324         estimate D2E/DX2                !
 ! D20   D(13,2,4,5)          -119.1741         estimate D2E/DX2                !
 ! D21   D(13,2,4,6)            58.5714         estimate D2E/DX2                !
 ! D22   D(2,4,5,16)            -2.5533         estimate D2E/DX2                !
 ! D23   D(6,4,5,16)           179.7536         estimate D2E/DX2                !
 ! D24   D(2,4,6,7)            178.493          estimate D2E/DX2                !
 ! D25   D(2,4,6,17)            58.4692         estimate D2E/DX2                !
 ! D26   D(2,4,6,18)           -59.586          estimate D2E/DX2                !
 ! D27   D(5,4,6,7)             -3.6867         estimate D2E/DX2                !
 ! D28   D(5,4,6,17)          -123.7105         estimate D2E/DX2                !
 ! D29   D(5,4,6,18)           118.2344         estimate D2E/DX2                !
 ! D30   D(4,6,7,8)            177.4547         estimate D2E/DX2                !
 ! D31   D(4,6,7,19)            55.7194         estimate D2E/DX2                !
 ! D32   D(17,6,7,8)           -63.1989         estimate D2E/DX2                !
 ! D33   D(17,6,7,19)          175.0659         estimate D2E/DX2                !
 ! D34   D(18,6,7,8)            57.5873         estimate D2E/DX2                !
 ! D35   D(18,6,7,19)          -64.1479         estimate D2E/DX2                !
 ! D36   D(6,7,8,9)           -176.6082         estimate D2E/DX2                !
 ! D37   D(6,7,8,20)            64.9587         estimate D2E/DX2                !
 ! D38   D(6,7,8,21)           -57.4322         estimate D2E/DX2                !
 ! D39   D(19,7,8,9)           -55.6538         estimate D2E/DX2                !
 ! D40   D(19,7,8,20)         -174.0869         estimate D2E/DX2                !
 ! D41   D(19,7,8,21)           63.5222         estimate D2E/DX2                !
 ! D42   D(7,8,9,22)           -58.246          estimate D2E/DX2                !
 ! D43   D(7,8,9,23)          -172.7652         estimate D2E/DX2                !
 ! D44   D(20,8,9,22)           60.5198         estimate D2E/DX2                !
 ! D45   D(20,8,9,23)          -53.9995         estimate D2E/DX2                !
 ! D46   D(21,8,9,22)         -179.1838         estimate D2E/DX2                !
 ! D47   D(21,8,9,23)           66.2969         estimate D2E/DX2                !
 --------------------------------------------------------------------------------
 Trust Radius=3.00D-01 FncErr=1.00D-07 GrdErr=1.00D-06 EigMax=2.50D+02 EigMin=1.00D-04
 Number of steps in this run=    116 maximum allowed number of steps=    138.
 GradGradGradGradGradGradGradGradGradGradGradGradGradGradGradGradGradGrad

                          Input orientation:                          
 ---------------------------------------------------------------------
 Center     Atomic      Atomic             Coordinates (Angstroms)
 Number     Number       Type             X           Y           Z
 ---------------------------------------------------------------------
      1          6           0        0.934530   -0.001150   -0.040980
      2          6           0        2.456240    0.085450   -0.106120
      3          7           0        2.980430   -1.101740   -0.795380
      4          6           0        2.957190    1.360080   -0.824950
      5          7           0        2.151420    2.271170   -1.295640
      6          6           0        4.476010    1.559170   -0.929340
      7          7           0        4.784410    2.792530   -1.667470
      8          6           0        6.192510    3.029100   -1.726600
      9          7           0        6.326870    4.292960   -2.397540
     10          1           0        0.596910   -0.904950    0.475330
     11          1           0        0.497040   -0.005990   -1.046960
     12          1           0        0.524670    0.860900    0.497160
     13          1           0        2.861480    0.101470    0.912800
     14          1           0        2.610520   -1.132140   -1.746960
     15          1           0        2.627020   -1.944040   -0.338820
     16          1           0        1.167920    2.037270   -1.178250
     17          1           0        4.901380    0.700410   -1.458200
     18          1           0        4.881900    1.591550    0.088370
     19          1           0        4.314860    3.575340   -1.211680
     20          1           0        6.688140    2.244060   -2.305980
     21          1           0        6.646910    3.087880   -0.733900
     22          1           0        5.880160    4.198270   -3.308660
     23          1           0        7.312360    4.464600   -2.579810
 ---------------------------------------------------------------------
                    Distance matrix (angstroms):
                    1          2          3          4          5
     1  C    0.000000
     2  C    1.525564   0.000000
     3  N    2.442565   1.469447   0.000000
     4  C    2.560998   1.546722   2.462107   0.000000
     5  N    2.866781   2.507039   3.509137   1.304185   0.000000
     6  C    3.970625   2.632302   3.055347   1.535366   2.458625
     7  N    5.027096   3.896982   4.379523   2.469916   2.709744
     8  C    6.298419   5.025012   5.314929   3.750453   4.134077
     9  N    7.284922   6.159182   6.547394   4.735986   4.768249
    10  H    1.094266   2.185425   2.708246   3.520229   3.954817
    11  H    1.097004   2.175317   2.726020   2.822725   2.825646
    12  H    1.095769   2.167079   3.399025   2.813238   2.801662
    13  H    2.152525   1.096665   2.092783   2.147798   3.176317
    14  H    2.645458   2.049069   1.021402   2.679821   3.463666
    15  H    2.593849   2.049913   1.021183   3.355971   4.348528
    16  H    2.345850   2.572709   3.644882   1.945480   1.017724
    17  H    4.270433   2.860945   2.716086   2.148498   3.171119
    18  H    4.258539   2.861816   3.413270   2.142951   3.135744
    19  H    5.058503   4.105614   4.881505   2.626824   2.527525
    20  H    6.578390   5.235261   5.217605   4.110336   4.647940
    21  H    6.530967   5.193304   5.567744   4.075244   4.603477
    22  H    7.264442   6.236568   6.543326   4.771571   4.655047
    23  H    8.189340   6.991280   7.275572   5.628951   5.752871
                    6          7          8          9         10
     6  C    0.000000
     7  N    1.470076   0.000000
     8  C    2.396391   1.429058   0.000000
     9  N    3.613157   2.272328   1.437204   0.000000
    10  H    4.805455   5.983152   7.185818   8.252520   0.000000
    11  H    4.277355   5.157353   6.489381   7.368307   1.770726
    12  H    4.258588   5.153853   6.463019   7.336474   1.767462
    13  H    2.850452   4.194908   5.160737   6.366778   2.516454
    14  H    3.375160   4.487221   5.490627   6.608042   3.007460
    15  H    4.004992   5.371661   6.274613   7.538394   2.421548
    16  H    3.351715   3.726762   5.150817   5.761039   3.423016
    17  H    1.094578   2.105811   2.676164   3.977537   4.984394
    18  H    1.096143   2.129514   2.660520   3.945289   4.974273
    19  H    2.042211   1.020301   2.022150   2.443241   6.061531
    20  H    2.694018   2.081514   1.094357   2.082520   7.399664
    21  H    2.662322   2.104208   1.093338   2.079024   7.348975
    22  H    3.820687   2.422866   1.991842   1.019145   8.262818
    23  H    4.382973   3.165235   2.010645   1.016796   9.124868
                   11         12         13         14         15
    11  H    0.000000
    12  H    1.771036   0.000000
    13  H    3.072911   2.492022   0.000000
    14  H    2.494997   3.655004   2.942635   0.000000
    15  H    2.965521   3.603668   2.409489   1.625519   0.000000
    16  H    2.154583   2.145837   3.314809   3.528411   4.322551
    17  H    4.479546   4.796330   3.184582   2.947823   3.663174
    18  H    4.802927   4.436937   2.642370   3.993256   4.215136
    19  H    5.237252   4.965265   4.323598   5.035044   5.837315
    20  H    6.706532   6.910795   5.440089   5.323365   6.156508
    21  H    6.891367   6.629990   5.095071   5.926829   6.452583
    22  H    7.195073   7.369096   6.611877   6.445364   7.558495
    23  H    8.293636   8.278112   7.144618   7.356931   8.248946
                   16         17         18         19         20
    16  H    0.000000
    17  H    3.975461   0.000000
    18  H    3.949258   1.785046   0.000000
    19  H    3.502857   2.944486   2.438665   0.000000
    20  H    5.638029   2.508804   3.069395   2.932960   0.000000
    21  H    5.596477   3.044914   2.455686   2.429886   1.784704
    22  H    5.604799   4.076425   4.396740   2.689894   2.340328
    23  H    6.753550   4.608683   4.613105   3.412854   2.322807
                   21         22         23
    21  H    0.000000
    22  H    2.906933   0.000000
    23  H    2.396991   1.628911   0.000000
 Stoichiometry    C5H14N4
 Framework group  C1[X(C5H14N4)]
 Deg. of freedom    63
 Full point group                 C1      NOp   1
 Largest Abelian subgroup         C1      NOp   1
 Largest concise Abelian subgroup C1      NOp   1
                         Standard orientation:                         
 ---------------------------------------------------------------------
 Center     Atomic      Atomic             Coordinates (Angstroms)
 Number     Number       Type             X           Y           Z
 ---------------------------------------------------------------------
      1          6           0       -3.291403    0.657127    0.151677
      2          6           0       -2.126785   -0.304103    0.368579
      3          7           0       -2.304450   -1.482838   -0.490662
      4          6           0       -0.751089    0.340635    0.078539
      5          7           0       -0.614538    1.585695   -0.284887
      6          6           0        0.494171   -0.533475    0.284955
      7          7           0        1.711250    0.212520   -0.066232
      8          6           0        2.887808   -0.562276    0.173785
      9          7           0        3.980019    0.319255   -0.135301
     10          1           0       -4.256171    0.187622    0.366627
     11          1           0       -3.316809    1.017459   -0.884148
     12          1           0       -3.194252    1.530263    0.806586
     13          1           0       -2.121153   -0.635298    1.414022
     14          1           0       -2.313375   -1.190637   -1.469335
     15          1           0       -3.224230   -1.892514   -0.320412
     16          1           0       -1.501900    2.071349   -0.396654
     17          1           0        0.407538   -1.415314   -0.357661
     18          1           0        0.510996   -0.853028    1.333350
     19          1           0        1.739197    1.073468    0.480577
     20          1           0        2.912927   -1.434144   -0.487148
     21          1           0        2.963394   -0.893582    1.212973
     22          1           0        3.863548    0.613505   -1.104067
     23          1           0        4.848103   -0.209027   -0.100352
 ---------------------------------------------------------------------
 Rotational constants (GHZ):           4.1233338           0.6498039           0.5864677
 Standard basis: 6-31G(2df,p) (6D, 7F)
 There are   349 symmetry adapted cartesian basis functions of A   symmetry.
 There are   322 symmetry adapted basis functions of A   symmetry.
   322 basis functions,   494 primitive gaussians,   349 cartesian basis functions
    36 alpha electrons       36 beta electrons
       nuclear repulsion energy       466.4835202546 Hartrees.
 NAtoms=   23 NActive=   23 NUniq=   23 SFac= 1.00D+00 NAtFMM=   60 NAOKFM=F Big=F
 Integral buffers will be    131072 words long.
 Raffenetti 2 integral format.
 Two-electron integral symmetry is turned on.
 One-electron integrals computed using PRISM.
 PrsmSu:  requested number of processors reduced to:  13 ShMem   1 Linda.
 NBasis=   322 RedAO= T EigKep=  3.06D-04  NBF=   322
 NBsUse=   322 1.00D-06 EigRej= -1.00D+00 NBFU=   322
 ExpMin= 1.61D-01 ExpMax= 4.17D+03 ExpMxC= 6.27D+02 IAcc=3 IRadAn=         5 AccDes= 0.00D+00
 Harris functional with IExCor=  402 and IRadAn=       5 diagonalized for initial guess.
 HarFok:  IExCor=  402 AccDes= 0.00D+00 IRadAn=         5 IDoV= 1 UseB2=F ITyADJ=14
 ICtDFT=  3500011 ScaDFX=  1.000000  1.000000  1.000000  1.000000
 FoFCou: FMM=F IPFlag=           0 FMFlag=      100000 FMFlg1=           0
         NFxFlg=           0 DoJE=T BraDBF=F KetDBF=T FulRan=T
         wScrn=  0.000000 ICntrl=       500 IOpCl=  0 I1Cent=   200000004 NGrid=           0
         NMat0=    1 NMatS0=      1 NMatT0=    0 NMatD0=    1 NMtDS0=    0 NMtDT0=    0
 Petite list used in FoFCou.
 Requested convergence on RMS density matrix=1.00D-08 within 128 cycles.
 Requested convergence on MAX density matrix=1.00D-06.
 Requested convergence on             energy=1.00D-06.
 No special actions if energy rises.
 Integral accuracy reduced to 1.0D-05 until final iterations.
 Initial convergence to 1.0D-05 achieved.  Increase integral accuracy.
 SCF Done:  E(RB3LYP) =  -417.954389532     A.U. after   13 cycles
            NFock= 13  Conv=0.47D-08     -V/T= 2.0079

 **********************************************************************

            Population analysis using the SCF density.

 **********************************************************************

 Orbital symmetries:
       Occupied  (A) (A) (A) (A) (A) (A) (A) (A) (A) (A) (A) (A)
                 (A) (A) (A) (A) (A) (A) (A) (A) (A) (A) (A) (A)
                 (A) (A) (A) (A) (A) (A) (A) (A) (A) (A) (A) (A)
       Virtual   (A) (A) (A) (A) (A) (A) (A) (A) (A) (A) (A) (A)
                 (A) (A) (A) (A) (A) (A) (A) (A) (A) (A) (A) (A)
                 (A) (A) (A) (A) (A) (A) (A) (A) (A) (A) (A) (A)
                 (A) (A) (A) (A) (A) (A) (A) (A) (A) (A) (A) (A)
                 (A) (A) (A) (A) (A) (A) (A) (A) (A) (A) (A) (A)
                 (A) (A) (A) (A) (A) (A) (A) (A) (A) (A) (A) (A)
                 (A) (A) (A) (A) (A) (A) (A) (A) (A) (A) (A) (A)
                 (A) (A) (A) (A) (A) (A) (A) (A) (A) (A) (A) (A)
                 (A) (A) (A) (A) (A) (A) (A) (A) (A) (A) (A) (A)
                 (A) (A) (A) (A) (A) (A) (A) (A) (A) (A) (A) (A)
                 (A) (A) (A) (A) (A) (A) (A) (A) (A) (A) (A) (A)
                 (A) (A) (A) (A) (A) (A) (A) (A) (A) (A) (A) (A)
                 (A) (A) (A) (A) (A) (A) (A) (A) (A) (A) (A) (A)
                 (A) (A) (A) (A) (A) (A) (A) (A) (A) (A) (A) (A)
                 (A) (A) (A) (A) (A) (A) (A) (A) (A) (A) (A) (A)
                 (A) (A) (A) (A) (A) (A) (A) (A) (A) (A) (A) (A)
                 (A) (A) (A) (A) (A) (A) (A) (A) (A) (A) (A) (A)
                 (A) (A) (A) (A) (A) (A) (A) (A) (A) (A) (A) (A)
                 (A) (A) (A) (A) (A) (A) (A) (A) (A) (A) (A) (A)
                 (A) (A) (A) (A) (A) (A) (A) (A) (A) (A) (A) (A)
                 (A) (A) (A) (A) (A) (A) (A) (A) (A) (A) (A) (A)
                 (A) (A) (A) (A) (A) (A) (A) (A) (A) (A) (A) (A)
                 (A) (A) (A) (A) (A) (A) (A) (A) (A) (A) (A) (A)
                 (A) (A) (A) (A) (A) (A) (A) (A) (A) (A)
 The electronic state is 1-A.
 Alpha  occ. eigenvalues --  -14.31704 -14.30712 -14.29649 -14.29403 -10.23211
 Alpha  occ. eigenvalues --  -10.22451 -10.21211 -10.20455 -10.18396  -0.92267
 Alpha  occ. eigenvalues --   -0.90403  -0.87101  -0.83515  -0.73554  -0.70329
 Alpha  occ. eigenvalues --   -0.63396  -0.60577  -0.54187  -0.51363  -0.49134
 Alpha  occ. eigenvalues --   -0.48144  -0.45864  -0.43584  -0.42684  -0.42155
 Alpha  occ. eigenvalues --   -0.41192  -0.39150  -0.38269  -0.37335  -0.36425
 Alpha  occ. eigenvalues --   -0.34858  -0.29325  -0.25133  -0.24196  -0.23011
 Alpha  occ. eigenvalues --   -0.21239
 Alpha virt. eigenvalues --   -0.00135   0.07415   0.09461   0.10736   0.11569
 Alpha virt. eigenvalues --    0.11968   0.14112   0.15247   0.15586   0.16177
 Alpha virt. eigenvalues --    0.17620   0.18227   0.18624   0.19461   0.20520
 Alpha virt. eigenvalues --    0.21745   0.22496   0.23618   0.24262   0.26856
 Alpha virt. eigenvalues --    0.27846   0.33082   0.38544   0.42302   0.46900
 Alpha virt. eigenvalues --    0.48065   0.49828   0.50860   0.51873   0.52205
 Alpha virt. eigenvalues --    0.53056   0.56589   0.57129   0.58137   0.59500
 Alpha virt. eigenvalues --    0.60711   0.62152   0.63340   0.63752   0.64762
 Alpha virt. eigenvalues --    0.66910   0.69810   0.70699   0.71036   0.71703
 Alpha virt. eigenvalues --    0.72178   0.72667   0.74249   0.75523   0.76275
 Alpha virt. eigenvalues --    0.76821   0.77879   0.79113   0.79180   0.81606
 Alpha virt. eigenvalues --    0.82670   0.82989   0.83504   0.84287   0.85661
 Alpha virt. eigenvalues --    0.86013   0.87290   0.87949   0.88915   0.90854
 Alpha virt. eigenvalues --    0.91375   0.92521   0.95413   0.95801   1.01751
 Alpha virt. eigenvalues --    1.05502   1.06654   1.11006   1.13229   1.19018
 Alpha virt. eigenvalues --    1.20538   1.21409   1.24099   1.26974   1.27585
 Alpha virt. eigenvalues --    1.28828   1.31398   1.33809   1.34545   1.36612
 Alpha virt. eigenvalues --    1.37058   1.40924   1.43588   1.46080   1.48831
 Alpha virt. eigenvalues --    1.50390   1.51041   1.52155   1.52385   1.57233
 Alpha virt. eigenvalues --    1.60361   1.61256   1.62690   1.64336   1.66248
 Alpha virt. eigenvalues --    1.69370   1.71117   1.73004   1.77894   1.79308
 Alpha virt. eigenvalues --    1.85906   1.86438   1.88650   1.89417   1.91285
 Alpha virt. eigenvalues --    1.93823   1.96706   1.98689   2.01525   2.05882
 Alpha virt. eigenvalues --    2.06094   2.09920   2.12062   2.13753   2.21472
 Alpha virt. eigenvalues --    2.22492   2.23616   2.26130   2.32094   2.33135
 Alpha virt. eigenvalues --    2.36007   2.37871   2.40200   2.41053   2.42173
 Alpha virt. eigenvalues --    2.44393   2.48083   2.51882   2.56824   2.59050
 Alpha virt. eigenvalues --    2.59470   2.61969   2.65807   2.70124   2.72725
 Alpha virt. eigenvalues --    2.75666   2.76203   2.78386   2.80513   2.82034
 Alpha virt. eigenvalues --    2.83754   2.83819   2.85654   2.88040   2.89912
 Alpha virt. eigenvalues --    2.91125   2.91952   2.93178   2.93622   2.96028
 Alpha virt. eigenvalues --    2.97464   2.98888   3.00941   3.03125   3.03878
 Alpha virt. eigenvalues --    3.05383   3.07843   3.09790   3.12221   3.15806
 Alpha virt. eigenvalues --    3.18148   3.20627   3.23997   3.26622   3.26853
 Alpha virt. eigenvalues --    3.29529   3.33465   3.36264   3.39777   3.41519
 Alpha virt. eigenvalues --    3.42143   3.45047   3.48762   3.52185   3.54276
 Alpha virt. eigenvalues --    3.55658   3.59281   3.61012   3.64624   3.67708
 Alpha virt. eigenvalues --    3.69216   3.70542   3.72586   3.77773   3.81289
 Alpha virt. eigenvalues --    3.84296   3.85104   3.89170   3.90294   3.94975
 Alpha virt. eigenvalues --    3.95643   3.99639   4.00868   4.05307   4.05887
 Alpha virt. eigenvalues --    4.06235   4.12534   4.16818   4.19127   4.20707
 Alpha virt. eigenvalues --    4.20879   4.22086   4.23242   4.24676   4.27985
 Alpha virt. eigenvalues --    4.32953   4.34813   4.35880   4.36952   4.38308
 Alpha virt. eigenvalues --    4.39964   4.41623   4.42358   4.43687   4.45665
 Alpha virt. eigenvalues --    4.46978   4.47207   4.49758   4.51559   4.52856
 Alpha virt. eigenvalues --    4.54207   4.55662   4.56309   4.58936   4.59630
 Alpha virt. eigenvalues --    4.60858   4.62033   4.62371   4.67989   4.68599
 Alpha virt. eigenvalues --    4.69149   4.71651   4.74318   4.74715   4.76923
 Alpha virt. eigenvalues --    4.77451   4.79253   4.80576   4.81051   4.83173
 Alpha virt. eigenvalues --    4.85206   4.87785   4.88987   4.89744   4.92441
 Alpha virt. eigenvalues --    4.95214   4.96876   4.98890   5.01506   5.03162
 Alpha virt. eigenvalues --    5.04105   5.09753   5.11270   5.15689   5.17594
 Alpha virt. eigenvalues --    5.24543   5.30144   5.31945   5.39894   5.42185
 Alpha virt. eigenvalues --    5.45609   5.51709   5.55347   5.62888   5.68055
 Alpha virt. eigenvalues --    5.73204   5.76724   5.96052   9.23426   9.74940
 Alpha virt. eigenvalues --   10.74150  10.87576  11.18929  11.41353  11.43807
 Alpha virt. eigenvalues --   11.52901  11.75128  11.87474  12.63532  13.02053
 Alpha virt. eigenvalues --   15.83063
          Condensed to atoms (all electrons):
               1          2          3          4          5          6
     1  C    5.093064   0.392527  -0.063502  -0.023306  -0.013916   0.004093
     2  C    0.392527   4.866720   0.375793   0.391876  -0.083228  -0.086200
     3  N   -0.063502   0.375793   6.567674  -0.034494  -0.000634  -0.000090
     4  C   -0.023306   0.391876  -0.034494   4.513324   0.718324   0.345390
     5  N   -0.013916  -0.083228  -0.000634   0.718324   6.508481  -0.023536
     6  C    0.004093  -0.086200  -0.000090   0.345390  -0.023536   5.022302
     7  N   -0.000022   0.001991   0.000202  -0.030579  -0.004895   0.367549
     8  C    0.000001  -0.000098   0.000009   0.003116   0.000472  -0.070142
     9  N   -0.000000   0.000001   0.000000  -0.000023   0.000004   0.003948
    10  H    0.366032  -0.020943  -0.001295   0.002657   0.000778  -0.000091
    11  H    0.363842  -0.020500  -0.002590  -0.007621   0.002287   0.000024
    12  H    0.342840  -0.018317   0.006457  -0.001397   0.000562  -0.000208
    13  H   -0.055783   0.353052  -0.029426  -0.027970   0.004085  -0.003692
    14  H   -0.004480  -0.054004   0.339780  -0.002575   0.001335   0.000035
    15  H   -0.002274  -0.049180   0.341448   0.004231  -0.000176  -0.000130
    16  H    0.008572  -0.025986   0.000352  -0.090025   0.343422   0.010156
    17  H    0.000229  -0.003431   0.010475  -0.006587  -0.001098   0.344266
    18  H    0.000120   0.005185  -0.000159  -0.038836  -0.001274   0.347397
    19  H   -0.000006   0.000451  -0.000006   0.007873   0.009593  -0.052897
    20  H   -0.000000  -0.000007  -0.000005   0.000528  -0.000030   0.000425
    21  H    0.000000   0.000024   0.000000  -0.000555   0.000006  -0.007355
    22  H    0.000000   0.000000   0.000000  -0.000025   0.000003  -0.000274
    23  H    0.000000  -0.000000   0.000000   0.000000   0.000000  -0.000478
               7          8          9         10         11         12
     1  C   -0.000022   0.000001  -0.000000   0.366032   0.363842   0.342840
     2  C    0.001991  -0.000098   0.000001  -0.020943  -0.020500  -0.018317
     3  N    0.000202   0.000009   0.000000  -0.001295  -0.002590   0.006457
     4  C   -0.030579   0.003116  -0.000023   0.002657  -0.007621  -0.001397
     5  N   -0.004895   0.000472   0.000004   0.000778   0.002287   0.000562
     6  C    0.367549  -0.070142   0.003948  -0.000091   0.000024  -0.000208
     7  N    6.387478   0.381518  -0.057626   0.000000  -0.000001  -0.000005
     8  C    0.381518   4.801366   0.397451  -0.000000   0.000000  -0.000000
     9  N   -0.057626   0.397451   6.559918   0.000000   0.000000  -0.000000
    10  H    0.000000  -0.000000   0.000000   0.598800  -0.031271  -0.026622
    11  H   -0.000001   0.000000   0.000000  -0.031271   0.591574  -0.032822
    12  H   -0.000005  -0.000000  -0.000000  -0.026622  -0.032822   0.608408
    13  H   -0.000010  -0.000004  -0.000000  -0.002411   0.006001  -0.001140
    14  H   -0.000057  -0.000001  -0.000000   0.000070   0.005949  -0.000030
    15  H    0.000000  -0.000000   0.000000   0.004306   0.000035  -0.000027
    16  H   -0.000044  -0.000008  -0.000000  -0.000380   0.005043   0.004129
    17  H   -0.019462  -0.003170   0.000130  -0.000001  -0.000015  -0.000012
    18  H   -0.039242  -0.005941  -0.000039   0.000002   0.000007  -0.000021
    19  H    0.333931  -0.046943   0.010573  -0.000000  -0.000001   0.000003
    20  H   -0.039326   0.371206  -0.038075   0.000000   0.000000   0.000000
    21  H   -0.030727   0.339266  -0.029340   0.000000  -0.000000   0.000000
    22  H    0.012286  -0.057471   0.334233   0.000000  -0.000000   0.000000
    23  H    0.005733  -0.046943   0.331356  -0.000000  -0.000000   0.000000
              13         14         15         16         17         18
     1  C   -0.055783  -0.004480  -0.002274   0.008572   0.000229   0.000120
     2  C    0.353052  -0.054004  -0.049180  -0.025986  -0.003431   0.005185
     3  N   -0.029426   0.339780   0.341448   0.000352   0.010475  -0.000159
     4  C   -0.027970  -0.002575   0.004231  -0.090025  -0.006587  -0.038836
     5  N    0.004085   0.001335  -0.000176   0.343422  -0.001098  -0.001274
     6  C   -0.003692   0.000035  -0.000130   0.010156   0.344266   0.347397
     7  N   -0.000010  -0.000057   0.000000  -0.000044  -0.019462  -0.039242
     8  C   -0.000004  -0.000001  -0.000000  -0.000008  -0.003170  -0.005941
     9  N   -0.000000  -0.000000   0.000000  -0.000000   0.000130  -0.000039
    10  H   -0.002411   0.000070   0.004306  -0.000380  -0.000001   0.000002
    11  H    0.006001   0.005949   0.000035   0.005043  -0.000015   0.000007
    12  H   -0.001140  -0.000030  -0.000027   0.004129  -0.000012  -0.000021
    13  H    0.655498   0.007005  -0.004053   0.000696  -0.000349   0.002858
    14  H    0.007005   0.510752  -0.032121   0.000165  -0.000291   0.000011
    15  H   -0.004053  -0.032121   0.511033  -0.000054  -0.000158  -0.000042
    16  H    0.000696   0.000165  -0.000054   0.524274  -0.000227  -0.000227
    17  H   -0.000349  -0.000291  -0.000158  -0.000227   0.578559  -0.046718
    18  H    0.002858   0.000011  -0.000042  -0.000227  -0.046718   0.678116
    19  H   -0.000039  -0.000001   0.000000  -0.000555   0.005974  -0.005896
    20  H    0.000001   0.000001   0.000000   0.000000   0.005699  -0.002214
    21  H   -0.000000  -0.000000  -0.000000   0.000000  -0.001807   0.014266
    22  H   -0.000000  -0.000000  -0.000000   0.000000  -0.000059   0.000104
    23  H    0.000000   0.000000  -0.000000   0.000000  -0.000002   0.000031
              19         20         21         22         23
     1  C   -0.000006  -0.000000   0.000000   0.000000   0.000000
     2  C    0.000451  -0.000007   0.000024   0.000000  -0.000000
     3  N   -0.000006  -0.000005   0.000000   0.000000   0.000000
     4  C    0.007873   0.000528  -0.000555  -0.000025   0.000000
     5  N    0.009593  -0.000030   0.000006   0.000003   0.000000
     6  C   -0.052897   0.000425  -0.007355  -0.000274  -0.000478
     7  N    0.333931  -0.039326  -0.030727   0.012286   0.005733
     8  C   -0.046943   0.371206   0.339266  -0.057471  -0.046943
     9  N    0.010573  -0.038075  -0.029340   0.334233   0.331356
    10  H   -0.000000   0.000000   0.000000   0.000000  -0.000000
    11  H   -0.000001   0.000000  -0.000000  -0.000000  -0.000000
    12  H    0.000003   0.000000   0.000000   0.000000   0.000000
    13  H   -0.000039   0.000001  -0.000000  -0.000000   0.000000
    14  H   -0.000001   0.000001  -0.000000  -0.000000   0.000000
    15  H    0.000000   0.000000  -0.000000  -0.000000  -0.000000
    16  H   -0.000555   0.000000   0.000000   0.000000   0.000000
    17  H    0.005974   0.005699  -0.001807  -0.000059  -0.000002
    18  H   -0.005896  -0.002214   0.014266   0.000104   0.000031
    19  H    0.509487   0.008294  -0.007900  -0.001401  -0.000408
    20  H    0.008294   0.699386  -0.068313  -0.008470  -0.005933
    21  H   -0.007900  -0.068313   0.709144   0.009220   0.001833
    22  H   -0.001401  -0.008470   0.009220   0.512161  -0.027509
    23  H   -0.000408  -0.005933   0.001833  -0.027509   0.526645
 Mulliken charges:
               1
     1  C   -0.408030
     2  C   -0.025726
     3  N   -0.509988
     4  C    0.276671
     5  N   -0.460564
     6  C   -0.200492
     7  N   -0.268691
     8  C   -0.063686
     9  N   -0.512511
    10  H    0.110369
    11  H    0.120058
    12  H    0.118203
    13  H    0.095680
    14  H    0.228458
    15  H    0.227162
    16  H    0.220697
    17  H    0.138057
    18  H    0.092512
    19  H    0.229874
    20  H    0.076832
    21  H    0.072237
    22  H    0.227201
    23  H    0.215676
 Sum of Mulliken charges =  -0.00000
 Mulliken charges with hydrogens summed into heavy atoms:
               1
     1  C   -0.059400
     2  C    0.069954
     3  N   -0.054368
     4  C    0.276671
     5  N   -0.239867
     6  C    0.030078
     7  N   -0.038817
     8  C    0.085383
     9  N   -0.069634
 Electronic spatial extent (au):  <R**2>=           1961.9042
 Charge=             -0.0000 electrons
 Dipole moment (field-independent basis, Debye):
    X=             -2.4368    Y=             -1.7001    Z=              0.1385  Tot=              2.9745
 Quadrupole moment (field-independent basis, Debye-Ang):
   XX=            -45.4756   YY=            -60.5093   ZZ=            -54.1012
   XY=             -4.7350   XZ=             -1.1402   YZ=              0.5819
 Traceless Quadrupole moment (field-independent basis, Debye-Ang):
   XX=              7.8864   YY=             -7.1472   ZZ=             -0.7392
   XY=             -4.7350   XZ=             -1.1402   YZ=              0.5819
 Octapole moment (field-independent basis, Debye-Ang**2):
  XXX=             -1.4978  YYY=              3.2942  ZZZ=             -5.2285  XYY=             -4.9752
  XXY=            -24.8275  XXZ=            -18.4022  XZZ=             -0.1139  YZZ=             -1.8062
  YYZ=             -0.4813  XYZ=             -1.8586
 Hexadecapole moment (field-independent basis, Debye-Ang**3):
 XXXX=          -1864.5048 YYYY=           -354.9642 ZZZZ=           -112.5786 XXXY=            -29.5734
 XXXZ=            -56.5089 YYYX=             -4.1983 YYYZ=              1.9349 ZZZX=              2.8477
 ZZZY=              3.1205 XXYY=           -394.8675 XXZZ=           -346.5647 YYZZ=            -74.3785
 XXYZ=             -9.8569 YYXZ=              0.4327 ZZXY=              9.1477
 N-N= 4.664835202546D+02 E-N=-1.905105297669D+03  KE= 4.146871383196D+02
 PrsmSu:  requested number of processors reduced to:  13 ShMem   1 Linda.
 Calling FoFJK, ICntrl=      2127 FMM=F ISym2X=0 I1Cent= 0 IOpClX= 0 NMat=1 NMatS=1 NMatT=0.
 ***** Axes restored to original set *****
 -------------------------------------------------------------------
 Center     Atomic                   Forces (Hartrees/Bohr)
 Number     Number              X              Y              Z
 -------------------------------------------------------------------
      1        6          -0.006377484    0.012514343    0.005998141
      2        6          -0.004852493   -0.004536166   -0.012812301
      3        7           0.011247034   -0.006015983   -0.001931982
      4        6          -0.029196573    0.020817316   -0.007742691
      5        7           0.035295367   -0.020219816    0.009504216
      6        6          -0.021664306    0.015324776   -0.012869165
      7        7          -0.012849984   -0.023483369    0.009549720
      8        6          -0.002942209    0.005998285   -0.006674483
      9        7           0.010578743    0.018630167   -0.007132526
     10        1           0.002875755   -0.000331826    0.000286607
     11        1           0.000876643   -0.001010277    0.000674659
     12        1          -0.003915746   -0.000956583    0.001081411
     13        1           0.002107390   -0.001531692    0.000292386
     14        1           0.000986783    0.001403370    0.003560178
     15        1           0.002498186    0.003740874   -0.001070817
     16        1           0.000539860   -0.003557703    0.003393685
     17        1           0.001365581   -0.001239401    0.003068875
     18        1           0.003131404   -0.006250611    0.005931316
     19        1           0.002362201   -0.002138697   -0.004603708
     20        1          -0.000780709   -0.012599960    0.004244572
     21        1           0.008663444    0.000616887    0.005585158
     22        1           0.000371525    0.001104809    0.001813568
     23        1          -0.000320410    0.003721258   -0.000146817
 -------------------------------------------------------------------
 Cartesian Forces:  Max     0.035295367 RMS     0.009707763

 GradGradGradGradGradGradGradGradGradGradGradGradGradGradGradGradGradGrad
 Berny optimization.
 FormGI is forming the generalized inverse of G from B-inverse, IUseBI=4.
 Internal  Forces:  Max     0.043405569 RMS     0.007059606
 Search for a local minimum.
 Step number   1 out of a maximum of  116
 All quantities printed in internal units (Hartrees-Bohrs-Radians)
 Mixed Optimization -- RFO/linear search
 Second derivative matrix not updated -- first step.
 ITU=  0
     Eigenvalues ---    0.00230   0.00298   0.00428   0.00678   0.00765
     Eigenvalues ---    0.00773   0.01200   0.01307   0.02959   0.03065
     Eigenvalues ---    0.04441   0.04514   0.05088   0.05088   0.05159
     Eigenvalues ---    0.05455   0.05613   0.06271   0.06501   0.06507
     Eigenvalues ---    0.07109   0.09030   0.09544   0.10964   0.12600
     Eigenvalues ---    0.13013   0.16000   0.16000   0.16000   0.16000
     Eigenvalues ---    0.16000   0.16000   0.16000   0.16000   0.17457
     Eigenvalues ---    0.18298   0.21910   0.22030   0.23399   0.24979
     Eigenvalues ---    0.24993   0.27932   0.28933   0.29837   0.34016
     Eigenvalues ---    0.34054   0.34112   0.34154   0.34289   0.34314
     Eigenvalues ---    0.34324   0.34430   0.35731   0.35806   0.39971
     Eigenvalues ---    0.41125   0.44115   0.44150   0.44290   0.44475
     Eigenvalues ---    0.44703   0.44853   0.66044
 RFO step:  Lambda=-1.89558460D-02 EMin= 2.30000000D-03
 Linear search not attempted -- first point.
 Iteration  1 RMS(Cart)=  0.09335063 RMS(Int)=  0.00325355
 Iteration  2 RMS(Cart)=  0.00557526 RMS(Int)=  0.00071060
 Iteration  3 RMS(Cart)=  0.00001598 RMS(Int)=  0.00071054
 Iteration  4 RMS(Cart)=  0.00000005 RMS(Int)=  0.00071054
 Variable       Old X    -DE/DX   Delta X   Delta X   Delta X     New X
                                 (Linear)    (Quad)   (Total)
    R1        2.88290   0.00629   0.00000   0.01982   0.01982   2.90271
    R2        2.06786  -0.00048   0.00000  -0.00132  -0.00132   2.06654
    R3        2.07304  -0.00096   0.00000  -0.00268  -0.00268   2.07035
    R4        2.07070   0.00124   0.00000   0.00345   0.00345   2.07415
    R5        2.77685   0.00570   0.00000   0.01511   0.01511   2.79196
    R6        2.92288  -0.00629   0.00000  -0.02108  -0.02108   2.90180
    R7        2.07240   0.00103   0.00000   0.00286   0.00286   2.07526
    R8        1.93017  -0.00372   0.00000  -0.00808  -0.00808   1.92209
    R9        1.92976  -0.00443   0.00000  -0.00962  -0.00962   1.92014
   R10        2.46455  -0.04341   0.00000  -0.06389  -0.06389   2.40066
   R11        2.90142  -0.01191   0.00000  -0.03863  -0.03863   2.86279
   R12        1.92322   0.00069   0.00000   0.00147   0.00147   1.92469
   R13        2.77804  -0.00710   0.00000  -0.01886  -0.01886   2.75918
   R14        2.06845   0.00002   0.00000   0.00006   0.00006   2.06851
   R15        2.07141   0.00648   0.00000   0.01800   0.01800   2.08941
   R16        2.70053   0.01833   0.00000   0.04261   0.04261   2.74314
   R17        1.92809  -0.00478   0.00000  -0.01036  -0.01036   1.91773
   R18        2.71592   0.02417   0.00000   0.05773   0.05773   2.77366
   R19        2.06804   0.00644   0.00000   0.01778   0.01778   2.08582
   R20        2.06611   0.00870   0.00000   0.02396   0.02396   2.09007
   R21        1.92590  -0.00189   0.00000  -0.00407  -0.00407   1.92183
   R22        1.92147   0.00034   0.00000   0.00074   0.00074   1.92220
    A1        1.95496  -0.00549   0.00000  -0.03657  -0.03655   1.91841
    A2        1.93788  -0.00071   0.00000  -0.00358  -0.00402   1.93386
    A3        1.92773   0.00672   0.00000   0.04296   0.04299   1.97072
    A4        1.88178   0.00171   0.00000  -0.00043  -0.00087   1.88091
    A5        1.87827  -0.00092   0.00000  -0.00614  -0.00569   1.87258
    A6        1.88038  -0.00129   0.00000   0.00414   0.00376   1.88414
    A7        1.90709   0.01431   0.00000   0.09145   0.09154   1.99863
    A8        1.97109   0.00054   0.00000   0.02115   0.02065   1.99173
    A9        1.90683  -0.00387   0.00000  -0.01944  -0.01819   1.88864
   A10        1.90950  -0.00903   0.00000  -0.03195  -0.03495   1.87454
   A11        1.89209  -0.00408   0.00000  -0.04498  -0.04557   1.84652
   A12        1.87557   0.00163   0.00000  -0.02149  -0.02260   1.85298
   A13        1.90906  -0.00197   0.00000  -0.00992  -0.00991   1.89915
   A14        1.91052   0.00021   0.00000   0.00226   0.00226   1.91278
   A15        1.84070   0.00114   0.00000   0.00867   0.00868   1.84938
   A16        2.14519   0.01523   0.00000   0.05668   0.05668   2.20187
   A17        2.04749  -0.01121   0.00000  -0.04169  -0.04169   2.00580
   A18        2.08984  -0.00401   0.00000  -0.01492  -0.01492   2.07492
   A19        1.97673  -0.00903   0.00000  -0.05047  -0.05047   1.92625
   A20        1.92885   0.00730   0.00000   0.03891   0.03847   1.96732
   A21        1.89183  -0.00100   0.00000  -0.00437  -0.00455   1.88728
   A22        1.88284  -0.00445   0.00000  -0.01969  -0.02073   1.86211
   A23        1.91145  -0.00241   0.00000  -0.00953  -0.00942   1.90203
   A24        1.94305   0.00285   0.00000   0.03352   0.03340   1.97644
   A25        1.90484  -0.00250   0.00000  -0.04073  -0.04087   1.86397
   A26        1.94590   0.00864   0.00000   0.03697   0.03682   1.98272
   A27        1.89953  -0.00027   0.00000   0.01349   0.01354   1.91308
   A28        1.92296  -0.00428   0.00000  -0.01779  -0.01827   1.90469
   A29        1.83072   0.01408   0.00000   0.06963   0.06886   1.89958
   A30        1.92773  -0.01059   0.00000  -0.05990  -0.06259   1.86514
   A31        1.96151   0.00103   0.00000   0.01245   0.01249   1.97399
   A32        1.91913   0.00637   0.00000   0.06776   0.06868   1.98781
   A33        1.91531  -0.00877   0.00000  -0.04418  -0.04407   1.87124
   A34        1.90819  -0.00150   0.00000  -0.03972  -0.03976   1.86844
   A35        1.86991   0.00092   0.00000   0.01011   0.00981   1.87972
   A36        1.89942   0.00599   0.00000   0.03826   0.03798   1.93740
   A37        1.85485  -0.00118   0.00000   0.00464   0.00402   1.85887
    D1        1.01792   0.00008   0.00000  -0.02560  -0.02622   0.99170
    D2       -3.13574  -0.00084   0.00000   0.01346   0.01466  -3.12108
    D3       -1.04949  -0.00109   0.00000  -0.01338  -0.01325  -1.06274
    D4       -1.08695   0.00216   0.00000   0.00252   0.00165  -1.08530
    D5        1.04257   0.00124   0.00000   0.04158   0.04253   1.08510
    D6        3.12883   0.00099   0.00000   0.01475   0.01461  -3.13975
    D7        3.11134  -0.00015   0.00000  -0.02836  -0.02943   3.08191
    D8       -1.04232  -0.00107   0.00000   0.01070   0.01145  -1.03087
    D9        1.04393  -0.00132   0.00000  -0.01613  -0.01646   1.02747
   D10        1.06344   0.00092   0.00000   0.01336   0.01351   1.07695
   D11       -0.94535   0.00053   0.00000   0.00725   0.00740  -0.93795
   D12       -1.10273  -0.00327   0.00000  -0.05251  -0.05169  -1.15442
   D13       -3.11152  -0.00366   0.00000  -0.05863  -0.05780   3.11387
   D14        3.14002   0.00208   0.00000   0.01618   0.01520  -3.12796
   D15        1.13123   0.00169   0.00000   0.01006   0.00909   1.14032
   D16        0.02420  -0.00502   0.00000  -0.03992  -0.03940  -0.01519
   D17        3.12645  -0.00514   0.00000  -0.03824  -0.03771   3.08874
   D18        2.15238   0.00718   0.00000   0.06860   0.06780   2.22017
   D19       -1.02856   0.00706   0.00000   0.07029   0.06949  -0.95908
   D20       -2.07998  -0.00162   0.00000  -0.01412  -0.01386  -2.09384
   D21        1.02226  -0.00174   0.00000  -0.01244  -0.01216   1.01010
   D22       -0.04456   0.00110   0.00000   0.02591   0.02594  -0.01862
   D23        3.13729   0.00136   0.00000   0.02471   0.02468  -3.12121
   D24        3.11529  -0.00246   0.00000  -0.05436  -0.05419   3.06111
   D25        1.02048  -0.00326   0.00000  -0.06332  -0.06315   0.95733
   D26       -1.03997   0.00268   0.00000  -0.00187  -0.00217  -1.04214
   D27       -0.06434  -0.00211   0.00000  -0.05101  -0.05087  -0.11521
   D28       -2.15916  -0.00291   0.00000  -0.05997  -0.05983  -2.21899
   D29        2.06358   0.00303   0.00000   0.00148   0.00115   2.06473
   D30        3.09717  -0.00134   0.00000  -0.03405  -0.03344   3.06373
   D31        0.97249  -0.00136   0.00000  -0.04469  -0.04447   0.92802
   D32       -1.10303   0.00042   0.00000  -0.02142  -0.02113  -1.12416
   D33        3.05548   0.00040   0.00000  -0.03206  -0.03216   3.02332
   D34        1.00509  -0.00247   0.00000  -0.05715  -0.05746   0.94762
   D35       -1.11959  -0.00250   0.00000  -0.06778  -0.06849  -1.18809
   D36       -3.08239   0.00251   0.00000   0.01395   0.01287  -3.06953
   D37        1.13374  -0.00768   0.00000  -0.07538  -0.07398   1.05976
   D38       -1.00238   0.00121   0.00000   0.01050   0.01056  -0.99182
   D39       -0.97134   0.00501   0.00000   0.04349   0.04215  -0.92919
   D40       -3.03839  -0.00518   0.00000  -0.04584  -0.04470  -3.08309
   D41        1.10867   0.00371   0.00000   0.04003   0.03985   1.14852
   D42       -1.01658   0.00282   0.00000   0.01645   0.01496  -1.00163
   D43       -3.01532   0.00076   0.00000  -0.01309  -0.01492  -3.03024
   D44        1.05627   0.00145   0.00000   0.01904   0.02086   1.07713
   D45       -0.94247  -0.00061   0.00000  -0.01050  -0.00901  -0.95148
   D46       -3.12735  -0.00193   0.00000  -0.01534  -0.01517   3.14067
   D47        1.15710  -0.00399   0.00000  -0.04487  -0.04504   1.11206
         Item               Value     Threshold  Converged?
 Maximum Force            0.043406     0.000450     NO 
 RMS     Force            0.007060     0.000300     NO 
 Maximum Displacement     0.352153     0.001800     NO 
 RMS     Displacement     0.094933     0.001200     NO 
 Predicted change in Energy=-1.063378D-02
 GradGradGradGradGradGradGradGradGradGradGradGradGradGradGradGradGradGrad

                          Input orientation:                          
 ---------------------------------------------------------------------
 Center     Atomic      Atomic             Coordinates (Angstroms)
 Number     Number       Type             X           Y           Z
 ---------------------------------------------------------------------
      1          6           0        0.905996   -0.027936    0.013746
      2          6           0        2.428056    0.102515   -0.146775
      3          7           0        3.068215   -1.023406   -0.857646
      4          6           0        2.877291    1.397572   -0.838860
      5          7           0        2.116611    2.314409   -1.280033
      6          6           0        4.377777    1.578733   -0.942383
      7          7           0        4.751046    2.769108   -1.701034
      8          6           0        6.180955    3.017946   -1.725601
      9          7           0        6.429800    4.283507   -2.426127
     10          1           0        0.664530   -0.960732    0.530927
     11          1           0        0.412134   -0.050214   -0.963958
     12          1           0        0.465943    0.791517    0.596467
     13          1           0        2.878622    0.118777    0.854585
     14          1           0        2.691212   -1.072535   -1.801047
     15          1           0        2.813372   -1.898725   -0.408963
     16          1           0        1.140007    2.068318   -1.128256
     17          1           0        4.794142    0.695861   -1.437705
     18          1           0        4.769612    1.579627    0.091526
     19          1           0        4.278829    3.580530   -1.315728
     20          1           0        6.650287    2.141641   -2.205308
     21          1           0        6.622761    3.110374   -0.715878
     22          1           0        6.026941    4.206206   -3.356718
     23          1           0        7.426743    4.439106   -2.554812
 ---------------------------------------------------------------------
                    Distance matrix (angstroms):
                    1          2          3          4          5
     1  C    0.000000
     2  C    1.536051   0.000000
     3  N    2.534852   1.477443   0.000000
     4  C    2.577792   1.535566   2.428567   0.000000
     5  N    2.937011   2.504745   3.496423   1.270377   0.000000
     6  C    3.943200   2.571696   2.914319   1.514924   2.401687
     7  N    5.054536   3.862993   4.233956   2.476977   2.706333
     8  C    6.334660   5.007661   5.174458   3.784986   4.148781
     9  N    7.419834   6.220136   6.474852   4.844415   4.877959
    10  H    1.093567   2.167902   2.776646   3.512011   4.014307
    11  H    1.095583   2.180610   2.830755   2.861596   2.931994
    12  H    1.097595   2.208398   3.490016   2.870900   2.926629
    13  H    2.149368   1.098178   2.066945   2.122044   3.155638
    14  H    2.751664   2.046121   1.017129   2.657416   3.474624
    15  H    2.704924   2.054793   1.016093   3.324827   4.358296
    16  H    2.398586   2.546911   3.653762   1.884623   1.018504
    17  H    4.212870   2.759877   2.504231   2.127283   3.132688
    18  H    4.185431   2.778764   3.251378   2.116516   3.075629
    19  H    5.115128   4.109550   4.782432   2.637616   2.505898
    20  H    6.529023   5.120822   4.966382   4.081215   4.630356
    21  H    6.562221   5.192942   5.453717   4.120360   4.610556
    22  H    7.450642   6.332139   6.507554   4.914095   4.814790
    23  H    8.310963   7.042125   7.191396   5.735236   5.859770
                    6          7          8          9         10
     6  C    0.000000
     7  N    1.460094   0.000000
     8  C    2.436435   1.451607   0.000000
     9  N    3.705145   2.374317   1.467755   0.000000
    10  H    4.733679   5.965984   7.166082   8.335739   0.000000
    11  H    4.287220   5.226664   6.578221   7.558531   1.768454
    12  H    4.276706   5.248951   6.558227   7.543054   1.764683
    13  H    2.758265   4.130546   5.095875   6.381137   2.484410
    14  H    3.257457   4.360176   5.377362   6.561627   3.091608
    15  H    3.850275   5.216579   6.103098   7.440934   2.526013
    16  H    3.279846   3.722738   5.164277   5.879918   3.486275
    17  H    1.094608   2.090347   2.719965   4.064918   4.865543
    18  H    1.105668   2.151391   2.713411   4.050403   4.847493
    19  H    2.038718   1.014818   2.025482   2.520682   6.090677
    20  H    2.660103   2.062795   1.103767   2.164478   7.276055
    21  H    2.727120   2.142502   1.106019   2.082889   7.323178
    22  H    3.930951   2.536622   2.023913   1.016991   8.400386
    23  H    4.480832   3.267597   2.063801   1.017185   9.187358
                   11         12         13         14         15
    11  H    0.000000
    12  H    1.773791   0.000000
    13  H    3.069075   2.517980   0.000000
    14  H    2.634399   3.764915   2.916629   0.000000
    15  H    3.080740   3.709274   2.381412   1.623395   0.000000
    16  H    2.246102   2.249280   3.279504   3.567050   4.365200
    17  H    4.470242   4.783337   3.042505   2.771562   3.422520
    18  H    4.770539   4.404276   2.508423   3.864653   4.021977
    19  H    5.315767   5.096390   4.319094   4.940352   5.743869
    20  H    6.727535   6.922347   5.261215   5.115528   5.854343
    21  H    6.973002   6.708633   5.043271   5.842208   6.300533
    22  H    7.441000   7.629711   6.659884   6.435240   7.502431
    23  H    8.478771   8.466889   7.139652   7.305587   8.127482
                   16         17         18         19         20
    16  H    0.000000
    17  H    3.915622   0.000000
    18  H    3.860145   1.766407   0.000000
    19  H    3.489145   2.932873   2.494964   0.000000
    20  H    5.615033   2.474827   3.021299   2.913000   0.000000
    21  H    5.596117   3.113640   2.535596   2.464728   1.776965
    22  H    5.780893   4.186278   4.513334   2.759168   2.444736
    23  H    6.868678   4.710668   4.715938   3.490250   2.450180
                   21         22         23
    21  H    0.000000
    22  H    2.920597   0.000000
    23  H    2.406989   1.629951   0.000000
 Stoichiometry    C5H14N4
 Framework group  C1[X(C5H14N4)]
 Deg. of freedom    63
 Full point group                 C1      NOp   1
 Largest Abelian subgroup         C1      NOp   1
 Largest concise Abelian subgroup C1      NOp   1
                         Standard orientation:                         
 ---------------------------------------------------------------------
 Center     Atomic      Atomic             Coordinates (Angstroms)
 Number     Number       Type             X           Y           Z
 ---------------------------------------------------------------------
      1          6           0       -3.357639    0.603082    0.167771
      2          6           0       -2.126663   -0.300574    0.333775
      3          7           0       -2.156490   -1.532822   -0.480789
      4          6           0       -0.790172    0.402203    0.054742
      5          7           0       -0.639663    1.612334   -0.301331
      6          6           0        0.440065   -0.451942    0.282664
      7          7           0        1.675790    0.226079   -0.098317
      8          6           0        2.873929   -0.534432    0.207050
      9          7           0        4.049357    0.279502   -0.124893
     10          1           0       -4.266298    0.041596    0.402208
     11          1           0       -3.442060    0.959791   -0.864670
     12          1           0       -3.336395    1.479705    0.827919
     13          1           0       -2.084304   -0.634199    1.379191
     14          1           0       -2.183093   -1.275244   -1.464403
     15          1           0       -3.018867   -2.039259   -0.301143
     16          1           0       -1.545118    2.068485   -0.398426
     17          1           0        0.336433   -1.364381   -0.313056
     18          1           0        0.420739   -0.759663    1.344472
     19          1           0        1.726716    1.127316    0.365402
     20          1           0        2.808171   -1.477801   -0.362188
     21          1           0        2.954998   -0.805721    1.276212
     22          1           0        3.982690    0.532557   -1.107639
     23          1           0        4.906316   -0.258849   -0.022589
 ---------------------------------------------------------------------
 Rotational constants (GHZ):           4.0768758           0.6480223           0.5837450
 Standard basis: 6-31G(2df,p) (6D, 7F)
 There are   349 symmetry adapted cartesian basis functions of A   symmetry.
 There are   322 symmetry adapted basis functions of A   symmetry.
   322 basis functions,   494 primitive gaussians,   349 cartesian basis functions
    36 alpha electrons       36 beta electrons
       nuclear repulsion energy       465.8200029332 Hartrees.
 NAtoms=   23 NActive=   23 NUniq=   23 SFac= 1.00D+00 NAtFMM=   60 NAOKFM=F Big=F
 Integral buffers will be    131072 words long.
 Raffenetti 2 integral format.
 Two-electron integral symmetry is turned on.
 One-electron integrals computed using PRISM.
 PrsmSu:  requested number of processors reduced to:  13 ShMem   1 Linda.
 NBasis=   322 RedAO= T EigKep=  2.91D-04  NBF=   322
 NBsUse=   322 1.00D-06 EigRej= -1.00D+00 NBFU=   322
 Initial guess from the checkpoint file:  "CCpNpCpdNpCNCN.chk"
 B after Tr=     0.000000   -0.000000    0.000000
         Rot=    0.999934    0.010002    0.002379   -0.005037 Ang=   1.31 deg.
 ExpMin= 1.61D-01 ExpMax= 4.17D+03 ExpMxC= 6.27D+02 IAcc=2 IRadAn=         4 AccDes= 0.00D+00
 Harris functional with IExCor=  402 and IRadAn=       4 diagonalized for initial guess.
 HarFok:  IExCor=  402 AccDes= 0.00D+00 IRadAn=         4 IDoV= 1 UseB2=F ITyADJ=14
 ICtDFT=  3500011 ScaDFX=  1.000000  1.000000  1.000000  1.000000
 FoFCou: FMM=F IPFlag=           0 FMFlag=      100000 FMFlg1=           0
         NFxFlg=           0 DoJE=T BraDBF=F KetDBF=T FulRan=T
         wScrn=  0.000000 ICntrl=       500 IOpCl=  0 I1Cent=   200000004 NGrid=           0
         NMat0=    1 NMatS0=      1 NMatT0=    0 NMatD0=    1 NMtDS0=    0 NMtDT0=    0
 Petite list used in FoFCou.
 Requested convergence on RMS density matrix=1.00D-08 within 128 cycles.
 Requested convergence on MAX density matrix=1.00D-06.
 Requested convergence on             energy=1.00D-06.
 No special actions if energy rises.
 Integral accuracy reduced to 1.0D-05 until final iterations.
 Initial convergence to 1.0D-05 achieved.  Increase integral accuracy.
 SCF Done:  E(RB3LYP) =  -417.963082790     A.U. after   11 cycles
            NFock= 11  Conv=0.75D-08     -V/T= 2.0079
 PrsmSu:  requested number of processors reduced to:  13 ShMem   1 Linda.
 Calling FoFJK, ICntrl=      2127 FMM=F ISym2X=0 I1Cent= 0 IOpClX= 0 NMat=1 NMatS=1 NMatT=0.
 ***** Axes restored to original set *****
 -------------------------------------------------------------------
 Center     Atomic                   Forces (Hartrees/Bohr)
 Number     Number              X              Y              Z
 -------------------------------------------------------------------
      1        6           0.000676026    0.001681990   -0.001171253
      2        6           0.002033376   -0.000467598   -0.001798431
      3        7          -0.002856091    0.000191863    0.001134321
      4        6           0.000957200    0.002439469    0.000671775
      5        7          -0.000292784   -0.000754365    0.001091948
      6        6           0.000729613    0.006852297   -0.008301682
      7        7           0.000074095   -0.001397499    0.003950804
      8        6           0.001820031    0.001430242   -0.000989431
      9        7          -0.004498173   -0.003239221   -0.000158535
     10        1           0.000291847   -0.000636920    0.000010694
     11        1          -0.000621238   -0.000511433   -0.000279298
     12        1           0.001883681   -0.000567428   -0.000424648
     13        1           0.000090095   -0.000029679    0.000971156
     14        1          -0.000188576   -0.000562987   -0.000636730
     15        1           0.000274895   -0.000202248    0.000497264
     16        1          -0.003590471    0.000994567   -0.000241222
     17        1           0.001396630   -0.001018551    0.002298428
     18        1           0.002436683   -0.001990189    0.001652391
     19        1          -0.001815618    0.000456686   -0.001625426
     20        1           0.000989000   -0.000968983    0.000726316
     21        1           0.001559393   -0.000225661    0.000396278
     22        1          -0.000020384    0.000272940   -0.000171496
     23        1          -0.001329231   -0.001747292    0.002396775
 -------------------------------------------------------------------
 Cartesian Forces:  Max     0.008301682 RMS     0.001963548

 GradGradGradGradGradGradGradGradGradGradGradGradGradGradGradGradGradGrad
 Berny optimization.
 Using GEDIIS/GDIIS optimizer.
 FormGI is forming the generalized inverse of G from B-inverse, IUseBI=4.
 Internal  Forces:  Max     0.007593085 RMS     0.001730732
 Search for a local minimum.
 Step number   2 out of a maximum of  116
 All quantities printed in internal units (Hartrees-Bohrs-Radians)
 Mixed Optimization -- RFO/linear search
 Update second derivatives using D2CorX and points    1    2
 DE= -8.69D-03 DEPred=-1.06D-02 R= 8.18D-01
 TightC=F SS=  1.41D+00  RLast= 3.58D-01 DXNew= 5.0454D-01 1.0734D+00
 Trust test= 8.18D-01 RLast= 3.58D-01 DXMaxT set to 5.05D-01
 ITU=  1  0
 Use linear search instead of GDIIS.
     Eigenvalues ---    0.00230   0.00299   0.00428   0.00701   0.00763
     Eigenvalues ---    0.00773   0.01198   0.01307   0.02878   0.02962
     Eigenvalues ---    0.03965   0.04531   0.04788   0.04826   0.04920
     Eigenvalues ---    0.05369   0.05686   0.05726   0.06246   0.06934
     Eigenvalues ---    0.07115   0.09673   0.09957   0.11295   0.12866
     Eigenvalues ---    0.13249   0.15932   0.16000   0.16000   0.16000
     Eigenvalues ---    0.16000   0.16000   0.16000   0.16497   0.18410
     Eigenvalues ---    0.19224   0.21946   0.22830   0.23882   0.24817
     Eigenvalues ---    0.25784   0.27897   0.29007   0.30065   0.33681
     Eigenvalues ---    0.34020   0.34058   0.34170   0.34256   0.34291
     Eigenvalues ---    0.34329   0.34378   0.35414   0.35935   0.40716
     Eigenvalues ---    0.42375   0.44130   0.44156   0.44298   0.44472
     Eigenvalues ---    0.44798   0.45140   0.65904
 RFO step:  Lambda=-2.11983671D-03 EMin= 2.30226228D-03
 Quartic linear search produced a step of -0.07420.
 Iteration  1 RMS(Cart)=  0.10376437 RMS(Int)=  0.00602030
 Iteration  2 RMS(Cart)=  0.00745731 RMS(Int)=  0.00007323
 Iteration  3 RMS(Cart)=  0.00004351 RMS(Int)=  0.00007069
 Iteration  4 RMS(Cart)=  0.00000000 RMS(Int)=  0.00007069
 Variable       Old X    -DE/DX   Delta X   Delta X   Delta X     New X
                                 (Linear)    (Quad)   (Total)
    R1        2.90271  -0.00240  -0.00147  -0.00469  -0.00617   2.89655
    R2        2.06654   0.00048   0.00010   0.00111   0.00121   2.06775
    R3        2.07035   0.00054   0.00020   0.00109   0.00129   2.07165
    R4        2.07415  -0.00140  -0.00026  -0.00330  -0.00356   2.07060
    R5        2.79196  -0.00124  -0.00112  -0.00115  -0.00227   2.78969
    R6        2.90180  -0.00030   0.00156  -0.00380  -0.00224   2.89956
    R7        2.07526   0.00092  -0.00021   0.00286   0.00264   2.07790
    R8        1.92209   0.00069   0.00060   0.00035   0.00095   1.92305
    R9        1.92014   0.00033   0.00071  -0.00060   0.00011   1.92025
   R10        2.40066   0.00220   0.00474  -0.00537  -0.00063   2.40003
   R11        2.86279   0.00113   0.00287  -0.00162   0.00124   2.86403
   R12        1.92469   0.00317  -0.00011   0.00668   0.00657   1.93127
   R13        2.75918  -0.00759   0.00140  -0.02195  -0.02055   2.73862
   R14        2.06851   0.00031  -0.00000   0.00084   0.00084   2.06935
   R15        2.08941   0.00241  -0.00134   0.00886   0.00752   2.09693
   R16        2.74314  -0.00226  -0.00316   0.00064  -0.00252   2.74062
   R17        1.91773   0.00059   0.00077  -0.00015   0.00062   1.91835
   R18        2.77366  -0.00604  -0.00428  -0.00615  -0.01043   2.76323
   R19        2.08582   0.00087  -0.00132   0.00470   0.00338   2.08920
   R20        2.09007   0.00097  -0.00178   0.00577   0.00399   2.09406
   R21        1.92183   0.00014   0.00030  -0.00024   0.00006   1.92189
   R22        1.92220  -0.00187  -0.00005  -0.00373  -0.00378   1.91842
    A1        1.91841  -0.00046   0.00271  -0.00881  -0.00612   1.91230
    A2        1.93386   0.00120   0.00030   0.00767   0.00802   1.94188
    A3        1.97072  -0.00207  -0.00319  -0.00609  -0.00930   1.96142
    A4        1.88091  -0.00028   0.00006  -0.00126  -0.00115   1.87976
    A5        1.87258   0.00102   0.00042   0.00244   0.00277   1.87535
    A6        1.88414   0.00066  -0.00028   0.00627   0.00604   1.89017
    A7        1.99863  -0.00206  -0.00679   0.00303  -0.00375   1.99488
    A8        1.99173  -0.00187  -0.00153  -0.00634  -0.00785   1.98388
    A9        1.88864   0.00084   0.00135  -0.00515  -0.00393   1.88471
   A10        1.87454   0.00359   0.00259   0.01562   0.01845   1.89299
   A11        1.84652  -0.00001   0.00338  -0.00346  -0.00005   1.84647
   A12        1.85298  -0.00029   0.00168  -0.00437  -0.00267   1.85030
   A13        1.89915   0.00082   0.00074   0.00409   0.00483   1.90397
   A14        1.91278  -0.00021  -0.00017  -0.00010  -0.00027   1.91251
   A15        1.84938  -0.00012  -0.00064   0.00220   0.00155   1.85093
   A16        2.20187  -0.00154  -0.00421   0.00167  -0.00268   2.19919
   A17        2.00580  -0.00081   0.00309  -0.00890  -0.00595   1.99986
   A18        2.07492   0.00235   0.00111   0.00621   0.00716   2.08208
   A19        1.92625   0.00380   0.00374   0.01461   0.01836   1.94461
   A20        1.96732  -0.00119  -0.00285   0.00481   0.00193   1.96925
   A21        1.88728   0.00145   0.00034   0.01292   0.01321   1.90048
   A22        1.86211   0.00018   0.00154  -0.00362  -0.00200   1.86011
   A23        1.90203   0.00066   0.00070   0.00623   0.00683   1.90886
   A24        1.97644   0.00090  -0.00248   0.00846   0.00600   1.98244
   A25        1.86397  -0.00201   0.00303  -0.03051  -0.02743   1.83655
   A26        1.98272  -0.00273  -0.00273  -0.00243  -0.00518   1.97754
   A27        1.91308   0.00145  -0.00100   0.01620   0.01515   1.92822
   A28        1.90469   0.00100   0.00136   0.00872   0.01005   1.91475
   A29        1.89958  -0.00658  -0.00511  -0.01819  -0.02319   1.87639
   A30        1.86514   0.00242   0.00464   0.00367   0.00856   1.87371
   A31        1.97399   0.00228  -0.00093   0.01161   0.01063   1.98462
   A32        1.98781   0.00203  -0.00510   0.01885   0.01374   2.00155
   A33        1.87124   0.00163   0.00327  -0.00279   0.00050   1.87173
   A34        1.86844  -0.00156   0.00295  -0.01200  -0.00910   1.85934
   A35        1.87972   0.00117  -0.00073   0.00835   0.00767   1.88739
   A36        1.93740  -0.00396  -0.00282  -0.01690  -0.01968   1.91772
   A37        1.85887   0.00127  -0.00030   0.00850   0.00830   1.86717
    D1        0.99170  -0.00061   0.00195  -0.00692  -0.00494   0.98676
    D2       -3.12108   0.00102  -0.00109   0.01197   0.01077  -3.11031
    D3       -1.06274   0.00009   0.00098  -0.00088   0.00008  -1.06266
    D4       -1.08530  -0.00072  -0.00012  -0.00456  -0.00461  -1.08991
    D5        1.08510   0.00090  -0.00316   0.01434   0.01110   1.09620
    D6       -3.13975  -0.00002  -0.00108   0.00148   0.00041  -3.13934
    D7        3.08191  -0.00099   0.00218  -0.01395  -0.01166   3.07025
    D8       -1.03087   0.00063  -0.00085   0.00495   0.00405  -1.02682
    D9        1.02747  -0.00030   0.00122  -0.00791  -0.00664   1.02083
   D10        1.07695  -0.00045  -0.00100  -0.01767  -0.01867   1.05827
   D11       -0.93795  -0.00065  -0.00055  -0.02252  -0.02308  -0.96103
   D12       -1.15442   0.00065   0.00384  -0.02434  -0.02057  -1.17499
   D13        3.11387   0.00045   0.00429  -0.02920  -0.02497   3.08890
   D14       -3.12796  -0.00060  -0.00113  -0.02466  -0.02573   3.12949
   D15        1.14032  -0.00080  -0.00067  -0.02952  -0.03013   1.11019
   D16       -0.01519   0.00015   0.00292  -0.05535  -0.05251  -0.06771
   D17        3.08874  -0.00013   0.00280  -0.08761  -0.08479   3.00396
   D18        2.22017  -0.00106  -0.00503  -0.04335  -0.04838   2.17179
   D19       -0.95908  -0.00135  -0.00516  -0.07561  -0.08066  -1.03973
   D20       -2.09384   0.00039   0.00103  -0.04234  -0.04139  -2.13523
   D21        1.01010   0.00011   0.00090  -0.07460  -0.07367   0.93643
   D22       -0.01862  -0.00005  -0.00192  -0.00895  -0.01093  -0.02955
   D23       -3.12121   0.00031  -0.00183   0.02476   0.02299  -3.09823
   D24        3.06111  -0.00016   0.00402  -0.09102  -0.08695   2.97416
   D25        0.95733  -0.00122   0.00469  -0.11062  -0.10595   0.85138
   D26       -1.04214   0.00032   0.00016  -0.07973  -0.07950  -1.12165
   D27       -0.11521  -0.00051   0.00377  -0.12084  -0.11709  -0.23229
   D28       -2.21899  -0.00157   0.00444  -0.14044  -0.13608  -2.35507
   D29        2.06473  -0.00002  -0.00009  -0.10955  -0.10964   1.95509
   D30        3.06373  -0.00113   0.00248  -0.08707  -0.08463   2.97910
   D31        0.92802  -0.00159   0.00330  -0.10871  -0.10545   0.82257
   D32       -1.12416   0.00038   0.00157  -0.06347  -0.06190  -1.18605
   D33        3.02332  -0.00008   0.00239  -0.08512  -0.08271   2.94060
   D34        0.94762  -0.00114   0.00426  -0.09227  -0.08798   0.85964
   D35       -1.18809  -0.00160   0.00508  -0.11391  -0.10880  -1.29688
   D36       -3.06953  -0.00029  -0.00095  -0.02182  -0.02269  -3.09221
   D37        1.05976  -0.00034   0.00549  -0.03616  -0.03074   1.02902
   D38       -0.99182  -0.00126  -0.00078  -0.03036  -0.03119  -1.02301
   D39       -0.92919   0.00044  -0.00313   0.00389   0.00087  -0.92831
   D40       -3.08309   0.00039   0.00332  -0.01045  -0.00718  -3.09027
   D41        1.14852  -0.00054  -0.00296  -0.00465  -0.00763   1.14089
   D42       -1.00163  -0.00028  -0.00111  -0.02213  -0.02309  -1.02472
   D43       -3.03024  -0.00034   0.00111  -0.02803  -0.02672  -3.05696
   D44        1.07713  -0.00051  -0.00155  -0.01815  -0.01987   1.05726
   D45       -0.95148  -0.00057   0.00067  -0.02405  -0.02350  -0.97498
   D46        3.14067  -0.00016   0.00113  -0.02381  -0.02274   3.11794
   D47        1.11206  -0.00022   0.00334  -0.02971  -0.02636   1.08570
         Item               Value     Threshold  Converged?
 Maximum Force            0.007593     0.000450     NO 
 RMS     Force            0.001731     0.000300     NO 
 Maximum Displacement     0.397638     0.001800     NO 
 RMS     Displacement     0.106330     0.001200     NO 
 Predicted change in Energy=-1.297285D-03
 GradGradGradGradGradGradGradGradGradGradGradGradGradGradGradGradGradGrad

                          Input orientation:                          
 ---------------------------------------------------------------------
 Center     Atomic      Atomic             Coordinates (Angstroms)
 Number     Number       Type             X           Y           Z
 ---------------------------------------------------------------------
      1          6           0        0.940484   -0.012878    0.055724
      2          6           0        2.450336    0.078972   -0.191961
      3          7           0        3.006965   -1.042612   -0.973945
      4          6           0        2.887688    1.394294   -0.849972
      5          7           0        2.117522    2.323809   -1.244752
      6          6           0        4.388387    1.588875   -0.933810
      7          7           0        4.763235    2.725145   -1.751496
      8          6           0        6.173842    3.051537   -1.668165
      9          7           0        6.397553    4.246797   -2.480225
     10          1           0        0.707698   -0.959040    0.553597
     11          1           0        0.380681    0.014582   -0.886438
     12          1           0        0.573103    0.795378    0.697862
     13          1           0        2.957102    0.044469    0.783267
     14          1           0        2.560977   -1.064445   -1.888382
     15          1           0        2.769185   -1.922302   -0.524313
     16          1           0        1.135439    2.082864   -1.096746
     17          1           0        4.841240    0.680505   -1.344813
     18          1           0        4.758243    1.652084    0.110475
     19          1           0        4.208473    3.538703   -1.504749
     20          1           0        6.738699    2.159098   -1.994887
     21          1           0        6.517587    3.283521   -0.640558
     22          1           0        6.107220    4.041178   -3.432990
     23          1           0        7.389220    4.461666   -2.512300
 ---------------------------------------------------------------------
                    Distance matrix (angstroms):
                    1          2          3          4          5
     1  C    0.000000
     2  C    1.532788   0.000000
     3  N    2.528026   1.476240   0.000000
     4  C    2.567493   1.534382   2.442970   0.000000
     5  N    2.921774   2.501685   3.492454   1.270041   0.000000
[...]
 0036902,-0.00018387,-0.00008599,0.00011833,-0.00004993,0.00017863,-0.0
 0012140,-0.00007725,-0.00000280,0.00002619,0.00003406,-0.00001072,0.00
 013868,-0.00000150,0.00022214,0.00072976,0.00023830,0.00035071,-0.0000
 7871,-0.00007280,0.00016539,0.00141065,-0.00415736,-0.00438063,-0.0179
 3577,0.06583644,-0.00048988,0.00185737,0.00122430,-0.01519807,-0.00139
 629,-0.02273724,-0.15887497,0.02037029,-0.29383687,-0.00013252,0.00081
 814,0.00094537,0.00023872,-0.00046364,-0.00032695,-0.00007777,0.000104
 22,-0.00029909,0.00003310,0.00000014,0.00003432,0.00000524,0.00002513,
 0.00000371,0.00001420,0.00000054,-0.00000434,0.00019510,0.00001128,-0.
 00022166,0.00120564,-0.00030923,-0.00007345,-0.00036590,0.00022590,0.0
 0087847,0.00179338,-0.00421918,-0.00109304,0.18368916,-0.01638413,0.32
 933936,0.00111112,0.00112445,-0.00133164,-0.00343718,0.01549137,-0.000
 44421,-0.03070192,-0.10147538,0.03860154,-0.00042727,0.00040489,0.0006
 0898,0.00005461,-0.00007118,0.00007791,-0.00041266,0.00027591,-0.00027
 610,-0.00027647,-0.00013039,0.00012817,0.00037596,0.00005011,0.0000464
 5,-0.00009558,-0.00006772,0.00002482,-0.00026264,-0.00024229,0.0007398
 3,-0.00011078,0.00014261,-0.00000537,0.00015173,-0.00047112,0.00005178
 ,0.00002387,-0.00095576,-0.00019680,-0.00055543,0.02140821,-0.01201966
 ,0.03402206,-0.00013021,0.00160688,0.00153809,-0.00949928,-0.02714500,
 0.01178013,-0.05359459,-0.33530481,0.13563003,0.00273806,-0.00215500,-
 0.00561667,-0.00043380,-0.00046634,0.00169417,0.00013315,0.00021808,0.
 00018921,-0.00025466,0.00002627,0.00014457,0.00014398,0.00006153,0.000
 04372,-0.00003262,-0.00003582,0.00000259,0.00103788,0.00035649,-0.0005
 2601,0.00014032,-0.00004118,-0.00012360,-0.00060776,0.00050626,0.00007
 613,-0.00047745,0.00121268,0.00005819,-0.00421389,-0.00197071,-0.00028
 915,0.06513956,0.36355113,-0.00067444,-0.00078787,0.00040121,-0.003401
 56,-0.02717236,0.00891629,0.01747113,0.14175926,-0.12694040,0.00249736
 ,-0.00178055,-0.00386145,0.00004590,-0.00132292,0.00225781,-0.00001006
 ,-0.00014074,0.00027131,-0.00013838,0.00007650,-0.00000020,0.00001629,
 0.00000384,0.00003625,-0.00001273,-0.00000472,-0.00000801,0.00034725,0
 .00037727,-0.00011075,0.00002040,0.00022975,-0.00008116,-0.00004134,0.
 00007151,-0.00014096,-0.00050582,0.00051645,0.00088168,0.01039517,0.03
 220973,-0.01423352,-0.02573323,-0.14394085,0.13307633,0.00129816,-0.00
 086769,0.00070800,0.00066418,-0.00226654,0.00123894,0.00024801,-0.0003
 5331,0.00005155,-0.03531839,-0.00956773,0.00501200,-0.37544396,-0.0614
 7111,0.03807678,0.00043718,0.00451569,-0.00025330,0.00063623,0.0006045
 8,-0.00060770,0.00021518,0.00026628,0.00005041,-0.00003544,-0.00016927
 ,0.00004141,0.00056070,-0.00050286,0.00005137,0.00000161,-0.00073227,0
 .00042992,0.00005969,-0.00037241,-0.00014493,-0.00008112,-0.00026790,0
 .00021459,-0.00007078,0.00019229,0.00003487,0.00002171,0.00000611,-0.0
 0014064,0.40822745,0.00045697,-0.00043102,0.00201079,0.00148051,-0.000
 88452,-0.00531434,-0.00054788,-0.00085184,0.00078310,0.04189759,-0.002
 19400,0.00053137,-0.11391683,-0.05708979,0.01238048,0.00023591,-0.0001
 3339,0.00859472,-0.00208558,0.00032312,-0.00030550,0.00025715,0.000763
 38,0.00004400,0.00000171,-0.00020255,0.00002356,0.00005091,0.00005873,
 -0.00075188,-0.00154880,-0.00170105,0.00003342,-0.00027104,-0.00026483
 ,0.00011090,-0.00018687,0.00103446,-0.00040405,0.00017372,-0.00010223,
 -0.00009208,0.00018044,-0.00025339,-0.00017167,0.07098627,0.06116516,0
 .00016010,0.00130486,0.00092921,-0.00148972,-0.00340106,-0.00963097,0.
 00052313,-0.00255642,0.00098388,-0.01776081,0.00205477,0.00095186,0.06
 273426,0.01100335,-0.04219072,-0.00081188,0.00880490,0.01356259,0.0001
 7702,0.00046428,-0.00012856,-0.00015418,-0.00031266,0.00023881,-0.0000
 3647,0.00002442,-0.00010932,-0.00005997,-0.00056151,-0.00043864,-0.000
 11812,0.00020071,0.00000060,0.00040853,0.00034281,-0.00142096,0.000458
 58,0.00156558,-0.00042901,-0.00009391,-0.00021564,0.00026200,-0.000109
 03,-0.00058944,-0.00046441,-0.04399195,-0.01649255,0.03823129,0.000082
 05,-0.00007895,-0.00017706,-0.00013336,0.00108899,0.00018206,0.0001165
 2,-0.00031452,-0.00037896,-0.01326734,0.03009655,0.01067511,-0.0054742
 8,-0.00099709,0.00178047,-0.09226258,0.08967071,0.03602993,0.00574095,
 -0.00945938,-0.00305435,0.00158488,-0.00100998,-0.00029251,-0.00016733
 ,-0.00001849,0.00030615,0.00004220,-0.00008308,0.00006694,0.00011495,0
 .00010099,0.00006375,0.00017230,-0.00011165,-0.00017788,0.00005935,-0.
 00021858,0.00006362,-0.00011358,0.00001114,-0.00006212,0.00059416,-0.0
 0019566,-0.00021450,-0.00132022,-0.00043986,-0.00295341,0.09972853,0.0
 0013672,-0.00003912,-0.00019532,0.00064491,0.00006494,-0.00007266,-0.0
 0223936,-0.00237952,0.00053516,0.00208355,0.00402572,0.00164969,-0.001
 89505,0.00094575,-0.00047934,0.09054003,-0.22790848,-0.06524192,0.0093
 0719,-0.02525263,0.00434535,0.00282001,-0.00059149,-0.00001554,-0.0007
 3058,0.00034251,0.00001645,0.00001968,0.00003736,-0.00000632,-0.000017
 26,0.00002989,-0.00001121,0.00005794,0.00002566,-0.00006754,0.00025011
 ,-0.00002614,-0.00003433,-0.00003639,-0.00005474,-0.00019581,-0.000340
 99,-0.00016547,0.00002508,-0.00023062,-0.00012177,-0.00084663,-0.09912
 930,0.25919795,-0.00010232,0.00007385,-0.00023369,0.00101219,-0.000342
 19,0.00007323,-0.00053030,-0.00014569,-0.00034343,-0.00247417,-0.00004
 027,-0.00080294,0.00046138,0.00006006,0.00061657,0.03781578,-0.0696649
 9,-0.07149114,-0.01188279,0.02514768,0.00443545,-0.00132776,0.00010730
 ,0.00049976,0.00020854,0.00031996,-0.00016329,0.00003056,0.00002906,-0
 .00001297,-0.00008156,-0.00001980,0.00001827,-0.00001995,0.00001436,0.
 00003768,0.00007953,-0.00007796,-0.00028365,-0.00044259,-0.00008886,0.
 00010652,0.00009371,-0.00000780,-0.00002424,-0.00030491,-0.00012058,0.
 00001199,-0.03799611,0.06586717,0.08077060,0.00014772,-0.00015603,0.00
 040053,0.00015465,0.00086193,0.00057730,0.00031460,0.00035444,0.000008
 93,-0.01358658,-0.00609211,-0.03195009,-0.00263079,-0.00120984,-0.0009
 7874,-0.06917430,-0.01454332,-0.06618357,0.00329362,-0.00222814,0.0098
 0934,0.00234477,0.00140648,0.00349047,-0.00020568,0.00005004,-0.000068
 07,-0.00005005,-0.00002971,0.00006009,0.00018371,0.00011264,0.00002007
 ,-0.00002658,-0.00000791,-0.00008814,-0.00008261,-0.00085376,0.0005572
 6,0.00000634,0.00011853,0.00003854,-0.00002197,0.00004300,-0.00000801,
 -0.00038909,0.00202267,0.00331569,0.00540627,0.00354472,0.01279384,0.0
 7421809,-0.00000376,0.00003336,0.00014979,0.00010440,-0.00012649,-0.00
 024158,-0.00021760,-0.00093731,0.00054025,0.00275409,-0.00013456,-0.00
 221114,-0.00044800,0.00036949,-0.00024530,-0.01603817,-0.05710453,-0.0
 4035552,0.00350417,-0.00035848,0.03129367,0.00426931,0.00303876,0.0027
 9169,-0.00004786,-0.00027716,-0.00021720,-0.00000545,-0.00000513,-0.00
 000370,0.00005971,0.00000397,0.00000129,-0.00003183,0.00003937,-0.0000
 0958,-0.00050240,-0.00048344,0.00027660,0.00010289,0.00006089,-0.00007
 260,-0.00043627,-0.00004973,0.00003039,0.00007269,0.00008227,-0.000064
 00,-0.00886741,-0.00527309,-0.02533744,0.01618502,0.06087241,0.0000177
 2,-0.00028199,0.00038337,-0.00087358,0.00031266,-0.00121151,-0.0002652
 3,-0.00036497,0.00059543,-0.00229061,-0.00073727,-0.00068008,0.0008570
 1,-0.00060921,0.00085714,-0.06275151,-0.04152854,-0.22245278,0.0010612
 2,0.01317145,-0.02927907,-0.00527539,-0.00070984,0.00200748,0.00047639
 ,0.00039000,0.00075500,-0.00007245,-0.00000797,0.00000286,0.00016415,0
 .00000876,0.00001262,-0.00004966,0.00005247,-0.00000859,0.00046024,-0.
 00021167,0.00079638,0.00018324,0.00017891,0.00003697,-0.00018176,-0.00
 001445,0.00001891,-0.00030247,-0.00025490,-0.00023155,-0.00507646,-0.0
 0510441,-0.01234491,0.07000896,0.03515690,0.26049345,-0.00008959,0.000
 08224,0.00000406,-0.00041080,0.00009740,-0.00025084,-0.00038219,0.0002
 7910,-0.00008340,0.00190905,-0.00201739,0.00105024,-0.00131820,-0.0018
 9124,0.00054084,0.00991503,-0.00628454,-0.00257274,-0.21416098,0.17594
 321,0.01422947,-0.02879211,0.02692122,0.00331096,0.00326812,0.00066114
 ,0.00019574,-0.00003264,0.00007818,-0.00003984,-0.00009630,-0.00009783
 ,-0.00004164,-0.00003271,0.00001669,0.00009996,0.00007215,0.00032807,-
 0.00027677,-0.00000062,-0.00009672,-0.00003903,0.00002364,0.00010381,0
 .00009965,0.00040272,0.00166261,-0.00043434,-0.00077544,-0.00336219,0.
 00184282,-0.00048222,-0.00038352,0.00107728,0.23325294,-0.00001758,0.0
 0022204,-0.00004156,0.00022968,-0.00035119,0.00006170,-0.00037804,0.00
 005279,-0.00004983,0.00262382,-0.00183280,0.00097406,0.00107995,0.0003
 8218,-0.00061497,0.01567600,-0.02519920,-0.00484882,0.18600118,-0.2598
 8065,0.00309321,-0.01295353,0.01128184,-0.00208291,0.00104992,0.000991
 42,-0.00084485,0.00002788,0.00008049,-0.00005593,-0.00007937,-0.000047
 13,-0.00003172,-0.00004906,0.00000541,0.00006829,0.00000820,0.00013781
 ,-0.00012175,-0.00002484,-0.00008436,0.00000594,-0.00003204,0.00005685
 ,0.00002802,0.00028920,0.00099835,-0.00068313,-0.00119948,-0.00310030,
 0.00462285,0.00009135,0.00081263,-0.00039090,-0.18912585,0.27537996,0.
 00000700,-0.00010244,0.00003472,-0.00024522,0.00024785,0.00035915,0.00
 001880,-0.00002152,-0.00007090,0.00074269,0.00043018,0.00188569,-0.000
 33636,-0.00012052,-0.00233337,-0.01511980,0.02295638,-0.00613778,0.041
 32433,-0.02737043,-0.02034592,-0.01123840,0.00185633,-0.00280804,0.000
 19270,-0.00049124,-0.00056862,-0.00002620,-0.00002481,0.00001698,0.000
 00585,0.00001069,-0.00001160,0.00002862,0.00000446,-0.00002081,-0.0000
 4340,-0.00006795,0.00001004,-0.00004157,-0.00002406,0.00001282,-0.0000
 3395,-0.00001550,0.00000626,-0.00009732,-0.00047598,-0.00012088,0.0009
 0184,0.00010798,-0.00085375,-0.00036804,0.00147663,-0.00052414,-0.0170
 4844,0.00028093,0.03007671,0.00000702,-0.00008827,0.00000389,-0.000046
 34,0.00011685,0.00003375,0.00009333,-0.00011210,-0.00001799,-0.0003581
 1,-0.00006868,-0.00016828,-0.00052726,-0.00038924,0.00012641,0.0007638
 6,0.00265419,-0.00124084,-0.03332249,0.02466178,-0.00038935,-0.1356112
 8,0.10091072,0.01590861,0.00902590,-0.00679232,-0.00066716,-0.00001690
 ,-0.00003135,0.00002088,0.00001656,0.00001600,0.00001054,0.00002050,-0
 .00000069,-0.00002669,-0.00001219,-0.00003620,0.00002066,-0.00002194,0
 .00002125,0.00000833,-0.00004180,-0.00002446,-0.00001111,-0.00004786,-
 0.00028114,0.00018622,-0.00006710,-0.00109627,0.00016408,-0.00012453,-
 0.00020926,0.00058873,-0.00477546,-0.00295576,0.00092756,0.16029157,-0
 .00000276,0.00001757,-0.00000770,0.00007246,-0.00006020,-0.00000277,-0
 .00006000,0.00004479,0.00002674,0.00045435,0.00046089,-0.00027324,-0.0
 0069679,0.00021052,-0.00001564,-0.00040664,0.00090187,0.00059770,-0.00
 776047,0.01150566,0.00111211,0.10892442,-0.18106293,-0.02391433,0.0106
 2783,-0.02747870,0.01018359,0.00001264,0.00000092,0.00000072,-0.000000
 37,0.00000397,0.00000144,-0.00000950,0.00000294,0.00000413,-0.00000073
 ,-0.00000212,-0.00001081,0.00001470,0.00000078,-0.00000451,0.00003337,
 0.00000426,0.00000092,-0.00011953,-0.00013916,0.00002642,0.00079576,0.
 00032070,-0.00037411,-0.00016329,-0.00035808,-0.00045133,-0.00280406,-
 0.00018713,-0.00003346,-0.11685572,0.20367536,-0.00000222,-0.00000997,
 -0.00000424,0.00001780,-0.00000852,-0.00002049,-0.00001000,-0.00001360
 ,-0.00000724,-0.00013629,0.00005096,-0.00010968,-0.00004285,-0.0000627
 4,0.00005932,0.00013512,-0.00005795,0.00035273,-0.00667275,0.00473487,
 0.00243700,0.01868916,-0.02534634,-0.05900620,-0.01302739,0.02689288,-
 0.00114816,-0.00000060,-0.00000203,0.00000338,0.00000039,0.00000263,0.
 00000204,-0.00000301,0.00000115,0.00000018,0.00000493,-0.00000814,-0.0
 0000503,-0.00001382,0.00000149,0.00000469,-0.00000055,-0.00000262,-0.0
 0000064,-0.00000642,-0.00001222,0.00000718,0.00008233,-0.00007383,0.00
 017662,0.00019322,-0.00040183,-0.00014849,-0.00114116,0.00064974,0.000
 89974,-0.01426745,0.01797724,0.05827535,0.00000157,-0.00008099,0.00000
 315,-0.00001020,0.00009436,-0.00005821,-0.00003848,-0.00011499,0.00001
 781,0.00009208,0.00026908,0.00018130,-0.00011607,0.00004278,0.00024858
 ,0.00176549,0.00473596,-0.00532998,-0.01863804,-0.02315024,-0.03174541
 ,-0.05328182,-0.00421705,-0.01632065,0.00263889,0.00199263,0.00585144,
 -0.00002459,-0.00002286,0.00001141,0.00000050,0.00001199,0.00000284,0.
 00000162,0.00000893,-0.00000847,0.00001060,0.00000937,-0.00001308,0.00
 001441,0.00003053,-0.00000487,-0.00004030,-0.00002060,0.00000280,-0.00
 004075,-0.00009494,0.00002395,0.00000819,-0.00032825,0.00056343,0.0007
 9596,0.00009261,0.00253189,0.00189942,-0.00065759,0.00006343,0.0034426
 4,0.00953904,0.01734398,0.06052047,-0.00000150,-0.00006510,0.00001626,
 -0.00005486,0.00004486,-0.00011383,-0.00006056,-0.00007105,0.00005453,
 -0.00016825,0.00026528,0.00032550,-0.00009147,-0.00009677,0.00020646,0
 .00075329,0.00300889,-0.00389495,-0.01281536,-0.00581039,-0.00953161,-
 0.00438402,-0.09034257,-0.08533692,0.00345768,0.00826823,0.02898185,-0
 .00001917,-0.00001995,0.00000975,0.00000855,0.00000989,0.00000448,-0.0
 0000470,0.00001223,-0.00000475,0.00001078,-0.00001130,0.00001247,0.000
 03009,0.00002880,-0.00000662,-0.00002361,-0.00001625,-0.00000105,-0.00
 004417,-0.00013229,-0.00004965,0.00034561,-0.00007140,0.00014716,0.000
 60645,-0.00022225,0.00172190,0.00031831,0.00038900,0.00143451,0.000051
 42,-0.01018076,-0.02348322,0.01321480,0.09677343,0.00000513,-0.0000837
 3,0.00000739,-0.00005085,0.00002412,-0.00009338,-0.00006926,-0.0001059
 3,0.00007386,0.00045674,-0.00019170,0.00053175,-0.00010273,0.00017022,
 -0.00003846,0.00046978,0.00166258,0.00210632,-0.01123771,-0.00388530,-
 0.00268695,-0.01374495,-0.07583419,-0.22532981,-0.00270092,-0.00358365
 ,-0.02723835,-0.00002854,-0.00002156,0.00001227,0.00000483,0.00001323,
 0.00000701,-0.00001118,0.00001748,-0.00000083,-0.00000950,-0.00001910,
 -0.00000864,0.00003353,0.00002863,-0.00001734,-0.00004470,-0.00002961,
 -0.00000428,-0.00006465,-0.00011389,-0.00000828,0.00019307,-0.00028399
 ,-0.00010499,-0.00141038,-0.00214101,0.00062900,-0.00007633,0.00010250
 ,0.00104744,0.00027412,-0.00456344,-0.00424328,0.02587937,0.08516749,0
 .25810968,0.00000152,0.00002085,0.00000746,-0.00001682,-0.00001267,0.0
 0003891,-0.00000832,0.00005905,-0.00001438,0.00005365,-0.00010348,0.00
 003011,-0.00004845,0.00006458,-0.00016818,-0.00043568,-0.00104210,-0.0
 0004185,0.00075401,0.00111687,-0.00054698,0.00054610,0.00795721,0.0029
 6864,-0.03621604,-0.01521977,0.02200580,0.00000543,0.00001212,-0.00000
 638,-0.00000643,-0.00000663,-0.00000460,-0.00000205,-0.00000371,0.0000
 0535,0.00000184,0.00000478,-0.00000431,-0.00001458,-0.00002277,0.00000
 894,0.00002490,0.00000924,-0.00000182,0.00000685,0.00001200,0.00001337
 ,-0.00008704,0.00012708,-0.00001151,-0.00002335,0.00021642,-0.00055818
 ,-0.00017137,0.00020074,0.00101380,0.00019483,-0.00157473,-0.00056565,
 0.00045130,-0.00125352,0.00157145,0.03810866,0.00000100,0.00002025,-0.
 00000816,0.00002155,-0.00000285,0.00003969,0.00005474,0.00001742,-0.00
 003049,-0.00019452,0.00002809,-0.00017433,0.00010254,-0.00008541,0.000
 04192,0.00010390,-0.00058047,0.00035540,0.00179563,0.00117221,-0.00158
 456,0.00213992,0.00715372,0.03429143,-0.03162165,-0.10310314,-0.157670
 28,0.00000818,0.00000628,-0.00000296,0.00000259,-0.00000193,0.00000298
 ,0.00000356,-0.00000625,-0.00000246,0.00000031,-0.00000682,0.00000904,
 -0.00002353,-0.00000800,0.00000823,0.00000425,0.00000466,-0.00000277,0
 .00001605,0.00004361,0.00000451,-0.00005379,-0.00003860,0.00003045,-0.
 00005205,0.00004233,-0.00037449,-0.00000412,0.00002968,-0.00040406,0.0
 0014727,0.00171074,0.00034791,-0.00161882,-0.00265262,0.00383822,0.023
 64389,0.10456228,0.00000048,-0.00002115,0.00000215,-0.00001554,0.00000
 663,-0.00003080,-0.00002091,-0.00002953,0.00001429,0.00014644,-0.00002
 658,0.00016216,-0.00005795,0.00004819,0.00000412,-0.00005464,0.0004248
 7,0.00020870,0.00029425,-0.00078726,0.00236102,0.00061388,-0.01316225,
 -0.02982606,-0.01564435,-0.12433887,-0.35890807,-0.00000675,-0.0000056
 1,0.00000315,-0.00000092,0.00000315,0.00000042,-0.00000179,0.00000357,
 -0.00000074,0.00000052,0.00000168,-0.00000666,0.00000526,0.00000583,-0
 .00000078,-0.00000943,-0.00000681,-0.00000096,-0.00001512,-0.00002894,
 -0.00000674,0.00000736,0.00001188,0.00000214,-0.00016651,-0.00029349,0
 .00028977,0.00001944,0.00000960,-0.00030682,-0.00108466,-0.00055689,0.
 00227290,0.00104011,0.00535483,-0.00243454,0.01073639,0.13597579,0.390
 31492,0.00000282,-0.00007289,0.00000618,-0.00009577,0.00006208,-0.0000
 2907,-0.00003563,-0.00005319,0.00001732,0.00032149,-0.00022822,0.00014
 309,-0.00016100,0.00009539,-0.00000368,-0.00036346,0.00051561,-0.00027
 597,-0.00026314,-0.00367598,0.00285793,-0.00726281,0.00814387,-0.00584
 324,-0.35437346,-0.17197868,-0.05637614,-0.00002395,-0.00001398,0.0000
 1027,-0.00000455,0.00000735,-0.00000041,0.00000047,0.00000869,-0.00000
 253,0.00000261,0.00000930,-0.00001635,0.00000310,0.00001023,-0.0000004
 3,-0.00001974,-0.00001014,-0.00000231,-0.00003206,-0.00004552,0.000012
 94,0.00001793,-0.00012569,0.00010810,-0.00006799,-0.00016979,0.0002704
 7,0.00077756,0.00019523,-0.00062793,0.00111704,-0.00001999,-0.00057676
 ,0.00054712,0.00012424,0.00066367,-0.00311895,0.00552312,0.00421445,0.
 36303238,0.00000490,-0.00002583,0.00000716,-0.00014133,0.00003354,-0.0
 0000598,0.00005339,-0.00000382,-0.00001968,-0.00005647,-0.00042156,0.0
 0033618,0.00013797,0.00001289,-0.00003078,-0.00142465,0.00094643,0.000
 27755,0.00028891,-0.00393845,0.00401546,-0.02700163,-0.01499845,-0.004
 40913,-0.11955158,-0.07462766,-0.01347243,-0.00001017,0.00000319,0.000
 00001,-0.00000134,-0.00000219,-0.00000029,0.00000326,-0.00000293,-0.00
 000142,0.00000103,0.00000741,0.00000245,-0.00001180,-0.00000573,0.0000
 0607,-0.00000842,-0.00000140,-0.00000323,0.00001624,0.00003277,-0.0000
 2390,0.00006749,0.00003226,-0.00020022,-0.00006112,-0.00002519,0.00004
 889,-0.00042451,-0.00013767,0.00034605,0.00036200,0.00060813,-0.001175
 86,0.00026428,0.00089207,-0.00016738,-0.01420544,-0.00830518,-0.002588
 63,0.16169900,0.09992736,-0.00000056,0.00008305,-0.00001880,0.00018619
 ,-0.00006425,0.00001140,0.00000933,0.00001941,-0.00000818,-0.00015293,
 0.00049355,-0.00032643,0.00008180,-0.00007946,0.00004264,0.00171787,0.
 00059541,0.00084254,0.00008063,0.00467187,-0.00365038,0.02626042,0.008
 27599,0.00660870,-0.04604537,-0.01546490,-0.06913727,0.00002928,0.0000
 0897,-0.00000874,0.00000306,-0.00000399,0.00000047,-0.00000046,-0.0000
 0622,0.00000111,-0.00000705,-0.00000840,0.00000336,0.00000398,-0.00000
 053,-0.00000426,0.00001324,0.00000570,0.00000493,0.00001959,0.00002622
 ,0.00000063,0.00003072,0.00007012,-0.00008985,-0.00005268,-0.00012281,
 0.00000272,-0.00046595,-0.00013048,-0.00024691,-0.00040027,0.00027723,
 0.00020231,-0.00028481,-0.00101460,-0.00031560,-0.03647640,-0.01469101
 ,-0.00411358,0.05545037,0.01705911,0.07019919\\0.00000442,-0.00000075,
 -0.00000699,-0.00000921,0.00000650,0.00001334,0.00000997,-0.00000944,-
 0.00000454,0.00002057,0.00001495,-0.00002117,-0.00000058,-0.00000273,0
 .00001097,-0.00002365,0.00000222,0.00001694,-0.00002059,0.00000247,-0.
 00002208,0.00003045,0.00000016,0.00001685,-0.00000913,0.00000112,-0.00
 000369,-0.00000244,-0.00000157,0.00000117,-0.00000072,-0.00000065,0.00
 000169,0.00000271,-0.00000118,0.00000043,-0.00000037,-0.00000270,-0.00
 000060,-0.00000470,0.00000182,-0.00000214,-0.00000580,-0.00000105,0.00
 000327,-0.00000316,0.00000033,-0.00000242,0.00000526,-0.00000248,0.000
 00232,0.00000727,-0.00000502,-0.00000739,0.00000075,0.00000154,0.00000
 358,-0.00000087,0.00000223,0.00000071,-0.00000294,-0.00000043,-0.00000
 238,0.00000068,-0.00000208,-0.00000110,0.00000206,-0.00000325,0.000003
 25\\\@


 "TIGER, TIGER BURNING BRIGHT
 IN THE FOREST OF THE NIGHT.
 WHAT IMMORTAL HAND OR EYE
 CAN FRAME THY FEARFUL SYMMETRYE?"
                     - WILLIAM BLAKE
 Job cpu time:       0 days  2 hours  0 minutes 15.4 seconds.
 Elapsed time:       0 days  0 hours 30 minutes  4.8 seconds.
 File lengths (MBytes):  RWF=    181 Int=      0 D2E=      0 Chk=     10 Scr=      1
 Normal termination of Gaussian 16 at Mon May 31 23:26:14 2021.
### All Done ###
