### Starting Gaussian ###
 Entering Gaussian System, Link 0=g16
 Initial command:
 /cluster/software/gaussian/gaussian-16-A.03/avx2/g16/l1.exe "/local/scratch/cz9n3/Gau-23909.inp" -scrdir="/local/scratch/cz9n3/"
 Entering Link 1 = /cluster/software/gaussian/gaussian-16-A.03/avx2/g16/l1.exe PID=     23910.
  
 Copyright (c) 1988,1990,1992,1993,1995,1998,2003,2009,2016,
            Gaussian, Inc.  All Rights Reserved.
  
 This is part of the Gaussian(R) 16 program.  It is based on
 the Gaussian(R) 09 system (copyright 2009, Gaussian, Inc.),
 the Gaussian(R) 03 system (copyright 2003, Gaussian, Inc.),
 the Gaussian(R) 98 system (copyright 1998, Gaussian, Inc.),
 the Gaussian(R) 94 system (copyright 1995, Gaussian, Inc.),
 the Gaussian 92(TM) system (copyright 1992, Gaussian, Inc.),
 the Gaussian 90(TM) system (copyright 1990, Gaussian, Inc.),
 the Gaussian 88(TM) system (copyright 1988, Gaussian, Inc.),
 the Gaussian 86(TM) system (copyright 1986, Carnegie Mellon
 University), and the Gaussian 82(TM) system (copyright 1983,
 Carnegie Mellon University). Gaussian is a federally registered
 trademark of Gaussian, Inc.
  
 This software contains proprietary and confidential information,
 including trade secrets, belonging to Gaussian, Inc.
  
 This software is provided under written license and may be
 used, copied, transmitted, or stored only in accord with that
 written license.
  
 The following legend is applicable only to US Government
 contracts under FAR:
  
                    RESTRICTED RIGHTS LEGEND
  
 Use, reproduction and disclosure by the US Government is
 subject to restrictions as set forth in subparagraphs (a)
 and (c) of the Commercial Computer Software - Restricted
 Rights clause in FAR 52.227-19.
  
 Gaussian, Inc.
 340 Quinnipiac St., Bldg. 40, Wallingford CT 06492
  
  
 ---------------------------------------------------------------
 Warning -- This program may not be used in any manner that
 competes with the business of Gaussian, Inc. or will provide
 assistance to any competitor of Gaussian, Inc.  The licensee
 of this program is prohibited from giving any competitor of
 Gaussian, Inc. access to this program.  By using this program,
 the user acknowledges that Gaussian, Inc. is engaged in the
 business of creating and licensing software in the field of
 computational chemistry and represents and warrants to the
 licensee that it is not a competitor of Gaussian, Inc. and that
 it will not use this program in any manner prohibited above.
 ---------------------------------------------------------------
  

 Cite this work as:
 Gaussian 16, Revision A.03,
 M. J. Frisch, G. W. Trucks, H. B. Schlegel, G. E. Scuseria, 
 M. A. Robb, J. R. Cheeseman, G. Scalmani, V. Barone, 
 G. A. Petersson, H. Nakatsuji, X. Li, M. Caricato, A. V. Marenich, 
 J. Bloino, B. G. Janesko, R. Gomperts, B. Mennucci, H. P. Hratchian, 
 J. V. Ortiz, A. F. Izmaylov, J. L. Sonnenberg, D. Williams-Young, 
 F. Ding, F. Lipparini, F. Egidi, J. Goings, B. Peng, A. Petrone, 
 T. Henderson, D. Ranasinghe, V. G. Zakrzewski, J. Gao, N. Rega, 
 G. Zheng, W. Liang, M. Hada, M. Ehara, K. Toyota, R. Fukuda, 
 J. Hasegawa, M. Ishida, T. Nakajima, Y. Honda, O. Kitao, H. Nakai, 
 T. Vreven, K. Throssell, J. A. Montgomery, Jr., J. E. Peralta, 
 F. Ogliaro, M. J. Bearpark, J. J. Heyd, E. N. Brothers, K. N. Kudin, 
 V. N. Staroverov, T. A. Keith, R. Kobayashi, J. Normand, 
 K. Raghavachari, A. P. Rendell, J. C. Burant, S. S. Iyengar, 
 J. Tomasi, M. Cossi, J. M. Millam, M. Klene, C. Adamo, R. Cammi, 
 J. W. Ochterski, R. L. Martin, K. Morokuma, O. Farkas, 
 J. B. Foresman, and D. J. Fox, Gaussian, Inc., Wallingford CT, 2016.
 
 ******************************************
 Gaussian 16:  ES64L-G16RevA.03 25-Dec-2016
                 1-Jun-2021 
 ******************************************
 %chk=CCpNpNNpCpC.chk
 %NProcShared=20
 Will use up to   20 processors via shared memory.
 -----------------------------
 # opt freq b3lyp/6-31g(2df,p)
 -----------------------------
 1/18=20,19=15,26=3,38=1/1,3;
 2/9=110,12=2,17=6,18=5,40=1/2;
 3/5=1,6=6,7=104,11=2,25=1,30=1,71=1,74=-5/1,2,3;
 4//1;
 5/5=2,38=5/2;
 6/7=2,8=2,9=2,10=2,28=1/1;
 7//1,2,3,16;
 1/18=20,19=15,26=3/3(2);
 2/9=110/2;
 99//99;
 2/9=110/2;
 3/5=1,6=6,7=104,11=2,25=1,30=1,71=1,74=-5/1,2,3;
 4/5=5,16=3,69=1/1;
 5/5=2,38=5/2;
 7//1,2,3,16;
 1/18=20,19=15,26=3/3(-5);
 2/9=110/2;
 6/7=2,8=2,9=2,10=2,19=2,28=1/1;
 99/9=1/99;
 -------------------
 Title Card Required
 -------------------
 Symbolic Z-matrix:
 Charge =  0 Multiplicity = 1
 C                     0.90769  -0.00231  -0.04347 
 C                     2.43615  -0.10699  -0.05186 
 N                     2.76019  -1.454    -0.47665 
 N                     2.98372   0.85286  -1.02278 
 N                     4.47254   0.96836  -0.96619 
 C                     5.10213  -0.25722  -1.49039 
 C                     4.86688   2.07149  -1.86139 
 H                     0.47286  -0.752     0.62905 
 H                     0.48722  -0.17743  -1.04246 
 H                     0.57083   0.98252   0.29454 
 H                     2.8201    0.09157   0.95495 
 H                     2.42426  -1.57265  -1.42552 
 H                     2.3087   -2.14053   0.11937 
 H                     2.59853   1.76511  -0.75505 
 H                     5.03533  -1.08084  -0.77591 
 H                     6.17894  -0.1143   -1.62864 
 H                     4.67007  -0.56297  -2.45148 
 H                     4.48071   3.03039  -1.49993 
 H                     4.51259   1.91818  -2.88874 
 H                     5.95944   2.16507  -1.89086 
 

 GradGradGradGradGradGradGradGradGradGradGradGradGradGradGradGradGradGrad
 Berny optimization.
 Initialization pass.
                           ----------------------------
                           !    Initial Parameters    !
                           ! (Angstroms and Degrees)  !
 --------------------------                            --------------------------
 ! Name  Definition              Value          Derivative Info.                !
 --------------------------------------------------------------------------------
 ! R1    R(1,2)                  1.5321         estimate D2E/DX2                !
 ! R2    R(1,8)                  1.097          estimate D2E/DX2                !
 ! R3    R(1,9)                  1.0979         estimate D2E/DX2                !
 ! R4    R(1,10)                 1.0944         estimate D2E/DX2                !
 ! R5    R(2,3)                  1.4491         estimate D2E/DX2                !
 ! R6    R(2,4)                  1.471          estimate D2E/DX2                !
 ! R7    R(2,11)                 1.0957         estimate D2E/DX2                !
 ! R8    R(3,12)                 1.0135         estimate D2E/DX2                !
 ! R9    R(3,13)                 1.0151         estimate D2E/DX2                !
 ! R10   R(4,5)                  1.4944         estimate D2E/DX2                !
 ! R11   R(4,14)                 1.0258         estimate D2E/DX2                !
 ! R12   R(5,6)                  1.4742         estimate D2E/DX2                !
 ! R13   R(5,7)                  1.4744         estimate D2E/DX2                !
 ! R14   R(6,15)                 1.0924         estimate D2E/DX2                !
 ! R15   R(6,16)                 1.095          estimate D2E/DX2                !
 ! R16   R(6,17)                 1.0972         estimate D2E/DX2                !
 ! R17   R(7,18)                 1.0951         estimate D2E/DX2                !
 ! R18   R(7,19)                 1.0975         estimate D2E/DX2                !
 ! R19   R(7,20)                 1.097          estimate D2E/DX2                !
 ! A1    A(2,1,8)              110.6167         estimate D2E/DX2                !
 ! A2    A(2,1,9)              111.4806         estimate D2E/DX2                !
 ! A3    A(2,1,10)             111.7323         estimate D2E/DX2                !
 ! A4    A(8,1,9)              107.278          estimate D2E/DX2                !
 ! A5    A(8,1,10)             107.6764         estimate D2E/DX2                !
 ! A6    A(9,1,10)             107.8597         estimate D2E/DX2                !
 ! A7    A(1,2,3)              106.7506         estimate D2E/DX2                !
 ! A8    A(1,2,4)              109.293          estimate D2E/DX2                !
 ! A9    A(1,2,11)             109.4014         estimate D2E/DX2                !
 ! A10   A(3,2,4)              109.258          estimate D2E/DX2                !
 ! A11   A(3,2,11)             111.067          estimate D2E/DX2                !
 ! A12   A(4,2,11)             110.9661         estimate D2E/DX2                !
 ! A13   A(2,3,12)             108.0072         estimate D2E/DX2                !
 ! A14   A(2,3,13)             110.9221         estimate D2E/DX2                !
 ! A15   A(12,3,13)            108.8505         estimate D2E/DX2                !
 ! A16   A(2,4,5)              113.3471         estimate D2E/DX2                !
 ! A17   A(2,4,14)             105.5597         estimate D2E/DX2                !
 ! A18   A(5,4,14)             107.1871         estimate D2E/DX2                !
 ! A19   A(4,5,6)              110.351          estimate D2E/DX2                !
 ! A20   A(4,5,7)              107.536          estimate D2E/DX2                !
 ! A21   A(6,5,7)              106.9716         estimate D2E/DX2                !
 ! A22   A(5,6,15)             111.6004         estimate D2E/DX2                !
 ! A23   A(5,6,16)             110.877          estimate D2E/DX2                !
 ! A24   A(5,6,17)             112.0224         estimate D2E/DX2                !
 ! A25   A(15,6,16)            103.9526         estimate D2E/DX2                !
 ! A26   A(15,6,17)            109.7999         estimate D2E/DX2                !
 ! A27   A(16,6,17)            108.2411         estimate D2E/DX2                !
 ! A28   A(5,7,18)             111.1258         estimate D2E/DX2                !
 ! A29   A(5,7,19)             112.1796         estimate D2E/DX2                !
 ! A30   A(5,7,20)             110.2753         estimate D2E/DX2                !
 ! A31   A(18,7,19)            108.5091         estimate D2E/DX2                !
 ! A32   A(18,7,20)            106.582          estimate D2E/DX2                !
 ! A33   A(19,7,20)            107.9565         estimate D2E/DX2                !
 ! D1    D(8,1,2,3)             58.4921         estimate D2E/DX2                !
 ! D2    D(8,1,2,4)            176.5453         estimate D2E/DX2                !
 ! D3    D(8,1,2,11)           -61.772          estimate D2E/DX2                !
 ! D4    D(9,1,2,3)            -60.7868         estimate D2E/DX2                !
 ! D5    D(9,1,2,4)             57.2664         estimate D2E/DX2                !
 ! D6    D(9,1,2,11)           178.949          estimate D2E/DX2                !
 ! D7    D(10,1,2,3)           178.439          estimate D2E/DX2                !
 ! D8    D(10,1,2,4)           -63.5077         estimate D2E/DX2                !
 ! D9    D(10,1,2,11)           58.1749         estimate D2E/DX2                !
 ! D10   D(1,2,3,12)            63.4794         estimate D2E/DX2                !
 ! D11   D(1,2,3,13)           -55.7295         estimate D2E/DX2                !
 ! D12   D(4,2,3,12)           -54.5968         estimate D2E/DX2                !
 ! D13   D(4,2,3,13)          -173.8057         estimate D2E/DX2                !
 ! D14   D(11,2,3,12)         -177.3318         estimate D2E/DX2                !
 ! D15   D(11,2,3,13)           63.4594         estimate D2E/DX2                !
 ! D16   D(1,2,4,5)            171.7167         estimate D2E/DX2                !
 ! D17   D(1,2,4,14)            54.6982         estimate D2E/DX2                !
 ! D18   D(3,2,4,5)            -71.8116         estimate D2E/DX2                !
 ! D19   D(3,2,4,14)           171.1699         estimate D2E/DX2                !
 ! D20   D(11,2,4,5)            50.9836         estimate D2E/DX2                !
 ! D21   D(11,2,4,14)          -66.0349         estimate D2E/DX2                !
 ! D22   D(2,4,5,6)             70.5511         estimate D2E/DX2                !
 ! D23   D(2,4,5,7)           -173.1079         estimate D2E/DX2                !
 ! D24   D(14,4,5,6)          -173.3877         estimate D2E/DX2                !
 ! D25   D(14,4,5,7)           -57.0468         estimate D2E/DX2                !
 ! D26   D(4,5,6,15)           -75.2154         estimate D2E/DX2                !
 ! D27   D(4,5,6,16)           169.4082         estimate D2E/DX2                !
 ! D28   D(4,5,6,17)            48.3675         estimate D2E/DX2                !
 ! D29   D(7,5,6,15)           168.0922         estimate D2E/DX2                !
 ! D30   D(7,5,6,16)            52.7158         estimate D2E/DX2                !
 ! D31   D(7,5,6,17)           -68.3249         estimate D2E/DX2                !
 ! D32   D(4,5,7,18)            64.7263         estimate D2E/DX2                !
 ! D33   D(4,5,7,19)           -56.9448         estimate D2E/DX2                !
 ! D34   D(4,5,7,20)          -177.311          estimate D2E/DX2                !
 ! D35   D(6,5,7,18)          -176.7343         estimate D2E/DX2                !
 ! D36   D(6,5,7,19)            61.5946         estimate D2E/DX2                !
 ! D37   D(6,5,7,20)           -58.7716         estimate D2E/DX2                !
 --------------------------------------------------------------------------------
 Trust Radius=3.00D-01 FncErr=1.00D-07 GrdErr=1.00D-06 EigMax=2.50D+02 EigMin=1.00D-04
 Number of steps in this run=     99 maximum allowed number of steps=    120.
 GradGradGradGradGradGradGradGradGradGradGradGradGradGradGradGradGradGrad

                          Input orientation:                          
 ---------------------------------------------------------------------
 Center     Atomic      Atomic             Coordinates (Angstroms)
 Number     Number       Type             X           Y           Z
 ---------------------------------------------------------------------
      1          6           0        0.907690   -0.002310   -0.043470
      2          6           0        2.436150   -0.106990   -0.051860
      3          7           0        2.760190   -1.454000   -0.476650
      4          7           0        2.983720    0.852860   -1.022780
      5          7           0        4.472540    0.968360   -0.966190
      6          6           0        5.102130   -0.257220   -1.490390
      7          6           0        4.866880    2.071490   -1.861390
      8          1           0        0.472860   -0.752000    0.629050
      9          1           0        0.487220   -0.177430   -1.042460
     10          1           0        0.570830    0.982520    0.294540
     11          1           0        2.820100    0.091570    0.954950
     12          1           0        2.424260   -1.572650   -1.425520
     13          1           0        2.308700   -2.140530    0.119370
     14          1           0        2.598530    1.765110   -0.755050
     15          1           0        5.035330   -1.080840   -0.775910
     16          1           0        6.178940   -0.114300   -1.628640
     17          1           0        4.670070   -0.562970   -2.451480
     18          1           0        4.480710    3.030390   -1.499930
     19          1           0        4.512590    1.918180   -2.888740
     20          1           0        5.959440    2.165070   -1.890860
 ---------------------------------------------------------------------
                    Distance matrix (angstroms):
                    1          2          3          4          5
     1  C    0.000000
     2  C    1.532063   0.000000
     3  N    2.393074   1.449098   0.000000
     4  N    2.449544   1.470996   2.381140   0.000000
     5  N    3.808119   2.477753   3.006596   1.494365   0.000000
     6  C    4.444309   3.033049   2.818623   2.436924   1.474183
     7  C    4.825004   3.732107   4.334135   2.394706   1.474375
     8  H    1.096994   2.175818   2.635765   3.407130   4.637011
     9  H    1.097927   2.187368   2.667614   2.700814   4.147460
    10  H    1.094356   2.187794   3.365213   2.752123   4.100364
    11  H    2.159391   1.095678   2.107571   2.125500   2.681436
    12  H    2.583798   2.008791   1.013549   2.521566   3.295932
    13  H    2.561509   2.044712   1.015089   3.274224   3.940284
    14  H    2.547363   2.006390   3.235168   1.025793   2.047267
    15  H    4.328638   2.868513   2.324880   2.830061   2.133579
    16  H    5.505577   4.061375   3.848341   3.392918   2.126686
    17  H    4.502039   3.310059   2.888171   2.624792   2.142446
    18  H    4.907649   4.015008   4.910911   2.685198   2.130003
    19  H    4.977866   4.057192   4.501187   2.637074   2.144752
    20  H    5.799186   4.577964   5.033176   3.366061   2.120849
                    6          7          8          9         10
     6  C    0.000000
     7  C    2.369783   0.000000
     8  H    5.115366   5.786346   0.000000
     9  H    4.637284   4.990963   1.767564   0.000000
    10  H    5.025496   4.928482   1.769196   1.772017   0.000000
    11  H    3.362886   4.005142   2.515424   3.082910   2.507818
    12  H    2.984217   4.408643   2.950032   2.417746   3.594816
    13  H    3.733823   5.311196   2.357562   2.919144   3.578312
    14  H    3.301296   2.542296   3.573520   2.883348   2.413639
    15  H    1.092380   3.338237   4.785204   4.644621   5.033396
    16  H    1.095016   2.559952   6.169536   5.722173   6.029306
    17  H    1.097202   2.706902   5.209796   4.430600   5.170390
    18  H    3.345838   1.095112   5.907782   5.142699   4.764562
    19  H    2.652415   1.097485   5.985326   4.899381   5.152301
    20  H    2.600547   1.096956   6.705356   6.012677   5.933929
                   11         12         13         14         15
    11  H    0.000000
    12  H    2.931374   0.000000
    13  H    2.437621   1.650008   0.000000
    14  H    2.402900   3.408892   4.012809   0.000000
    15  H    3.045926   2.735243   3.059245   3.746713   0.000000
    16  H    4.242538   4.033071   4.705306   4.136989   1.723134
    17  H    3.931231   2.667529   3.830670   3.548113   1.791407
    18  H    4.173814   5.042073   5.837651   2.387128   4.211178
    19  H    4.579845   4.322965   5.511713   2.870486   3.705594
    20  H    4.717361   5.165713   5.992255   3.570119   3.554297
                   16         17         18         19         20
    16  H    0.000000
    17  H    1.776249   0.000000
    18  H    3.576259   3.722034   0.000000
    19  H    2.914713   2.524302   1.779556   0.000000
    20  H    2.304879   3.069034   1.757341   1.774850   0.000000
 Stoichiometry    C4H13N3
 Framework group  C1[X(C4H13N3)]
 Deg. of freedom    54
 Full point group                 C1      NOp   1
 Largest Abelian subgroup         C1      NOp   1
 Largest concise Abelian subgroup C1      NOp   1
                         Standard orientation:                         
 ---------------------------------------------------------------------
 Center     Atomic      Atomic             Coordinates (Angstroms)
 Number     Number       Type             X           Y           Z
 ---------------------------------------------------------------------
      1          6           0       -2.439984   -0.849949    0.125582
      2          6           0       -1.219444   -0.075794   -0.382537
      3          7           0       -1.358764    1.284745    0.096429
      4          7           0        0.002015   -0.667246    0.184960
      5          7           0        1.258005   -0.109440   -0.401956
      6          6           0        1.459386    1.280849    0.044986
      7          6           0        2.384768   -0.899224    0.127599
      8          1           0       -3.367582   -0.389051   -0.235708
      9          1           0       -2.484398   -0.855549    1.222596
     10          1           0       -2.430943   -1.889832   -0.215266
     11          1           0       -1.198252   -0.107623   -1.477547
     12          1           0       -1.328527    1.264977    1.109334
     13          1           0       -2.244723    1.683587   -0.197524
     14          1           0       -0.032897   -1.661925   -0.063326
     15          1           0        0.788610    1.970678   -0.472207
     16          1           0        2.460273    1.635575   -0.222325
     17          1           0        1.336169    1.386086    1.130156
     18          1           0        2.333372   -1.938422   -0.214007
     19          1           0        2.414830   -0.894191    1.224661
     20          1           0        3.336921   -0.496018   -0.238657
 ---------------------------------------------------------------------
 Rotational constants (GHZ):           4.7654670           1.6438909           1.3061649
 Standard basis: 6-31G(2df,p) (6D, 7F)
 There are   282 symmetry adapted cartesian basis functions of A   symmetry.
 There are   261 symmetry adapted basis functions of A   symmetry.
   261 basis functions,   399 primitive gaussians,   282 cartesian basis functions
    29 alpha electrons       29 beta electrons
       nuclear repulsion energy       342.7439668037 Hartrees.
 NAtoms=   20 NActive=   20 NUniq=   20 SFac= 1.00D+00 NAtFMM=   60 NAOKFM=F Big=F
 Integral buffers will be    131072 words long.
 Raffenetti 2 integral format.
 Two-electron integral symmetry is turned on.
 One-electron integrals computed using PRISM.
 PrsmSu:  requested number of processors reduced to:  13 ShMem   1 Linda.
 NBasis=   261 RedAO= T EigKep=  3.40D-04  NBF=   261
 NBsUse=   261 1.00D-06 EigRej= -1.00D+00 NBFU=   261
 ExpMin= 1.61D-01 ExpMax= 4.17D+03 ExpMxC= 6.27D+02 IAcc=3 IRadAn=         5 AccDes= 0.00D+00
 Harris functional with IExCor=  402 and IRadAn=       5 diagonalized for initial guess.
 HarFok:  IExCor=  402 AccDes= 0.00D+00 IRadAn=         5 IDoV= 1 UseB2=F ITyADJ=14
 ICtDFT=  3500011 ScaDFX=  1.000000  1.000000  1.000000  1.000000
 FoFCou: FMM=F IPFlag=           0 FMFlag=      100000 FMFlg1=           0
         NFxFlg=           0 DoJE=T BraDBF=F KetDBF=T FulRan=T
         wScrn=  0.000000 ICntrl=       500 IOpCl=  0 I1Cent=   200000004 NGrid=           0
         NMat0=    1 NMatS0=      1 NMatT0=    0 NMatD0=    1 NMtDS0=    0 NMtDT0=    0
 Petite list used in FoFCou.
 Requested convergence on RMS density matrix=1.00D-08 within 128 cycles.
 Requested convergence on MAX density matrix=1.00D-06.
 Requested convergence on             energy=1.00D-06.
 No special actions if energy rises.
 Integral accuracy reduced to 1.0D-05 until final iterations.
 Initial convergence to 1.0D-05 achieved.  Increase integral accuracy.
 SCF Done:  E(RB3LYP) =  -324.468483634     A.U. after   12 cycles
            NFock= 12  Conv=0.51D-08     -V/T= 2.0081

 **********************************************************************

            Population analysis using the SCF density.

 **********************************************************************

 Orbital symmetries:
       Occupied  (A) (A) (A) (A) (A) (A) (A) (A) (A) (A) (A) (A)
                 (A) (A) (A) (A) (A) (A) (A) (A) (A) (A) (A) (A)
                 (A) (A) (A) (A) (A)
       Virtual   (A) (A) (A) (A) (A) (A) (A) (A) (A) (A) (A) (A)
                 (A) (A) (A) (A) (A) (A) (A) (A) (A) (A) (A) (A)
                 (A) (A) (A) (A) (A) (A) (A) (A) (A) (A) (A) (A)
                 (A) (A) (A) (A) (A) (A) (A) (A) (A) (A) (A) (A)
                 (A) (A) (A) (A) (A) (A) (A) (A) (A) (A) (A) (A)
                 (A) (A) (A) (A) (A) (A) (A) (A) (A) (A) (A) (A)
                 (A) (A) (A) (A) (A) (A) (A) (A) (A) (A) (A) (A)
                 (A) (A) (A) (A) (A) (A) (A) (A) (A) (A) (A) (A)
                 (A) (A) (A) (A) (A) (A) (A) (A) (A) (A) (A) (A)
                 (A) (A) (A) (A) (A) (A) (A) (A) (A) (A) (A) (A)
                 (A) (A) (A) (A) (A) (A) (A) (A) (A) (A) (A) (A)
                 (A) (A) (A) (A) (A) (A) (A) (A) (A) (A) (A) (A)
                 (A) (A) (A) (A) (A) (A) (A) (A) (A) (A) (A) (A)
                 (A) (A) (A) (A) (A) (A) (A) (A) (A) (A) (A) (A)
                 (A) (A) (A) (A) (A) (A) (A) (A) (A) (A) (A) (A)
                 (A) (A) (A) (A) (A) (A) (A) (A) (A) (A) (A) (A)
                 (A) (A) (A) (A) (A) (A) (A) (A) (A) (A) (A) (A)
                 (A) (A) (A) (A) (A) (A) (A) (A) (A) (A) (A) (A)
                 (A) (A) (A) (A) (A) (A) (A) (A) (A) (A) (A) (A)
                 (A) (A) (A) (A)
 The electronic state is 1-A.
 Alpha  occ. eigenvalues --  -14.33662 -14.33444 -14.29816 -10.23078 -10.19243
 Alpha  occ. eigenvalues --  -10.17651 -10.17422  -0.95283  -0.88233  -0.79922
 Alpha  occ. eigenvalues --   -0.70995  -0.68609  -0.60957  -0.58012  -0.51111
 Alpha  occ. eigenvalues --   -0.47824  -0.44600  -0.43756  -0.42822  -0.39895
 Alpha  occ. eigenvalues --   -0.39651  -0.38536  -0.37100  -0.36469  -0.35315
 Alpha  occ. eigenvalues --   -0.34000  -0.28514  -0.22227  -0.18134
 Alpha virt. eigenvalues --    0.07310   0.10743   0.10888   0.13107   0.13740
 Alpha virt. eigenvalues --    0.15303   0.15953   0.16303   0.17420   0.17860
 Alpha virt. eigenvalues --    0.18892   0.19728   0.20911   0.21643   0.22990
 Alpha virt. eigenvalues --    0.24003   0.24751   0.26478   0.27975   0.43803
 Alpha virt. eigenvalues --    0.46646   0.47545   0.48316   0.50578   0.51053
 Alpha virt. eigenvalues --    0.52494   0.54126   0.55605   0.59392   0.59733
 Alpha virt. eigenvalues --    0.62355   0.65802   0.67525   0.68895   0.69504
 Alpha virt. eigenvalues --    0.70674   0.71757   0.73013   0.73846   0.73927
 Alpha virt. eigenvalues --    0.75570   0.75834   0.76955   0.78292   0.78883
 Alpha virt. eigenvalues --    0.80635   0.81589   0.83425   0.86207   0.86761
 Alpha virt. eigenvalues --    0.87181   0.88052   0.90196   0.90996   0.92526
 Alpha virt. eigenvalues --    0.93367   0.98957   1.02860   1.11604   1.13197
 Alpha virt. eigenvalues --    1.16543   1.20319   1.23049   1.27086   1.28411
 Alpha virt. eigenvalues --    1.34064   1.34398   1.37533   1.42114   1.43704
 Alpha virt. eigenvalues --    1.45850   1.48729   1.50715   1.51369   1.52799
 Alpha virt. eigenvalues --    1.53839   1.55505   1.58521   1.63048   1.63335
 Alpha virt. eigenvalues --    1.67189   1.68122   1.71848   1.72413   1.78741
 Alpha virt. eigenvalues --    1.85779   1.86219   1.89617   1.90887   1.92332
 Alpha virt. eigenvalues --    1.93113   1.95092   1.97547   1.98997   1.99936
 Alpha virt. eigenvalues --    2.04128   2.10243   2.14134   2.24296   2.25692
 Alpha virt. eigenvalues --    2.27787   2.29537   2.33884   2.39513   2.40593
 Alpha virt. eigenvalues --    2.43228   2.44749   2.45874   2.47850   2.51832
 Alpha virt. eigenvalues --    2.56303   2.58382   2.66440   2.71067   2.74210
 Alpha virt. eigenvalues --    2.75986   2.79869   2.81442   2.83635   2.84813
 Alpha virt. eigenvalues --    2.85786   2.86548   2.88854   2.89838   2.92435
 Alpha virt. eigenvalues --    2.93244   2.95064   2.95581   2.99341   3.01113
 Alpha virt. eigenvalues --    3.01655   3.03139   3.05710   3.06303   3.13158
 Alpha virt. eigenvalues --    3.16848   3.18324   3.22427   3.24324   3.27814
 Alpha virt. eigenvalues --    3.31684   3.34879   3.36127   3.38132   3.42863
 Alpha virt. eigenvalues --    3.45967   3.50581   3.52663   3.54318   3.59961
 Alpha virt. eigenvalues --    3.62303   3.62810   3.64397   3.65937   3.68096
 Alpha virt. eigenvalues --    3.70364   3.80552   3.82464   3.84319   3.88558
 Alpha virt. eigenvalues --    3.90040   3.92604   3.96397   3.99020   4.01204
 Alpha virt. eigenvalues --    4.04563   4.09833   4.15984   4.20213   4.20480
 Alpha virt. eigenvalues --    4.25638   4.28878   4.32381   4.33953   4.34956
 Alpha virt. eigenvalues --    4.38888   4.40458   4.42531   4.44383   4.47283
 Alpha virt. eigenvalues --    4.48481   4.49046   4.49144   4.52024   4.53997
 Alpha virt. eigenvalues --    4.56412   4.56657   4.58017   4.60621   4.62762
 Alpha virt. eigenvalues --    4.65849   4.72232   4.72944   4.74452   4.77261
 Alpha virt. eigenvalues --    4.78834   4.81513   4.81752   4.82235   4.85184
 Alpha virt. eigenvalues --    4.87535   4.88489   4.91307   4.93185   4.96753
 Alpha virt. eigenvalues --    5.00832   5.02964   5.07013   5.14770   5.16702
 Alpha virt. eigenvalues --    5.21016   5.22901   5.30880   5.32682   5.35635
 Alpha virt. eigenvalues --    5.40264   5.44673   5.48897   5.51367   5.57548
 Alpha virt. eigenvalues --    5.62852   5.66584  10.55206  10.78217  11.22073
 Alpha virt. eigenvalues --   11.45471  11.55554  11.67798  11.80725  12.16298
 Alpha virt. eigenvalues --   14.71203  15.99875
          Condensed to atoms (all electrons):
               1          2          3          4          5          6
     1  C    5.098463   0.398146  -0.062900  -0.042178   0.002403  -0.000084
     2  C    0.398146   4.661586   0.379558   0.360372  -0.042337  -0.006095
     3  N   -0.062900   0.379558   6.583423  -0.040742  -0.004061  -0.022191
     4  N   -0.042178   0.360372  -0.040742   6.568727   0.252086  -0.056531
     5  N    0.002403  -0.042337  -0.004061   0.252086   6.296760   0.391426
     6  C   -0.000084  -0.006095  -0.022191  -0.056531   0.391426   4.958401
     7  C   -0.000307   0.002171  -0.000018  -0.051845   0.386750  -0.079095
     8  H    0.367683  -0.020900  -0.003060   0.002734  -0.000073   0.000007
     9  H    0.361809  -0.020605  -0.004372   0.001919   0.000023  -0.000010
    10  H    0.335519  -0.022263   0.007361  -0.000901   0.000094   0.000008
    11  H   -0.057184   0.355183  -0.045127  -0.047685   0.010534   0.000471
    12  H   -0.007342  -0.049512   0.327494   0.006273  -0.000299   0.000284
    13  H   -0.004853  -0.052159   0.340807   0.004848   0.000081   0.000471
    14  H   -0.000187  -0.044249   0.004548   0.327482  -0.031317   0.005764
    15  H    0.000197  -0.001366   0.016999  -0.000184  -0.019362   0.378330
    16  H    0.000008   0.000058   0.001277   0.003294  -0.022231   0.358449
    17  H    0.000013   0.002451  -0.002020   0.007042  -0.042879   0.345660
    18  H   -0.000010   0.000170   0.000005  -0.001659  -0.025732   0.005799
    19  H    0.000029   0.000566  -0.000109   0.008210  -0.041166  -0.006849
    20  H    0.000003  -0.000231   0.000006   0.003001  -0.022262  -0.002994
               7          8          9         10         11         12
     1  C   -0.000307   0.367683   0.361809   0.335519  -0.057184  -0.007342
     2  C    0.002171  -0.020900  -0.020605  -0.022263   0.355183  -0.049512
     3  N   -0.000018  -0.003060  -0.004372   0.007361  -0.045127   0.327494
     4  N   -0.051845   0.002734   0.001919  -0.000901  -0.047685   0.006273
     5  N    0.386750  -0.000073   0.000023   0.000094   0.010534  -0.000299
     6  C   -0.079095   0.000007  -0.000010   0.000008   0.000471   0.000284
     7  C    4.955768   0.000003   0.000005   0.000004   0.000410   0.000001
     8  H    0.000003   0.596772  -0.031527  -0.027872   0.000244   0.000482
     9  H    0.000005  -0.031527   0.589157  -0.029098   0.006274   0.006991
    10  H    0.000004  -0.027872  -0.029098   0.636190  -0.000554   0.000008
    11  H    0.000410   0.000244   0.006274  -0.000554   0.698024   0.008556
    12  H    0.000001   0.000482   0.006991   0.000008   0.008556   0.508547
    13  H    0.000011   0.004668   0.000519   0.000109   0.000474  -0.026025
    14  H   -0.005846  -0.000283  -0.000348   0.003856  -0.003834  -0.000434
    15  H    0.005014  -0.000002  -0.000008  -0.000011  -0.001015  -0.001465
    16  H   -0.008322  -0.000000  -0.000000  -0.000001  -0.000005  -0.000067
    17  H   -0.005994   0.000004   0.000040  -0.000002   0.000614   0.003128
    18  H    0.372231  -0.000000  -0.000001  -0.000005  -0.000087  -0.000004
    19  H    0.348325   0.000000   0.000011  -0.000001   0.000113   0.000071
    20  H    0.380116  -0.000000   0.000000  -0.000000   0.000006   0.000001
              13         14         15         16         17         18
     1  C   -0.004853  -0.000187   0.000197   0.000008   0.000013  -0.000010
     2  C   -0.052159  -0.044249  -0.001366   0.000058   0.002451   0.000170
     3  N    0.340807   0.004548   0.016999   0.001277  -0.002020   0.000005
     4  N    0.004848   0.327482  -0.000184   0.003294   0.007042  -0.001659
     5  N    0.000081  -0.031317  -0.019362  -0.022231  -0.042879  -0.025732
     6  C    0.000471   0.005764   0.378330   0.358449   0.345660   0.005799
     7  C    0.000011  -0.005846   0.005014  -0.008322  -0.005994   0.372231
     8  H    0.004668  -0.000283  -0.000002  -0.000000   0.000004  -0.000000
     9  H    0.000519  -0.000348  -0.000008  -0.000000   0.000040  -0.000001
    10  H    0.000109   0.003856  -0.000011  -0.000001  -0.000002  -0.000005
    11  H    0.000474  -0.003834  -0.001015  -0.000005   0.000614  -0.000087
    12  H   -0.026025  -0.000434  -0.001465  -0.000067   0.003128  -0.000004
    13  H    0.511087  -0.000336   0.000243  -0.000032   0.000082  -0.000000
    14  H   -0.000336   0.516738  -0.000109  -0.000201  -0.000130   0.005255
    15  H    0.000243  -0.000109   0.549142  -0.031138  -0.039930  -0.000240
    16  H   -0.000032  -0.000201  -0.031138   0.628901  -0.035516   0.000283
    17  H    0.000082  -0.000130  -0.039930  -0.035516   0.669260  -0.000416
    18  H   -0.000000   0.005255  -0.000240   0.000283  -0.000416   0.614823
    19  H    0.000001  -0.000750  -0.000319   0.000189   0.014429  -0.044572
    20  H   -0.000000  -0.000195   0.000127   0.003660  -0.000354  -0.030551
              19         20
     1  C    0.000029   0.000003
     2  C    0.000566  -0.000231
     3  N   -0.000109   0.000006
     4  N    0.008210   0.003001
     5  N   -0.041166  -0.022262
     6  C   -0.006849  -0.002994
     7  C    0.348325   0.380116
     8  H    0.000000  -0.000000
     9  H    0.000011   0.000000
    10  H   -0.000001  -0.000000
    11  H    0.000113   0.000006
    12  H    0.000071   0.000001
    13  H    0.000001  -0.000000
    14  H   -0.000750  -0.000195
    15  H   -0.000319   0.000127
    16  H    0.000189   0.003660
    17  H    0.014429  -0.000354
    18  H   -0.044572  -0.030551
    19  H    0.658427  -0.037307
    20  H   -0.037307   0.583829
 Mulliken charges:
               1
     1  C   -0.389228
     2  C    0.099457
     3  N   -0.476878
     4  N   -0.304263
     5  N   -0.088437
     6  C   -0.271221
     7  C   -0.299381
     8  H    0.111121
     9  H    0.119220
    10  H    0.097558
    11  H    0.074587
    12  H    0.223312
    13  H    0.220004
    14  H    0.224574
    15  H    0.145099
    16  H    0.101396
    17  H    0.084517
    18  H    0.104713
    19  H    0.100702
    20  H    0.123146
 Sum of Mulliken charges =  -0.00000
 Mulliken charges with hydrogens summed into heavy atoms:
               1
     1  C   -0.061328
     2  C    0.174045
     3  N   -0.033561
     4  N   -0.079689
     5  N   -0.088437
     6  C    0.059790
     7  C    0.029180
 Electronic spatial extent (au):  <R**2>=            981.4595
 Charge=             -0.0000 electrons
 Dipole moment (field-independent basis, Debye):
    X=             -1.1010    Y=             -0.5767    Z=              0.2875  Tot=              1.2757
 Quadrupole moment (field-independent basis, Debye-Ang):
   XX=            -40.1569   YY=            -43.8741   ZZ=            -46.9414
   XY=             -1.5357   XZ=              0.5747   YZ=              1.2937
 Traceless Quadrupole moment (field-independent basis, Debye-Ang):
   XX=              3.5006   YY=             -0.2166   ZZ=             -3.2839
   XY=             -1.5357   XZ=              0.5747   YZ=              1.2937
 Octapole moment (field-independent basis, Debye-Ang**2):
  XXX=             -2.6047  YYY=             -5.0219  ZZZ=              2.5464  XYY=             -0.9868
  XXY=              7.4385  XXZ=             -0.8279  XZZ=             -4.8344  YZZ=              3.0083
  YYZ=             -1.1225  XYZ=             -0.9591
 Hexadecapole moment (field-independent basis, Debye-Ang**3):
 XXXX=           -860.9628 YYYY=           -312.4439 ZZZZ=            -93.5904 XXXY=            -25.6334
 XXXZ=             -2.0717 YYYX=            -10.5477 YYYZ=              3.3104 ZZZX=             -1.7050
 ZZZY=              2.7714 XXYY=           -193.8027 XXZZ=           -167.7452 YYZZ=            -68.5070
 XXYZ=             -1.3774 YYXZ=             -2.5795 ZZXY=             -3.5684
 N-N= 3.427439668037D+02 E-N=-1.439635670327D+03  KE= 3.218688031267D+02
 PrsmSu:  requested number of processors reduced to:  13 ShMem   1 Linda.
 Calling FoFJK, ICntrl=      2127 FMM=F ISym2X=0 I1Cent= 0 IOpClX= 0 NMat=1 NMatS=1 NMatT=0.
 ***** Axes restored to original set *****
 -------------------------------------------------------------------
 Center     Atomic                   Forces (Hartrees/Bohr)
 Number     Number              X              Y              Z
 -------------------------------------------------------------------
      1        6          -0.006501804    0.014797489    0.002568233
      2        6          -0.012699523   -0.000586032   -0.008092192
      3        7           0.015241940   -0.010787244    0.004080963
      4        7           0.002756727   -0.006006752   -0.007574396
      5        7           0.004586936    0.005257184    0.000827683
      6        6           0.003877695   -0.005415892    0.007864905
      7        6          -0.005054336   -0.000301150    0.005174188
      8        1           0.003076751    0.001896225    0.000497749
      9        1           0.003816631    0.001028357    0.000712596
     10        1          -0.003792276    0.002252942    0.001200808
     11        1           0.004230011   -0.005134918    0.003330938
     12        1          -0.001490196   -0.001776032   -0.001006581
     13        1          -0.001057502    0.001600557   -0.001250621
     14        1           0.009902740   -0.003802988   -0.001939752
     15        1          -0.006956846    0.002876501   -0.003670606
     16        1          -0.001049358    0.010204158   -0.001656359
     17        1          -0.001485599   -0.002179299   -0.002073501
     18        1          -0.002648973   -0.000506223    0.001297416
     19        1          -0.002064079    0.000151175   -0.003408094
     20        1          -0.002688941   -0.003568060    0.003116620
 -------------------------------------------------------------------
 Cartesian Forces:  Max     0.015241940 RMS     0.005239026

 GradGradGradGradGradGradGradGradGradGradGradGradGradGradGradGradGradGrad
 Berny optimization.
 FormGI is forming the generalized inverse of G from B-inverse, IUseBI=4.
 Internal  Forces:  Max     0.017565457 RMS     0.005714195
 Search for a local minimum.
 Step number   1 out of a maximum of   99
 All quantities printed in internal units (Hartrees-Bohrs-Radians)
 Mixed Optimization -- RFO/linear search
 Second derivative matrix not updated -- first step.
 ITU=  0
     Eigenvalues ---    0.00230   0.00342   0.00708   0.00710   0.00753
     Eigenvalues ---    0.01042   0.03257   0.03701   0.04500   0.05185
     Eigenvalues ---    0.05385   0.05484   0.05526   0.06218   0.06890
     Eigenvalues ---    0.07012   0.07301   0.07310   0.11438   0.15424
     Eigenvalues ---    0.16000   0.16000   0.16000   0.16000   0.16000
     Eigenvalues ---    0.16000   0.16000   0.16000   0.16000   0.16000
     Eigenvalues ---    0.16000   0.16367   0.17427   0.17836   0.23755
     Eigenvalues ---    0.29234   0.32976   0.33912   0.33962   0.33993
     Eigenvalues ---    0.34017   0.34021   0.34165   0.34229   0.34239
     Eigenvalues ---    0.34314   0.34539   0.35222   0.35244   0.35621
     Eigenvalues ---    0.38363   0.43427   0.45131   0.45383
 RFO step:  Lambda=-2.14965101D-02 EMin= 2.30000000D-03
 Linear search not attempted -- first point.
 Iteration  1 RMS(Cart)=  0.18378847 RMS(Int)=  0.01133419
 Iteration  2 RMS(Cart)=  0.03199979 RMS(Int)=  0.00065946
 Iteration  3 RMS(Cart)=  0.00047522 RMS(Int)=  0.00061479
 Iteration  4 RMS(Cart)=  0.00000049 RMS(Int)=  0.00061479
 Variable       Old X    -DE/DX   Delta X   Delta X   Delta X     New X
                                 (Linear)    (Quad)   (Total)
    R1        2.89518   0.00479   0.00000   0.01525   0.01525   2.91043
    R2        2.07302  -0.00221   0.00000  -0.00611  -0.00611   2.06691
    R3        2.07478  -0.00227   0.00000  -0.00630  -0.00630   2.06848
    R4        2.06803   0.00356   0.00000   0.00978   0.00978   2.07781
    R5        2.73840   0.01250   0.00000   0.03084   0.03084   2.76924
    R6        2.77978  -0.00111   0.00000  -0.00293  -0.00293   2.77685
    R7        2.07053   0.00361   0.00000   0.00995   0.00995   2.08048
    R8        1.91533   0.00164   0.00000   0.00346   0.00346   1.91879
    R9        1.91824  -0.00135   0.00000  -0.00285  -0.00285   1.91539
   R10        2.82394  -0.01264   0.00000  -0.03600  -0.03600   2.78794
   R11        1.93847  -0.00761   0.00000  -0.01669  -0.01669   1.92178
   R12        2.78580  -0.00713   0.00000  -0.01905  -0.01905   2.76675
   R13        2.78617  -0.01024   0.00000  -0.02741  -0.02741   2.75875
   R14        2.06430  -0.00414   0.00000  -0.01130  -0.01130   2.05300
   R15        2.06928   0.00051   0.00000   0.00140   0.00140   2.07068
   R16        2.07341   0.00301   0.00000   0.00832   0.00832   2.08173
   R17        2.06946   0.00092   0.00000   0.00253   0.00253   2.07199
   R18        2.07395   0.00383   0.00000   0.01062   0.01062   2.08457
   R19        2.07295  -0.00307   0.00000  -0.00848  -0.00848   2.06447
    A1        1.93063  -0.00331   0.00000  -0.01917  -0.01925   1.91138
    A2        1.94570  -0.00456   0.00000  -0.02525  -0.02530   1.92040
    A3        1.95010   0.00529   0.00000   0.03018   0.03036   1.98046
    A4        1.87235   0.00377   0.00000   0.01878   0.01846   1.89081
    A5        1.87931  -0.00096   0.00000  -0.00508  -0.00493   1.87438
    A6        1.88251  -0.00009   0.00000   0.00120   0.00139   1.88390
    A7        1.86315   0.01757   0.00000   0.10601   0.10678   1.96993
    A8        1.90752  -0.01433   0.00000  -0.05904  -0.06182   1.84571
    A9        1.90941  -0.00128   0.00000  -0.02088  -0.02083   1.88858
   A10        1.90691   0.00245   0.00000   0.03254   0.03354   1.94045
   A11        1.93849  -0.00889   0.00000  -0.05503  -0.05443   1.88405
   A12        1.93672   0.00471   0.00000  -0.00044  -0.00166   1.93506
   A13        1.88508   0.00175   0.00000   0.00600   0.00597   1.89105
   A14        1.93596  -0.00225   0.00000  -0.01584  -0.01587   1.92009
   A15        1.89980  -0.00093   0.00000  -0.01234  -0.01239   1.88741
   A16        1.97828   0.01413   0.00000   0.03654   0.03629   2.01458
   A17        1.84236  -0.00244   0.00000  -0.04248  -0.04324   1.79912
   A18        1.87077  -0.01264   0.00000  -0.12054  -0.12092   1.74984
   A19        1.92599   0.00530   0.00000   0.02702   0.02728   1.95327
   A20        1.87686  -0.01051   0.00000  -0.06219  -0.06220   1.81466
   A21        1.86701   0.00471   0.00000   0.01891   0.01932   1.88633
   A22        1.94779  -0.00157   0.00000  -0.00436  -0.00430   1.94350
   A23        1.93517  -0.01214   0.00000  -0.06496  -0.06511   1.87006
   A24        1.95516   0.00261   0.00000   0.00803   0.00784   1.96300
   A25        1.81431   0.00997   0.00000   0.06770   0.06783   1.88214
   A26        1.91637  -0.00151   0.00000  -0.01186  -0.01186   1.90451
   A27        1.88916   0.00318   0.00000   0.00942   0.00902   1.89818
   A28        1.93951  -0.00277   0.00000  -0.01657  -0.01670   1.92281
   A29        1.95790   0.00202   0.00000   0.01211   0.01217   1.97008
   A30        1.92467  -0.00586   0.00000  -0.03194  -0.03205   1.89262
   A31        1.89384   0.00031   0.00000   0.00117   0.00121   1.89505
   A32        1.86021   0.00389   0.00000   0.01940   0.01908   1.87929
   A33        1.88420   0.00273   0.00000   0.01753   0.01762   1.90182
    D1        1.02088  -0.00219   0.00000  -0.02765  -0.02683   0.99405
    D2        3.08130   0.00294   0.00000   0.03876   0.03787   3.11917
    D3       -1.07813  -0.00110   0.00000  -0.01210  -0.01164  -1.08977
    D4       -1.06093  -0.00176   0.00000  -0.02211  -0.02155  -1.08248
    D5        0.99949   0.00336   0.00000   0.04431   0.04315   1.04264
    D6        3.12325  -0.00067   0.00000  -0.00655  -0.00636   3.11689
    D7        3.11435  -0.00213   0.00000  -0.02701  -0.02630   3.08805
    D8       -1.10842   0.00299   0.00000   0.03941   0.03840  -1.07002
    D9        1.01534  -0.00104   0.00000  -0.01145  -0.01111   1.00423
   D10        1.10792  -0.00403   0.00000  -0.01065  -0.00865   1.09928
   D11       -0.97266  -0.00266   0.00000   0.00998   0.01195  -0.96071
   D12       -0.95289   0.00186   0.00000  -0.01695  -0.01857  -0.97146
   D13       -3.03348   0.00323   0.00000   0.00368   0.00203  -3.03145
   D14       -3.09502   0.00015   0.00000  -0.00212  -0.00245  -3.09747
   D15        1.10757   0.00152   0.00000   0.01851   0.01815   1.12572
   D16        2.99702  -0.01554   0.00000  -0.25349  -0.25282   2.74421
   D17        0.95466  -0.00620   0.00000  -0.10019  -0.09952   0.85514
   D18       -1.25335  -0.00116   0.00000  -0.14117  -0.14165  -1.39499
   D19        2.98748   0.00818   0.00000   0.01214   0.01165   2.99913
   D20        0.88983  -0.00756   0.00000  -0.18860  -0.18879   0.70104
   D21       -1.15253   0.00177   0.00000  -0.03530  -0.03549  -1.18802
   D22        1.23135   0.00469   0.00000   0.23623   0.23612   1.46747
   D23       -3.02130   0.00715   0.00000   0.23784   0.23731  -2.78400
   D24       -3.02619   0.00156   0.00000   0.12843   0.12896  -2.89722
   D25       -0.99565   0.00403   0.00000   0.13004   0.13015  -0.86550
   D26       -1.31276  -0.00165   0.00000  -0.00050  -0.00046  -1.31321
   D27        2.95673  -0.00551   0.00000  -0.04133  -0.04102   2.91571
   D28        0.84417  -0.00287   0.00000  -0.01334  -0.01340   0.83077
   D29        2.93376   0.00538   0.00000   0.04848   0.04834   2.98210
   D30        0.92007   0.00152   0.00000   0.00765   0.00777   0.92784
   D31       -1.19249   0.00417   0.00000   0.03565   0.03539  -1.15710
   D32        1.12969  -0.00170   0.00000  -0.01143  -0.01152   1.11817
   D33       -0.99387  -0.00154   0.00000  -0.00960  -0.00956  -1.00344
   D34       -3.09466  -0.00232   0.00000  -0.01793  -0.01770  -3.11236
   D35       -3.08460   0.00153   0.00000  -0.00215  -0.00236  -3.08696
   D36        1.07503   0.00169   0.00000  -0.00033  -0.00041   1.07462
   D37       -1.02576   0.00091   0.00000  -0.00865  -0.00854  -1.03430
         Item               Value     Threshold  Converged?
 Maximum Force            0.017565     0.000450     NO 
 RMS     Force            0.005714     0.000300     NO 
 Maximum Displacement     0.572414     0.001800     NO 
 RMS     Displacement     0.209088     0.001200     NO 
 Predicted change in Energy=-1.443986D-02
 GradGradGradGradGradGradGradGradGradGradGradGradGradGradGradGradGradGrad

                          Input orientation:                          
 ---------------------------------------------------------------------
 Center     Atomic      Atomic             Coordinates (Angstroms)
 Number     Number       Type             X           Y           Z
 ---------------------------------------------------------------------
      1          6           0        0.932038    0.166743   -0.069151
      2          6           0        2.425891   -0.207384   -0.090143
      3          7           0        2.653310   -1.628079   -0.368276
      4          7           0        3.034884    0.640216   -1.124537
      5          7           0        4.487778    0.858415   -0.990208
      6          6           0        5.261513   -0.233916   -1.583281
      7          6           0        4.736574    2.066150   -1.771676
      8          1           0        0.411516   -0.449092    0.669845
      9          1           0        0.484684   -0.021007   -1.050352
     10          1           0        0.747708    1.218941    0.191362
     11          1           0        2.850566    0.016582    0.900596
     12          1           0        2.301378   -1.831990   -1.298630
     13          1           0        2.140590   -2.197799    0.294963
     14          1           0        2.690187    1.568701   -0.893654
     15          1           0        5.243306   -1.118974   -0.953510
     16          1           0        6.300534    0.107013   -1.653177
     17          1           0        4.907823   -0.501285   -2.591721
     18          1           0        4.215950    2.920559   -1.323194
     19          1           0        4.414990    1.970792   -2.822547
     20          1           0        5.807659    2.279725   -1.746117
 ---------------------------------------------------------------------
                    Distance matrix (angstroms):
                    1          2          3          4          5
     1  C    0.000000
     2  C    1.540133   0.000000
     3  N    2.504724   1.465419   0.000000
     4  N    2.399995   1.469445   2.421299   0.000000
     5  N    3.737652   2.489462   3.151939   1.475315   0.000000
     6  C    4.604072   3.204828   3.197288   2.435658   1.464100
     7  C    4.580484   3.651817   4.467309   2.312537   1.459869
     8  H    1.093760   2.166498   2.737398   3.359830   4.591433
     9  H    1.094591   2.173712   2.784035   2.635571   4.098994
    10  H    1.099530   2.220348   3.471316   2.701423   3.938808
    11  H    2.154927   1.100941   2.086589   2.126982   2.638993
    12  H    2.716918   2.028619   1.015379   2.584597   3.480481
    13  H    2.680343   2.047305   1.013582   3.296827   4.062191
    14  H    2.395074   1.967221   3.239875   1.016961   1.935242
    15  H    4.584997   3.084515   2.703658   2.828627   2.117129
    16  H    5.597630   4.189843   4.238367   3.350856   2.071284
    17  H    4.755679   3.536136   3.360982   2.638855   2.142444
    18  H    4.465446   3.809035   4.903450   2.575723   2.106468
    19  H    4.792363   4.020820   4.698812   2.560931   2.144796
    20  H    5.572127   4.512684   5.207619   3.280646   2.081732
                    6          7          8          9         10
     6  C    0.000000
     7  C    2.366718   0.000000
     8  H    5.352136   5.567189   0.000000
     9  H    4.811179   4.791148   1.774173   0.000000
    10  H    5.063061   4.525741   1.767570   1.774403   0.000000
    11  H    3.470599   3.859895   2.493806   3.066759   2.524023
    12  H    3.375984   4.620546   3.059229   2.577146   3.733919
    13  H    4.138212   5.402906   2.487612   3.048004   3.691201
    14  H    3.215079   2.281684   3.421748   2.723227   2.252291
    15  H    1.086403   3.327339   5.141034   4.884608   5.194900
    16  H    1.095756   2.509627   6.355016   5.848410   5.955886
    17  H    1.101606   2.700652   5.554936   4.708571   5.292568
    18  H    3.333401   1.096450   5.458980   4.759159   4.149467
    19  H    2.667043   1.103105   5.837846   4.749235   4.806026
    20  H    2.577437   1.092470   6.511657   5.840507   5.521068
                   11         12         13         14         15
    11  H    0.000000
    12  H    2.924965   0.000000
    13  H    2.402986   1.642927   0.000000
    14  H    2.377841   3.446721   3.987655   0.000000
    15  H    3.233017   3.046710   3.514171   3.707506   0.000000
    16  H    4.293275   4.458552   5.139313   3.968377   1.763607
    17  H    4.086168   3.199440   4.343810   3.476519   1.782645
    18  H    3.904176   5.123760   5.755271   2.083261   4.184490
    19  H    4.486441   4.609862   5.680574   2.618636   3.704870
    20  H    4.568512   5.422219   6.136907   3.309212   3.535234
                   16         17         18         19         20
    16  H    0.000000
    17  H    1.786207   0.000000
    18  H    3.517161   3.714413   0.000000
    19  H    2.897650   2.531270   1.785983   0.000000
    20  H    2.229852   3.042823   1.767222   1.787084   0.000000
 Stoichiometry    C4H13N3
 Framework group  C1[X(C4H13N3)]
 Deg. of freedom    54
 Full point group                 C1      NOp   1
 Largest Abelian subgroup         C1      NOp   1
 Largest concise Abelian subgroup C1      NOp   1
                         Standard orientation:                         
 ---------------------------------------------------------------------
 Center     Atomic      Atomic             Coordinates (Angstroms)
 Number     Number       Type             X           Y           Z
 ---------------------------------------------------------------------
      1          6           0       -2.337084   -0.997715    0.094070
      2          6           0       -1.240223   -0.008274   -0.341719
      3          7           0       -1.526099    1.371832    0.059575
      4          7           0        0.002460   -0.493677    0.274228
      5          7           0        1.248414   -0.056519   -0.383834
      6          6           0        1.669559    1.270258    0.069914
      7          6           0        2.243225   -1.025878    0.065512
      8          1           0       -3.300105   -0.679011   -0.314989
      9          1           0       -2.415102   -1.014009    1.185756
     10          1           0       -2.159157   -2.027371   -0.248153
     11          1           0       -1.169872   -0.034563   -1.440095
     12          1           0       -1.550599    1.411234    1.073893
     13          1           0       -2.435210    1.653265   -0.289226
     14          1           0        0.007783   -1.481821    0.033913
     15          1           0        1.055392    2.051738   -0.368674
     16          1           0        2.698714    1.418337   -0.275910
     17          1           0        1.647175    1.366788    1.167054
     18          1           0        1.989932   -2.026550   -0.304218
     19          1           0        2.333758   -1.069587    1.164026
     20          1           0        3.211009   -0.750246   -0.359825
 ---------------------------------------------------------------------
 Rotational constants (GHZ):           4.4643693           1.6431977           1.2792854
 Standard basis: 6-31G(2df,p) (6D, 7F)
 There are   282 symmetry adapted cartesian basis functions of A   symmetry.
 There are   261 symmetry adapted basis functions of A   symmetry.
   261 basis functions,   399 primitive gaussians,   282 cartesian basis functions
    29 alpha electrons       29 beta electrons
       nuclear repulsion energy       340.9246560132 Hartrees.
 NAtoms=   20 NActive=   20 NUniq=   20 SFac= 1.00D+00 NAtFMM=   60 NAOKFM=F Big=F
 Integral buffers will be    131072 words long.
 Raffenetti 2 integral format.
 Two-electron integral symmetry is turned on.
 One-electron integrals computed using PRISM.
 PrsmSu:  requested number of processors reduced to:  13 ShMem   1 Linda.
 NBasis=   261 RedAO= T EigKep=  3.30D-04  NBF=   261
 NBsUse=   261 1.00D-06 EigRej= -1.00D+00 NBFU=   261
 Initial guess from the checkpoint file:  "CCpNpNNpCpC.chk"
 B after Tr=     0.000000    0.000000   -0.000000
         Rot=    0.999981   -0.003864   -0.000104    0.004884 Ang=  -0.71 deg.
 ExpMin= 1.61D-01 ExpMax= 4.17D+03 ExpMxC= 6.27D+02 IAcc=2 IRadAn=         4 AccDes= 0.00D+00
 Harris functional with IExCor=  402 and IRadAn=       4 diagonalized for initial guess.
 HarFok:  IExCor=  402 AccDes= 0.00D+00 IRadAn=         4 IDoV= 1 UseB2=F ITyADJ=14
 ICtDFT=  3500011 ScaDFX=  1.000000  1.000000  1.000000  1.000000
 FoFCou: FMM=F IPFlag=           0 FMFlag=      100000 FMFlg1=           0
         NFxFlg=           0 DoJE=T BraDBF=F KetDBF=T FulRan=T
         wScrn=  0.000000 ICntrl=       500 IOpCl=  0 I1Cent=   200000004 NGrid=           0
         NMat0=    1 NMatS0=      1 NMatT0=    0 NMatD0=    1 NMtDS0=    0 NMtDT0=    0
 Petite list used in FoFCou.
 Requested convergence on RMS density matrix=1.00D-08 within 128 cycles.
 Requested convergence on MAX density matrix=1.00D-06.
 Requested convergence on             energy=1.00D-06.
 No special actions if energy rises.
 Integral accuracy reduced to 1.0D-05 until final iterations.
 Initial convergence to 1.0D-05 achieved.  Increase integral accuracy.
 SCF Done:  E(RB3LYP) =  -324.476156412     A.U. after   11 cycles
            NFock= 11  Conv=0.86D-08     -V/T= 2.0080
 PrsmSu:  requested number of processors reduced to:  13 ShMem   1 Linda.
 Calling FoFJK, ICntrl=      2127 FMM=F ISym2X=0 I1Cent= 0 IOpClX= 0 NMat=1 NMatS=1 NMatT=0.
 ***** Axes restored to original set *****
 -------------------------------------------------------------------
 Center     Atomic                   Forces (Hartrees/Bohr)
 Number     Number              X              Y              Z
 -------------------------------------------------------------------
      1        6          -0.002186367   -0.001003250    0.001164762
      2        6          -0.003403226    0.004192616    0.003248317
      3        7           0.007618129    0.007293408   -0.002641281
      4        7           0.002885060   -0.005311321   -0.000002263
      5        7          -0.000116859    0.001062395    0.000282216
      6        6          -0.000520698    0.000480919    0.000345892
      7        6           0.003900475    0.001811094    0.002611036
      8        1          -0.000731170   -0.000039690    0.000149665
      9        1          -0.000050765    0.000005650   -0.000432497
     10        1           0.002110922   -0.001521602    0.000170314
     11        1           0.002685684   -0.002646225    0.000366598
     12        1          -0.001538141   -0.001161824   -0.000761062
     13        1          -0.000866833   -0.000230148    0.000340281
     14        1          -0.004085892   -0.000748601   -0.004623850
     15        1          -0.003868255   -0.002177475    0.001664653
     16        1          -0.000836412   -0.000978098   -0.000226191
     17        1          -0.000505402   -0.000285639   -0.000855115
     18        1          -0.000067294    0.000124421   -0.000135087
     19        1          -0.000473068    0.000015585   -0.000215995
     20        1           0.000050111    0.001117785   -0.000450389
 -------------------------------------------------------------------
 Cartesian Forces:  Max     0.007618129 RMS     0.002314856

 GradGradGradGradGradGradGradGradGradGradGradGradGradGradGradGradGradGrad
 Berny optimization.
 Using GEDIIS/GDIIS optimizer.
 FormGI is forming the generalized inverse of G from B-inverse, IUseBI=4.
 Internal  Forces:  Max     0.021302629 RMS     0.003717475
 Search for a local minimum.
 Step number   2 out of a maximum of   99
 All quantities printed in internal units (Hartrees-Bohrs-Radians)
 Mixed Optimization -- RFO/linear search
 Update second derivatives using D2CorX and points    1    2
 DE= -7.67D-03 DEPred=-1.44D-02 R= 5.31D-01
 TightC=F SS=  1.41D+00  RLast= 5.93D-01 DXNew= 5.0454D-01 1.7790D+00
 Trust test= 5.31D-01 RLast= 5.93D-01 DXMaxT set to 5.05D-01
 ITU=  1  0
 Use linear search instead of GDIIS.
     Eigenvalues ---    0.00279   0.00342   0.00707   0.00708   0.00865
     Eigenvalues ---    0.01043   0.03767   0.04133   0.04589   0.04847
     Eigenvalues ---    0.05302   0.05411   0.05703   0.06406   0.06964
     Eigenvalues ---    0.07031   0.07548   0.07591   0.11235   0.13492
     Eigenvalues ---    0.15859   0.16000   0.16000   0.16000   0.16000
     Eigenvalues ---    0.16000   0.16000   0.16000   0.16000   0.16000
     Eigenvalues ---    0.16247   0.16716   0.17573   0.19213   0.29116
     Eigenvalues ---    0.30401   0.32518   0.33894   0.33923   0.33980
     Eigenvalues ---    0.34018   0.34029   0.34139   0.34228   0.34245
     Eigenvalues ---    0.34361   0.34710   0.35091   0.35365   0.35929
     Eigenvalues ---    0.39036   0.43303   0.45142   0.45384
 RFO step:  Lambda=-4.18719270D-03 EMin= 2.78613005D-03
 Quartic linear search produced a step of -0.20762.
 Iteration  1 RMS(Cart)=  0.08547311 RMS(Int)=  0.00281975
 Iteration  2 RMS(Cart)=  0.00360805 RMS(Int)=  0.00034711
 Iteration  3 RMS(Cart)=  0.00000496 RMS(Int)=  0.00034710
 Iteration  4 RMS(Cart)=  0.00000000 RMS(Int)=  0.00034710
 Variable       Old X    -DE/DX   Delta X   Delta X   Delta X     New X
                                 (Linear)    (Quad)   (Total)
    R1        2.91043   0.00022  -0.00317   0.00587   0.00271   2.91313
    R2        2.06691   0.00047   0.00127  -0.00105   0.00022   2.06712
    R3        2.06848   0.00041   0.00131  -0.00126   0.00005   2.06853
    R4        2.07781  -0.00177  -0.00203  -0.00057  -0.00260   2.07521
    R5        2.76924  -0.00433  -0.00640   0.00200  -0.00440   2.76484
    R6        2.77685  -0.00320   0.00061  -0.00789  -0.00728   2.76957
    R7        2.08048   0.00083  -0.00207   0.00530   0.00323   2.08371
    R8        1.91879   0.00146  -0.00072   0.00367   0.00295   1.92174
    R9        1.91539   0.00079   0.00059   0.00036   0.00095   1.91635
   R10        2.78794  -0.00195   0.00747  -0.01699  -0.00952   2.77842
   R11        1.92178  -0.00035   0.00347  -0.00637  -0.00291   1.91887
   R12        2.76675  -0.00120   0.00396  -0.00919  -0.00524   2.76151
   R13        2.75875   0.00215   0.00569  -0.00480   0.00089   2.75964
   R14        2.05300   0.00280   0.00235   0.00231   0.00465   2.05766
   R15        2.07068  -0.00108  -0.00029  -0.00194  -0.00223   2.06845
   R16        2.08173   0.00101  -0.00173   0.00516   0.00344   2.08517
   R17        2.07199   0.00007  -0.00052   0.00104   0.00052   2.07251
   R18        2.08457   0.00034  -0.00220   0.00445   0.00224   2.08681
   R19        2.06447   0.00026   0.00176  -0.00236  -0.00059   2.06387
    A1        1.91138   0.00135   0.00400   0.00046   0.00447   1.91585
    A2        1.92040   0.00030   0.00525  -0.00670  -0.00145   1.91895
    A3        1.98046  -0.00297  -0.00630  -0.00503  -0.01138   1.96907
    A4        1.89081  -0.00030  -0.00383   0.00846   0.00468   1.89550
    A5        1.87438   0.00055   0.00102  -0.00068   0.00032   1.87470
    A6        1.88390   0.00116  -0.00029   0.00434   0.00399   1.88789
    A7        1.96993   0.00318  -0.02217   0.05227   0.03033   2.00026
    A8        1.84571   0.00610   0.01283   0.00974   0.02346   1.86917
    A9        1.88858  -0.00095   0.00432   0.01094   0.01527   1.90385
   A10        1.94045  -0.00899  -0.00696  -0.03692  -0.04459   1.89586
   A11        1.88405  -0.00003   0.01130  -0.03663  -0.02608   1.85797
   A12        1.93506   0.00094   0.00034   0.00315   0.00259   1.93766
   A13        1.89105   0.00084  -0.00124   0.00379   0.00254   1.89360
   A14        1.92009  -0.00081   0.00329  -0.01159  -0.00830   1.91179
   A15        1.88741  -0.00064   0.00257  -0.01212  -0.00957   1.87784
   A16        2.01458  -0.02130  -0.00754  -0.04684  -0.05396   1.96061
   A17        1.79912   0.00465   0.00898   0.02128   0.03112   1.83024
   A18        1.74984   0.00744   0.02511   0.01067   0.03659   1.78643
   A19        1.95327  -0.01131  -0.00566  -0.04181  -0.04810   1.90517
   A20        1.81466   0.00732   0.01291   0.01981   0.03335   1.84801
   A21        1.88633   0.00489  -0.00401   0.03566   0.03210   1.91842
   A22        1.94350  -0.00372   0.00089  -0.02162  -0.02084   1.92266
   A23        1.87006   0.00230   0.01352  -0.00703   0.00654   1.87660
   A24        1.96300  -0.00018  -0.00163  -0.00085  -0.00257   1.96043
   A25        1.88214   0.00178  -0.01408   0.03766   0.02361   1.90575
   A26        1.90451   0.00022   0.00246  -0.01178  -0.00955   1.89496
   A27        1.89818  -0.00020  -0.00187   0.00642   0.00462   1.90280
   A28        1.92281  -0.00014   0.00347  -0.00755  -0.00406   1.91875
   A29        1.97008  -0.00049  -0.00253   0.00157  -0.00099   1.96909
   A30        1.89262   0.00186   0.00665  -0.00113   0.00554   1.89816
   A31        1.89505  -0.00022  -0.00025  -0.00307  -0.00334   1.89171
   A32        1.87929  -0.00068  -0.00396   0.00418   0.00029   1.87958
   A33        1.90182  -0.00035  -0.00366   0.00635   0.00266   1.90448
    D1        0.99405   0.00233   0.00557  -0.00821  -0.00285   0.99119
    D2        3.11917  -0.00281  -0.00786  -0.01634  -0.02390   3.09526
    D3       -1.08977   0.00105   0.00242  -0.00199   0.00027  -1.08950
    D4       -1.08248   0.00168   0.00447  -0.01479  -0.01047  -1.09296
    D5        1.04264  -0.00345  -0.00896  -0.02292  -0.03152   1.01112
    D6        3.11689   0.00040   0.00132  -0.00857  -0.00735   3.10954
    D7        3.08805   0.00202   0.00546  -0.01206  -0.00681   3.08124
    D8       -1.07002  -0.00312  -0.00797  -0.02020  -0.02785  -1.09787
    D9        1.00423   0.00074   0.00231  -0.00585  -0.00368   1.00055
   D10        1.09928   0.00035   0.00180  -0.02299  -0.02165   1.07762
   D11       -0.96071   0.00110  -0.00248  -0.00399  -0.00693  -0.96765
   D12       -0.97146  -0.00335   0.00386  -0.04499  -0.04016  -1.01163
   D13       -3.03145  -0.00261  -0.00042  -0.02598  -0.02545  -3.05690
   D14       -3.09747   0.00109   0.00051  -0.00189  -0.00187  -3.09935
   D15        1.12572   0.00183  -0.00377   0.01712   0.01285   1.13857
   D16        2.74421   0.00155   0.05249  -0.06193  -0.00951   2.73470
   D17        0.85514  -0.00134   0.02066  -0.06799  -0.04708   0.80806
   D18       -1.39499   0.00410   0.02941  -0.01342   0.01575  -1.37924
   D19        2.99913   0.00121  -0.00242  -0.01947  -0.02183   2.97730
   D20        0.70104  -0.00129   0.03920  -0.08210  -0.04306   0.65799
   D21       -1.18802  -0.00418   0.00737  -0.08815  -0.08063  -1.26865
   D22        1.46747  -0.00339  -0.04902   0.06346   0.01495   1.48242
   D23       -2.78400   0.00117  -0.04927   0.09688   0.04763  -2.73636
   D24       -2.89722  -0.00150  -0.02677   0.07728   0.05048  -2.84674
   D25       -0.86550   0.00306  -0.02702   0.11070   0.08316  -0.78234
   D26       -1.31321   0.00510   0.00009   0.09811   0.09782  -1.21539
   D27        2.91571   0.00362   0.00852   0.06883   0.07706   2.99277
   D28        0.83077   0.00248   0.00278   0.06599   0.06862   0.89939
   D29        2.98210  -0.00052  -0.01004   0.07580   0.06593   3.04803
   D30        0.92784  -0.00199  -0.00161   0.04653   0.04517   0.97301
   D31       -1.15710  -0.00313  -0.00735   0.04368   0.03673  -1.12037
   D32        1.11817   0.00320   0.00239   0.00433   0.00638   1.12455
   D33       -1.00344   0.00392   0.00199   0.01264   0.01425  -0.98919
   D34       -3.11236   0.00339   0.00367   0.00442   0.00768  -3.10468
   D35       -3.08696  -0.00379   0.00049  -0.01702  -0.01611  -3.10307
   D36        1.07462  -0.00307   0.00008  -0.00871  -0.00824   1.06638
   D37       -1.03430  -0.00360   0.00177  -0.01693  -0.01481  -1.04912
         Item               Value     Threshold  Converged?
 Maximum Force            0.021303     0.000450     NO 
 RMS     Force            0.003717     0.000300     NO 
 Maximum Displacement     0.409426     0.001800     NO 
 RMS     Displacement     0.085483     0.001200     NO 
 Predicted change in Energy=-2.916491D-03
 GradGradGradGradGradGradGradGradGradGradGradGradGradGradGradGradGradGrad

                          Input orientation:                          
 ---------------------------------------------------------------------
 Center     Atomic      Atomic             Coordinates (Angstroms)
 Number     Number       Type             X           Y           Z
 ---------------------------------------------------------------------
      1          6           0        0.928282    0.146807   -0.054651
      2          6           0        2.434960   -0.174040   -0.112959
      3          7           0        2.749000   -1.577802   -0.380286
      4          7           0        3.008987    0.646075   -1.183410
      5          7           0        4.452001    0.865461   -1.006496
      6          6           0        5.182315   -0.264887   -1.576091
      7          6           0        4.764789    2.084216   -1.747707
      8          1           0        0.445748   -0.478884    0.701809
      9          1           0        0.464943   -0.058390   -1.024908
     10          1           0        0.725630    1.193911    0.206973
     11          1           0        2.893144    0.068657    0.860183
     12          1           0        2.373933   -1.824151   -1.292869
     13          1           0        2.290813   -2.164853    0.308050
     14          1           0        2.627886    1.575116   -1.032659
     15          1           0        5.026648   -1.156013   -0.970047
     16          1           0        6.246012   -0.006799   -1.569859
     17          1           0        4.871823   -0.485506   -2.611690
     18          1           0        4.247627    2.939548   -1.296319
     19          1           0        4.475780    2.024413   -2.811829
     20          1           0        5.838560    2.271432   -1.678645
 ---------------------------------------------------------------------
                    Distance matrix (angstroms):
                    1          2          3          4          5
     1  C    0.000000
     2  C    1.541564   0.000000
     3  N    2.528898   1.463090   0.000000
     4  N    2.419234   1.465592   2.378703   0.000000
     5  N    3.720090   2.438734   3.043334   1.470279   0.000000
     6  C    4.536635   3.113995   3.012427   2.389018   1.461329
     7  C    4.619391   3.633211   4.398138   2.338701   1.460341
     8  H    1.093874   2.171116   2.771916   3.374874   4.558030
     9  H    1.094617   2.173935   2.817989   2.644532   4.092734
    10  H    1.098155   2.212568   3.481565   2.728920   3.932713
    11  H    2.168803   1.102651   2.066487   2.126758   2.559184
    12  H    2.740029   2.029477   1.016941   2.552898   3.410922
    13  H    2.707732   2.039942   1.014087   3.262138   3.947350
    14  H    2.425947   1.985602   3.221979   1.015421   1.957471
    15  H    4.396804   2.900985   2.390273   2.713669   2.101881
    16  H    5.531518   4.083460   4.014004   3.324743   2.072846
    17  H    4.742339   3.504135   3.267820   2.605881   2.139628
    18  H    4.512116   3.792167   4.846798   2.609023   2.104188
    19  H    4.869515   4.035101   4.676550   2.589025   2.145452
    20  H    5.591262   4.473946   5.103697   3.300534   2.085925
                    6          7          8          9         10
     6  C    0.000000
     7  C    2.392084   0.000000
     8  H    5.260199   5.587820   0.000000
     9  H    4.753950   4.858176   1.777282   0.000000
    10  H    5.016916   4.574737   1.766760   1.775879   0.000000
    11  H    3.359611   3.790333   2.512893   3.076664   2.528042
    12  H    3.224675   4.604173   3.083241   2.614183   3.751683
    13  H    3.939625   5.329286   2.530178   3.089946   3.706928
    14  H    3.194688   2.310158   3.462517   2.710484   2.302299
    15  H    1.088865   3.342516   4.923236   4.692221   5.040464
    16  H    1.094577   2.568657   6.247112   5.806926   5.922284
    17  H    1.103424   2.713189   5.528965   4.703285   5.287364
    18  H    3.349674   1.096723   5.489306   4.834252   4.208515
    19  H    2.695763   1.104291   5.903669   4.859832   4.885338
    20  H    2.621849   1.092155   6.504862   5.893318   5.555056
                   11         12         13         14         15
    11  H    0.000000
    12  H    2.913406   0.000000
    13  H    2.378282   1.638881   0.000000
    14  H    2.433645   3.418657   3.987291   0.000000
    15  H    3.066170   2.754545   3.183722   3.635525   0.000000
    16  H    4.141560   4.286314   4.881326   3.985207   1.779696
    17  H    4.034373   3.125814   4.243431   3.431436   1.780040
    18  H    3.837595   5.118942   5.697196   2.134187   4.181740
    19  H    4.451223   4.640738   5.661951   2.604232   3.716279
    20  H    4.469154   5.378314   6.017815   3.348220   3.592867
                   16         17         18         19         20
    16  H    0.000000
    17  H    1.789684   0.000000
    18  H    3.570620   3.721669   0.000000
    19  H    2.966822   2.548843   1.785020   0.000000
    20  H    2.316935   3.066898   1.767376   1.789495   0.000000
 Stoichiometry    C4H13N3
 Framework group  C1[X(C4H13N3)]
 Deg. of freedom    54
 Full point group                 C1      NOp   1
 Largest Abelian subgroup         C1      NOp   1
 Largest concise Abelian subgroup C1      NOp   1
                         Standard orientation:                         
 ---------------------------------------------------------------------
 Center     Atomic      Atomic             Coordinates (Angstroms)
 Number     Number       Type             X           Y           Z
 ---------------------------------------------------------------------
      1          6           0       -2.354428   -0.985649    0.084757
      2          6           0       -1.216032   -0.033387   -0.331983
      3          7           0       -1.432348    1.368439    0.026794
      4          7           0        0.003418   -0.503483    0.331274
      5          7           0        1.222234   -0.067174   -0.365749
      6          6           0        1.578090    1.276289    0.085865
      7          6           0        2.264431   -1.014293    0.020759
      8          1           0       -3.298882   -0.645884   -0.350132
      9          1           0       -2.454652   -0.993373    1.174749
     10          1           0       -2.190499   -2.018172   -0.251350
     11          1           0       -1.105735   -0.061635   -1.428740
     12          1           0       -1.498261    1.435812    1.039359
     13          1           0       -2.314870    1.685089   -0.359548
     14          1           0        0.012954   -1.507217    0.177951
     15          1           0        0.852256    2.000163   -0.281285
     16          1           0        2.563319    1.512942   -0.328162
     17          1           0        1.622953    1.350535    1.185874
     18          1           0        2.016809   -2.015525   -0.352091
     19          1           0        2.404128   -1.074599    1.114517
     20          1           0        3.204986   -0.710363   -0.443768
 ---------------------------------------------------------------------
 Rotational constants (GHZ):           4.4706085           1.6880843           1.3076497
 Standard basis: 6-31G(2df,p) (6D, 7F)
 There are   282 symmetry adapted cartesian basis functions of A   symmetry.
 There are   261 symmetry adapted basis functions of A   symmetry.
   261 basis functions,   399 primitive gaussians,   282 cartesian basis functions
    29 alpha electrons       29 beta electrons
       nuclear repulsion energy       342.8671378821 Hartrees.
 NAtoms=   20 NActive=   20 NUniq=   20 SFac= 1.00D+00 NAtFMM=   60 NAOKFM=F Big=F
 Integral buffers will be    131072 words long.
 Raffenetti 2 integral format.
 Two-electron integral symmetry is turned on.
 One-electron integrals computed using PRISM.
 PrsmSu:  requested number of processors reduced to:  13 ShMem   1 Linda.
 NBasis=   261 RedAO= T EigKep=  3.23D-04  NBF=   261
 NBsUse=   261 1.00D-06 EigRej= -1.00D+00 NBFU=   261
 Initial guess from the checkpoint file:  "CCpNpNNpCpC.chk"
 B after Tr=    -0.000000   -0.000000    0.000000
         Rot=    0.999999    0.001028   -0.000222   -0.000933 Ang=   0.16 deg.
 ExpMin= 1.61D-01 ExpMax= 4.17D+03 ExpMxC= 6.27D+02 IAcc=2 IRadAn=         4 AccDes= 0.00D+00
 Harris functional with IExCor=  402 and IRadAn=       4 diagonalized for initial guess.
 HarFok:  IExCor=  402 AccDes= 0.00D+00 IRadAn=         4 IDoV= 1 UseB2=F ITyADJ=14
 ICtDFT=  3500011 ScaDFX=  1.000000  1.000000  1.000000  1.000000
 FoFCou: FMM=F IPFlag=           0 FMFlag=      100000 FMFlg1=           0
         NFxFlg=           0 DoJE=T BraDBF=F KetDBF=T FulRan=T
         wScrn=  0.000000 ICntrl=       500 IOpCl=  0 I1Cent=   200000004 NGrid=           0
         NMat0=    1 NMatS0=      1 NMatT0=    0 NMatD0=    1 NMtDS0=    0 NMtDT0=    0
 Petite list used in FoFCou.
 Requested convergence on RMS density matrix=1.00D-08 within 128 cycles.
 Requested convergence on MAX density matrix=1.00D-06.
 Requested convergence on             energy=1.00D-06.
 No special actions if energy rises.
 Integral accuracy reduced to 1.0D-05 until final iterations.
 Initial convergence to 1.0D-05 achieved.  Increase integral accuracy.
 SCF Done:  E(RB3LYP) =  -324.479207894     A.U. after   10 cycles
            NFock= 10  Conv=0.10D-07     -V/T= 2.0079
 PrsmSu:  requested number of processors reduced to:  13 ShMem   1 Linda.
 Calling FoFJK, ICntrl=      2127 FMM=F ISym2X=0 I1Cent= 0 IOpClX= 0 NMat=1 NMatS=1 NMatT=0.
 ***** Axes restored to original set *****
 -------------------------------------------------------------------
 Center     Atomic                   Forces (Hartrees/Bohr)
 Number     Number              X              Y              Z
 -------------------------------------------------------------------
      1        6           0.000917867   -0.002932683    0.000541853
      2        6          -0.001222023    0.004264075    0.002280817
      3        7          -0.002201689    0.001250739   -0.000255378
      4        7           0.002210939   -0.001099742    0.002223657
      5        7          -0.001304255    0.001360724   -0.000699169
      6        6           0.003741966    0.000613339   -0.000986240
      7        6           0.000705628   -0.001319937    0.001698695
      8        1          -0.000682659   -0.000247575   -0.000218612
      9        1          -0.000542655   -0.000115995   -0.000239027
     10        1           0.001845325   -0.000872751    0.000016131
     11        1           0.000377568    0.000216860   -0.000655476
     12        1          -0.000826741   -0.000603658   -0.000282587
     13        1          -0.000641243   -0.001406672    0.000702314
     14        1          -0.002895558    0.000549791   -0.002500391
     15        1          -0.000767725    0.000600140   -0.000344522
     16        1           0.000338654   -0.000945170   -0.000302481
     17        1           0.000167906    0.000499717   -0.000421420
     18        1           0.000072797   -0.000112675    0.000131805
     19        1           0.000316737    0.000083853   -0.000167380
     20        1           0.000389163    0.000217619   -0.000522590
 -------------------------------------------------------------------
 Cartesian Forces:  Max     0.004264075 RMS     0.001320317

 GradGradGradGradGradGradGradGradGradGradGradGradGradGradGradGradGradGrad
 Berny optimization.
 Using GEDIIS/GDIIS optimizer.
 FormGI is forming the generalized inverse of G from B-inverse, IUseBI=4.
 Internal  Forces:  Max     0.004281616 RMS     0.001259250
 Search for a local minimum.
 Step number   3 out of a maximum of   99
 All quantities printed in internal units (Hartrees-Bohrs-Radians)
 Mixed Optimization -- RFO/linear search
 Update second derivatives using D2CorX and points    2    3
 DE= -3.05D-03 DEPred=-2.92D-03 R= 1.05D+00
 TightC=F SS=  1.41D+00  RLast= 2.71D-01 DXNew= 8.4853D-01 8.1375D-01
 Trust test= 1.05D+00 RLast= 2.71D-01 DXMaxT set to 8.14D-01
 ITU=  1  1  0
 Use linear search instead of GDIIS.
     Eigenvalues ---    0.00250   0.00342   0.00683   0.00709   0.00833
     Eigenvalues ---    0.01042   0.03645   0.04100   0.04661   0.04746
     Eigenvalues ---    0.05289   0.05381   0.05677   0.06791   0.07054
     Eigenvalues ---    0.07101   0.07531   0.07571   0.11052   0.14923
     Eigenvalues ---    0.15704   0.15997   0.16000   0.16000   0.16000
     Eigenvalues ---    0.16000   0.16000   0.16000   0.16000   0.16000
     Eigenvalues ---    0.16305   0.17031   0.17452   0.19521   0.28758
     Eigenvalues ---    0.30443   0.32806   0.33900   0.33932   0.33978
     Eigenvalues ---    0.34010   0.34019   0.34140   0.34228   0.34246
     Eigenvalues ---    0.34292   0.34655   0.35036   0.35396   0.37349
[...]
 813461,0.55387051,-0.10883406,-0.02534682,0.10985474,-0.01442569,-0.00
 684422,0.03028285,0.00309045,-0.00157732,0.00000580,-0.00643309,0.0008
 8608,-0.00328484,-0.00081132,0.00054605,0.00210188,-0.00055344,-0.0005
 3462,-0.00029838,-0.00015240,0.00041247,0.00010601,0.11974435,-0.02698
 969,-0.05581191,0.04560159,0.00242890,-0.00146670,-0.00346743,-0.00034
 517,0.00038026,-0.00071328,0.00094136,-0.00007988,0.00067557,0.0002349
 5,0.00089910,0.00001013,-0.00008627,0.00001188,-0.00009085,0.00017282,
 -0.00004712,0.00001853,0.02795322,0.05768791,0.11194485,0.04515566,-0.
 23861185,-0.00469150,-0.00039269,0.00318635,-0.00047842,-0.00108107,0.
 00098238,-0.00034237,0.00072587,0.00086064,-0.00051755,0.00015171,0.00
 044964,-0.00009422,0.00001591,0.00009611,0.00012667,-0.00003681,-0.000
 02892,-0.12097071,-0.05026952,0.25723763,-0.07387834,-0.05139338,-0.06
 116598,-0.01267402,-0.02344616,-0.02618228,0.00234523,-0.00080058,0.00
 171050,0.00258956,0.00046171,-0.00078175,-0.00004071,0.00047210,0.0004
 9503,0.00007149,-0.00004879,0.00011361,0.00023876,-0.00008143,-0.00017
 442,0.00523436,0.01084554,0.01119394,0.08099125,-0.05230169,-0.1459362
 7,-0.11421788,0.00128502,0.00073479,0.00292481,-0.00047685,0.00204940,
 0.00066477,0.00003841,0.00031939,0.00022136,0.00006285,0.00010519,0.00
 038249,-0.00006361,0.00002486,-0.00004874,0.00009757,-0.00010110,-0.00
 008475,0.00310567,0.00406421,0.00571700,0.05782265,0.15539526,-0.06130
 326,-0.11432889,-0.18053270,-0.00197713,-0.00413774,-0.00445779,0.0008
 5650,0.00086569,0.00036786,0.00107450,0.00036155,0.00093446,-0.0000960
 1,0.00021986,0.00005289,-0.00002648,-0.00009829,-0.00008160,0.00008566
 ,0.00000713,-0.00006014,-0.00977869,-0.01722368,-0.01843387,0.06934545
 ,0.12676171,0.19423240,-0.05834407,0.04688530,-0.01339532,-0.00054656,
 0.03077935,-0.00704561,-0.00814909,0.00382593,-0.00213313,0.00124880,0
 .00008252,-0.00090056,0.00028176,-0.00062726,-0.00002444,0.00006381,0.
 00012000,0.00006746,-0.00007302,0.00011859,0.00003487,0.00293662,-0.01
 548090,0.00322600,0.00145634,-0.01004978,0.00384815,0.06036604,0.04771
 135,-0.27546888,0.06309303,-0.00212066,-0.00469909,0.00105253,0.003052
 09,0.00058338,0.00080744,0.00005508,0.00028988,0.00036481,-0.00004970,
 0.00053731,-0.00039133,-0.00000892,-0.00002101,-0.00004633,0.00008583,
 -0.00017253,0.00008904,0.00094570,-0.00564964,0.00078696,0.00377306,-0
 .01729287,0.00634556,-0.05376692,0.29980649,-0.01371323,0.06268399,-0.
 06469178,0.00052016,0.00484896,-0.00335683,-0.00229731,0.00070975,0.00
 088902,0.00080971,-0.00043295,0.00015015,-0.00040351,-0.00008052,-0.00
 007172,0.00004046,-0.00005820,0.00000207,0.00001319,0.00011286,0.00014
 784,-0.00630921,0.02610729,-0.00662778,0.00530006,-0.02218266,0.007102
 33,0.01511615,-0.07123387,0.06614480,-0.01342976,-0.01968483,-0.023410
 81,-0.07860927,-0.05507348,-0.05581729,0.00385769,0.00886771,0.0052017
 2,0.00385654,0.00817473,0.01694470,0.00221539,0.00145121,-0.00024169,-
 0.00002357,0.00018614,-0.00009701,0.00025188,-0.00074843,0.00059719,0.
 00117574,-0.00025254,0.00074839,-0.00632428,0.00085173,-0.00112810,0.0
 0122851,0.00061700,0.00013546,0.08504371,0.00143021,0.00328501,0.00168
 073,-0.05179733,-0.14472296,-0.09639832,-0.00652122,-0.03296368,-0.020
 84455,0.00253568,0.00760091,0.00306109,-0.00012783,0.00072338,0.000388
 74,0.00027221,-0.00011942,0.00000002,0.00052240,-0.00004451,0.00011128
 ,-0.00035176,-0.00010437,-0.00003561,0.00127920,0.00108439,0.00056490,
 -0.00084574,0.00060435,-0.00013231,0.05385549,0.17003963,-0.00193990,-
 0.00276134,-0.00158836,-0.05340717,-0.10187582,-0.15243859,0.00203979,
 0.00755185,0.00934793,-0.00091195,-0.01682112,-0.03760749,-0.00432167,
 0.00197119,0.00322941,0.00013232,0.00001979,0.00051452,0.00125812,-0.0
 0085908,-0.00086350,-0.00061950,0.00011591,0.00062431,-0.00015148,0.00
 045425,0.00081959,-0.00007949,0.00010860,-0.00012422,0.05782296,0.1088
 6332,0.17637956,0.00156937,0.00106553,0.00214135,-0.00139665,0.0134613
 0,0.00374913,-0.07136485,-0.12536030,-0.10979670,-0.00058376,0.0002398
 7,0.00023591,-0.00060984,-0.00042537,0.00028233,0.00010821,-0.00075251
 ,-0.00012823,-0.00009965,-0.00006442,-0.00008279,-0.00017732,0.0001492
 5,0.00007117,0.00018254,-0.00005617,-0.00059996,-0.00008102,-0.0006434
 5,-0.00021347,0.00095812,0.00028472,-0.00030683,0.07074884,-0.00058420
 ,0.00193037,-0.00080646,-0.01608505,-0.03209507,-0.02686272,-0.0860781
 8,-0.21511251,-0.14735533,0.00016870,0.00342329,-0.00001267,-0.0002373
 9,0.00020419,0.00006604,0.00001308,-0.00002106,0.00011707,0.00032675,-
 0.00021921,-0.00024730,0.00025579,-0.00003140,0.00002948,0.00128898,0.
 00011299,0.00063892,-0.00045760,0.00078322,0.00015694,0.00219744,-0.00
 631597,0.00319220,0.09798935,0.24152745,0.00062813,0.00120621,0.000544
 92,0.00272238,0.00938539,0.00855657,-0.07525062,-0.15084063,-0.2039536
 8,-0.00042317,-0.00077733,0.00221373,0.00038599,-0.00021072,-0.0002567
 5,0.00008649,0.00009693,-0.00004192,-0.00004679,0.00018256,-0.00002567
 ,0.00012237,-0.00024929,-0.00018567,0.00010885,-0.00047615,-0.00004139
 ,-0.00023802,0.00033307,-0.00012796,-0.00004047,0.00284464,0.00066081,
 0.08948999,0.16469440,0.21421208,0.00126798,-0.00036236,-0.00085733,-0
 .00340188,0.00919386,-0.01323082,-0.08571642,-0.03611595,0.18083669,0.
 00021164,0.00013017,0.00060544,0.00045564,0.00015358,0.00027469,0.0001
 1568,-0.00003198,-0.00022871,0.00011763,0.00024517,0.00025186,-0.00051
 171,0.00044626,0.00022350,0.00002212,0.00006052,-0.00006255,0.00013522
 ,-0.00011569,0.00035606,0.00027092,-0.00068571,-0.00018942,0.00090537,
 0.00104980,-0.01748602,0.08620637,-0.00048530,0.00082143,0.00021426,-0
 .01703429,-0.00196076,0.03242497,-0.02428209,-0.06942533,0.04174192,0.
 00303158,-0.00607074,0.00387796,0.00023910,0.00014262,-0.00011495,-0.0
 0000771,-0.00022896,-0.00010020,-0.00016317,0.00011418,0.00014971,0.00
 084037,0.00005434,-0.00019091,0.00006443,0.00004114,-0.00012103,-0.000
 22745,0.00007150,-0.00036738,-0.00049730,0.00024665,-0.00111885,0.0132
 3181,0.00508503,-0.02579540,0.02665437,0.07210521,0.00033661,-0.001869
 95,0.00025023,0.00815757,-0.00114010,-0.01123264,0.12826857,0.04430234
 ,-0.33866285,-0.00095981,0.00324188,-0.00186769,-0.00040404,0.00028650
 ,0.00012004,-0.00006528,-0.00005326,0.00003070,0.00030843,-0.00004201,
 0.00002585,-0.00091316,0.00027166,0.00041811,-0.00002047,0.00013445,-0
 .00007041,0.00040893,-0.00036553,0.00056261,-0.00013045,0.00016060,0.0
 0048922,0.01452785,0.00619556,-0.02133626,-0.15026486,-0.05224125,0.37
 092501,-0.00001590,-0.00126052,0.00191206,0.00806519,-0.01068283,0.007
 16975,-0.00108730,-0.00107747,0.00449883,-0.11410733,0.10207913,-0.069
 87770,-0.03942433,0.02412144,-0.02000426,-0.00039632,-0.00101732,-0.00
 554209,0.00205437,0.00549177,-0.00004110,-0.00014136,-0.00000096,-0.00
 042577,-0.00019299,-0.00039178,-0.00018673,-0.00055886,0.00047004,0.00
 064782,-0.00032466,0.00029656,0.00054253,0.00006118,0.00019432,-0.0001
 1767,0.00005592,-0.00131207,0.00072798,0.14529703,0.00003654,0.0011334
 3,0.00000858,0.00601574,-0.00886997,-0.00983441,-0.00156218,-0.0001867
 8,0.00477188,0.11960890,-0.22633113,0.17286912,-0.01029291,0.00376468,
 -0.00950778,0.00100034,-0.00063300,0.00115857,-0.00290699,0.00575886,-
 0.00600516,-0.00016293,0.00003715,-0.00062229,-0.00058638,-0.00067150,
 0.00006972,-0.00021213,0.00051328,-0.00007797,0.00028731,0.00042128,-0
 .00101594,0.00030175,0.00039793,-0.00014224,-0.00027325,-0.00105186,0.
 00100706,-0.11394138,0.22491033,-0.00067422,0.00118877,0.00158239,-0.0
 1399592,0.02750632,-0.01916305,0.00257868,-0.00109719,-0.00480790,-0.0
 5402324,0.12912395,-0.12232433,-0.01060443,-0.00105945,-0.00226572,0.0
 0083498,-0.00083706,0.00255420,0.00173508,-0.00051623,0.00238240,-0.00
 065542,-0.00079864,0.00005789,0.00003823,-0.00033102,0.00006448,0.0012
 5147,-0.00093767,0.00008631,-0.00042557,-0.00040224,-0.00040946,0.0001
 3209,0.00004637,-0.00004959,-0.00013385,0.00164902,0.00033205,0.075417
 49,-0.15391951,0.14435234,0.00002113,0.00004451,-0.00007458,0.00007586
 ,0.00018259,0.00043128,-0.00004004,0.00006319,-0.00015808,0.00128720,0
 .00098159,-0.00055638,0.00185048,0.01961861,0.00353104,-0.05998302,-0.
 06228680,-0.00060753,-0.00252937,0.00125224,0.00212414,0.00003937,-0.0
 0000782,-0.00001512,-0.00003000,-0.00000104,0.00000154,0.00000170,-0.0
 0001742,0.00000654,0.00005673,-0.00000368,-0.00013813,-0.00018615,-0.0
 0005581,0.00012372,0.00009514,-0.00004958,-0.00000422,-0.00009481,-0.0
 0024053,-0.00019633,0.06069665,-0.00000393,0.00003796,-0.00006677,0.00
 025200,0.00011287,-0.00016101,-0.00011307,0.00004277,0.00009676,-0.001
 95583,0.00196352,0.00132170,-0.00266931,-0.01730903,-0.00497529,-0.054
 76243,-0.30470596,0.00372055,0.00279302,0.00029780,-0.00237690,0.00002
 341,-0.00000480,0.00000207,0.00003362,0.00000690,0.00000976,-0.0000329
 1,0.00002648,-0.00000062,-0.00003297,0.00006619,0.00024340,0.00016730,
 0.00005951,-0.00002301,-0.00004339,0.00004046,0.00001925,0.00012174,-0
 .00016392,0.00014782,0.06010152,0.33228968,-0.00002355,0.00006621,-0.0
 0000815,-0.00014069,-0.00057317,0.00014327,-0.00030651,0.00034146,0.00
 027084,-0.00151884,0.00040314,0.00052659,-0.00534050,-0.03100731,-0.00
 474301,0.00258853,0.01207489,-0.04705312,0.00371614,-0.00160538,-0.002
 70500,0.00001395,-0.00000706,-0.00002141,0.00000043,-0.00000861,0.0000
 0552,-0.00004616,0.00004129,-0.00002409,-0.00001185,0.00005591,0.00002
 656,0.00028535,-0.00001487,-0.00003163,-0.00013733,0.00007782,-0.00003
 867,0.00020865,0.00018583,0.00010357,-0.00438852,-0.00005775,0.0541297
 7,-0.00010483,-0.00012718,0.00051302,-0.00027190,0.00132578,-0.0013207
 2,0.00020924,-0.00025295,0.00019654,-0.00243863,0.00183511,0.00350536,
 -0.01760232,-0.00445443,-0.00005194,-0.29239311,-0.03336874,-0.0400562
 5,-0.00043888,-0.00124979,-0.00103880,-0.00018407,-0.00003183,0.000006
 15,0.00004522,0.00000338,-0.00003657,0.00004024,-0.00000686,-0.0000090
 0,-0.00011076,0.00001428,0.00035857,0.00001475,0.00005762,-0.00005945,
 -0.00012908,-0.00002250,0.00000839,-0.00055395,0.00029276,0.00012799,-
 0.00421603,-0.00035863,-0.00143482,0.32405415,0.00005880,0.00006001,-0
 .00025153,0.00065800,-0.00021459,0.00025548,-0.00007298,-0.00002631,0.
 00007933,0.00179708,0.00066472,-0.00184831,0.01441016,0.00128169,0.000
 97941,-0.03827882,-0.05554082,-0.00702554,0.00079473,-0.00008013,0.000
 26436,0.00008862,0.00000202,0.00000929,0.00000272,0.00000040,0.0000077
 7,-0.00000939,0.00000619,0.00000018,-0.00006602,-0.00002723,0.00003498
 ,0.00009261,0.00000841,-0.00004337,-0.00003744,0.00004502,0.00001028,0
 .00011606,0.00024784,0.00037035,-0.02988538,-0.00113972,-0.00550926,0.
 03715047,0.05342683,0.00013265,0.00011803,-0.00052564,0.00106395,-0.00
 056811,0.00092550,-0.00018794,0.00013382,-0.00008836,0.00469474,-0.002
 44586,-0.00196519,0.02672671,0.00572531,0.00262531,-0.04877080,-0.0085
 1657,-0.05741362,0.00026577,0.00013525,0.00069946,0.00020024,0.0000299
 8,0.00000094,-0.00001938,0.00001617,0.00001826,-0.00004524,0.00001253,
 -0.00000888,-0.00004108,-0.00004760,-0.00003819,0.00002346,-0.00002530
 ,-0.00000279,0.00005654,0.00002239,-0.00000505,0.00123451,-0.00039839,
 -0.00076079,0.00095892,0.00071231,-0.00055042,0.04138550,0.00981732,0.
 06126919,-0.00008351,-0.00008214,-0.00001289,-0.00026398,-0.00009030,0
 .00003151,-0.00000077,-0.00000951,-0.00005271,0.00479875,-0.00110659,0
 .00075754,0.00312830,-0.00363170,0.02285213,-0.06731739,0.02402271,-0.
 05284452,-0.00008173,-0.00280643,-0.00002164,-0.00000402,0.00001162,-0
 .00000667,-0.00003972,-0.00000582,0.00000109,0.00000306,0.00000833,0.0
 0000007,-0.00002737,-0.00005619,-0.00021328,-0.00002309,-0.00001260,0.
 00001855,-0.00002806,0.00002032,-0.00000943,0.00041145,0.00087989,-0.0
 0059839,0.00184815,-0.00337413,0.00611142,-0.00728369,0.01320194,-0.02
 741290,0.06530663,0.00000690,0.00010540,0.00000504,0.00008380,-0.00037
 603,0.00003184,-0.00018134,0.00013742,0.00004783,-0.00217511,0.0002344
 6,-0.00053289,-0.00213783,0.00596751,-0.01737544,0.02468324,-0.0890783
 1,0.07868445,-0.00096205,0.00467239,-0.00284655,0.00000646,-0.00000811
 ,-0.00001208,0.00000970,-0.00002143,0.00000265,-0.00002346,0.00001646,
 0.00000380,0.00003128,0.00006210,-0.00000510,0.00018045,0.00000273,-0.
 00000388,-0.00000191,0.00002569,0.00002143,-0.00020062,-0.00011598,0.0
 0083476,0.00952756,-0.01126022,0.02754974,-0.00171458,0.00159978,-0.00
 429505,-0.02740240,0.08744639,0.00011372,0.00017503,-0.00024190,0.0001
 4603,-0.00011064,0.00052522,0.00008852,0.00010565,-0.00001471,-0.00337
 120,-0.00135831,0.00253939,0.00422889,-0.00039347,-0.03830715,-0.05316
 088,0.08003515,-0.21940395,0.00074789,0.00531238,0.00122643,0.00011621
 ,0.00000002,-0.00001233,0.00006242,0.00001419,0.00002247,-0.00001344,-
 0.00002532,0.00002524,-0.00019934,0.00002690,0.00026421,0.00009581,0.0
 0000691,-0.00002017,0.00006248,0.00001274,-0.00000135,0.00178626,-0.00
 048521,-0.00036609,-0.00142570,0.00112058,-0.00015111,-0.00227008,0.00
 319075,-0.00415646,0.05272279,-0.08434158,0.25674074,0.00004718,0.0000
 1161,-0.00010036,0.00028115,-0.00061463,0.00030839,-0.00006674,0.00005
 019,-0.00009860,0.00043430,0.00057298,-0.00118534,0.00257198,-0.003065
 50,-0.00522050,-0.00001162,-0.00112509,-0.00052072,-0.11247695,0.04792
 241,0.10317652,0.00005037,0.00001027,-0.00001577,0.00000350,0.00002908
 ,-0.00000213,-0.00004609,0.00002988,-0.00000343,-0.00017004,-0.0003197
 9,0.00025717,-0.00002815,-0.00003116,-0.00000084,0.00007602,0.00002636
 ,0.00000182,0.00008225,-0.00038859,-0.00036989,0.00053081,-0.00011352,
 0.00007674,0.00060242,-0.00001234,0.00002221,-0.00001083,0.00003748,0.
 00026897,0.11666576,-0.00010621,0.00023024,0.00034730,-0.00043440,-0.0
 0087795,-0.00091217,0.00000588,0.00033173,0.00030490,0.00154213,0.0028
 7231,0.00035193,0.02077894,-0.02117787,-0.02849752,-0.00376785,-0.0056
 2486,-0.00001578,0.04136189,-0.07893597,-0.06897134,-0.00003796,-0.000
 00415,-0.00000873,0.00017002,0.00002585,0.00004646,-0.00000946,-0.0000
 1188,-0.00001118,-0.00039746,-0.00015856,0.00106090,0.00012715,0.00011
 465,-0.00008473,-0.00005933,-0.00003078,0.00001417,-0.00063937,-0.0002
 3231,-0.00025186,0.00088299,-0.00090544,-0.00164610,-0.00000693,0.0002
 9661,0.00039254,0.00000082,-0.00012759,-0.00054343,-0.05065440,0.09620
 302,-0.00007653,-0.00020024,0.00010669,-0.00029335,-0.00001607,0.00006
 181,-0.00009157,0.00022291,0.00015854,0.00091588,0.00053697,0.00033695
 ,-0.00056620,-0.00357013,0.00050167,-0.00096809,-0.00054778,0.00110549
 ,0.10270475,-0.07503147,-0.21313483,-0.00002533,0.00003634,-0.00000224
 ,0.00002809,0.00004838,0.00001527,-0.00008733,0.00004956,-0.00004875,0
 .00020104,0.00013812,0.00023007,0.00005950,0.00007288,-0.00006683,-0.0
 0002327,-0.00001841,0.00001540,-0.00029986,0.00012037,-0.00083801,0.00
 032226,-0.00005040,0.00008000,0.00009303,0.00017278,0.00000728,-0.0000
 5195,0.00040981,0.00046416,-0.11255662,0.08303102,0.22794577,-0.000005
 06,0.00000117,-0.00002671,-0.00025647,0.00023610,0.00052607,-0.0000422
 3,-0.00007046,-0.00006160,0.00512703,-0.00148355,0.00315203,0.00175245
 ,-0.00310152,0.00476762,-0.00002972,0.00020996,-0.00087959,-0.07106235
 ,0.02853243,-0.05388092,0.00001978,0.00001100,-0.00001608,-0.00001815,
 -0.00001270,-0.00000822,-0.00000555,-0.00000579,-0.00000030,-0.0000344
 6,-0.00007044,-0.00020105,-0.00000945,-0.00006678,0.00000533,-0.000062
 94,0.00001922,-0.00002002,0.00022579,0.00199439,-0.00107802,0.00008139
 ,-0.00000852,0.00027627,-0.00008850,-0.00008874,-0.00027325,-0.0001900
 6,0.00020193,0.00025685,0.00487019,-0.00722441,0.01336911,0.06816269,-
 0.00012763,-0.00007735,0.00029327,-0.00014852,-0.00000153,-0.00069556,
 -0.00019459,0.00006607,0.00010414,0.00761677,0.00222155,0.00023848,0.0
 0571681,-0.04013602,0.02707630,-0.00269935,0.00291905,0.00585139,0.029
 08538,-0.09228295,0.08217195,-0.00009704,0.00000921,0.00000557,0.00001
 664,0.00001864,0.00000314,-0.00002752,0.00003270,-0.00003572,0.0001382
 7,0.00014648,0.00018760,0.00002236,0.00003463,-0.00000017,-0.00014783,
 0.00002758,-0.00004421,-0.00238291,0.00151403,-0.00095317,-0.00011786,
 0.00022368,-0.00075717,0.00029424,-0.00013341,-0.00031378,0.00005817,0
 .00089833,-0.00249174,-0.00351785,0.00608387,-0.00820305,-0.03319640,0
 .11571128,-0.00004586,0.00021167,-0.00002898,-0.00026955,-0.00052167,-
 0.00081009,0.00014802,0.00005466,0.00029586,0.00110987,-0.00145919,0.0
 0197597,0.00185452,0.00670245,0.00488682,0.00103590,-0.00138371,0.0031
 6952,-0.05543531,0.07965021,-0.20510836,0.00004724,-0.00004576,0.00000
 841,0.00004252,0.00000482,0.00004519,0.00007412,-0.00008095,-0.0000041
 0,0.00002366,0.00021062,0.00016070,0.00004826,0.00006916,0.00000759,-0
 .00004906,-0.00005050,0.00000408,0.00170100,0.00173550,-0.00053977,-0.
 00003007,0.00015316,0.00009142,-0.00016405,-0.00003581,-0.00015807,-0.
 00114529,0.00182353,0.00094982,-0.00916249,0.01110147,-0.02102211,0.06
 096592,-0.09940411,0.22008179,-0.00002421,-0.00000680,0.00010833,0.000
 62291,0.00016204,-0.00161033,0.00006939,-0.00021900,0.00032375,0.00070
 624,-0.00276344,-0.00059214,-0.00669585,-0.00228399,0.00098567,-0.0005
 1186,0.00115974,0.00062980,-0.29994667,-0.03605368,-0.03434172,-0.0000
 6257,-0.00001002,0.00003350,0.00001783,0.00000256,-0.00000706,0.000042
 16,-0.00001295,0.00000376,0.00013893,0.00028895,0.00006843,0.00001154,
 0.00006693,-0.00002877,-0.00008556,-0.00004609,0.00004558,0.00064463,0
 .00014964,0.00063926,0.00049481,-0.00002397,0.00007128,0.00084973,0.00
 007993,-0.00001461,-0.00014212,0.00003049,-0.00025621,-0.01340551,-0.0
 0153206,-0.00265356,-0.00843436,-0.00029115,-0.00074935,0.32571055,-0.
 00002948,-0.00010085,0.00033160,0.00051549,0.00008008,-0.00229556,0.00
 008343,-0.00006348,0.00030947,-0.00518975,-0.00758262,-0.00181144,-0.0
 3524833,-0.00589139,-0.00160599,-0.00111109,0.00102541,-0.00015403,-0.
 02660949,-0.05335668,-0.00456672,-0.00011116,0.00006201,0.00005019,0.0
 0011635,0.00003977,0.00000483,-0.00004119,0.00004468,-0.00001041,0.000
 09473,0.00017632,0.00065327,-0.00001125,0.00011081,-0.00009629,-0.0000
 5891,-0.00005242,0.00009112,0.00001617,-0.00044238,0.00023668,0.000011
 12,0.00032126,0.00039038,0.00062078,-0.00047731,-0.00050498,0.00037402
 ,-0.00018098,-0.00025060,0.01115260,0.00192908,0.00279839,0.01412312,0
 .00272415,0.00126444,0.04130285,0.06163452,-0.00000620,0.00005594,0.00
 007767,-0.00002284,-0.00047585,-0.00002865,-0.00005742,0.00006246,0.00
 023838,-0.00024090,0.00016194,0.00103497,-0.00124502,-0.00068783,-0.00
 083835,-0.00059096,-0.00010193,-0.00004568,-0.03419013,-0.00494631,-0.
 05195589,0.00000396,-0.00000152,0.00000166,0.00005663,0.00000541,-0.00
 000279,-0.00001841,-0.00000341,-0.00002426,-0.00013147,-0.00024624,0.0
 0032292,-0.00001423,0.00003874,-0.00005539,-0.00000404,-0.00005191,0.0
 0004164,0.00064829,0.00008225,0.00000909,0.00009523,0.00016436,-0.0000
 5091,0.00024713,-0.00047848,0.00012753,-0.00012544,-0.00000231,-0.0000
 8246,0.02512489,0.00429216,0.00408368,-0.02687344,-0.00303316,-0.00400
 568,0.03734438,0.00516568,0.05115251\\0.00000325,0.00000081,0.00000605
 ,-0.00000035,-0.00000682,-0.00001672,-0.00000610,0.00000255,0.00001311
 ,0.00000291,0.00000718,0.00000036,-0.00000681,0.00000593,-0.00000381,0
 .00000682,-0.00000870,-0.00000804,-0.00000357,-0.00000939,0.00000512,-
 0.00000539,-0.00000087,-0.00000049,-0.00000076,-0.00000044,0.00000017,
 0.00000198,0.00000018,0.00000101,0.00000103,-0.00000494,-0.00000201,-0
 .00000079,0.00000765,0.00000018,-0.00000004,-0.00000384,0.00000577,0.0
 0000114,-0.00000036,-0.00000137,0.00000087,0.00000234,0.00000108,0.000
 00091,-0.00000177,0.00000085,0.00000090,0.00000272,0.00000260,0.000000
 17,0.00000291,0.00000030,0.00000039,0.00000063,-0.00000212,0.00000344,
 0.00000422,-0.00000203\\\@


 A MATHEMATICIAN IS A MACHINE FOR TURNING COFFEE INTO THEOREMS.
     -- QUOTED BY PAUL ERDOS
 Job cpu time:       0 days  1 hours 30 minutes 27.5 seconds.
 Elapsed time:       0 days  0 hours 22 minutes 37.1 seconds.
 File lengths (MBytes):  RWF=    107 Int=      0 D2E=      0 Chk=      7 Scr=      1
 Normal termination of Gaussian 16 at Tue Jun  1 06:23:27 2021.
### All Done ###
