### Starting Gaussian ###
 Entering Gaussian System, Link 0=g16
 Initial command:
 /cluster/software/gaussian/gaussian-16-A.03/avx2/g16/l1.exe "/local/scratch/linjian/Gau-8861.inp" -scrdir="/local/scratch/linjian/"
 Entering Link 1 = /cluster/software/gaussian/gaussian-16-A.03/avx2/g16/l1.exe PID=      8862.
  
 Copyright (c) 1988,1990,1992,1993,1995,1998,2003,2009,2016,
            Gaussian, Inc.  All Rights Reserved.
  
 This is part of the Gaussian(R) 16 program.  It is based on
 the Gaussian(R) 09 system (copyright 2009, Gaussian, Inc.),
 the Gaussian(R) 03 system (copyright 2003, Gaussian, Inc.),
 the Gaussian(R) 98 system (copyright 1998, Gaussian, Inc.),
 the Gaussian(R) 94 system (copyright 1995, Gaussian, Inc.),
 the Gaussian 92(TM) system (copyright 1992, Gaussian, Inc.),
 the Gaussian 90(TM) system (copyright 1990, Gaussian, Inc.),
 the Gaussian 88(TM) system (copyright 1988, Gaussian, Inc.),
 the Gaussian 86(TM) system (copyright 1986, Carnegie Mellon
 University), and the Gaussian 82(TM) system (copyright 1983,
 Carnegie Mellon University). Gaussian is a federally registered
 trademark of Gaussian, Inc.
  
 This software contains proprietary and confidential information,
 including trade secrets, belonging to Gaussian, Inc.
  
 This software is provided under written license and may be
 used, copied, transmitted, or stored only in accord with that
 written license.
  
 The following legend is applicable only to US Government
 contracts under FAR:
  
                    RESTRICTED RIGHTS LEGEND
  
 Use, reproduction and disclosure by the US Government is
 subject to restrictions as set forth in subparagraphs (a)
 and (c) of the Commercial Computer Software - Restricted
 Rights clause in FAR 52.227-19.
  
 Gaussian, Inc.
 340 Quinnipiac St., Bldg. 40, Wallingford CT 06492
  
  
 ---------------------------------------------------------------
 Warning -- This program may not be used in any manner that
 competes with the business of Gaussian, Inc. or will provide
 assistance to any competitor of Gaussian, Inc.  The licensee
 of this program is prohibited from giving any competitor of
 Gaussian, Inc. access to this program.  By using this program,
 the user acknowledges that Gaussian, Inc. is engaged in the
 business of creating and licensing software in the field of
 computational chemistry and represents and warrants to the
 licensee that it is not a competitor of Gaussian, Inc. and that
 it will not use this program in any manner prohibited above.
 ---------------------------------------------------------------
  

 Cite this work as:
 Gaussian 16, Revision A.03,
 M. J. Frisch, G. W. Trucks, H. B. Schlegel, G. E. Scuseria, 
 M. A. Robb, J. R. Cheeseman, G. Scalmani, V. Barone, 
 G. A. Petersson, H. Nakatsuji, X. Li, M. Caricato, A. V. Marenich, 
 J. Bloino, B. G. Janesko, R. Gomperts, B. Mennucci, H. P. Hratchian, 
 J. V. Ortiz, A. F. Izmaylov, J. L. Sonnenberg, D. Williams-Young, 
 F. Ding, F. Lipparini, F. Egidi, J. Goings, B. Peng, A. Petrone, 
 T. Henderson, D. Ranasinghe, V. G. Zakrzewski, J. Gao, N. Rega, 
 G. Zheng, W. Liang, M. Hada, M. Ehara, K. Toyota, R. Fukuda, 
 J. Hasegawa, M. Ishida, T. Nakajima, Y. Honda, O. Kitao, H. Nakai, 
 T. Vreven, K. Throssell, J. A. Montgomery, Jr., J. E. Peralta, 
 F. Ogliaro, M. J. Bearpark, J. J. Heyd, E. N. Brothers, K. N. Kudin, 
 V. N. Staroverov, T. A. Keith, R. Kobayashi, J. Normand, 
 K. Raghavachari, A. P. Rendell, J. C. Burant, S. S. Iyengar, 
 J. Tomasi, M. Cossi, J. M. Millam, M. Klene, C. Adamo, R. Cammi, 
 J. W. Ochterski, R. L. Martin, K. Morokuma, O. Farkas, 
 J. B. Foresman, and D. J. Fox, Gaussian, Inc., Wallingford CT, 2016.
 
 ******************************************
 Gaussian 16:  ES64L-G16RevA.03 25-Dec-2016
                 1-Jun-2021 
 ******************************************
 %chk=CCtCCCpNpCCCdNN.chk
 %NProcShared=20
 Will use up to   20 processors via shared memory.
 -----------------------------
 # opt freq b3lyp/6-31g(2df,p)
 -----------------------------
 1/18=20,19=15,26=3,38=1/1,3;
 2/9=110,12=2,17=6,18=5,40=1/2;
 3/5=1,6=6,7=104,11=2,25=1,30=1,71=1,74=-5/1,2,3;
 4//1;
 5/5=2,38=5/2;
 6/7=2,8=2,9=2,10=2,28=1/1;
 7//1,2,3,16;
 1/18=20,19=15,26=3/3(2);
 2/9=110/2;
 99//99;
 2/9=110/2;
 3/5=1,6=6,7=104,11=2,25=1,30=1,71=1,74=-5/1,2,3;
 4/5=5,16=3,69=1/1;
 5/5=2,38=5/2;
 7//1,2,3,16;
 1/18=20,19=15,26=3/3(-5);
 2/9=110/2;
 6/7=2,8=2,9=2,10=2,19=2,28=1/1;
 99/9=1/99;
 -------------------
 Title Card Required
 -------------------
 Symbolic Z-matrix:
 Charge =  0 Multiplicity = 1
 C                     1.05554  -0.06746  -0.04863 
 C                     2.57554  -0.06746  -0.04863 
 C                     3.87939  -0.06746  -0.04863 
 C                     5.39939  -0.06746  -0.04863 
 C                     5.91772   0.62108  -1.32427 
 N                     5.43254   2.00802  -1.42285 
 C                     7.45149   0.61169  -1.35136 
 C                     7.9995    1.24664  -2.6268 
 C                     9.50234   1.25219  -2.64356 
 N                     10.12325   1.76829  -3.65767 
 N                     11.44881   1.71672  -3.59769 
 H                     0.68264   0.66525  -0.7697 
 H                     0.68246   0.19069   0.94635 
 H                     0.68246  -1.05819  -0.32267 
 H                     5.75606  -1.10214   0.00584 
 H                     5.75264   0.45663   0.84759 
 H                     5.54389   0.07215  -2.19901 
 H                     5.70769   2.52812  -0.59053 
 H                     4.41027   2.00163  -1.40958 
 H                     7.81183  -0.42298  -1.27596 
 H                     7.84734   1.13796  -0.47264 
 H                     7.66936   2.28661  -2.72187 
 H                     7.64417   0.69845  -3.5066 
 H                     10.02982   0.81146  -1.78007 
 H                     11.97255   2.14703  -4.35279 
 H                     11.96097   1.35746  -2.80221 
 

 GradGradGradGradGradGradGradGradGradGradGradGradGradGradGradGradGradGrad
 Berny optimization.
 Initialization pass.
                           ----------------------------
                           !    Initial Parameters    !
                           ! (Angstroms and Degrees)  !
 --------------------------                            --------------------------
 ! Name  Definition              Value          Derivative Info.                !
 --------------------------------------------------------------------------------
 ! R1    R(1,2)                  1.52           estimate D2E/DX2                !
 ! R2    R(1,12)                 1.0936         estimate D2E/DX2                !
 ! R3    R(1,13)                 1.0935         estimate D2E/DX2                !
 ! R4    R(1,14)                 1.0935         estimate D2E/DX2                !
 ! R5    R(2,3)                  1.3039         estimate D2E/DX2                !
 ! R6    R(3,4)                  1.52           estimate D2E/DX2                !
 ! R7    R(4,5)                  1.5395         estimate D2E/DX2                !
 ! R8    R(4,15)                 1.0958         estimate D2E/DX2                !
 ! R9    R(4,16)                 1.0967         estimate D2E/DX2                !
 ! R10   R(5,6)                  1.4727         estimate D2E/DX2                !
 ! R11   R(5,7)                  1.534          estimate D2E/DX2                !
 ! R12   R(5,17)                 1.0983         estimate D2E/DX2                !
 ! R13   R(6,18)                 1.0193         estimate D2E/DX2                !
 ! R14   R(6,19)                 1.0224         estimate D2E/DX2                !
 ! R15   R(7,8)                  1.5265         estimate D2E/DX2                !
 ! R16   R(7,20)                 1.0982         estimate D2E/DX2                !
 ! R17   R(7,21)                 1.0981         estimate D2E/DX2                !
 ! R18   R(8,9)                  1.5029         estimate D2E/DX2                !
 ! R19   R(8,22)                 1.0952         estimate D2E/DX2                !
 ! R20   R(8,23)                 1.0958         estimate D2E/DX2                !
 ! R21   R(9,10)                 1.2963         estimate D2E/DX2                !
 ! R22   R(9,24)                 1.1037         estimate D2E/DX2                !
 ! R23   R(10,11)                1.3279         estimate D2E/DX2                !
 ! R24   R(11,25)                1.0147         estimate D2E/DX2                !
 ! R25   R(11,26)                1.012          estimate D2E/DX2                !
 ! A1    A(2,1,12)             109.9377         estimate D2E/DX2                !
 ! A2    A(2,1,13)             109.9481         estimate D2E/DX2                !
 ! A3    A(2,1,14)             109.948          estimate D2E/DX2                !
 ! A4    A(12,1,13)            108.9925         estimate D2E/DX2                !
 ! A5    A(12,1,14)            108.9931         estimate D2E/DX2                !
 ! A6    A(13,1,14)            108.9955         estimate D2E/DX2                !
 ! A7    A(3,4,5)              109.6754         estimate D2E/DX2                !
 ! A8    A(3,4,15)             108.9954         estimate D2E/DX2                !
 ! A9    A(3,4,16)             108.7908         estimate D2E/DX2                !
 ! A10   A(5,4,15)             110.7268         estimate D2E/DX2                !
 ! A11   A(5,4,16)             110.7917         estimate D2E/DX2                !
 ! A12   A(15,4,16)            107.805          estimate D2E/DX2                !
 ! A13   A(4,5,6)              111.4545         estimate D2E/DX2                !
 ! A14   A(4,5,7)              110.3972         estimate D2E/DX2                !
 ! A15   A(4,5,17)             108.7727         estimate D2E/DX2                !
 ! A16   A(6,5,7)              109.5108         estimate D2E/DX2                !
 ! A17   A(6,5,17)             107.7737         estimate D2E/DX2                !
 ! A18   A(7,5,17)             108.856          estimate D2E/DX2                !
 ! A19   A(5,6,18)             109.6917         estimate D2E/DX2                !
 ! A20   A(5,6,19)             108.8244         estimate D2E/DX2                !
 ! A21   A(18,6,19)            105.2186         estimate D2E/DX2                !
 ! A22   A(5,7,8)              111.7861         estimate D2E/DX2                !
 ! A23   A(5,7,20)             109.4274         estimate D2E/DX2                !
 ! A24   A(5,7,21)             110.0818         estimate D2E/DX2                !
 ! A25   A(8,7,20)             109.3571         estimate D2E/DX2                !
 ! A26   A(8,7,21)             109.8677         estimate D2E/DX2                !
 ! A27   A(20,7,21)            106.1591         estimate D2E/DX2                !
 ! A28   A(7,8,9)              111.7048         estimate D2E/DX2                !
 ! A29   A(7,8,22)             111.0554         estimate D2E/DX2                !
 ! A30   A(7,8,23)             110.2631         estimate D2E/DX2                !
 ! A31   A(9,8,22)             107.2736         estimate D2E/DX2                !
 ! A32   A(9,8,23)             108.4895         estimate D2E/DX2                !
 ! A33   A(22,8,23)            107.9132         estimate D2E/DX2                !
 ! A34   A(8,9,10)             119.2854         estimate D2E/DX2                !
 ! A35   A(8,9,24)             117.8851         estimate D2E/DX2                !
 ! A36   A(10,9,24)            122.8295         estimate D2E/DX2                !
 ! A37   A(9,10,11)            115.2995         estimate D2E/DX2                !
 ! A38   A(10,11,25)           117.7198         estimate D2E/DX2                !
 ! A39   A(10,11,26)           123.6745         estimate D2E/DX2                !
 ! A40   A(25,11,26)           118.3114         estimate D2E/DX2                !
 ! A41   L(1,2,3,19,-1)        180.0            estimate D2E/DX2                !
 ! A42   L(2,3,4,19,-1)        180.0            estimate D2E/DX2                !
 ! A43   L(1,2,3,19,-2)        180.0            estimate D2E/DX2                !
 ! A44   L(2,3,4,19,-2)        180.0            estimate D2E/DX2                !
 ! D1    D(12,1,4,5)           -17.1003         estimate D2E/DX2                !
 ! D2    D(12,1,4,15)         -138.4723         estimate D2E/DX2                !
 ! D3    D(12,1,4,16)          104.2231         estimate D2E/DX2                !
 ! D4    D(13,1,4,5)          -137.0968         estimate D2E/DX2                !
 ! D5    D(13,1,4,15)          101.5313         estimate D2E/DX2                !
 ! D6    D(13,1,4,16)          -15.7733         estimate D2E/DX2                !
 ! D7    D(14,1,4,5)           102.8968         estimate D2E/DX2                !
 ! D8    D(14,1,4,15)          -18.4752         estimate D2E/DX2                !
 ! D9    D(14,1,4,16)         -135.7798         estimate D2E/DX2                !
 ! D10   D(3,4,5,6)             58.905          estimate D2E/DX2                !
 ! D11   D(3,4,5,7)           -179.158          estimate D2E/DX2                !
 ! D12   D(3,4,5,17)           -59.7797         estimate D2E/DX2                !
 ! D13   D(15,4,5,6)           179.2298         estimate D2E/DX2                !
 ! D14   D(15,4,5,7)           -58.8332         estimate D2E/DX2                !
 ! D15   D(15,4,5,17)           60.545          estimate D2E/DX2                !
 ! D16   D(16,4,5,6)           -61.2065         estimate D2E/DX2                !
 ! D17   D(16,4,5,7)            60.7305         estimate D2E/DX2                !
 ! D18   D(16,4,5,17)         -179.8912         estimate D2E/DX2                !
 ! D19   D(4,5,6,18)            56.7261         estimate D2E/DX2                !
 ! D20   D(4,5,6,19)           -57.892          estimate D2E/DX2                !
 ! D21   D(7,5,6,18)           -65.7221         estimate D2E/DX2                !
 ! D22   D(7,5,6,19)           179.6597         estimate D2E/DX2                !
 ! D23   D(17,5,6,18)          176.0065         estimate D2E/DX2                !
 ! D24   D(17,5,6,19)           61.3883         estimate D2E/DX2                !
 ! D25   D(4,5,7,8)            178.1192         estimate D2E/DX2                !
 ! D26   D(4,5,7,20)            56.8226         estimate D2E/DX2                !
 ! D27   D(4,5,7,21)           -59.4825         estimate D2E/DX2                !
 ! D28   D(6,5,7,8)            -58.8043         estimate D2E/DX2                !
 ! D29   D(6,5,7,20)           179.8991         estimate D2E/DX2                !
 ! D30   D(6,5,7,21)            63.594          estimate D2E/DX2                !
 ! D31   D(17,5,7,8)            58.7915         estimate D2E/DX2                !
 ! D32   D(17,5,7,20)          -62.5051         estimate D2E/DX2                !
 ! D33   D(17,5,7,21)         -178.8103         estimate D2E/DX2                !
 ! D34   D(5,7,8,9)            179.2789         estimate D2E/DX2                !
 ! D35   D(5,7,8,22)            59.5633         estimate D2E/DX2                !
 ! D36   D(5,7,8,23)           -60.0041         estimate D2E/DX2                !
 ! D37   D(20,7,8,9)           -59.3839         estimate D2E/DX2                !
 ! D38   D(20,7,8,22)         -179.0994         estimate D2E/DX2                !
 ! D39   D(20,7,8,23)           61.3332         estimate D2E/DX2                !
 ! D40   D(21,7,8,9)            56.7582         estimate D2E/DX2                !
 ! D41   D(21,7,8,22)          -62.9573         estimate D2E/DX2                !
 ! D42   D(21,7,8,23)          177.4753         estimate D2E/DX2                !
 ! D43   D(7,8,9,10)          -179.4742         estimate D2E/DX2                !
 ! D44   D(7,8,9,24)             0.4826         estimate D2E/DX2                !
 ! D45   D(22,8,9,10)          -57.5548         estimate D2E/DX2                !
 ! D46   D(22,8,9,24)          122.402          estimate D2E/DX2                !
 ! D47   D(23,8,9,10)           58.78           estimate D2E/DX2                !
 ! D48   D(23,8,9,24)         -121.2631         estimate D2E/DX2                !
 ! D49   D(8,9,10,11)         -179.2209         estimate D2E/DX2                !
 ! D50   D(24,9,10,11)           0.8245         estimate D2E/DX2                !
 ! D51   D(9,10,11,25)        -177.3392         estimate D2E/DX2                !
 ! D52   D(9,10,11,26)          -3.6872         estimate D2E/DX2                !
 ! D53   D(10,11,25,26)        174.0007         estimate D2E/DX2                !
 --------------------------------------------------------------------------------
 Trust Radius=3.00D-01 FncErr=1.00D-07 GrdErr=1.00D-06 EigMax=2.50D+02 EigMin=1.00D-04
 Number of steps in this run=    132 maximum allowed number of steps=    156.
 GradGradGradGradGradGradGradGradGradGradGradGradGradGradGradGradGradGrad

                          Input orientation:                          
 ---------------------------------------------------------------------
 Center     Atomic      Atomic             Coordinates (Angstroms)
 Number     Number       Type             X           Y           Z
 ---------------------------------------------------------------------
      1          6           0        1.055540   -0.067460   -0.048630
      2          6           0        2.575540   -0.067460   -0.048630
      3          6           0        3.879390   -0.067460   -0.048630
      4          6           0        5.399390   -0.067460   -0.048630
      5          6           0        5.917720    0.621080   -1.324270
      6          7           0        5.432540    2.008020   -1.422850
      7          6           0        7.451490    0.611690   -1.351360
      8          6           0        7.999500    1.246640   -2.626800
      9          6           0        9.502340    1.252190   -2.643560
     10          7           0       10.123250    1.768290   -3.657670
     11          7           0       11.448810    1.716720   -3.597690
     12          1           0        0.682640    0.665250   -0.769700
     13          1           0        0.682460    0.190690    0.946350
     14          1           0        0.682460   -1.058190   -0.322670
     15          1           0        5.756060   -1.102140    0.005840
     16          1           0        5.752640    0.456630    0.847590
     17          1           0        5.543890    0.072150   -2.199010
     18          1           0        5.707690    2.528120   -0.590530
     19          1           0        4.410270    2.001630   -1.409580
     20          1           0        7.811830   -0.422980   -1.275960
     21          1           0        7.847340    1.137960   -0.472640
     22          1           0        7.669360    2.286610   -2.721870
     23          1           0        7.644170    0.698450   -3.506600
     24          1           0       10.029820    0.811460   -1.780070
     25          1           0       11.972550    2.147030   -4.352790
     26          1           0       11.960970    1.357460   -2.802210
 ---------------------------------------------------------------------
                    Distance matrix (angstroms):
                    1          2          3          4          5
     1  C    0.000000
     2  C    1.520000   0.000000
     3  C    2.823850   1.303850   0.000000
     4  C    4.343850   2.823850   1.520000   0.000000
     5  C    5.073671   3.643009   2.501226   1.539484   0.000000
     6  N    5.035298   3.789267   2.934003   2.489417   1.472658
     7  C    6.562509   5.092469   3.862415   2.523780   1.534038
     8  C    7.522792   6.147614   5.034792   3.890295   2.534111
     9  C    8.934404   7.513701   6.331880   5.030839   3.871476
    10  N    9.930685   8.565225   7.441837   6.221736   4.944424
    11  N   11.126508   9.721833   8.548406   7.237030   6.079624
    12  H    1.093554   2.154037   3.357978   4.827477   5.264557
    13  H    1.093533   2.154154   3.358123   4.827635   5.722665
    14  H    1.093541   2.154158   3.358125   4.827636   5.588479
    15  H    4.813358   3.345032   2.143693   1.095784   2.182845
    16  H    4.810471   3.342431   2.141716   1.096661   2.184324
    17  H    4.978846   3.668069   2.722900   2.159747   1.098291
    18  H    5.354735   4.103785   3.220772   2.669408   2.054091
    19  H    4.169836   3.082134   2.532815   2.666773   2.045874
    20  H    6.876059   5.389941   4.134830   2.729945   2.163342
    21  H    6.910960   5.424454   4.168627   2.761391   2.171606
    22  H    7.512022   6.215695   5.201128   4.223816   2.792046
    23  H    7.480255   6.183461   5.168921   4.193234   2.783735
    24  H    9.181943   7.703030   6.449665   5.021082   4.141662
    25  H   11.941979  10.570409   9.430217   8.163099   6.939843
    26  H   11.337592   9.884275   8.655896   7.257199   6.264777
                    6          7          8          9         10
     6  N    0.000000
     7  C    2.455811   0.000000
     8  C    2.935725   1.526507   0.000000
     9  C    4.315633   2.507191   1.502944   0.000000
    10  N    5.201409   3.714174   2.417669   1.296267   0.000000
    11  N    6.403928   4.716530   3.614048   2.216957   1.327918
    12  H    4.979075   6.794007   7.571214   9.035649   9.933891
    13  H    5.610620   7.160760   8.211060   9.581467  10.621409
    14  H    5.759800   7.047444   8.010014   9.408223  10.403832
    15  H    3.437865   2.766530   4.180979   5.157209   6.382243
    16  H    2.768424   2.783077   4.212349   5.184717   6.412492
    17  H    2.088640   2.156050   2.755440   4.154449   5.096579
    18  H    1.019298   2.700445   3.322797   4.499144   5.429720
    19  H    1.022376   3.344300   3.864480   5.292782   6.143818
    20  H    3.404755   1.098213   2.155834   2.744877   3.977043
    21  H    2.736999   1.098092   2.162260   2.732209   3.965034
    22  H    2.601620   2.175114   1.095248   2.106175   2.676930
    23  H    3.308821   2.165574   1.095819   2.122325   2.704296
    24  H    4.763858   2.621352   2.242439   1.103673   2.109416
    25  H    7.167678   5.639666   4.424350   3.134349   2.011603
    26  H    6.704197   4.795472   3.966900   2.465991   2.068286
                   11         12         13         14         15
    11  N    0.000000
    12  H   11.180945   0.000000
    13  H   11.785218   1.780459   0.000000
    14  H   11.590521   1.780472   1.780481   0.000000
    15  H    7.303342   5.428142   5.319529   5.084414   0.000000
    16  H    7.334487   5.325791   5.078110   5.419494   1.771530
    17  H    6.287209   5.101612   5.791446   5.332150   2.507057
    18  H    6.531603   5.362230   5.751393   6.179507   3.679237
    19  H    7.376316   4.011307   4.767230   4.943727   3.667145
    20  H    4.816261   7.229515   7.492875   7.220815   2.516041
    21  H    4.803279   7.186420   7.365213   7.495403   3.101684
    22  H    3.921234   7.433306   8.164894   8.109292   4.752341
    23  H    3.939601   7.480282   8.279613   7.854209   4.375422
    24  H    2.477251   9.402765   9.756632   9.643275   5.011623
    25  H    1.014715  11.937180  12.624353  12.408926   8.258299
    26  H    1.012010  11.480896  11.942271  11.797808   7.241249
                   16         17         18         19         20
    16  H    0.000000
    17  H    3.077852   0.000000
    18  H    2.522158   2.940379   0.000000
    19  H    3.046933   2.373012   1.622138   0.000000
    20  H    3.086007   2.498145   3.688660   4.179378   0.000000
    21  H    2.568070   3.069558   2.554319   3.665683   1.755881
    22  H    4.445637   3.113654   2.906731   3.524909   3.074546
    23  H    4.753455   2.552101   3.949824   4.068646   2.502293
    24  H    5.032372   4.565705   4.800285   5.756137   2.587943
    25  H    8.281829   7.090244   7.317670   8.116139   5.777839
    26  H    7.257816   6.572274   6.735390   7.705027   4.766001
                   21         22         23         24         25
    21  H    0.000000
    22  H    2.531819   0.000000
    23  H    3.072354   1.771634   0.000000
    24  H    2.564994   2.938507   2.947033   0.000000
    25  H    5.752490   4.604001   4.642122   3.489532   0.000000
    26  H    4.732550   4.391775   4.423259   2.252160   1.740073
                   26
    26  H    0.000000
 Stoichiometry    C8H15N3
 Framework group  C1[X(C8H15N3)]
 Deg. of freedom    72
 Full point group                 C1      NOp   1
 Largest Abelian subgroup         C1      NOp   1
 Largest concise Abelian subgroup C1      NOp   1
                         Standard orientation:                         
 ---------------------------------------------------------------------
 Center     Atomic      Atomic             Coordinates (Angstroms)
 Number     Number       Type             X           Y           Z
 ---------------------------------------------------------------------
      1          6           0        5.682568   -0.516386   -0.383286
      2          6           0        4.293833    0.062662   -0.167601
      3          6           0        3.102582    0.559367    0.017412
      4          6           0        1.713848    1.138414    0.233097
      5          6           0        0.651728    0.070936   -0.086906
      6          7           0        0.816256   -1.123190    0.759092
      7          6           0       -0.757887    0.644778    0.105357
      8          6           0       -1.837677   -0.374643   -0.248278
      9          6           0       -3.217855    0.183638   -0.042676
     10          7           0       -4.247561   -0.564051   -0.289605
     11          7           0       -5.427617    0.013520   -0.096610
     12          1           0        5.630500   -1.608233   -0.415208
     13          1           0        6.343410   -0.215362    0.434324
     14          1           0        6.096142   -0.152041   -1.327766
     15          1           0        1.588934    2.015363   -0.411961
     16          1           0        1.628330    1.472879    1.274004
     17          1           0        0.768275   -0.241016   -1.133494
     18          1           0        0.779342   -0.855543    1.741930
     19          1           0        1.756232   -1.499996    0.618675
     20          1           0       -0.878475    1.536151   -0.524709
     21          1           0       -0.889129    0.983083    1.141760
     22          1           0       -1.752826   -1.270383    0.376237
     23          1           0       -1.740018   -0.683204   -1.295213
     24          1           0       -3.305820    1.223504    0.316536
     25          1           0       -6.258490   -0.551264   -0.239137
     26          1           0       -5.540792    0.949519    0.271170
 ---------------------------------------------------------------------
 Rotational constants (GHZ):           5.1922129           0.2739455           0.2672084
 Standard basis: 6-31G(2df,p) (6D, 7F)
 There are   416 symmetry adapted cartesian basis functions of A   symmetry.
 There are   383 symmetry adapted basis functions of A   symmetry.
   383 basis functions,   589 primitive gaussians,   416 cartesian basis functions
    42 alpha electrons       42 beta electrons
       nuclear repulsion energy       553.3530401018 Hartrees.
 NAtoms=   26 NActive=   26 NUniq=   26 SFac= 1.00D+00 NAtFMM=   60 NAOKFM=F Big=F
 Integral buffers will be    131072 words long.
 Raffenetti 2 integral format.
 Two-electron integral symmetry is turned on.
 One-electron integrals computed using PRISM.
 PrsmSu:  requested number of processors reduced to:  13 ShMem   1 Linda.
 NBasis=   383 RedAO= T EigKep=  1.25D-04  NBF=   383
 NBsUse=   383 1.00D-06 EigRej= -1.00D+00 NBFU=   383
 ExpMin= 1.61D-01 ExpMax= 4.17D+03 ExpMxC= 6.27D+02 IAcc=3 IRadAn=         5 AccDes= 0.00D+00
 Harris functional with IExCor=  402 and IRadAn=       5 diagonalized for initial guess.
 HarFok:  IExCor=  402 AccDes= 0.00D+00 IRadAn=         5 IDoV= 1 UseB2=F ITyADJ=14
 ICtDFT=  3500011 ScaDFX=  1.000000  1.000000  1.000000  1.000000
 FoFCou: FMM=F IPFlag=           0 FMFlag=      100000 FMFlg1=           0
         NFxFlg=           0 DoJE=T BraDBF=F KetDBF=T FulRan=T
         wScrn=  0.000000 ICntrl=       500 IOpCl=  0 I1Cent=   200000004 NGrid=           0
         NMat0=    1 NMatS0=      1 NMatT0=    0 NMatD0=    1 NMtDS0=    0 NMtDT0=    0
 Petite list used in FoFCou.
 Requested convergence on RMS density matrix=1.00D-08 within 128 cycles.
 Requested convergence on MAX density matrix=1.00D-06.
 Requested convergence on             energy=1.00D-06.
 No special actions if energy rises.
 Integral accuracy reduced to 1.0D-05 until final iterations.
 Initial convergence to 1.0D-05 achieved.  Increase integral accuracy.
 SCF Done:  E(RB3LYP) =  -478.040814499     A.U. after   14 cycles
            NFock= 14  Conv=0.53D-08     -V/T= 2.0093

 **********************************************************************

            Population analysis using the SCF density.

 **********************************************************************

 Orbital symmetries:
       Occupied  (A) (A) (A) (A) (A) (A) (A) (A) (A) (A) (A) (A)
                 (A) (A) (A) (A) (A) (A) (A) (A) (A) (A) (A) (A)
                 (A) (A) (A) (A) (A) (A) (A) (A) (A) (A) (A) (A)
                 (A) (A) (A) (A) (A) (A)
       Virtual   (A) (A) (A) (A) (A) (A) (A) (A) (A) (A) (A) (A)
                 (A) (A) (A) (A) (A) (A) (A) (A) (A) (A) (A) (A)
                 (A) (A) (A) (A) (A) (A) (A) (A) (A) (A) (A) (A)
                 (A) (A) (A) (A) (A) (A) (A) (A) (A) (A) (A) (A)
                 (A) (A) (A) (A) (A) (A) (A) (A) (A) (A) (A) (A)
                 (A) (A) (A) (A) (A) (A) (A) (A) (A) (A) (A) (A)
                 (A) (A) (A) (A) (A) (A) (A) (A) (A) (A) (A) (A)
                 (A) (A) (A) (A) (A) (A) (A) (A) (A) (A) (A) (A)
                 (A) (A) (A) (A) (A) (A) (A) (A) (A) (A) (A) (A)
                 (A) (A) (A) (A) (A) (A) (A) (A) (A) (A) (A) (A)
                 (A) (A) (A) (A) (A) (A) (A) (A) (A) (A) (A) (A)
                 (A) (A) (A) (A) (A) (A) (A) (A) (A) (A) (A) (A)
                 (A) (A) (A) (A) (A) (A) (A) (A) (A) (A) (A) (A)
                 (A) (A) (A) (A) (A) (A) (A) (A) (A) (A) (A) (A)
                 (A) (A) (A) (A) (A) (A) (A) (A) (A) (A) (A) (A)
                 (A) (A) (A) (A) (A) (A) (A) (A) (A) (A) (A) (A)
                 (A) (A) (A) (A) (A) (A) (A) (A) (A) (A) (A) (A)
                 (A) (A) (A) (A) (A) (A) (A) (A) (A) (A) (A) (A)
                 (A) (A) (A) (A) (A) (A) (A) (A) (A) (A) (A) (A)
                 (A) (A) (A) (A) (A) (A) (A) (A) (A) (A) (A) (A)
                 (A) (A) (A) (A) (A) (A) (A) (A) (A) (A) (A) (A)
                 (A) (A) (A) (A) (A) (A) (A) (A) (A) (A) (A) (A)
                 (A) (A) (A) (A) (A) (A) (A) (A) (A) (A) (A) (A)
                 (A) (A) (A) (A) (A) (A) (A) (A) (A) (A) (A) (A)
                 (A) (A) (A) (A) (A) (A) (A) (A) (A) (A) (A) (A)
                 (A) (A) (A) (A) (A) (A) (A) (A) (A) (A) (A) (A)
                 (A) (A) (A) (A) (A) (A) (A) (A) (A) (A) (A) (A)
                 (A) (A) (A) (A) (A) (A) (A) (A) (A) (A) (A) (A)
                 (A) (A) (A) (A) (A)
 The electronic state is 1-A.
 Alpha  occ. eigenvalues --  -14.34541 -14.34380 -14.29941 -10.21133 -10.21075
 Alpha  occ. eigenvalues --  -10.20593 -10.19483 -10.19083 -10.18639 -10.17727
 Alpha  occ. eigenvalues --  -10.16597  -0.98427  -0.88202  -0.79867  -0.76775
 Alpha  occ. eigenvalues --   -0.75402  -0.73568  -0.67045  -0.63472  -0.58037
 Alpha  occ. eigenvalues --   -0.57106  -0.50641  -0.50283  -0.48364  -0.47281
 Alpha  occ. eigenvalues --   -0.44391  -0.43270  -0.42789  -0.42381  -0.42275
 Alpha  occ. eigenvalues --   -0.41838  -0.38759  -0.37306  -0.35879  -0.34229
 Alpha  occ. eigenvalues --   -0.33148  -0.32804  -0.26727  -0.23971  -0.23515
 Alpha  occ. eigenvalues --   -0.22774  -0.19113
 Alpha virt. eigenvalues --    0.02616   0.04025   0.04548   0.08699   0.09102
 Alpha virt. eigenvalues --    0.10386   0.11490   0.12905   0.13423   0.14418
 Alpha virt. eigenvalues --    0.15554   0.16094   0.16804   0.17360   0.17609
 Alpha virt. eigenvalues --    0.18378   0.18989   0.19329   0.22060   0.23041
 Alpha virt. eigenvalues --    0.23544   0.25260   0.25534   0.28457   0.30323
 Alpha virt. eigenvalues --    0.32187   0.36218   0.38616   0.42953   0.46779
 Alpha virt. eigenvalues --    0.48496   0.49822   0.50843   0.51634   0.51878
 Alpha virt. eigenvalues --    0.52776   0.53770   0.54777   0.55159   0.57406
 Alpha virt. eigenvalues --    0.58044   0.59521   0.60058   0.61996   0.62019
 Alpha virt. eigenvalues --    0.63748   0.64575   0.65910   0.66239   0.67568
 Alpha virt. eigenvalues --    0.68241   0.68731   0.69968   0.70243   0.71318
 Alpha virt. eigenvalues --    0.72223   0.73854   0.74235   0.75146   0.75789
 Alpha virt. eigenvalues --    0.75969   0.76762   0.76922   0.77888   0.78710
 Alpha virt. eigenvalues --    0.78900   0.79580   0.80414   0.80991   0.81778
 Alpha virt. eigenvalues --    0.81859   0.82712   0.83263   0.85329   0.85840
 Alpha virt. eigenvalues --    0.86869   0.88176   0.89191   0.92359   0.95671
 Alpha virt. eigenvalues --    0.96683   0.97837   1.00420   1.01847   1.02620
 Alpha virt. eigenvalues --    1.03190   1.04684   1.07613   1.08347   1.10337
 Alpha virt. eigenvalues --    1.11021   1.15636   1.17032   1.19002   1.22208
 Alpha virt. eigenvalues --    1.25008   1.26422   1.27983   1.29130   1.31928
 Alpha virt. eigenvalues --    1.33745   1.34413   1.36534   1.39986   1.40384
 Alpha virt. eigenvalues --    1.42597   1.43916   1.44827   1.47972   1.49802
 Alpha virt. eigenvalues --    1.50688   1.52426   1.52485   1.54498   1.60055
 Alpha virt. eigenvalues --    1.62017   1.62261   1.64112   1.66851   1.67828
 Alpha virt. eigenvalues --    1.70497   1.71787   1.73321   1.74378   1.76017
 Alpha virt. eigenvalues --    1.76827   1.77467   1.81000   1.82467   1.85972
 Alpha virt. eigenvalues --    1.87059   1.88317   1.88889   1.90082   1.92903
 Alpha virt. eigenvalues --    1.93184   1.93484   1.95712   2.02316   2.08345
 Alpha virt. eigenvalues --    2.11487   2.17234   2.20614   2.22437   2.22906
 Alpha virt. eigenvalues --    2.27138   2.27286   2.28089   2.30609   2.31293
 Alpha virt. eigenvalues --    2.35133   2.35550   2.37908   2.38468   2.41553
 Alpha virt. eigenvalues --    2.43193   2.44948   2.48382   2.49328   2.51669
 Alpha virt. eigenvalues --    2.54364   2.56804   2.58208   2.60601   2.64111
 Alpha virt. eigenvalues --    2.66429   2.69345   2.71071   2.72582   2.74168
 Alpha virt. eigenvalues --    2.75306   2.76405   2.78138   2.78632   2.80140
 Alpha virt. eigenvalues --    2.81636   2.82998   2.83548   2.85860   2.87726
 Alpha virt. eigenvalues --    2.87922   2.89782   2.90307   2.91016   2.92332
 Alpha virt. eigenvalues --    2.93526   2.95446   2.96970   2.97270   3.00204
 Alpha virt. eigenvalues --    3.02489   3.02882   3.03891   3.06412   3.07470
 Alpha virt. eigenvalues --    3.08439   3.09796   3.14513   3.17694   3.18616
 Alpha virt. eigenvalues --    3.20903   3.22720   3.23638   3.25869   3.27235
 Alpha virt. eigenvalues --    3.30618   3.31224   3.32051   3.34449   3.36429
 Alpha virt. eigenvalues --    3.39571   3.41109   3.42850   3.43786   3.46226
 Alpha virt. eigenvalues --    3.48157   3.49363   3.52366   3.55099   3.55811
 Alpha virt. eigenvalues --    3.58225   3.60014   3.63769   3.66273   3.66940
 Alpha virt. eigenvalues --    3.69017   3.70124   3.71844   3.72732   3.74932
 Alpha virt. eigenvalues --    3.75984   3.76980   3.80167   3.81119   3.83177
 Alpha virt. eigenvalues --    3.84149   3.84959   3.89029   3.94987   3.96174
 Alpha virt. eigenvalues --    3.99938   4.01189   4.02770   4.04457   4.07022
 Alpha virt. eigenvalues --    4.09019   4.12108   4.12985   4.14338   4.15553
 Alpha virt. eigenvalues --    4.16077   4.21339   4.22371   4.23327   4.24751
 Alpha virt. eigenvalues --    4.26177   4.26368   4.28788   4.29581   4.31080
 Alpha virt. eigenvalues --    4.31758   4.33883   4.37838   4.39310   4.40184
 Alpha virt. eigenvalues --    4.40989   4.42247   4.43289   4.43892   4.45567
 Alpha virt. eigenvalues --    4.48533   4.50647   4.52422   4.53193   4.55291
 Alpha virt. eigenvalues --    4.58164   4.59646   4.61223   4.63116   4.64429
 Alpha virt. eigenvalues --    4.65952   4.66537   4.68172   4.69796   4.71551
 Alpha virt. eigenvalues --    4.72481   4.73324   4.73588   4.74458   4.74962
 Alpha virt. eigenvalues --    4.78107   4.79568   4.80994   4.81749   4.83889
 Alpha virt. eigenvalues --    4.85725   4.86371   4.87375   4.88474   4.90777
 Alpha virt. eigenvalues --    4.91392   4.92895   4.97754   5.01139   5.03370
 Alpha virt. eigenvalues --    5.06011   5.11836   5.15380   5.16860   5.20373
 Alpha virt. eigenvalues --    5.22686   5.28037   5.30857   5.33499   5.33978
 Alpha virt. eigenvalues --    5.36988   5.43306   5.50093   5.54713   5.57516
 Alpha virt. eigenvalues --    5.63480   5.73682   5.83158   5.83847   6.00297
 Alpha virt. eigenvalues --    6.15988   6.67259   7.18333   9.85581  10.19928
 Alpha virt. eigenvalues --   10.67955  11.02766  11.27686  11.37280  11.42968
 Alpha virt. eigenvalues --   11.74775  11.85705  12.23055  12.46762  13.01539
 Alpha virt. eigenvalues --   13.84889
          Condensed to atoms (all electrons):
               1          2          3          4          5          6
     1  C    4.978177   0.424151  -0.039771   0.000020   0.000032  -0.000002
     2  C    0.424151   4.761577   0.882235  -0.029128  -0.002089  -0.002316
     3  C   -0.039771   0.882235   4.794513   0.416112  -0.041603  -0.006807
     4  C    0.000020  -0.029128   0.416112   5.057572   0.391455  -0.057910
     5  C    0.000032  -0.002089  -0.041603   0.391455   4.693253   0.397288
     6  N   -0.000002  -0.002316  -0.006807  -0.057910   0.397288   6.560045
     7  C   -0.000000  -0.000025   0.002341  -0.042511   0.391042  -0.029284
     8  C   -0.000000  -0.000004  -0.000199   0.002689  -0.031759  -0.009011
     9  C    0.000000   0.000000   0.000001  -0.000021   0.000954   0.000689
    10  N   -0.000000  -0.000000  -0.000000   0.000000  -0.000050   0.000003
    11  N    0.000000   0.000000   0.000000  -0.000000   0.000000   0.000000
    12  H    0.376580  -0.024699  -0.000831   0.000026   0.000006   0.000015
    13  H    0.375631  -0.024100  -0.001143  -0.000041  -0.000000  -0.000001
    14  H    0.376213  -0.024254  -0.001472  -0.000022  -0.000003  -0.000000
    15  H   -0.000028  -0.001722  -0.021001   0.337607  -0.022654   0.005581
    16  H   -0.000027  -0.001159  -0.023160   0.342846  -0.020611  -0.003798
    17  H    0.000006   0.001801   0.002431  -0.056473   0.362456  -0.031254
    18  H   -0.000001  -0.000040   0.000420  -0.004637  -0.055925   0.335650
    19  H    0.000003   0.006031   0.017422  -0.005303  -0.053757   0.337960
    20  H    0.000000   0.000014   0.000537  -0.000912  -0.025843   0.003324
    21  H    0.000000   0.000017   0.000501  -0.006243  -0.020489  -0.006458
    22  H    0.000000   0.000001   0.000020   0.000355  -0.004479   0.013016
    23  H    0.000000   0.000001   0.000021   0.000110  -0.001381  -0.000198
    24  H    0.000000   0.000000   0.000001   0.000017   0.000379  -0.000017
    25  H   -0.000000  -0.000000  -0.000000   0.000000  -0.000000   0.000000
    26  H    0.000000   0.000000   0.000000   0.000000   0.000000  -0.000000
               7          8          9         10         11         12
     1  C   -0.000000  -0.000000   0.000000  -0.000000   0.000000   0.376580
     2  C   -0.000025  -0.000004   0.000000  -0.000000   0.000000  -0.024699
     3  C    0.002341  -0.000199   0.000001  -0.000000   0.000000  -0.000831
     4  C   -0.042511   0.002689  -0.000021   0.000000  -0.000000   0.000026
     5  C    0.391042  -0.031759   0.000954  -0.000050   0.000000   0.000006
     6  N   -0.029284  -0.009011   0.000689   0.000003   0.000000   0.000015
     7  C    4.897649   0.398415  -0.026212  -0.000069  -0.000163  -0.000000
     8  C    0.398415   4.939519   0.384458  -0.023096   0.004062   0.000000
     9  C   -0.026212   0.384458   4.780448   0.663556  -0.124113  -0.000000
    10  N   -0.000069  -0.023096   0.663556   6.250950   0.382436   0.000000
    11  N   -0.000163   0.004062  -0.124113   0.382436   6.474937  -0.000000
    12  H   -0.000000   0.000000  -0.000000   0.000000  -0.000000   0.557391
    13  H    0.000000  -0.000000   0.000000   0.000000   0.000000  -0.030955
    14  H   -0.000000   0.000000  -0.000000   0.000000   0.000000  -0.031005
    15  H   -0.001331  -0.000124  -0.000010  -0.000000   0.000000  -0.000002
    16  H   -0.004727  -0.000012   0.000002  -0.000000   0.000000  -0.000000
    17  H   -0.038898  -0.003605   0.000110  -0.000003   0.000000  -0.000001
    18  H   -0.004088   0.000010  -0.000089  -0.000000  -0.000000  -0.000001
    19  H    0.006396   0.000126  -0.000006  -0.000000   0.000000  -0.000116
    20  H    0.357354  -0.034913  -0.001484  -0.000034  -0.000002  -0.000000
    21  H    0.348585  -0.035681  -0.001392  -0.000035  -0.000005  -0.000000
    22  H   -0.026618   0.358483  -0.024658  -0.004503   0.000222   0.000000
    23  H   -0.034487   0.353965  -0.023329  -0.005753   0.000202   0.000000
    24  H    0.003376  -0.079093   0.373886  -0.069081  -0.007054   0.000000
    25  H    0.000000  -0.000216   0.004812  -0.030543   0.360218   0.000000
    26  H    0.000111  -0.001154   0.001077  -0.044874   0.337514   0.000000
              13         14         15         16         17         18
     1  C    0.375631   0.376213  -0.000028  -0.000027   0.000006  -0.000001
     2  C   -0.024100  -0.024254  -0.001722  -0.001159   0.001801  -0.000040
     3  C   -0.001143  -0.001472  -0.021001  -0.023160   0.002431   0.000420
     4  C   -0.000041  -0.000022   0.337607   0.342846  -0.056473  -0.004637
     5  C   -0.000000  -0.000003  -0.022654  -0.020611   0.362456  -0.055925
     6  N   -0.000001  -0.000000   0.005581  -0.003798  -0.031254   0.335650
     7  C    0.000000  -0.000000  -0.001331  -0.004727  -0.038898  -0.004088
     8  C   -0.000000   0.000000  -0.000124  -0.000012  -0.003605   0.000010
     9  C    0.000000  -0.000000  -0.000010   0.000002   0.000110  -0.000089
    10  N    0.000000   0.000000  -0.000000  -0.000000  -0.000003  -0.000000
    11  N    0.000000   0.000000   0.000000   0.000000   0.000000  -0.000000
    12  H   -0.030955  -0.031005  -0.000002  -0.000000  -0.000001  -0.000001
    13  H    0.558086  -0.031266  -0.000001   0.000014   0.000001   0.000000
    14  H   -0.031266   0.557445   0.000013  -0.000003  -0.000002   0.000000
    15  H   -0.000001   0.000013   0.615893  -0.036814  -0.002266   0.000066
    16  H    0.000014  -0.000003  -0.036814   0.610151   0.006229   0.005366
    17  H    0.000001  -0.000002  -0.002266   0.006229   0.655451   0.007016
    18  H    0.000000   0.000000   0.000066   0.005366   0.007016   0.526475
    19  H    0.000007   0.000007   0.000310  -0.000072  -0.003780  -0.030869
    20  H    0.000000   0.000000   0.003352  -0.000255  -0.003300  -0.000159
    21  H    0.000000  -0.000000  -0.000200   0.005135   0.006448   0.004710
    22  H   -0.000000   0.000000  -0.000015  -0.000010  -0.000549  -0.000353
    23  H   -0.000000   0.000000  -0.000010   0.000007   0.005180   0.000042
    24  H   -0.000000  -0.000000   0.000001   0.000000   0.000021   0.000002
    25  H   -0.000000  -0.000000   0.000000   0.000000   0.000000   0.000000
    26  H    0.000000  -0.000000  -0.000000  -0.000000  -0.000000   0.000000
              19         20         21         22         23         24
     1  C    0.000003   0.000000   0.000000   0.000000   0.000000   0.000000
     2  C    0.006031   0.000014   0.000017   0.000001   0.000001   0.000000
     3  C    0.017422   0.000537   0.000501   0.000020   0.000021   0.000001
     4  C   -0.005303  -0.000912  -0.006243   0.000355   0.000110   0.000017
     5  C   -0.053757  -0.025843  -0.020489  -0.004479  -0.001381   0.000379
     6  N    0.337960   0.003324  -0.006458   0.013016  -0.000198  -0.000017
     7  C    0.006396   0.357354   0.348585  -0.026618  -0.034487   0.003376
     8  C    0.000126  -0.034913  -0.035681   0.358483   0.353965  -0.079093
     9  C   -0.000006  -0.001484  -0.001392  -0.024658  -0.023329   0.373886
    10  N   -0.000000  -0.000034  -0.000035  -0.004503  -0.005753  -0.069081
    11  N    0.000000  -0.000002  -0.000005   0.000222   0.000202  -0.007054
    12  H   -0.000116  -0.000000  -0.000000   0.000000   0.000000   0.000000
    13  H    0.000007   0.000000   0.000000  -0.000000  -0.000000  -0.000000
    14  H    0.000007   0.000000  -0.000000   0.000000   0.000000  -0.000000
    15  H    0.000310   0.003352  -0.000200  -0.000015  -0.000010   0.000001
    16  H   -0.000072  -0.000255   0.005135  -0.000010   0.000007   0.000000
    17  H   -0.003780  -0.003300   0.006448  -0.000549   0.005180   0.000021
    18  H   -0.030869  -0.000159   0.004710  -0.000353   0.000042   0.000002
    19  H    0.495256  -0.000216  -0.000134  -0.000301  -0.000062  -0.000000
    20  H   -0.000216   0.648523  -0.043069   0.005810  -0.005625   0.003632
    21  H   -0.000134  -0.043069   0.655104  -0.004816   0.006211   0.003597
    22  H   -0.000301   0.005810  -0.004816   0.582106  -0.033784   0.004822
    23  H   -0.000062  -0.005625   0.006211  -0.033784   0.626151   0.004937
    24  H   -0.000000   0.003632   0.003597   0.004822   0.004937   0.682655
    25  H   -0.000000   0.000000   0.000000   0.000013   0.000006   0.000058
    26  H    0.000000   0.000003   0.000000   0.000041   0.000026   0.018849
              25         26
     1  C   -0.000000   0.000000
     2  C   -0.000000   0.000000
     3  C   -0.000000   0.000000
     4  C    0.000000   0.000000
     5  C   -0.000000   0.000000
     6  N    0.000000  -0.000000
     7  C    0.000000   0.000111
     8  C   -0.000216  -0.001154
     9  C    0.004812   0.001077
    10  N   -0.030543  -0.044874
    11  N    0.360218   0.337514
    12  H    0.000000   0.000000
    13  H   -0.000000   0.000000
    14  H   -0.000000  -0.000000
    15  H    0.000000  -0.000000
    16  H    0.000000  -0.000000
    17  H    0.000000  -0.000000
    18  H    0.000000   0.000000
    19  H   -0.000000   0.000000
    20  H    0.000000   0.000003
    21  H    0.000000   0.000000
    22  H    0.000013   0.000041
    23  H    0.000006   0.000026
    24  H    0.000058   0.018849
    25  H    0.445392  -0.038897
    26  H   -0.038897   0.494618
 Mulliken charges:
               1
     1  C   -0.490985
     2  C    0.033708
     3  C    0.019433
     4  C   -0.345610
     5  C    0.043778
     6  N   -0.506514
     7  C   -0.196857
     8  C   -0.222861
     9  C   -0.008679
    10  N   -0.118902
    11  N   -0.428255
    12  H    0.153593
    13  H    0.153769
    14  H    0.154349
    15  H    0.123354
    16  H    0.120899
    17  H    0.092980
    18  H    0.216406
    19  H    0.231099
    20  H    0.093262
    21  H    0.088214
    22  H    0.135197
    23  H    0.107770
    24  H    0.059013
    25  H    0.259156
    26  H    0.232686
 Sum of Mulliken charges =  -0.00000
 Mulliken charges with hydrogens summed into heavy atoms:
               1
     1  C   -0.029276
     2  C    0.033708
     3  C    0.019433
     4  C   -0.101358
     5  C    0.136758
     6  N   -0.059009
     7  C   -0.015381
     8  C    0.020107
     9  C    0.050333
    10  N   -0.118902
    11  N    0.063587
 Electronic spatial extent (au):  <R**2>=           3981.5581
 Charge=             -0.0000 electrons
 Dipole moment (field-independent basis, Debye):
    X=              0.2344    Y=              1.7870    Z=              0.8314  Tot=              1.9848
 Quadrupole moment (field-independent basis, Debye-Ang):
   XX=            -46.7878   YY=            -68.4634   ZZ=            -66.6772
   XY=             -9.4309   XZ=             -3.0320   YZ=              0.7656
 Traceless Quadrupole moment (field-independent basis, Debye-Ang):
   XX=             13.8550   YY=             -7.8206   ZZ=             -6.0344
   XY=             -9.4309   XZ=             -3.0320   YZ=              0.7656
 Octapole moment (field-independent basis, Debye-Ang**2):
  XXX=            -62.8573  YYY=              1.6458  ZZZ=              5.6566  XYY=             -7.5563
  XXY=             -3.6981  XXZ=              4.6591  XZZ=              0.6372  YZZ=             -1.7580
  YYZ=              0.4825  XYZ=             -2.7546
 Hexadecapole moment (field-independent basis, Debye-Ang**3):
 XXXX=          -3383.8593 YYYY=           -285.9738 ZZZZ=           -139.6016 XXXY=           -160.8514
 XXXZ=            -85.2815 YYYX=            -27.7452 YYYZ=             -1.3829 ZZZX=              2.6090
 ZZZY=             -3.0507 XXYY=           -826.7317 XXZZ=           -857.3312 YYZZ=            -71.2900
 XXYZ=             21.0718 YYXZ=             -3.4096 ZZXY=             -2.3168
 N-N= 5.533530401018D+02 E-N=-2.216430956817D+03  KE= 4.736173860072D+02
 PrsmSu:  requested number of processors reduced to:  13 ShMem   1 Linda.
 Calling FoFJK, ICntrl=      2127 FMM=F ISym2X=0 I1Cent= 0 IOpClX= 0 NMat=1 NMatS=1 NMatT=0.
 ***** Axes restored to original set *****
 -------------------------------------------------------------------
 Center     Atomic                   Forces (Hartrees/Bohr)
 Number     Number              X              Y              Z
 -------------------------------------------------------------------
      1        6           0.035179797   -0.000059309   -0.000276442
      2        6           0.121718672    0.000642920   -0.000565891
      3        6          -0.125571275   -0.003467752    0.005231531
      4        6          -0.036368408   -0.005395478   -0.003731683
      5        6           0.003893341    0.010553095    0.008450853
      6        7          -0.004479706   -0.000707941   -0.004628853
      7        6          -0.004161964   -0.000245996   -0.005792016
      8        6           0.009105799    0.002822956    0.000941592
      9        6          -0.001174691    0.007789040   -0.018134231
     10        7          -0.012806146   -0.015377821    0.030651051
     11        7           0.031295381    0.007723927   -0.019458914
     12        1          -0.000910046   -0.000188159    0.000134477
     13        1          -0.000711849   -0.000001390   -0.000112811
     14        1          -0.000807396    0.000166008    0.000005174
     15        1          -0.000064609   -0.001101449    0.001311128
     16        1           0.001207242    0.000529921   -0.000748003
     17        1          -0.000320552    0.001277555    0.001380057
     18        1           0.001160776   -0.001600962   -0.000689403
     19        1           0.004468317   -0.000862590   -0.000165316
     20        1          -0.000741910   -0.000123469    0.000622486
     21        1          -0.000996502    0.001074409    0.001063011
     22        1          -0.006303364   -0.003347208    0.000065488
     23        1          -0.003883125    0.000964026   -0.000083555
     24        1           0.001987308    0.002188946   -0.004710756
     25        1          -0.007280757   -0.003625033    0.008403744
     26        1          -0.003434335    0.000371754    0.000837282
 -------------------------------------------------------------------
 Cartesian Forces:  Max     0.125571275 RMS     0.021793293

 GradGradGradGradGradGradGradGradGradGradGradGradGradGradGradGradGradGrad
 Berny optimization.
 FormGI is forming the generalized inverse of G from B-inverse, IUseBI=4.
 Internal  Forces:  Max     0.154469297 RMS     0.015172731
 Search for a local minimum.
 Step number   1 out of a maximum of  132
 All quantities printed in internal units (Hartrees-Bohrs-Radians)
 Mixed Optimization -- RFO/linear search
 Second derivative matrix not updated -- first step.
 ITU=  0
     Eigenvalues ---    0.00230   0.00244   0.00316   0.00415   0.00436
     Eigenvalues ---    0.00439   0.00727   0.00731   0.01357   0.01372
     Eigenvalues ---    0.02248   0.02531   0.02737   0.03064   0.03589
     Eigenvalues ---    0.04018   0.04048   0.04275   0.04532   0.04686
     Eigenvalues ---    0.04840   0.05015   0.05374   0.05785   0.06693
     Eigenvalues ---    0.06925   0.08215   0.08715   0.09363   0.12116
     Eigenvalues ---    0.12231   0.12743   0.15959   0.16000   0.16000
     Eigenvalues ---    0.16000   0.16000   0.16000   0.16000   0.16000
     Eigenvalues ---    0.16497   0.17931   0.21870   0.21899   0.21964
     Eigenvalues ---    0.22000   0.25000   0.28565   0.29054   0.29748
     Eigenvalues ---    0.30367   0.30367   0.32070   0.33279   0.33872
     Eigenvalues ---    0.33880   0.33894   0.34054   0.34149   0.34153
     Eigenvalues ---    0.34213   0.34405   0.34407   0.34407   0.35424
     Eigenvalues ---    0.43961   0.44450   0.45192   0.45638   0.60000
     Eigenvalues ---    0.66135   0.68241
 RFO step:  Lambda=-4.65427451D-02 EMin= 2.30000000D-03
 Linear search not attempted -- first point.
 Iteration  1 RMS(Cart)=  0.07081335 RMS(Int)=  0.00179399
 Iteration  2 RMS(Cart)=  0.00427831 RMS(Int)=  0.00011802
 Iteration  3 RMS(Cart)=  0.00000189 RMS(Int)=  0.00011802
 Iteration  4 RMS(Cart)=  0.00000000 RMS(Int)=  0.00011802
 Variable       Old X    -DE/DX   Delta X   Delta X   Delta X     New X
                                 (Linear)    (Quad)   (Total)
    R1        2.87238  -0.03275   0.00000  -0.09352  -0.09352   2.77887
    R2        2.06652   0.00010   0.00000   0.00024   0.00024   2.06676
    R3        2.06648   0.00014   0.00000   0.00036   0.00036   2.06684
    R4        2.06649   0.00012   0.00000   0.00032   0.00032   2.06681
    R5        2.46392  -0.15447   0.00000  -0.21821  -0.21821   2.24571
    R6        2.87238  -0.02890   0.00000  -0.08252  -0.08252   2.78987
    R7        2.90920   0.00713   0.00000   0.02147   0.02147   2.93068
    R8        2.07073   0.00108   0.00000   0.00279   0.00279   2.07353
    R9        2.07239   0.00003   0.00000   0.00008   0.00008   2.07247
   R10        2.78292  -0.00300   0.00000  -0.00748  -0.00748   2.77544
   R11        2.89891   0.00170   0.00000   0.00505   0.00505   2.90396
   R12        2.07547  -0.00163   0.00000  -0.00423  -0.00423   2.07124
   R13        1.92619  -0.00107   0.00000  -0.00217  -0.00217   1.92402
   R14        1.93201  -0.00446   0.00000  -0.00918  -0.00918   1.92283
   R15        2.88468   0.00373   0.00000   0.01086   0.01086   2.89554
   R16        2.07532  -0.00008   0.00000  -0.00022  -0.00022   2.07510
   R17        2.07509   0.00101   0.00000   0.00261   0.00261   2.07770
   R18        2.84015   0.00861   0.00000   0.02344   0.02344   2.86360
   R19        2.06972  -0.00128   0.00000  -0.00330  -0.00330   2.06642
   R20        2.07080   0.00084   0.00000   0.00217   0.00217   2.07297
   R21        2.44959  -0.01660   0.00000  -0.02278  -0.02278   2.42681
   R22        2.08564  -0.00361   0.00000  -0.00952  -0.00952   2.07612
   R23        2.50940   0.01991   0.00000   0.03079   0.03079   2.54019
   R24        1.91753  -0.01155   0.00000  -0.02317  -0.02317   1.89436
   R25        1.91242  -0.00121   0.00000  -0.00241  -0.00241   1.91001
    A1        1.91877   0.00116   0.00000   0.00586   0.00590   1.92468
    A2        1.91896   0.00047   0.00000   0.00211   0.00205   1.92100
    A3        1.91895   0.00086   0.00000   0.00409   0.00409   1.92304
    A4        1.90228  -0.00092   0.00000  -0.00430  -0.00433   1.89795
    A5        1.90229  -0.00060   0.00000  -0.00253  -0.00242   1.89986
    A6        1.90233  -0.00101   0.00000  -0.00544  -0.00554   1.89679
    A7        1.91420   0.00894   0.00000   0.03647   0.03638   1.95058
    A8        1.90233  -0.00367   0.00000  -0.01292  -0.01308   1.88925
    A9        1.89876  -0.00171   0.00000  -0.00352  -0.00335   1.89541
   A10        1.93255  -0.00080   0.00000   0.00235   0.00234   1.93488
   A11        1.93368  -0.00376   0.00000  -0.01717  -0.01741   1.91627
   A12        1.88155   0.00078   0.00000  -0.00618  -0.00616   1.87539
   A13        1.94525   0.00492   0.00000   0.03005   0.03003   1.97528
   A14        1.92680  -0.00135   0.00000  -0.00044  -0.00073   1.92607
   A15        1.89844  -0.00185   0.00000  -0.01609  -0.01600   1.88245
   A16        1.91132  -0.00082   0.00000   0.00298   0.00272   1.91405
   A17        1.88101  -0.00180   0.00000  -0.01405  -0.01390   1.86711
   A18        1.89990   0.00081   0.00000  -0.00360  -0.00366   1.89624
   A19        1.91448  -0.00239   0.00000  -0.01185  -0.01187   1.90261
   A20        1.89934  -0.00104   0.00000  -0.00532  -0.00534   1.89401
   A21        1.83641   0.00143   0.00000   0.00631   0.00627   1.84268
   A22        1.95104   0.00834   0.00000   0.03271   0.03275   1.98378
   A23        1.90987  -0.00281   0.00000  -0.01144  -0.01154   1.89833
   A24        1.92129  -0.00353   0.00000  -0.01604  -0.01614   1.90515
   A25        1.90864  -0.00216   0.00000  -0.00529  -0.00524   1.90341
   A26        1.91755  -0.00176   0.00000  -0.00322  -0.00311   1.91444
   A27        1.85283   0.00154   0.00000   0.00154   0.00139   1.85421
   A28        1.94962   0.00097   0.00000   0.00785   0.00792   1.95754
   A29        1.93828  -0.00387   0.00000  -0.02418  -0.02450   1.91378
   A30        1.92445  -0.00139   0.00000  -0.01279  -0.01301   1.91144
   A31        1.87228   0.00438   0.00000   0.03380   0.03389   1.90617
   A32        1.89350   0.00119   0.00000   0.01205   0.01208   1.90558
   A33        1.88344  -0.00113   0.00000  -0.01568  -0.01634   1.86710
   A34        2.08192   0.00794   0.00000   0.02980   0.02980   2.11172
   A35        2.05748   0.00044   0.00000   0.00644   0.00644   2.06392
   A36        2.14378  -0.00838   0.00000  -0.03624  -0.03624   2.10754
   A37        2.01236   0.02759   0.00000   0.09302   0.09302   2.10538
   A38        2.05460   0.00006   0.00000  -0.00012  -0.00017   2.05443
   A39        2.15853  -0.00315   0.00000  -0.01576  -0.01580   2.14273
   A40        2.06492   0.00299   0.00000   0.01410   0.01404   2.07897
   A41        3.14159   0.00008   0.00000   0.00359   0.00356   3.14515
   A42        3.14159  -0.00229   0.00000  -0.03833  -0.03843   3.10316
   A43        3.14159   0.00064   0.00000   0.00446   0.00437   3.14597
   A44        3.14159   0.00210   0.00000   0.02871   0.02858   3.17017
    D1       -0.29846   0.00069   0.00000   0.00643   0.00632  -0.29214
    D2       -2.41680  -0.00064   0.00000   0.00104   0.00109  -2.41570
    D3        1.81904   0.00028   0.00000   0.00006   0.00022   1.81925
    D4       -2.39279   0.00062   0.00000   0.00557   0.00545  -2.38734
    D5        1.77206  -0.00071   0.00000   0.00018   0.00022   1.77228
    D6       -0.27530   0.00021   0.00000  -0.00080  -0.00066  -0.27595
    D7        1.79589   0.00045   0.00000   0.00008  -0.00012   1.79577
    D8       -0.32245  -0.00089   0.00000  -0.00531  -0.00534  -0.32780
    D9       -2.36981   0.00003   0.00000  -0.00629  -0.00622  -2.37603
   D10        1.02809  -0.00034   0.00000  -0.00978  -0.01002   1.01807
   D11       -3.12690   0.00104   0.00000   0.01424   0.01411  -3.11279
   D12       -1.04335   0.00008   0.00000  -0.00038  -0.00049  -1.04384
   D13        3.12815   0.00038   0.00000  -0.00073  -0.00076   3.12739
   D14       -1.02683   0.00176   0.00000   0.02328   0.02337  -1.00346
   D15        1.05671   0.00080   0.00000   0.00867   0.00878   1.06549
   D16       -1.06825  -0.00161   0.00000  -0.01810  -0.01807  -1.08633
   D17        1.05995  -0.00023   0.00000   0.00592   0.00605   1.06600
   D18       -3.13969  -0.00119   0.00000  -0.00870  -0.00854   3.13495
   D19        0.99006   0.00064   0.00000   0.01386   0.01398   1.00404
   D20       -1.01041   0.00080   0.00000   0.01565   0.01574  -0.99466
   D21       -1.14707  -0.00039   0.00000  -0.00777  -0.00784  -1.15490
   D22        3.13565  -0.00022   0.00000  -0.00598  -0.00607   3.12958
   D23        3.07189   0.00014   0.00000   0.00296   0.00295   3.07485
   D24        1.07143   0.00030   0.00000   0.00475   0.00472   1.07615
   D25        3.10877  -0.00284   0.00000  -0.02765  -0.02759   3.08118
   D26        0.99174  -0.00366   0.00000  -0.03462  -0.03452   0.95722
   D27       -1.03817  -0.00185   0.00000  -0.02061  -0.02067  -1.05884
   D28       -1.02633   0.00189   0.00000   0.01185   0.01183  -1.01449
   D29        3.13983   0.00107   0.00000   0.00487   0.00490  -3.13845
   D30        1.10992   0.00288   0.00000   0.01888   0.01876   1.12868
   D31        1.02610  -0.00027   0.00000  -0.00545  -0.00543   1.02067
   D32       -1.09092  -0.00109   0.00000  -0.01243  -0.01236  -1.10328
   D33       -3.12083   0.00071   0.00000   0.00158   0.00149  -3.11934
   D34        3.12901   0.00065   0.00000   0.00572   0.00569   3.13470
   D35        1.03958  -0.00294   0.00000  -0.02601  -0.02578   1.01380
   D36       -1.04727   0.00186   0.00000   0.01746   0.01730  -1.02996
   D37       -1.03644   0.00109   0.00000   0.00911   0.00909  -1.02735
   D38       -3.12587  -0.00250   0.00000  -0.02262  -0.02238   3.13493
   D39        1.07047   0.00230   0.00000   0.02086   0.02070   1.09117
   D40        0.99062   0.00069   0.00000   0.00609   0.00602   0.99664
   D41       -1.09881  -0.00290   0.00000  -0.02564  -0.02545  -1.12427
   D42        3.09753   0.00191   0.00000   0.01784   0.01763   3.11516
   D43       -3.13242   0.00043   0.00000   0.00186   0.00179  -3.13063
   D44        0.00842   0.00036   0.00000   0.00059   0.00052   0.00894
   D45       -1.00452  -0.00085   0.00000  -0.00089  -0.00085  -1.00537
   D46        2.13632  -0.00093   0.00000  -0.00215  -0.00212   2.13420
   D47        1.02590   0.00074   0.00000   0.00472   0.00476   1.03067
   D48       -2.11644   0.00066   0.00000   0.00346   0.00349  -2.11295
   D49       -3.12800  -0.00032   0.00000  -0.00427  -0.00426  -3.13225
   D50        0.01439  -0.00024   0.00000  -0.00296  -0.00297   0.01141
   D51       -3.09515   0.00080   0.00000   0.01411   0.01400  -3.08115
   D52       -0.06435  -0.00010   0.00000  -0.00397  -0.00385  -0.06821
   D53        3.03689  -0.00124   0.00000  -0.01898  -0.01909   3.01780
         Item               Value     Threshold  Converged?
 Maximum Force            0.154469     0.000450     NO 
 RMS     Force            0.015173     0.000300     NO 
 Maximum Displacement     0.273321     0.001800     NO 
 RMS     Displacement     0.073391     0.001200     NO 
 Predicted change in Energy=-2.551358D-02
 GradGradGradGradGradGradGradGradGradGradGradGradGradGradGradGradGradGrad

                          Input orientation:                          
 ---------------------------------------------------------------------
 Center     Atomic      Atomic             Coordinates (Angstroms)
 Number     Number       Type             X           Y           Z
 ---------------------------------------------------------------------
      1          6           0        1.193790   -0.097032   -0.047350
      2          6           0        2.664130   -0.087172   -0.027085
      3          6           0        3.852411   -0.085131   -0.011977
      4          6           0        5.327749   -0.057949   -0.058880
      5          6           0        5.849396    0.667299   -1.326567
      6          7           0        5.376015    2.053343   -1.435505
      7          6           0        7.385439    0.640985   -1.363486
      8          6           0        7.980920    1.264983   -2.629908
      9          6           0        9.495855    1.229703   -2.626477
     10          7           0       10.170932    1.719568   -3.602953
     11          7           0       11.514387    1.674780   -3.597323
     12          1           0        0.819549    0.645662   -0.757625
     13          1           0        0.803217    0.139147    0.946583
     14          1           0        0.827095   -1.084331   -0.342267
     15          1           0        5.691733   -1.092458   -0.022939
     16          1           0        5.696921    0.452002    0.839129
     17          1           0        5.468542    0.129272   -2.202245
     18          1           0        5.659515    2.567020   -0.603406
     19          1           0        4.358612    2.049469   -1.420829
     20          1           0        7.722913   -0.400972   -1.284402
     21          1           0        7.776599    1.159051   -0.476106
     22          1           0        7.645277    2.301625   -2.721888
     23          1           0        7.609906    0.728718   -3.512015
     24          1           0       10.003537    0.775177   -1.764695
     25          1           0       11.998708    2.116909   -4.355524
     26          1           0       12.046509    1.315252   -2.816829
 ---------------------------------------------------------------------
                    Distance matrix (angstroms):
                    1          2          3          4          5
     1  C    0.000000
     2  C    1.470513   0.000000
     3  C    2.658883   1.188379   0.000000
     4  C    4.134160   2.663969   1.476334   0.000000
     5  C    4.888279   3.521903   2.506441   1.550848   0.000000
     6  N    4.903274   3.730921   2.986783   2.520908   1.468699
     7  C    6.372864   4.960538   3.851766   2.534678   1.536711
     8  C    7.388493   6.072171   5.071583   3.924239   2.568914
     9  C    8.794112   7.427211   6.357111   5.061986   3.911870
    10  N    9.825041   8.509008   7.488375   6.259109   4.996487
    11  N   11.056959   9.704541   8.640478   7.334672   6.185747
    12  H    1.093683   2.114997   3.207538   4.615970   5.061968
    13  H    1.093723   2.112403   3.204173   4.639095   5.559683
    14  H    1.093709   2.113851   3.203128   4.624895   5.409303
    15  H    4.606839   3.190141   2.097125   1.097263   2.195688
    16  H    4.622280   3.199822   2.101217   1.096704   2.181705
    17  H    4.792524   3.555685   2.730406   2.156127   1.096054
    18  H    5.229634   4.043416   3.263329   2.701303   2.041558
    19  H    4.063252   3.062520   2.607225   2.689859   2.035121
    20  H    6.652227   5.222126   4.086515   2.712264   2.157092
    21  H    6.715278   5.281291   4.142784   2.766230   2.163149
    22  H    7.384335   6.146555   5.236989   4.246190   2.800559
    23  H    7.338414   6.105007   5.199171   4.213220   2.807018
    24  H    9.017852   7.591431   6.453565   5.046473   4.178574
    25  H   11.840953  10.522723   9.490919   8.227566   7.006425
    26  H   11.289202   9.888301   8.773341   7.391461   6.406632
                    6          7          8          9         10
     6  N    0.000000
     7  C    2.457178   0.000000
     8  C    2.972144   1.532252   0.000000
     9  C    4.366907   2.528951   1.515350   0.000000
    10  N    5.272615   3.733300   2.439184   1.284213   0.000000
    11  N    6.518924   4.806971   3.686355   2.283661   1.344213
    12  H    4.816894   6.593784   7.427936   8.894492   9.833490
    13  H    5.499907   6.993848   8.098038   9.461397  10.533286
    14  H    5.633191   6.857950   7.869548   9.258497  10.285972
    15  H    3.462815   2.769572   4.194543   5.161607   6.386487
    16  H    2.800220   2.781783   4.232234   5.200686   6.430831
    17  H    2.073282   2.154033   2.790122   4.196448   5.157858
    18  H    1.018148   2.695579   3.345285   4.538583   5.483461
    19  H    1.017516   3.338981   3.898513   5.340119   6.217199
    20  H    3.399180   1.098097   2.156933   2.757460   3.983110
    21  H    2.735509   1.099474   2.166063   2.754074   3.977962
    22  H    2.620301   2.161133   1.093500   2.140737   2.737517
    23  H    3.325175   2.162003   1.096970   2.142887   2.747527
    24  H    4.812071   2.652059   2.253771   1.098637   2.073424
    25  H    7.238136   5.693233   4.454902   3.168756   2.016186
    26  H    6.851885   4.928734   4.070194   2.559178   2.073463
                   11         12         13         14         15
    11  N    0.000000
    12  H   11.113168   0.000000
    13  H   11.736031   1.777962   0.000000
    14  H   11.507662   1.779173   1.777246   0.000000
    15  H    7.371372   5.224845   5.133655   4.875115   0.000000
    16  H    7.417560   5.135746   4.904872   5.241300   1.768770
    17  H    6.394301   4.895581   5.628541   5.145423   2.508348
    18  H    6.636201   5.209670   5.646297   6.062412   3.705369
    19  H    7.488834   3.864645   4.679189   4.843099   3.688227
    20  H    4.902410   7.002098   7.290488   6.993347   2.489003
    21  H    4.896838   6.981645   7.189736   7.303854   3.101825
    22  H    4.016134   7.293223   8.059019   7.975895   4.756097
    23  H    4.018368   7.328200   8.158291   7.703309   4.378324
    24  H    2.539779   9.239945   9.612567   9.470383   5.011330
    25  H    1.002454  11.835668  12.544437  12.294678   8.297546
    26  H    1.010735  11.433866  11.914618  11.736980   7.347521
                   16         17         18         19         20
    16  H    0.000000
    17  H    3.066964   0.000000
    18  H    2.560392   2.921536   0.000000
    19  H    3.074147   2.351534   1.621230   0.000000
    20  H    3.056401   2.491141   3.678361   4.164348   0.000000
    21  H    2.560238   3.060576   2.545708   3.656225   1.757809
    22  H    4.460721   3.118866   2.915760   3.543798   3.062094
    23  H    4.761149   2.580751   3.955172   4.085139   2.500246
    24  H    5.042943   4.601611   4.840436   5.797175   2.610603
    25  H    8.334798   7.157540   7.380133   8.184623   5.835575
    26  H    7.377567   6.712221   6.874581   7.848035   4.897677
                   21         22         23         24         25
    21  H    0.000000
    22  H    2.523144   0.000000
    23  H    3.070784   1.760564   0.000000
    24  H    2.601360   2.967768   2.963908   0.000000
    25  H    5.813225   4.653520   4.679761   3.534593   0.000000
    26  H    4.871911   4.511406   4.528880   2.360594   1.735662
                   26
    26  H    0.000000
 Stoichiometry    C8H15N3
 Framework group  C1[X(C8H15N3)]
 Deg. of freedom    72
 Full point group                 C1      NOp   1
 Largest Abelian subgroup         C1      NOp   1
 Largest concise Abelian subgroup C1      NOp   1
                         Standard orientation:                         
 ---------------------------------------------------------------------
 Center     Atomic      Atomic             Coordinates (Angstroms)
 Number     Number       Type             X           Y           Z
 ---------------------------------------------------------------------
      1          6           0        5.560142   -0.432396   -0.420478
      2          6           0        4.223377    0.122343   -0.160226
      3          6           0        3.143609    0.574173    0.045189
      4          6           0        1.774491    1.078883    0.269568
      5          6           0        0.704483    0.008671   -0.069336
      6          7           0        0.855624   -1.226873    0.710191
      7          6           0       -0.707081    0.580334    0.136016
      8          6           0       -1.826442   -0.388875   -0.258271
      9          6           0       -3.202289    0.205039   -0.033340
     10          7           0       -4.264051   -0.467776   -0.296367
     11          7           0       -5.480861    0.070118   -0.104141
     12          1           0        5.510743   -1.522631   -0.491834
     13          1           0        6.242381   -0.163853    0.391104
     14          1           0        5.957763   -0.034462   -1.358426
     15          1           0        1.635210    1.978391   -0.343189
     16          1           0        1.680058    1.378771    1.320238
     17          1           0        0.822701   -0.262320   -1.124762
     18          1           0        0.814454   -1.000431    1.701985
     19          1           0        1.790674   -1.595978    0.552766
     20          1           0       -0.804948    1.500624   -0.455005
     21          1           0       -0.826923    0.876378    1.188079
     22          1           0       -1.734081   -1.312244    0.320176
     23          1           0       -1.719887   -0.661227   -1.315538
     24          1           0       -3.268925    1.227452    0.363189
     25          1           0       -6.279630   -0.511523   -0.273188
     26          1           0       -5.616312    0.985742    0.301902
 ---------------------------------------------------------------------
 Rotational constants (GHZ):           5.2680957           0.2757731           0.2690935
 Standard basis: 6-31G(2df,p) (6D, 7F)
 There are   416 symmetry adapted cartesian basis functions of A   symmetry.
 There are   383 symmetry adapted basis functions of A   symmetry.
   383 basis functions,   589 primitive gaussians,   416 cartesian basis functions
    42 alpha electrons       42 beta electrons
       nuclear repulsion energy       555.9663086358 Hartrees.
 NAtoms=   26 NActive=   26 NUniq=   26 SFac= 1.00D+00 NAtFMM=   60 NAOKFM=F Big=F
 Integral buffers will be    131072 words long.
 Raffenetti 2 integral format.
 Two-electron integral symmetry is turned on.
 One-electron integrals computed using PRISM.
 PrsmSu:  requested number of processors reduced to:  13 ShMem   1 Linda.
 NBasis=   383 RedAO= T EigKep=  6.19D-05  NBF=   383
 NBsUse=   383 1.00D-06 EigRej= -1.00D+00 NBFU=   383
 Initial guess from the checkpoint file:  "CCtCCCpNpCCCdNN.chk"
 B after Tr=     0.000000   -0.000000   -0.000000
         Rot=    0.999591   -0.028570   -0.000986    0.001106 Ang=  -3.28 deg.
 ExpMin= 1.61D-01 ExpMax= 4.17D+03 ExpMxC= 6.27D+02 IAcc=2 IRadAn=         4 AccDes= 0.00D+00
 Harris functional with IExCor=  402 and IRadAn=       4 diagonalized for initial guess.
 HarFok:  IExCor=  402 AccDes= 0.00D+00 IRadAn=         4 IDoV= 1 UseB2=F ITyADJ=14
 ICtDFT=  3500011 ScaDFX=  1.000000  1.000000  1.000000  1.000000
 FoFCou: FMM=F IPFlag=           0 FMFlag=      100000 FMFlg1=           0
         NFxFlg=           0 DoJE=T BraDBF=F KetDBF=T FulRan=T
         wScrn=  0.000000 ICntrl=       500 IOpCl=  0 I1Cent=   200000004 NGrid=           0
         NMat0=    1 NMatS0=      1 NMatT0=    0 NMatD0=    1 NMtDS0=    0 NMtDT0=    0
 Petite list used in FoFCou.
 Requested convergence on RMS density matrix=1.00D-08 within 128 cycles.
 Requested convergence on MAX density matrix=1.00D-06.
 Requested convergence on             energy=1.00D-06.
 No special actions if energy rises.
 Integral accuracy reduced to 1.0D-05 until final iterations.
 Initial convergence to 1.0D-05 achieved.  Increase integral accuracy.
 SCF Done:  E(RB3LYP) =  -478.063115951     A.U. after   12 cycles
            NFock= 12  Conv=0.73D-08     -V/T= 2.0082
 PrsmSu:  requested number of processors reduced to:  13 ShMem   1 Linda.
 Calling FoFJK, ICntrl=      2127 FMM=F ISym2X=0 I1Cent= 0 IOpClX= 0 NMat=1 NMatS=1 NMatT=0.
 ***** Axes restored to original set *****
 -------------------------------------------------------------------
 Center     Atomic                   Forces (Hartrees/Bohr)
 Number     Number              X              Y              Z
 -------------------------------------------------------------------
      1        6           0.013289397   -0.000291288    0.001237753
      2        6          -0.042120528    0.000329494   -0.001402793
      3        6           0.043729458    0.000371385   -0.000319952
      4        6          -0.015696304   -0.002675737   -0.000530555
      5        6           0.004457642    0.004322569    0.003254871
      6        7          -0.001361990   -0.002293302   -0.000763307
      7        6          -0.000896902   -0.001435495   -0.002337153
      8        6           0.006209644    0.000730145    0.000582428
      9        6           0.006650196    0.003412815   -0.007628037
     10        7          -0.004840353   -0.001120344    0.004078560
     11        7           0.000098650   -0.003736181    0.000738582
     12        1          -0.002255978   -0.000335803    0.000107636
     13        1          -0.002598028    0.000031132   -0.000265343
     14        1          -0.002394512    0.000305004   -0.000141767
     15        1           0.002822338    0.000610589    0.000029139
     16        1           0.002997534    0.000087731    0.000034035
     17        1          -0.000490578   -0.000230200   -0.000517198
     18        1           0.000479759    0.000375774   -0.000009343
     19        1           0.000368398    0.000365870    0.000010271
     20        1          -0.000254140    0.000027318    0.001187906
     21        1          -0.000141887    0.000372593    0.000416431
     22        1          -0.002338843   -0.000651005   -0.000867570
     23        1          -0.001347568    0.000839043   -0.000307008
     24        1           0.000191479   -0.000617829    0.001043328
     25        1          -0.003236983    0.000949070    0.000668779
     26        1          -0.001319900    0.000256652    0.001700309
 -------------------------------------------------------------------
 Cartesian Forces:  Max     0.043729458 RMS     0.007562372

 GradGradGradGradGradGradGradGradGradGradGradGradGradGradGradGradGradGrad
 Berny optimization.
 Using GEDIIS/GDIIS optimizer.
 FormGI is forming the generalized inverse of G from B-inverse, IUseBI=4.
 Internal  Forces:  Max     0.036081517 RMS     0.003783918
 Search for a local minimum.
 Step number   2 out of a maximum of  132
 All quantities printed in internal units (Hartrees-Bohrs-Radians)
 Mixed Optimization -- RFO/linear search
 Update second derivatives using D2CorX and points    1    2
 DE= -2.23D-02 DEPred=-2.55D-02 R= 8.74D-01
 TightC=F SS=  1.41D+00  RLast= 3.11D-01 DXNew= 5.0454D-01 9.3208D-01
 Trust test= 8.74D-01 RLast= 3.11D-01 DXMaxT set to 5.05D-01
 ITU=  1  0
 Use linear search instead of GDIIS.
     Eigenvalues ---    0.00230   0.00244   0.00316   0.00415   0.00433
     Eigenvalues ---    0.00440   0.00727   0.00731   0.01333   0.01370
     Eigenvalues ---    0.02248   0.02502   0.02714   0.03064   0.03429
     Eigenvalues ---    0.03855   0.03868   0.04199   0.04617   0.04754
     Eigenvalues ---    0.04808   0.04983   0.05463   0.05795   0.06718
     Eigenvalues ---    0.06913   0.08510   0.08844   0.09346   0.12333
     Eigenvalues ---    0.12336   0.12805   0.15861   0.15965   0.16000
     Eigenvalues ---    0.16000   0.16000   0.16000   0.16000   0.16052
     Eigenvalues ---    0.16660   0.18288   0.21824   0.21912   0.21954
     Eigenvalues ---    0.22020   0.25728   0.28536   0.29029   0.29176
     Eigenvalues ---    0.29753   0.30378   0.32137   0.33293   0.33875
     Eigenvalues ---    0.33880   0.33893   0.34055   0.34148   0.34152
     Eigenvalues ---    0.34214   0.34405   0.34407   0.34407   0.35414
     Eigenvalues ---    0.43954   0.44451   0.45120   0.45639   0.60071
     Eigenvalues ---    0.67044   0.86339
 RFO step:  Lambda=-3.10831189D-03 EMin= 2.29999993D-03
 Quartic linear search produced a step of -0.10134.
 Iteration  1 RMS(Cart)=  0.08275697 RMS(Int)=  0.00183560
 Iteration  2 RMS(Cart)=  0.00458360 RMS(Int)=  0.00023798
 Iteration  3 RMS(Cart)=  0.00001001 RMS(Int)=  0.00023794
 Iteration  4 RMS(Cart)=  0.00000000 RMS(Int)=  0.00023794
 Variable       Old X    -DE/DX   Delta X   Delta X   Delta X     New X
                                 (Linear)    (Quad)   (Total)
    R1        2.77887  -0.00605   0.00948  -0.03669  -0.02721   2.75165
    R2        2.06676   0.00047  -0.00002   0.00127   0.00125   2.06801
    R3        2.06684   0.00069  -0.00004   0.00186   0.00183   2.06866
    R4        2.06681   0.00057  -0.00003   0.00153   0.00149   2.06830
    R5        2.24571   0.03608   0.02211   0.01151   0.03362   2.27933
    R6        2.78987  -0.00767   0.00836  -0.03920  -0.03084   2.75902
    R7        2.93068   0.00046  -0.00218   0.00587   0.00369   2.93437
    R8        2.07353   0.00036  -0.00028   0.00149   0.00121   2.07473
    R9        2.07247   0.00108  -0.00001   0.00283   0.00282   2.07529
[...]
 08,0.00249621,0.00902066,0.00052054,0.00361989,0.00045991,0.00023803,0
 .00008035,-0.00035229,0.00001940,-0.00002692,0.00004662,0.00007279,-0.
 00002455,0.00000603,-0.00008190,0.00000970,0.00003176,-0.00001932,-0.0
 0006709,0.00001907,-0.00004767,0.00000380,0.00003001,-0.00004044,0.000
 00883,-0.00002675,-0.00023047,-0.00036124,0.00039680,-0.00012601,0.000
 12203,-0.00014960,0.00044264,0.00000020,0.00008146,-0.01423020,0.00025
 970,0.00627578,0.44227138,-0.00038881,0.00017376,0.00001973,-0.0012934
 6,0.00014706,-0.00045394,0.00074407,-0.00023517,0.00019169,0.00114645,
 0.00062502,0.00037943,0.04142239,-0.00224945,-0.00152004,-0.01573199,-
 0.05321906,-0.01623459,0.00067467,-0.00720563,0.00096701,-0.00048109,-
 0.00022517,0.00044655,0.00004031,0.00017097,-0.00006650,-0.00005842,0.
 00001014,0.00001719,0.00006393,-0.00000134,-0.00001719,0.00012910,-0.0
 0003009,0.00006556,0.00016124,-0.00002848,-0.00005705,0.00022749,-0.00
 001292,-0.00003964,-0.00011552,0.00016323,-0.00037864,-0.00016073,-0.0
 0004191,0.00007438,-0.00050735,0.00076414,-0.00054035,-0.02472711,-0.0
 0003446,0.00373443,-0.00335565,0.06091200,0.00034051,-0.00005889,0.000
 15113,0.00078977,-0.00034869,-0.00030913,-0.00041028,0.00025621,-0.000
 37982,-0.00154625,-0.00051576,0.00059994,-0.00628424,0.00565463,-0.003
 69394,0.05959780,-0.01785167,-0.02541774,0.00023224,0.00025925,-0.0001
 3934,0.00033344,0.00013003,0.00024500,-0.00014858,-0.00023927,-0.00003
 512,-0.00013869,0.00008376,-0.00001538,0.00018455,-0.00001931,-0.00007
 773,-0.00021617,-0.00003166,-0.00002318,-0.00010479,0.00006717,-0.0000
 0319,-0.00021772,-0.00001206,-0.00001624,0.00010954,-0.00022279,0.0003
 1904,-0.00006446,0.00015080,-0.00018268,0.00046639,-0.00018538,-0.0000
 3329,-0.03322617,-0.00039809,-0.00216336,-0.01999147,0.01347925,0.0301
 8857,-0.00000045,0.00001000,0.00000863,0.00016318,-0.00003647,0.000024
 23,0.00040594,-0.00033914,-0.00034742,0.00052066,0.00110854,-0.0002472
 3,-0.00861016,0.03238245,-0.00428688,-0.00796932,-0.00079708,-0.000339
 16,-0.07218195,0.07179130,-0.01234956,0.00298098,-0.01174877,0.0021494
 3,0.00126631,-0.00125227,-0.00032590,-0.00044102,0.00025036,-0.0000388
 9,0.00015361,0.00000467,-0.00005785,0.00002650,0.00001520,0.00000109,0
 .00002759,-0.00000015,-0.00001112,0.00000682,-0.00000104,0.00000786,-0
 .00036816,-0.00088979,0.00066737,0.00001206,-0.00011194,0.00011797,0.0
 0107709,-0.00050945,-0.00047021,-0.00007202,-0.00025897,0.00009162,-0.
 00078986,0.00225010,0.00012215,0.08081819,-0.00000252,-0.00001371,0.00
 002433,-0.00016398,0.00003655,-0.00003204,0.00014727,0.00051645,-0.000
 14694,-0.00071979,-0.00018873,0.00018628,-0.00108352,-0.00220664,0.000
 06797,0.00090374,0.00146528,0.00000974,0.07455935,-0.26721211,0.034794
 56,0.00232372,-0.01062521,0.00254555,0.00147847,0.00000021,-0.00049145
 ,-0.00047620,0.00037463,0.00017198,-0.00010028,-0.00006155,-0.00006557
 ,0.00000192,-0.00001253,-0.00000014,-0.00001066,-0.00000124,0.00000534
 ,0.00000201,-0.00000090,-0.00000885,-0.00016224,0.00081298,-0.00020333
 ,0.00011265,-0.00006976,0.00003793,0.00051237,0.00045097,0.00019376,-0
 .00047752,0.00038005,0.00031536,-0.00012566,-0.00011283,0.00017727,-0.
 08079690,0.29187936,0.00000266,-0.00001290,0.00001662,-0.00001037,-0.0
 0001057,-0.00001203,-0.00023591,-0.00002369,-0.00009653,0.00069977,-0.
 00045756,0.00005605,-0.00019910,-0.00057287,-0.00148288,0.00062233,-0.
 00020524,0.00059667,-0.01308797,0.03541339,-0.05339304,-0.00845318,0.0
 2947908,-0.00626123,-0.00177239,0.00024809,0.00100137,0.00059132,-0.00
 026571,0.00002772,-0.00003368,-0.00005142,0.00005622,-0.00000439,0.000
 00507,-0.00000117,-0.00000335,0.00000144,-0.00000251,-0.00000985,0.000
 00213,0.00000174,0.00051278,0.00014006,0.00008870,-0.00000396,-0.00014
 741,-0.00002792,0.00013719,0.00026586,0.00004306,-0.00034843,0.0004979
 0,0.00012711,0.00020149,-0.00001514,0.00050897,0.01095522,-0.04274855,
 0.05904141,0.00001918,-0.00003289,-0.00005110,0.00011805,-0.00000447,0
 .00009121,0.00018451,0.00042506,0.00029365,0.00101768,0.00026923,-0.00
 168141,-0.01577535,-0.02096244,-0.02583156,0.00260701,-0.00134345,0.00
 022374,-0.08154276,-0.05148853,-0.06749442,0.00324180,0.00654967,0.009
 40943,0.00134112,0.00117628,0.00026209,-0.00018072,-0.00033612,-0.0001
 6588,0.00023020,-0.00004107,-0.00016356,-0.00001370,0.00000003,-0.0000
 0306,-0.00000099,0.00000141,0.00000868,-0.00001052,0.00000235,0.000007
 98,-0.00002991,0.00002184,0.00007143,0.00006874,0.00012524,0.00108339,
 -0.00631365,0.00049795,0.00063696,-0.00037264,0.00121196,0.00059598,0.
 00043230,-0.00007382,0.00034211,0.00359354,0.00603084,0.00782033,0.091
 60507,0.00000162,-0.00002221,-0.00001901,0.00003739,0.00000229,-0.0000
 0760,0.00009719,0.00011924,0.00037215,-0.00011128,-0.00029576,-0.00042
 276,0.00027375,-0.00129405,-0.00015952,0.00030459,0.00136784,0.0010230
 3,-0.05143109,-0.12961903,-0.10381325,0.00351508,0.00610034,0.00907939
 ,0.00037474,0.00029367,-0.00005915,0.00029661,0.00013219,-0.00021987,0
 .00010114,-0.00002478,0.00005364,0.00000310,0.00000336,0.00000058,0.00
 000514,0.00000559,-0.00000551,-0.00000653,-0.00000301,-0.00000185,-0.0
 0006167,0.00008044,-0.00012300,-0.00033079,0.00016954,0.00057516,0.000
 18021,0.00100238,0.00068423,-0.00033494,0.00038937,-0.00030712,-0.0001
 0889,0.00010112,0.00010699,-0.01152550,-0.01764343,-0.02225907,0.05897
 829,0.13771636,-0.00000733,-0.00002442,-0.00002055,-0.00005767,0.00003
 409,-0.00004052,0.00001091,0.00006145,0.00017063,0.00019442,0.00040177
 ,0.00075248,0.00013123,-0.00013560,-0.00077411,0.00034724,0.00049082,0
 .00043413,-0.06670476,-0.10337973,-0.17752095,-0.00888780,-0.01661882,
 -0.02412491,-0.00239537,-0.00076474,0.00108548,0.00069504,0.00089180,0
 .00072063,0.00022548,0.00003961,-0.00021157,0.00000367,0.00000360,0.00
 000360,0.00000905,0.00000253,-0.00000131,-0.00000249,0.00000098,0.0000
 0200,0.00004708,0.00011380,0.00000690,0.00001656,-0.00020455,0.0004323
 6,0.00026154,0.00016808,0.00078382,-0.00096878,0.00042323,0.00010625,0
 .00004068,0.00029387,0.00014311,0.00204270,0.00261450,0.00351248,0.072
 70174,0.11334475,0.19840884,-0.00001605,-0.00000064,0.00000200,-0.0000
 4083,0.00002208,-0.00001235,-0.00008806,0.00006384,0.00002222,-0.00001
 966,0.00036416,-0.00001297,0.00079608,-0.00125752,-0.00031575,-0.00080
 970,0.00059404,0.00061188,0.00327919,-0.01147694,0.00132572,-0.0672663
 7,0.06927812,-0.01224217,-0.01249537,0.03406530,-0.00448087,0.00437188
 ,0.00070285,-0.00035000,-0.00041623,-0.00058160,0.00033621,0.00000123,
 -0.00000637,0.00000170,0.00000034,-0.00000279,0.00000347,0.00000925,0.
 00000406,-0.00000489,0.00008957,0.00018956,-0.00017839,0.00001989,-0.0
 0002112,0.00000444,-0.00008724,0.00009135,0.00006851,-0.00007454,-0.00
 000860,0.00022728,0.00000361,0.00013471,-0.00033456,-0.00072847,-0.000
 80737,0.00251112,0.00030295,0.00054372,-0.00042246,0.07442576,-0.00000
 407,0.00000275,-0.00000367,-0.00007052,0.00004413,-0.00001886,0.000029
 96,0.00002366,0.00002605,-0.00013016,-0.00007370,0.00005752,0.00084763
 ,-0.00108111,0.00043123,0.00137064,0.00045230,-0.00111059,0.00137529,-
 0.00912741,0.00212579,0.07181349,-0.29080678,0.03638768,0.00147668,-0.
 00201077,-0.00021622,-0.00180143,0.00055227,0.00001894,-0.00018028,0.0
 0061547,-0.00029403,-0.00000622,-0.00000481,0.00000043,-0.00000344,-0.
 00000204,0.00000372,0.00000311,0.00000110,-0.00000149,-0.00005031,0.00
 014358,-0.00005241,0.00001234,-0.00000824,-0.00000745,-0.00001449,0.00
 001786,0.00007516,-0.00003329,-0.00001737,-0.00000117,-0.00001168,0.00
 022857,-0.00033032,-0.00042880,0.00102919,0.00157222,-0.00009516,0.000
 90291,0.00009830,-0.07862404,0.31442066,0.00000509,0.00000525,0.000000
 08,0.00006460,-0.00001574,0.00002186,0.00005458,-0.00016686,-0.0000247
 9,-0.00001620,0.00000078,0.00006790,-0.00101206,0.00052378,0.00063980,
 -0.00022898,-0.00053523,-0.00031249,-0.00754391,0.02907404,-0.00582239
 ,-0.01258669,0.03524805,-0.05331535,0.00050768,-0.00180586,-0.00047436
 ,0.00010759,-0.00000859,-0.00068139,0.00003840,-0.00006126,-0.00023354
 ,0.00000269,0.00000321,-0.00000082,0.00000421,0.00000138,-0.00000256,-
 0.00000172,-0.00000115,0.00000154,-0.00005002,-0.00024898,0.00012670,-
 0.00002561,0.00003231,-0.00000171,0.00013977,-0.00008462,0.00004138,0.
 00033145,0.00010596,-0.00056053,-0.00005509,-0.00034717,0.00036453,0.0
 0259265,0.00218689,-0.00494759,-0.00078505,-0.00045175,0.00131142,0.01
 090185,-0.04169626,0.05876820,0.00000599,0.00000288,0.00000492,-0.0000
 0978,0.00000110,-0.00000075,-0.00000305,-0.00001241,-0.00007465,0.0001
 5810,0.00000084,0.00016011,0.00129565,0.00085720,0.00091967,-0.0001752
 4,-0.00003912,-0.00030969,0.00398764,0.00625920,0.00896898,-0.08390336
 ,-0.05293607,-0.07401458,-0.01682118,-0.02316387,-0.02184134,-0.001418
 89,0.00245347,-0.00402504,-0.00385432,0.00007420,0.00403698,-0.0000021
 1,-0.00000146,-0.00000032,-0.00000545,0.00000144,0.00000119,-0.0000026
 0,-0.00000150,-0.00000048,-0.00000522,0.00001170,-0.00000907,-0.000113
 63,-0.00007467,-0.00006639,0.00000635,-0.00025147,-0.00020211,0.000121
 11,-0.00006616,-0.00012146,-0.00005688,-0.00000337,0.00001642,0.000227
 90,-0.00006284,-0.00064716,-0.00048879,-0.00087504,0.00250686,0.003679
 07,0.00474217,0.00710020,0.09601645,-0.00000989,0.00000167,0.00000116,
 0.00002400,-0.00000190,0.00001033,0.00000067,0.00000819,-0.00010675,0.
 00030416,0.00008672,0.00015139,0.00016047,0.00051051,-0.00026933,0.000
 36220,0.00008247,0.00028033,0.00333808,0.00540618,0.00929379,-0.051303
 41,-0.12602962,-0.10110371,-0.00036356,0.00100033,0.00290129,-0.001164
 36,0.00057550,-0.00074224,0.00004543,0.00012521,0.00006389,0.00001236,
 0.00000072,0.00000096,0.00000395,-0.00000094,-0.00000015,0.00000596,0.
 00000059,0.00000002,0.00000181,-0.00004106,0.00002289,-0.00007508,-0.0
 0007327,0.00000875,0.00026347,0.00009977,-0.00024569,-0.00016320,-0.00
 008431,0.00027113,0.00006493,0.00007792,-0.00015434,0.00053412,0.00089
 429,-0.00046993,-0.00094160,0.00059604,0.00225434,-0.01285418,-0.01562
 399,-0.02215317,0.06241777,0.13207805,-0.00000575,-0.00001052,-0.00001
 458,0.00002846,0.00000688,0.00000615,0.00009421,0.00007553,0.00008782,
 -0.00002866,0.00028713,0.00023648,-0.00203792,-0.00103984,0.00067983,0
 .00046364,0.00011274,0.00020502,-0.01007056,-0.01679405,-0.02697477,-0
 .07154676,-0.10061798,-0.17295054,0.00075322,0.00153196,0.00309169,0.0
 0042477,0.00059236,0.00038582,0.00023400,-0.00016600,-0.00062449,0.000
 00754,-0.00000033,0.00000114,0.00000573,0.00000148,0.00000063,0.000004
 25,0.00000033,-0.00000070,-0.00002008,-0.00000022,-0.00006107,-0.00005
 384,0.00001754,0.00035903,0.00124283,0.00046479,0.00049685,-0.00025246
 ,0.00017456,0.00013814,0.00005087,-0.00002885,-0.00008304,-0.00041150,
 0.00024092,0.00122500,0.00246007,0.00267348,-0.00488865,0.00223115,0.0
 0247243,0.00338580,0.07706276,0.10985371,0.19525357,0.00002650,-0.0000
 0035,-0.00000869,-0.00000584,-0.00001738,0.00000886,-0.00000400,-0.000
 05421,0.00006817,-0.00012931,0.00003395,0.00002502,-0.00008681,-0.0000
 3480,-0.00002640,-0.00036383,-0.00022232,0.00030082,0.00113285,0.00120
 373,-0.00167640,-0.00817594,0.02781146,-0.00172930,-0.10438565,0.09017
 944,-0.00689689,0.00579118,-0.01990614,0.00357188,0.00629925,-0.005124
 11,0.00094276,-0.00001304,0.00000519,-0.00000297,-0.00001024,0.0000041
 5,-0.00000063,-0.00001790,-0.00000492,0.00000656,-0.00001032,-0.000054
 39,0.00002252,-0.00000860,0.00000656,-0.00000012,0.00002830,0.00001197
 ,-0.00001900,0.00006963,0.00002334,-0.00008496,0.00000608,-0.00009976,
 0.00014275,-0.00008554,-0.00098844,0.00070233,-0.00002167,0.00000361,0
 .00018697,-0.00558203,-0.00002749,0.00055820,0.00096454,-0.00073324,-0
 .00053524,0.10379959,-0.00000976,-0.00000006,0.00000549,0.00000711,0.0
 0000338,-0.00000118,0.00000150,0.00003812,-0.00005490,0.00012302,-0.00
 003978,0.00000509,0.00013968,0.00012444,-0.00029480,-0.00007812,0.0001
 0584,-0.00009813,0.00010835,-0.00000366,0.00014915,-0.00168457,-0.0011
 5484,0.00090536,0.08726023,-0.23574104,0.01546292,0.00602067,-0.041710
 35,0.00788820,0.00522592,0.00487368,-0.00203260,0.00000608,-0.00000297
 ,0.00000081,0.00000359,-0.00000152,0.00000089,0.00000761,0.00000177,-0
 .00000303,0.00000373,0.00002799,-0.00000529,0.00000542,-0.00000800,-0.
 00000477,-0.00003176,-0.00000918,0.00000075,-0.00001627,-0.00001502,0.
 00003097,-0.00002760,0.00002514,0.00002103,0.00035496,0.00031667,-0.00
 040387,0.00001858,-0.00004154,-0.00006671,-0.00011136,0.00061057,0.000
 40317,0.00088328,0.00019151,0.00014095,-0.09478653,0.27149012,0.000011
 61,-0.00000088,-0.00000043,-0.00000964,0.00000022,-0.00000432,-0.00000
 402,-0.00001418,0.00002676,-0.00001945,0.00001844,-0.00002408,-0.00002
 103,0.00004393,0.00011858,-0.00000995,-0.00003456,-0.00001789,-0.00093
 537,-0.00044350,0.00070737,0.00052028,-0.00010351,0.00322347,-0.005921
 50,0.01452249,-0.04696189,0.00088872,0.00831098,0.02748399,0.00008969,
 -0.00263080,-0.00851162,-0.00000864,0.00000091,-0.00000184,-0.00000625
 ,0.00000150,0.00000106,-0.00000780,-0.00000127,0.00000233,0.00000709,0
 .00001182,-0.00000217,0.00000062,-0.00000510,-0.00000768,-0.00005152,-
 0.00001785,-0.00001210,0.00001862,-0.00000733,-0.00001239,-0.00000226,
 0.00001200,-0.00001825,0.00003733,0.00014664,-0.00002450,0.00006855,-0
 .00005079,-0.00018812,0.00014580,0.00030875,0.00163364,0.00089715,-0.0
 0000681,0.00017147,0.00595183,-0.02118665,0.02475335,-0.00000272,0.000
 00144,-0.00000336,-0.00000634,0.00000187,-0.00000131,-0.00000569,-0.00
 001055,0.00002741,-0.00008565,0.00001855,-0.00002448,0.00003564,-0.000
 10411,0.00025083,0.00001595,0.00002161,-0.00002693,-0.00066865,0.00006
 646,-0.00029408,0.00015209,-0.00104944,0.00215987,-0.00716352,0.002682
 59,-0.00120304,-0.03318245,-0.03614291,-0.01295412,-0.12122882,-0.1248
 4798,-0.06244693,-0.00000066,-0.00000029,0.00000073,0.00000047,-0.0000
 0114,0.00000015,0.00000065,0.00000006,0.00000043,0.00000225,0.00000069
 ,-0.00000421,0.00000250,0.00000393,0.00000396,0.00001581,-0.00000182,-
 0.00000647,-0.00001874,-0.00001096,0.00001922,-0.00000259,0.00000457,0
 .00000726,0.00001055,-0.00002461,-0.00000028,-0.00001011,0.00001672,0.
 00003402,0.00003142,0.00006237,-0.00005685,0.00017903,0.00008239,-0.00
 006559,0.00002098,0.00010317,-0.00077450,0.15413564,-0.00001804,0.0000
 0655,0.00000281,0.00001773,-0.00000510,0.00000005,-0.00000185,0.000016
 83,-0.00003533,0.00005707,-0.00001922,0.00001222,-0.00009668,0.0000775
 7,-0.00005936,0.00007142,-0.00004306,0.00000414,0.00026585,-0.00011474
 ,0.00010207,0.00004908,0.00078223,0.00021883,0.00209202,0.00183730,-0.
 00154708,0.00341252,0.00876572,0.00382958,-0.13913180,-0.32195876,-0.0
 9752290,0.00000981,-0.00000057,0.00000241,0.00000937,-0.00000371,-0.00
 000242,0.00000959,-0.00000001,-0.00000114,0.00000039,-0.00001031,0.000
 00588,0.00000100,0.00000278,0.00000168,0.00000640,-0.00000920,0.000004
 00,-0.00000939,0.00001798,-0.00000885,0.00001180,-0.00000620,-0.000021
 82,-0.00002043,-0.00001901,0.00002199,-0.00002955,0.00000064,-0.000016
 27,-0.00008242,-0.00003125,0.00002797,0.00033077,-0.00000684,0.0000006
 0,0.00003227,0.00053098,-0.00087499,0.14745335,0.33153402,0.00003642,-
 0.00000074,-0.00000881,-0.00002980,0.00000160,0.00000145,-0.00000168,-
 0.00004232,0.00007745,-0.00012666,0.00004399,-0.00003687,0.00021916,-0
 .00017027,0.00018068,-0.00014120,0.00004818,0.00000154,-0.00086917,0.0
 0034111,-0.00019645,0.00090385,-0.00007565,0.00186020,0.00056487,-0.00
 049628,0.00278908,0.01546514,0.00638171,-0.00818169,-0.09595945,-0.136
 39351,-0.06043093,-0.00002176,0.00000116,-0.00000509,-0.00001905,0.000
 00597,0.00000408,-0.00002229,-0.00000604,0.00000645,-0.00000228,0.0000
 1178,-0.00000875,-0.00000365,-0.00000240,-0.00001034,-0.00003443,-0.00
 000135,-0.00001779,0.00004062,-0.00001900,-0.00000994,-0.00001766,0.00
 000843,0.00004066,0.00004092,0.00000765,-0.00005528,0.00005381,0.00001
 393,-0.00003663,-0.00006523,0.00003569,0.00003652,0.00002223,-0.000094
 61,-0.00007152,-0.00018566,-0.00012256,-0.00028992,0.07011554,0.111015
 81,0.06436422,-0.00000103,-0.00000006,-0.00000148,-0.00000300,0.000000
 90,0.00000020,-0.00000200,-0.00000892,0.00002016,-0.00006420,0.0000057
 1,-0.00001265,0.00002135,-0.00007633,0.00015084,0.00002374,-0.00000627
 ,-0.00000594,-0.00040765,-0.00005934,-0.00019248,-0.00049717,-0.001120
 79,0.00204327,0.00460891,0.00897066,-0.00144840,-0.03120297,0.03375616
 ,-0.01813883,-0.09115563,0.07496528,-0.05192082,-0.00000053,0.00000018
 ,0.00000041,-0.00000012,0.00000002,-0.00000024,-0.00000011,0.00000022,
 -0.00000020,-0.00000106,-0.00000313,-0.00000217,0.00000060,0.00000536,
 0.00000079,0.00000407,-0.00000537,-0.00000196,0.00000348,0.00000289,-0
 .00000960,-0.00000019,-0.00000192,-0.00000159,-0.00004398,-0.00006982,
 0.00005348,-0.00000132,0.00005281,-0.00000852,0.00061435,-0.00025229,-
 0.00004678,0.00021868,-0.00001326,-0.00003515,0.00076181,-0.00352692,-
 0.00086537,0.00777293,-0.01444029,0.01003742,0.10935103,0.00000033,-0.
 00000169,0.00000160,-0.00000289,0.00000160,-0.00000289,0.00000245,-0.0
 0000097,-0.00000284,0.00000079,0.00000863,0.00000313,0.00000688,-0.000
 04028,-0.00002366,0.00001490,0.00003773,-0.00002175,0.00004751,0.00004
 302,0.00008707,-0.00016951,-0.00085324,-0.00158654,-0.00713014,0.00655
 014,-0.00098637,0.01676796,-0.00422545,0.00086416,0.07495652,-0.291520
 44,0.12306622,-0.00000165,-0.00000018,-0.00000083,-0.00000083,0.000000
 33,0.00000091,-0.00000031,0.00000132,-0.00000027,0.00000063,0.00000468
 ,0.00000037,0.00000030,-0.00000621,-0.00000470,-0.00001168,0.00000549,
 -0.00000618,-0.00000475,-0.00000840,0.00001523,-0.00000197,0.00000365,
 0.00000368,0.00001498,0.00001103,-0.00000330,0.00004036,-0.00003950,-0
 .00002671,-0.00021882,-0.00025755,-0.00003615,-0.00054804,0.00012625,0
 .00001042,0.00273842,0.00038774,0.00200055,0.01167405,-0.02134463,0.01
 950773,-0.09817548,0.31111695,0.00003119,0.00000014,-0.00000644,-0.000
 02447,-0.00000052,-0.00000014,-0.00000172,-0.00003804,0.00006563,-0.00
 009513,0.00004179,-0.00002460,0.00018092,-0.00012582,0.00009002,-0.000
 11995,0.00001602,0.00001823,-0.00040305,0.00021926,-0.00015902,0.00043
 984,-0.00058565,0.00089732,-0.00132720,-0.00507198,-0.00074135,0.01425
 239,-0.00489428,0.00390050,-0.07688567,0.16890097,-0.09369469,-0.00001
 893,0.00000209,-0.00000438,-0.00001611,0.00000486,0.00000259,-0.000019
 79,-0.00000541,0.00000618,-0.00000065,0.00000835,-0.00000394,-0.000002
 73,-0.00000571,-0.00001144,-0.00003620,0.00000032,-0.00001613,0.000041
 12,-0.00001129,-0.00001807,-0.00001305,0.00000958,0.00003047,0.0000265
 7,-0.00002981,0.00000155,0.00004485,-0.00002710,-0.00006679,0.00002631
 ,0.00011854,-0.00002188,-0.00038444,0.00023274,-0.00005509,-0.00132242
 ,-0.00074028,-0.00204481,0.00524273,-0.01515988,-0.00000233,0.06038557
 ,-0.14285889,0.09185861\\-0.00000302,0.00000577,-0.00000188,0.00000046
 ,-0.00000096,0.00000015,-0.00000014,-0.00000040,-0.00000133,0.00000009
 ,-0.00000172,0.00000224,0.00000183,0.00000269,-0.00000049,-0.00000009,
 -0.00000128,-0.00000049,-0.00000201,-0.00000179,0.00000104,-0.00000303
 ,0.00000118,-0.00000288,0.00000193,-0.00000165,-0.00000108,-0.00000002
 ,-0.00000102,-0.00000020,0.00000205,0.00000082,0.00000086,0.00000111,-
 0.00000102,0.00000080,0.00000090,-0.00000120,0.00000114,0.00000030,-0.
 00000095,0.00000035,0.,-0.00000016,-0.00000099,-0.00000042,-0.00000047
 ,0.00000011,-0.00000084,-0.00000037,0.00000058,0.00000070,-0.00000006,
 0.00000068,-0.00000052,0.00000098,0.00000094,0.00000064,0.00000024,-0.
 00000067,0.00000013,0.00000008,-0.00000004,0.00000086,-0.00000009,0.00
 000098,0.00000034,0.00000124,0.00000072,-0.00000106,0.00000046,-0.0000
 0003,0.00000047,-0.00000047,-0.00000006,-0.00000065,0.00000014,-0.0000
 0045\\\@


 UNLESS WE CHANGE DIRECTIONS, WE WILL WIND UP WHERE WE ARE HEADED.
     -- CONFUCIUS
 Job cpu time:       0 days  2 hours 50 minutes 38.6 seconds.
 Elapsed time:       0 days  0 hours 42 minutes 40.6 seconds.
 File lengths (MBytes):  RWF=    279 Int=      0 D2E=      0 Chk=     13 Scr=      1
 Normal termination of Gaussian 16 at Tue Jun  1 07:32:12 2021.
### All Done ###
