### Starting Gaussian ###
 Entering Gaussian System, Link 0=g16
 Initial command:
 /cluster/software/gaussian/gaussian-16-A.03/avx2/g16/l1.exe "/local/scratch/cz9n3/Gau-14100.inp" -scrdir="/local/scratch/cz9n3/"
 Entering Link 1 = /cluster/software/gaussian/gaussian-16-A.03/avx2/g16/l1.exe PID=     14101.
  
 Copyright (c) 1988,1990,1992,1993,1995,1998,2003,2009,2016,
            Gaussian, Inc.  All Rights Reserved.
  
 This is part of the Gaussian(R) 16 program.  It is based on
 the Gaussian(R) 09 system (copyright 2009, Gaussian, Inc.),
 the Gaussian(R) 03 system (copyright 2003, Gaussian, Inc.),
 the Gaussian(R) 98 system (copyright 1998, Gaussian, Inc.),
 the Gaussian(R) 94 system (copyright 1995, Gaussian, Inc.),
 the Gaussian 92(TM) system (copyright 1992, Gaussian, Inc.),
 the Gaussian 90(TM) system (copyright 1990, Gaussian, Inc.),
 the Gaussian 88(TM) system (copyright 1988, Gaussian, Inc.),
 the Gaussian 86(TM) system (copyright 1986, Carnegie Mellon
 University), and the Gaussian 82(TM) system (copyright 1983,
 Carnegie Mellon University). Gaussian is a federally registered
 trademark of Gaussian, Inc.
  
 This software contains proprietary and confidential information,
 including trade secrets, belonging to Gaussian, Inc.
  
 This software is provided under written license and may be
 used, copied, transmitted, or stored only in accord with that
 written license.
  
 The following legend is applicable only to US Government
 contracts under FAR:
  
                    RESTRICTED RIGHTS LEGEND
  
 Use, reproduction and disclosure by the US Government is
 subject to restrictions as set forth in subparagraphs (a)
 and (c) of the Commercial Computer Software - Restricted
 Rights clause in FAR 52.227-19.
  
 Gaussian, Inc.
 340 Quinnipiac St., Bldg. 40, Wallingford CT 06492
  
  
 ---------------------------------------------------------------
 Warning -- This program may not be used in any manner that
 competes with the business of Gaussian, Inc. or will provide
 assistance to any competitor of Gaussian, Inc.  The licensee
 of this program is prohibited from giving any competitor of
 Gaussian, Inc. access to this program.  By using this program,
 the user acknowledges that Gaussian, Inc. is engaged in the
 business of creating and licensing software in the field of
 computational chemistry and represents and warrants to the
 licensee that it is not a competitor of Gaussian, Inc. and that
 it will not use this program in any manner prohibited above.
 ---------------------------------------------------------------
  

 Cite this work as:
 Gaussian 16, Revision A.03,
 M. J. Frisch, G. W. Trucks, H. B. Schlegel, G. E. Scuseria, 
 M. A. Robb, J. R. Cheeseman, G. Scalmani, V. Barone, 
 G. A. Petersson, H. Nakatsuji, X. Li, M. Caricato, A. V. Marenich, 
 J. Bloino, B. G. Janesko, R. Gomperts, B. Mennucci, H. P. Hratchian, 
 J. V. Ortiz, A. F. Izmaylov, J. L. Sonnenberg, D. Williams-Young, 
 F. Ding, F. Lipparini, F. Egidi, J. Goings, B. Peng, A. Petrone, 
 T. Henderson, D. Ranasinghe, V. G. Zakrzewski, J. Gao, N. Rega, 
 G. Zheng, W. Liang, M. Hada, M. Ehara, K. Toyota, R. Fukuda, 
 J. Hasegawa, M. Ishida, T. Nakajima, Y. Honda, O. Kitao, H. Nakai, 
 T. Vreven, K. Throssell, J. A. Montgomery, Jr., J. E. Peralta, 
 F. Ogliaro, M. J. Bearpark, J. J. Heyd, E. N. Brothers, K. N. Kudin, 
 V. N. Staroverov, T. A. Keith, R. Kobayashi, J. Normand, 
 K. Raghavachari, A. P. Rendell, J. C. Burant, S. S. Iyengar, 
 J. Tomasi, M. Cossi, J. M. Millam, M. Klene, C. Adamo, R. Cammi, 
 J. W. Ochterski, R. L. Martin, K. Morokuma, O. Farkas, 
 J. B. Foresman, and D. J. Fox, Gaussian, Inc., Wallingford CT, 2016.
 
 ******************************************
 Gaussian 16:  ES64L-G16RevA.03 25-Dec-2016
                 1-Jun-2021 
 ******************************************
 %chk=CdC1C2NC1N2CCtN.chk
 %NProcShared=20
 Will use up to   20 processors via shared memory.
 -----------------------------
 # opt freq b3lyp/6-31g(2df,p)
 -----------------------------
 1/18=20,19=15,26=3,38=1/1,3;
 2/9=110,12=2,17=6,18=5,40=1/2;
 3/5=1,6=6,7=104,11=2,25=1,30=1,71=1,74=-5/1,2,3;
 4//1;
 5/5=2,38=5/2;
 6/7=2,8=2,9=2,10=2,28=1/1;
 7//1,2,3,16;
 1/18=20,19=15,26=3/3(2);
 2/9=110/2;
 99//99;
 2/9=110/2;
 3/5=1,6=6,7=104,11=2,25=1,30=1,71=1,74=-5/1,2,3;
 4/5=5,16=3,69=1/1;
 5/5=2,38=5/2;
 7//1,2,3,16;
 1/18=20,19=15,26=3/3(-5);
 2/9=110/2;
 6/7=2,8=2,9=2,10=2,19=2,28=1/1;
 99/9=1/99;
 -------------------
 Title Card Required
 -------------------
 Symbolic Z-matrix:
 Charge =  0 Multiplicity = 1
 C                     1.04729   0.27566   0.00437 
 C                     2.33128   0.52437   0.12978 
 C                     3.49129   1.47442  -0.16627 
 N                     4.14792   0.18003  -0.64337 
 C                     3.522    -0.08767   0.75544 
 N                     3.85448   1.40208   1.37646 
 C                     2.98211   2.58911   1.90122 
 C                     3.43278   3.03813   3.28169 
 N                     3.80664   3.41062   4.4269 
 H                     0.36222   1.02958  -0.36979 
 H                     0.63078  -0.69673   0.28802 
 H                     3.44236   2.38647  -0.73655 
 H                     5.16159   0.21773  -0.55015 
 H                     3.60093  -1.11382   1.12518 
 H                     1.92969   2.29618   1.96427 
 H                     3.10494   3.42616   1.20554 
 

 GradGradGradGradGradGradGradGradGradGradGradGradGradGradGradGradGradGrad
 Berny optimization.
 Initialization pass.
                           ----------------------------
                           !    Initial Parameters    !
                           ! (Angstroms and Degrees)  !
 --------------------------                            --------------------------
 ! Name  Definition              Value          Derivative Info.                !
 --------------------------------------------------------------------------------
 ! R1    R(1,2)                  1.3139         estimate D2E/DX2                !
 ! R2    R(1,10)                 1.0852         estimate D2E/DX2                !
 ! R3    R(1,11)                 1.0952         estimate D2E/DX2                !
 ! R4    R(2,3)                  1.5284         estimate D2E/DX2                !
 ! R5    R(2,5)                  1.4778         estimate D2E/DX2                !
 ! R6    R(3,4)                  1.5278         estimate D2E/DX2                !
 ! R7    R(3,5)                  1.814          estimate D2E/DX2                !
 ! R8    R(3,6)                  1.5866         estimate D2E/DX2                !
 ! R9    R(3,12)                 1.0768         estimate D2E/DX2                !
 ! R10   R(4,5)                  1.5557         estimate D2E/DX2                !
 ! R11   R(4,13)                 1.0186         estimate D2E/DX2                !
 ! R12   R(5,6)                  1.6479         estimate D2E/DX2                !
 ! R13   R(5,14)                 1.0936         estimate D2E/DX2                !
 ! R14   R(6,7)                  1.5638         estimate D2E/DX2                !
 ! R15   R(7,8)                  1.52           estimate D2E/DX2                !
 ! R16   R(7,15)                 1.0942         estimate D2E/DX2                !
 ! R17   R(7,16)                 1.0953         estimate D2E/DX2                !
 ! R18   R(8,9)                  1.261          estimate D2E/DX2                !
 ! A1    A(2,1,10)             121.2198         estimate D2E/DX2                !
 ! A2    A(2,1,11)             120.9979         estimate D2E/DX2                !
 ! A3    A(10,1,11)            117.7768         estimate D2E/DX2                !
 ! A4    A(1,2,3)              147.2376         estimate D2E/DX2                !
 ! A5    A(1,2,5)              138.5421         estimate D2E/DX2                !
 ! A6    A(2,3,4)               81.955          estimate D2E/DX2                !
 ! A7    A(2,3,6)               87.5383         estimate D2E/DX2                !
 ! A8    A(2,3,12)             126.4856         estimate D2E/DX2                !
 ! A9    A(4,3,6)               99.5922         estimate D2E/DX2                !
 ! A10   A(4,3,12)             124.8723         estimate D2E/DX2                !
 ! A11   A(6,3,12)             124.3336         estimate D2E/DX2                !
 ! A12   A(3,4,13)             111.577          estimate D2E/DX2                !
 ! A13   A(5,4,13)             108.9332         estimate D2E/DX2                !
 ! A14   A(2,5,4)               82.6595         estimate D2E/DX2                !
 ! A15   A(2,5,6)               87.0024         estimate D2E/DX2                !
 ! A16   A(2,5,14)             126.1514         estimate D2E/DX2                !
 ! A17   A(4,5,6)               95.8609         estimate D2E/DX2                !
 ! A18   A(4,5,14)             115.8769         estimate D2E/DX2                !
 ! A19   A(6,5,14)             134.9355         estimate D2E/DX2                !
 ! A20   A(3,6,7)               99.4384         estimate D2E/DX2                !
 ! A21   A(5,6,7)              134.4377         estimate D2E/DX2                !
 ! A22   A(6,7,8)              111.3214         estimate D2E/DX2                !
 ! A23   A(6,7,15)             110.6504         estimate D2E/DX2                !
 ! A24   A(6,7,16)             107.7219         estimate D2E/DX2                !
 ! A25   A(8,7,15)             108.1744         estimate D2E/DX2                !
 ! A26   A(8,7,16)             108.532          estimate D2E/DX2                !
 ! A27   A(15,7,16)            110.4281         estimate D2E/DX2                !
 ! A28   L(5,3,12,7,-1)        181.0901         estimate D2E/DX2                !
 ! A29   L(3,5,14,1,-1)        180.8499         estimate D2E/DX2                !
 ! A30   L(7,8,9,14,-1)        179.9998         estimate D2E/DX2                !
 ! A31   L(5,3,12,7,-2)        181.9132         estimate D2E/DX2                !
 ! A32   L(3,5,14,1,-2)        168.3592         estimate D2E/DX2                !
 ! A33   L(7,8,9,14,-2)        180.0005         estimate D2E/DX2                !
 ! D1    D(10,1,2,3)           -10.273          estimate D2E/DX2                !
 ! D2    D(10,1,2,5)           168.0305         estimate D2E/DX2                !
 ! D3    D(11,1,2,3)           170.5999         estimate D2E/DX2                !
 ! D4    D(11,1,2,5)           -11.0966         estimate D2E/DX2                !
 ! D5    D(1,2,3,4)           -130.4331         estimate D2E/DX2                !
 ! D6    D(1,2,3,6)            129.516          estimate D2E/DX2                !
 ! D7    D(1,2,3,12)            -2.5784         estimate D2E/DX2                !
 ! D8    D(1,2,5,4)            131.5695         estimate D2E/DX2                !
 ! D9    D(1,2,5,6)           -132.1241         estimate D2E/DX2                !
 ! D10   D(1,2,5,14)            14.7708         estimate D2E/DX2                !
 ! D11   D(2,3,4,13)          -151.8729         estimate D2E/DX2                !
 ! D12   D(6,3,4,13)           -65.765          estimate D2E/DX2                !
 ! D13   D(12,3,4,13)           78.8203         estimate D2E/DX2                !
 ! D14   D(2,3,6,7)            -89.4468         estimate D2E/DX2                !
 ! D15   D(4,3,6,7)           -170.8586         estimate D2E/DX2                !
 ! D16   D(12,3,6,7)            44.293          estimate D2E/DX2                !
 ! D17   D(13,4,5,2)           157.4917         estimate D2E/DX2                !
 ! D18   D(13,4,5,6)            71.289          estimate D2E/DX2                !
 ! D19   D(13,4,5,14)          -75.7392         estimate D2E/DX2                !
 ! D20   D(2,5,6,7)             34.846          estimate D2E/DX2                !
 ! D21   D(4,5,6,7)            117.1459         estimate D2E/DX2                !
 ! D22   D(14,5,6,7)          -106.6191         estimate D2E/DX2                !
 ! D23   D(3,6,7,8)           -162.809          estimate D2E/DX2                !
 ! D24   D(3,6,7,15)            76.8651         estimate D2E/DX2                !
 ! D25   D(3,6,7,16)           -43.9331         estimate D2E/DX2                !
 ! D26   D(5,6,7,8)            128.5561         estimate D2E/DX2                !
 ! D27   D(5,6,7,15)             8.2302         estimate D2E/DX2                !
 ! D28   D(5,6,7,16)          -112.568          estimate D2E/DX2                !
 --------------------------------------------------------------------------------
 Trust Radius=3.00D-01 FncErr=1.00D-07 GrdErr=1.00D-06 EigMax=2.50D+02 EigMin=1.00D-04
 Number of steps in this run=     89 maximum allowed number of steps=    100.
 GradGradGradGradGradGradGradGradGradGradGradGradGradGradGradGradGradGrad

                          Input orientation:                          
 ---------------------------------------------------------------------
 Center     Atomic      Atomic             Coordinates (Angstroms)
 Number     Number       Type             X           Y           Z
 ---------------------------------------------------------------------
      1          6           0        1.047290    0.275660    0.004370
      2          6           0        2.331280    0.524370    0.129780
      3          6           0        3.491290    1.474420   -0.166270
      4          7           0        4.147920    0.180030   -0.643370
      5          6           0        3.522000   -0.087670    0.755440
      6          7           0        3.854480    1.402080    1.376460
      7          6           0        2.982110    2.589110    1.901220
      8          6           0        3.432780    3.038130    3.281690
      9          7           0        3.806640    3.410620    4.426900
     10          1           0        0.362220    1.029580   -0.369790
     11          1           0        0.630780   -0.696730    0.288020
     12          1           0        3.442360    2.386470   -0.736550
     13          1           0        5.161590    0.217730   -0.550150
     14          1           0        3.600930   -1.113820    1.125180
     15          1           0        1.929690    2.296180    1.964270
     16          1           0        3.104940    3.426160    1.205540
 ---------------------------------------------------------------------
                    Distance matrix (angstroms):
                    1          2          3          4          5
     1  C    0.000000
     2  C    1.313855   0.000000
     3  C    2.727504   1.528353   0.000000
     4  N    3.169009   2.004124   1.527820   0.000000
     5  C    2.611571   1.477788   1.814006   1.555670   0.000000
     6  N    3.321411   2.155162   1.586555   2.378913   1.647897
     7  C    3.562811   2.797272   2.403396   3.692928   2.961325
     8  C    4.905367   4.179333   3.786428   4.907775   4.020016
     9  N    6.082825   5.382598   4.994550   6.021696   5.079239
    10  H    1.085224   2.093324   3.167078   3.889487   3.535336
    11  H    1.095208   2.099482   3.619778   3.742522   2.991419
    12  H    3.277322   2.335047   1.076777   2.318378   2.890285
    13  H    4.151905   2.926942   2.125214   1.018645   2.118039
    14  H    3.115758   2.299239   2.894624   2.258543   1.093582
    15  H    2.949973   2.581848   2.766421   4.024726   3.111183
    16  H    3.949985   3.190015   2.416696   3.878613   3.567006
                    6          7          8          9         10
     6  N    0.000000
     7  C    1.563791   0.000000
     8  C    2.546447   1.520007   0.000000
     9  N    3.652630   2.780969   1.260962   0.000000
    10  H    3.922247   3.801769   5.176477   6.367230   0.000000
    11  H    3.997743   4.350622   5.546390   6.639785   1.866811
    12  H    2.367209   2.685279   4.070750   5.276628   3.385694
    13  H    2.612096   4.047566   5.062256   6.066421   4.870891
    14  H    2.541099   3.833649   4.681613   5.604840   4.161531
    15  H    2.202215   1.094245   2.131986   3.290815   3.083679
    16  H    2.165161   1.095313   2.137392   3.296936   3.968346
                   11         12         13         14         15
    11  H    0.000000
    12  H    4.296609   0.000000
    13  H    4.697553   2.773793   0.000000
    14  H    3.113935   3.967772   2.648663   0.000000
    15  H    3.668036   3.096894   4.592106   3.889115   0.000000
    16  H    4.895052   2.228569   4.195984   4.567700   1.798260
                   16
    16  H    0.000000
 Stoichiometry    C6H7N3
 Framework group  C1[X(C6H7N3)]
 Deg. of freedom    42
 Full point group                 C1      NOp   1
 Largest Abelian subgroup         C1      NOp   1
 Largest concise Abelian subgroup C1      NOp   1
                         Standard orientation:                         
 ---------------------------------------------------------------------
 Center     Atomic      Atomic             Coordinates (Angstroms)
 Number     Number       Type             X           Y           Z
 ---------------------------------------------------------------------
      1          6           0        1.925374    1.818306   -0.133150
      2          6           0        1.467517    0.589941   -0.045401
      3          6           0        0.937905   -0.522745    0.858649
      4          7           0        1.981787   -1.341541    0.100945
      5          6           0        1.151212   -0.540854   -0.942681
      6          7           0       -0.284643   -0.661108   -0.143043
      7          6           0       -1.265926    0.368984    0.506140
      8          6           0       -2.689362    0.161534    0.015006
      9          7           0       -3.870210   -0.010556   -0.392436
     10          1           0        1.876881    2.498342    0.711191
     11          1           0        2.356378    2.194226   -1.067173
     12          1           0        0.843564   -0.486296    1.930666
     13          1           0        1.720238   -2.324588    0.047568
     14          1           0        1.466088   -0.645146   -1.984745
     15          1           0       -0.966794    1.393062    0.262922
     16          1           0       -1.245220    0.211841    1.589924
 ---------------------------------------------------------------------
 Rotational constants (GHZ):           3.5990382           0.9657094           0.8579622
 Standard basis: 6-31G(2df,p) (6D, 7F)
 There are   314 symmetry adapted cartesian basis functions of A   symmetry.
 There are   287 symmetry adapted basis functions of A   symmetry.
   287 basis functions,   445 primitive gaussians,   314 cartesian basis functions
    32 alpha electrons       32 beta electrons
       nuclear repulsion energy       395.6663956573 Hartrees.
 NAtoms=   16 NActive=   16 NUniq=   16 SFac= 1.00D+00 NAtFMM=   60 NAOKFM=F Big=F
 Integral buffers will be    131072 words long.
 Raffenetti 2 integral format.
 Two-electron integral symmetry is turned on.
 One-electron integrals computed using PRISM.
 PrsmSu:  requested number of processors reduced to:  13 ShMem   1 Linda.
 NBasis=   287 RedAO= T EigKep=  1.74D-04  NBF=   287
 NBsUse=   287 1.00D-06 EigRej= -1.00D+00 NBFU=   287
 ExpMin= 1.61D-01 ExpMax= 4.17D+03 ExpMxC= 6.27D+02 IAcc=3 IRadAn=         5 AccDes= 0.00D+00
 Harris functional with IExCor=  402 and IRadAn=       5 diagonalized for initial guess.
 HarFok:  IExCor=  402 AccDes= 0.00D+00 IRadAn=         5 IDoV= 1 UseB2=F ITyADJ=14
 ICtDFT=  3500011 ScaDFX=  1.000000  1.000000  1.000000  1.000000
 FoFCou: FMM=F IPFlag=           0 FMFlag=      100000 FMFlg1=           0
         NFxFlg=           0 DoJE=T BraDBF=F KetDBF=T FulRan=T
         wScrn=  0.000000 ICntrl=       500 IOpCl=  0 I1Cent=   200000004 NGrid=           0
         NMat0=    1 NMatS0=      1 NMatT0=    0 NMatD0=    1 NMtDS0=    0 NMtDT0=    0
 Petite list used in FoFCou.
 Requested convergence on RMS density matrix=1.00D-08 within 128 cycles.
 Requested convergence on MAX density matrix=1.00D-06.
 Requested convergence on             energy=1.00D-06.
 No special actions if energy rises.
 Integral accuracy reduced to 1.0D-05 until final iterations.
 Initial convergence to 1.0D-05 achieved.  Increase integral accuracy.
 SCF Done:  E(RB3LYP) =  -396.866998926     A.U. after   15 cycles
            NFock= 15  Conv=0.82D-08     -V/T= 2.0094

 **********************************************************************

            Population analysis using the SCF density.

 **********************************************************************

 Orbital symmetries:
       Occupied  (A) (A) (A) (A) (A) (A) (A) (A) (A) (A) (A) (A)
                 (A) (A) (A) (A) (A) (A) (A) (A) (A) (A) (A) (A)
                 (A) (A) (A) (A) (A) (A) (A) (A)
       Virtual   (A) (A) (A) (A) (A) (A) (A) (A) (A) (A) (A) (A)
                 (A) (A) (A) (A) (A) (A) (A) (A) (A) (A) (A) (A)
                 (A) (A) (A) (A) (A) (A) (A) (A) (A) (A) (A) (A)
                 (A) (A) (A) (A) (A) (A) (A) (A) (A) (A) (A) (A)
                 (A) (A) (A) (A) (A) (A) (A) (A) (A) (A) (A) (A)
                 (A) (A) (A) (A) (A) (A) (A) (A) (A) (A) (A) (A)
                 (A) (A) (A) (A) (A) (A) (A) (A) (A) (A) (A) (A)
                 (A) (A) (A) (A) (A) (A) (A) (A) (A) (A) (A) (A)
                 (A) (A) (A) (A) (A) (A) (A) (A) (A) (A) (A) (A)
                 (A) (A) (A) (A) (A) (A) (A) (A) (A) (A) (A) (A)
                 (A) (A) (A) (A) (A) (A) (A) (A) (A) (A) (A) (A)
                 (A) (A) (A) (A) (A) (A) (A) (A) (A) (A) (A) (A)
                 (A) (A) (A) (A) (A) (A) (A) (A) (A) (A) (A) (A)
                 (A) (A) (A) (A) (A) (A) (A) (A) (A) (A) (A) (A)
                 (A) (A) (A) (A) (A) (A) (A) (A) (A) (A) (A) (A)
                 (A) (A) (A) (A) (A) (A) (A) (A) (A) (A) (A) (A)
                 (A) (A) (A) (A) (A) (A) (A) (A) (A) (A) (A) (A)
                 (A) (A) (A) (A) (A) (A) (A) (A) (A) (A) (A) (A)
                 (A) (A) (A) (A) (A) (A) (A) (A) (A) (A) (A) (A)
                 (A) (A) (A) (A) (A) (A) (A) (A) (A) (A) (A) (A)
                 (A) (A) (A) (A) (A) (A) (A) (A) (A) (A) (A) (A)
                 (A) (A) (A)
 The electronic state is 1-A.
 Alpha  occ. eigenvalues --  -14.37316 -14.36313 -14.35629 -10.29071 -10.28362
 Alpha  occ. eigenvalues --  -10.28214 -10.25182 -10.21670 -10.18550  -1.01957
 Alpha  occ. eigenvalues --   -0.87611  -0.85095  -0.77897  -0.73743  -0.67903
 Alpha  occ. eigenvalues --   -0.65926  -0.55740  -0.52756  -0.51023  -0.49231
 Alpha  occ. eigenvalues --   -0.47821  -0.45139  -0.42941  -0.39645  -0.36617
 Alpha  occ. eigenvalues --   -0.35558  -0.34127  -0.32442  -0.31117  -0.29228
 Alpha  occ. eigenvalues --   -0.27478  -0.24274
 Alpha virt. eigenvalues --   -0.02461   0.00403   0.01491   0.02563   0.07831
 Alpha virt. eigenvalues --    0.08836   0.09458   0.10544   0.12073   0.12317
 Alpha virt. eigenvalues --    0.13341   0.14376   0.15683   0.17281   0.19038
 Alpha virt. eigenvalues --    0.20314   0.24038   0.26936   0.31511   0.32717
 Alpha virt. eigenvalues --    0.37277   0.39867   0.42390   0.45511   0.46740
 Alpha virt. eigenvalues --    0.48451   0.49631   0.51675   0.52453   0.53041
 Alpha virt. eigenvalues --    0.53802   0.57885   0.58440   0.60724   0.62097
 Alpha virt. eigenvalues --    0.64788   0.65944   0.66148   0.68380   0.68737
 Alpha virt. eigenvalues --    0.69573   0.70584   0.72427   0.73404   0.74403
 Alpha virt. eigenvalues --    0.75020   0.76026   0.77032   0.77208   0.77892
 Alpha virt. eigenvalues --    0.79652   0.80523   0.81813   0.81991   0.83700
 Alpha virt. eigenvalues --    0.85158   0.86480   0.88627   0.90342   0.91824
 Alpha virt. eigenvalues --    0.96101   0.99978   1.04436   1.07314   1.07919
 Alpha virt. eigenvalues --    1.09284   1.10297   1.14623   1.18221   1.20207
 Alpha virt. eigenvalues --    1.22130   1.24511   1.26842   1.28005   1.29982
 Alpha virt. eigenvalues --    1.33293   1.35314   1.37568   1.39297   1.40068
 Alpha virt. eigenvalues --    1.41450   1.43828   1.44499   1.48067   1.48761
 Alpha virt. eigenvalues --    1.51118   1.54398   1.55984   1.61139   1.61797
 Alpha virt. eigenvalues --    1.63436   1.65802   1.67562   1.68669   1.72989
 Alpha virt. eigenvalues --    1.75956   1.76036   1.78048   1.81487   1.82196
 Alpha virt. eigenvalues --    1.88441   1.95186   1.99751   2.01673   2.03966
 Alpha virt. eigenvalues --    2.14864   2.17451   2.19543   2.22120   2.24194
 Alpha virt. eigenvalues --    2.29373   2.33373   2.37109   2.38459   2.40682
 Alpha virt. eigenvalues --    2.42786   2.45772   2.54281   2.54980   2.59224
 Alpha virt. eigenvalues --    2.63793   2.65112   2.67047   2.69223   2.74139
 Alpha virt. eigenvalues --    2.76635   2.77564   2.78061   2.80979   2.82935
 Alpha virt. eigenvalues --    2.83937   2.86076   2.87973   2.92171   2.93964
 Alpha virt. eigenvalues --    2.95409   2.96738   2.99089   3.01034   3.02236
 Alpha virt. eigenvalues --    3.06072   3.07995   3.09322   3.15181   3.18811
 Alpha virt. eigenvalues --    3.20605   3.27412   3.28430   3.32520   3.32678
 Alpha virt. eigenvalues --    3.37266   3.39853   3.41290   3.42759   3.44255
 Alpha virt. eigenvalues --    3.46873   3.50120   3.53307   3.53752   3.56838
 Alpha virt. eigenvalues --    3.60523   3.64184   3.64372   3.65151   3.66148
 Alpha virt. eigenvalues --    3.67939   3.71800   3.73965   3.78843   3.82884
 Alpha virt. eigenvalues --    3.84579   3.86646   3.88625   3.89051   3.93433
 Alpha virt. eigenvalues --    3.95428   3.96175   3.99707   4.02645   4.07656
 Alpha virt. eigenvalues --    4.11381   4.12580   4.13733   4.14560   4.16635
 Alpha virt. eigenvalues --    4.17280   4.19753   4.21704   4.22476   4.26329
 Alpha virt. eigenvalues --    4.26795   4.27847   4.29940   4.34522   4.35964
 Alpha virt. eigenvalues --    4.38924   4.39222   4.41532   4.44376   4.45872
 Alpha virt. eigenvalues --    4.49277   4.50779   4.53089   4.54777   4.56075
 Alpha virt. eigenvalues --    4.59760   4.61239   4.63064   4.65565   4.67021
 Alpha virt. eigenvalues --    4.68766   4.71154   4.72154   4.73385   4.76144
 Alpha virt. eigenvalues --    4.77606   4.79419   4.82047   4.85599   4.87983
 Alpha virt. eigenvalues --    4.89584   4.93614   4.97658   4.98183   4.99712
 Alpha virt. eigenvalues --    5.01666   5.08841   5.10456   5.10888   5.15915
 Alpha virt. eigenvalues --    5.21375   5.24904   5.26914   5.33638   5.36633
 Alpha virt. eigenvalues --    5.40761   5.44532   5.59499   5.71667   5.77039
 Alpha virt. eigenvalues --    5.93877   6.08997   6.42331  10.04251  10.31237
 Alpha virt. eigenvalues --   10.77210  10.90771  11.30218  11.35874  11.54008
 Alpha virt. eigenvalues --   12.06863  12.09725  12.19691  14.02115  18.25920
          Condensed to atoms (all electrons):
               1          2          3          4          5          6
     1  C    5.431875   0.586978  -0.067582  -0.003601  -0.070629  -0.002911
     2  C    0.586978   4.347429   0.328721  -0.051123   0.351071  -0.099577
     3  C   -0.067582   0.328721   5.120820   0.296921  -0.116120   0.275358
     4  N   -0.003601  -0.051123   0.296921   6.627952   0.277197  -0.053137
     5  C   -0.070629   0.351071  -0.116120   0.277197   5.071499   0.265213
     6  N   -0.002911  -0.099577   0.275358  -0.053137   0.265213   6.665468
     7  C   -0.001009  -0.000798  -0.062846   0.007388  -0.032085   0.292766
     8  C    0.000183   0.000655   0.001747  -0.000110   0.001196  -0.029744
     9  N   -0.000000   0.000006  -0.000025   0.000000   0.000008  -0.001579
    10  H    0.338072   0.009393  -0.009602  -0.000063   0.006872  -0.000195
    11  H    0.337664   0.014861   0.005978   0.000001  -0.012597  -0.000222
    12  H    0.000547  -0.039388   0.361203  -0.024511   0.015730  -0.029545
    13  H   -0.000667   0.015280  -0.043924   0.287302  -0.036335   0.003081
    14  H   -0.000102  -0.034746   0.015063  -0.034797   0.359351  -0.017327
    15  H    0.008071   0.012373   0.003669  -0.000174  -0.002676  -0.030349
    16  H    0.000158  -0.001993  -0.013010   0.000028   0.003345  -0.022163
               7          8          9         10         11         12
     1  C   -0.001009   0.000183  -0.000000   0.338072   0.337664   0.000547
     2  C   -0.000798   0.000655   0.000006   0.009393   0.014861  -0.039388
     3  C   -0.062846   0.001747  -0.000025  -0.009602   0.005978   0.361203
     4  N    0.007388  -0.000110   0.000000  -0.000063   0.000001  -0.024511
     5  C   -0.032085   0.001196   0.000008   0.006872  -0.012597   0.015730
     6  N    0.292766  -0.029744  -0.001579  -0.000195  -0.000222  -0.029545
     7  C    5.039835   0.366814  -0.039440  -0.000216  -0.000015  -0.003236
     8  C    0.366814   4.465922   0.932029  -0.000006   0.000001  -0.000013
     9  N   -0.039440   0.932029   6.471124   0.000000  -0.000000  -0.000002
    10  H   -0.000216  -0.000006   0.000000   0.585914  -0.044196   0.000655
    11  H   -0.000015   0.000001  -0.000000  -0.044196   0.578343  -0.000103
    12  H   -0.003236  -0.000013  -0.000002   0.000655  -0.000103   0.600500
    13  H   -0.000520  -0.000022  -0.000000   0.000016   0.000021  -0.001087
    14  H   -0.000354   0.000040   0.000000  -0.000113   0.001662  -0.000848
    15  H    0.328495  -0.019386  -0.000355   0.000931   0.000081  -0.000206
    16  H    0.364127  -0.020257   0.000036  -0.000012  -0.000002   0.008241
              13         14         15         16
     1  C   -0.000667  -0.000102   0.008071   0.000158
     2  C    0.015280  -0.034746   0.012373  -0.001993
     3  C   -0.043924   0.015063   0.003669  -0.013010
     4  N    0.287302  -0.034797  -0.000174   0.000028
     5  C   -0.036335   0.359351  -0.002676   0.003345
     6  N    0.003081  -0.017327  -0.030349  -0.022163
     7  C   -0.000520  -0.000354   0.328495   0.364127
     8  C   -0.000022   0.000040  -0.019386  -0.020257
     9  N   -0.000000   0.000000  -0.000355   0.000036
    10  H    0.000016  -0.000113   0.000931  -0.000012
    11  H    0.000021   0.001662   0.000081  -0.000002
    12  H   -0.001087  -0.000848  -0.000206   0.008241
    13  H    0.551888   0.000278   0.000030  -0.000040
    14  H    0.000278   0.583692   0.000109  -0.000058
    15  H    0.000030   0.000109   0.566120  -0.034213
    16  H   -0.000040  -0.000058  -0.034213   0.541506
 Mulliken charges:
               1
     1  C   -0.557047
     2  C    0.560858
     3  C   -0.096371
     4  N   -0.329276
     5  C   -0.081039
     6  N   -0.215137
     7  C   -0.258907
     8  C    0.300952
     9  N   -0.361802
    10  H    0.112551
    11  H    0.118521
    12  H    0.112062
    13  H    0.224698
    14  H    0.128149
    15  H    0.167480
    16  H    0.174307
 Sum of Mulliken charges =  -0.00000
 Mulliken charges with hydrogens summed into heavy atoms:
               1
     1  C   -0.325974
     2  C    0.560858
     3  C    0.015691
     4  N   -0.104578
     5  C    0.047110
     6  N   -0.215137
     7  C    0.082881
     8  C    0.300952
     9  N   -0.361802
 Electronic spatial extent (au):  <R**2>=           1332.4839
 Charge=             -0.0000 electrons
 Dipole moment (field-independent basis, Debye):
    X=              3.4454    Y=              0.6519    Z=              1.2833  Tot=              3.7340
 Quadrupole moment (field-independent basis, Debye-Ang):
   XX=            -74.9697   YY=            -50.0625   ZZ=            -46.7887
   XY=             -1.8562   XZ=             -5.8634   YZ=              0.4267
 Traceless Quadrupole moment (field-independent basis, Debye-Ang):
   XX=            -17.6960   YY=              7.2111   ZZ=             10.4849
   XY=             -1.8562   XZ=             -5.8634   YZ=              0.4267
 Octapole moment (field-independent basis, Debye-Ang**2):
  XXX=             67.5378  YYY=             -7.7560  ZZZ=              1.7273  XYY=              8.0007
  XXY=              4.2985  XXZ=              6.5394  XZZ=              7.1047  YZZ=             -2.1145
  YYZ=              0.6429  XYZ=              0.3652
 Hexadecapole moment (field-independent basis, Debye-Ang**3):
 XXXX=          -1719.0773 YYYY=           -312.3741 ZZZZ=           -142.4112 XXXY=              2.9672
 XXXZ=            -58.2580 YYYX=            -15.6779 YYYZ=              2.6491 ZZZX=            -10.5991
 ZZZY=              0.8569 XXYY=           -266.9121 XXZZ=           -237.0655 YYZZ=            -80.3425
 XXYZ=             -1.2084 YYXZ=             -2.8508 ZZXY=             -1.8954
 N-N= 3.956663956573D+02 E-N=-1.712778904097D+03  KE= 3.931638854232D+02
 PrsmSu:  requested number of processors reduced to:  13 ShMem   1 Linda.
 Calling FoFJK, ICntrl=      2127 FMM=F ISym2X=0 I1Cent= 0 IOpClX= 0 NMat=1 NMatS=1 NMatT=0.
 ***** Axes restored to original set *****
 -------------------------------------------------------------------
 Center     Atomic                   Forces (Hartrees/Bohr)
 Number     Number              X              Y              Z
 -------------------------------------------------------------------
      1        6          -0.011686076    0.001723244    0.000952291
      2        6          -0.013460806    0.004853824    0.004710330
      3        6          -0.017536081   -0.026143476    0.004676415
      4        7           0.011761225    0.024178221    0.054082126
      5        6          -0.025925797   -0.010729334   -0.026603828
      6        7           0.029730543    0.024726933   -0.062264240
      7        6           0.009793536   -0.036565587    0.039520418
      8        6           0.046863956    0.041072255    0.135854708
      9        7          -0.054037839   -0.052834282   -0.164020360
     10        1           0.000070018   -0.004037309   -0.006941754
     11        1           0.001746347    0.008861854    0.004045437
     12        1           0.007908803    0.009774252   -0.003032787
     13        1           0.010503765    0.005303014    0.001036475
     14        1           0.005875926    0.009644941    0.017614900
     15        1          -0.003640567    0.004622403   -0.000467385
     16        1           0.002033049   -0.004450953    0.000837254
 -------------------------------------------------------------------
 Cartesian Forces:  Max     0.164020360 RMS     0.038408577

 GradGradGradGradGradGradGradGradGradGradGradGradGradGradGradGradGradGrad
 Berny optimization.
 FormGI is forming the generalized inverse of G from B-inverse, IUseBI=4.
 Internal  Forces:  Max     0.180592968 RMS     0.023791446
 Search for a local minimum.
 Step number   1 out of a maximum of   89
 All quantities printed in internal units (Hartrees-Bohrs-Radians)
 Mixed Optimization -- RFO/linear search
 Second derivative matrix not updated -- first step.
 ITU=  0
     Eigenvalues ---    0.00230   0.01396   0.01914   0.02541   0.03228
     Eigenvalues ---    0.03229   0.03442   0.03531   0.03531   0.04463
     Eigenvalues ---    0.04895   0.06356   0.06631   0.07032   0.07336
     Eigenvalues ---    0.07563   0.13468   0.14561   0.16000   0.16000
     Eigenvalues ---    0.16000   0.16000   0.17012   0.19243   0.22359
     Eigenvalues ---    0.22537   0.23086   0.24995   0.25687   0.26511
     Eigenvalues ---    0.27097   0.30366   0.31059   0.34206   0.34218
     Eigenvalues ---    0.34327   0.34402   0.35370   0.36387   0.44555
     Eigenvalues ---    0.63487   0.79314
 RFO step:  Lambda=-9.16455253D-02 EMin= 2.30000000D-03
 Linear search not attempted -- first point.
 Maximum step size (   0.300) exceeded in Quadratic search.
    -- Step size scaled by   0.763
 Iteration  1 RMS(Cart)=  0.09459515 RMS(Int)=  0.00425653
 Iteration  2 RMS(Cart)=  0.00607937 RMS(Int)=  0.00176951
 Iteration  3 RMS(Cart)=  0.00001796 RMS(Int)=  0.00176946
 Iteration  4 RMS(Cart)=  0.00000003 RMS(Int)=  0.00176946
 Variable       Old X    -DE/DX   Delta X   Delta X   Delta X     New X
                                 (Linear)    (Quad)   (Total)
    R1        2.48283   0.00855   0.00000   0.00900   0.00900   2.49183
    R2        2.05078  -0.00046   0.00000  -0.00078  -0.00078   2.05000
    R3        2.06964  -0.00748   0.00000  -0.01316  -0.01316   2.05648
    R4        2.88817   0.00502   0.00000   0.00680   0.00716   2.89533
    R5        2.79261   0.01068   0.00000   0.02125   0.02190   2.81451
    R6        2.88716  -0.02393   0.00000  -0.04538  -0.04435   2.84282
    R7        3.42797  -0.00234   0.00000  -0.00389  -0.00618   3.42179
    R8        2.99815  -0.01422   0.00000  -0.03607  -0.03669   2.96146
    R9        2.03481   0.00953   0.00000   0.01596   0.01596   2.05077
   R10        2.93979  -0.02119   0.00000  -0.04470  -0.04301   2.89678
   R11        1.92496   0.01074   0.00000   0.01526   0.01526   1.94022
   R12        3.11407  -0.01952   0.00000  -0.05038  -0.05071   3.06337
   R13        2.06657  -0.00267   0.00000  -0.00468  -0.00468   2.06189
   R14        2.95514  -0.03319   0.00000  -0.07097  -0.07097   2.88416
   R15        2.87240  -0.03118   0.00000  -0.06019  -0.06019   2.81221
   R16        2.06782   0.00224   0.00000   0.00392   0.00392   2.07175
   R17        2.06984  -0.00370   0.00000  -0.00652  -0.00652   2.06332
   R18        2.38287  -0.18059   0.00000  -0.15574  -0.15574   2.22713
    A1        2.11569   0.00249   0.00000   0.00755   0.00754   2.12323
    A2        2.11181  -0.00113   0.00000  -0.00342  -0.00343   2.10838
    A3        2.05559  -0.00134   0.00000  -0.00404  -0.00405   2.05154
    A4        2.56978  -0.00570   0.00000  -0.01392  -0.01332   2.55646
    A5        2.41802   0.01091   0.00000   0.02307   0.02367   2.44169
    A6        1.43038   0.01965   0.00000   0.07076   0.06999   1.50037
    A7        1.52783   0.00610   0.00000   0.02670   0.02793   1.55576
    A8        2.20759  -0.00575   0.00000   0.00049  -0.00012   2.20747
    A9        1.73821  -0.02985   0.00000  -0.10419  -0.10909   1.62912
   A10        2.17943   0.00714   0.00000   0.01723   0.01543   2.19486
   A11        2.17003   0.00496   0.00000   0.00526   0.00450   2.17453
   A12        1.94739   0.00732   0.00000   0.01118   0.01015   1.95753
   A13        1.90124   0.00898   0.00000   0.02467   0.02413   1.92537
   A14        1.44268   0.01771   0.00000   0.06786   0.06634   1.50902
   A15        1.51848   0.00640   0.00000   0.02761   0.02852   1.54700
   A16        2.20176   0.00580   0.00000   0.04046   0.03976   2.24152
   A17        1.67309  -0.02742   0.00000  -0.09343  -0.09903   1.57405
   A18        2.02243   0.01068   0.00000   0.02996   0.02480   2.04723
   A19        2.35507  -0.00767   0.00000  -0.04443  -0.04574   2.30933
   A20        1.73553  -0.00665   0.00000   0.01460   0.01936   1.75488
   A21        2.34638  -0.01961   0.00000  -0.07445  -0.07422   2.27216
   A22        1.94292  -0.00608   0.00000  -0.01454  -0.01463   1.92829
   A23        1.93121   0.00960   0.00000   0.03000   0.03007   1.96129
   A24        1.88010  -0.00573   0.00000  -0.01954  -0.01959   1.86051
   A25        1.88800   0.00010   0.00000   0.00180   0.00183   1.88983
   A26        1.89424   0.00324   0.00000   0.00540   0.00516   1.89940
   A27        1.92733  -0.00124   0.00000  -0.00358  -0.00346   1.92388
   A28        3.16062  -0.00083   0.00000  -0.00470  -0.00484   3.15578
   A29        3.15643   0.00642   0.00000   0.03911   0.03916   3.19559
   A30        3.14159   0.00151   0.00000   0.00908   0.00908   3.15067
   A31        3.17498   0.00190   0.00000  -0.00849  -0.00855   3.16644
   A32        2.93842   0.00549   0.00000   0.02633   0.02610   2.96452
   A33        3.14160   0.00058   0.00000   0.00347   0.00347   3.14507
    D1       -0.17930   0.00516   0.00000   0.03898   0.03901  -0.14029
    D2        2.93269   0.00854   0.00000   0.04533   0.04530   2.97799
    D3        2.97753   0.00404   0.00000   0.03214   0.03217   3.00969
    D4       -0.19367   0.00743   0.00000   0.03848   0.03846  -0.15521
    D5       -2.27649  -0.01964   0.00000  -0.06978  -0.07063  -2.34711
    D6        2.26048   0.01286   0.00000   0.04459   0.04525   2.30574
    D7       -0.04500   0.00366   0.00000   0.01142   0.01150  -0.03350
    D8        2.29632   0.02010   0.00000   0.06710   0.06852   2.36484
    D9       -2.30600  -0.00965   0.00000  -0.03558  -0.03681  -2.34281
   D10        0.25780  -0.00799   0.00000  -0.03082  -0.03120   0.22660
   D11       -2.65068   0.00171   0.00000   0.02152   0.02500  -2.62568
   D12       -1.14782   0.01606   0.00000   0.07753   0.07372  -1.07410
   D13        1.37567  -0.00913   0.00000  -0.04134  -0.04170   1.33397
   D14       -1.56114   0.01690   0.00000   0.06972   0.06794  -1.49321
   D15       -2.98205  -0.00622   0.00000  -0.01414  -0.01052  -2.99257
   D16        0.77306   0.01760   0.00000   0.09766   0.09674   0.86980
   D17        2.74875  -0.00767   0.00000  -0.05000  -0.05319   2.69556
   D18        1.24423  -0.01986   0.00000  -0.09826  -0.09543   1.14880
   D19       -1.32190   0.01005   0.00000   0.03631   0.03774  -1.28416
   D20        0.60818   0.01303   0.00000   0.10866   0.10909   0.71727
   D21        2.04458   0.03342   0.00000   0.18631   0.18161   2.22619
   D22       -1.86085   0.00153   0.00000   0.04399   0.04744  -1.81341
   D23       -2.84155   0.00416   0.00000   0.02719   0.02549  -2.81606
   D24        1.34155   0.00162   0.00000   0.01441   0.01279   1.35434
   D25       -0.76678   0.00102   0.00000   0.01319   0.01176  -0.75502
   D26        2.24373  -0.00263   0.00000  -0.02763  -0.02616   2.21757
   D27        0.14364  -0.00517   0.00000  -0.04041  -0.03886   0.10479
   D28       -1.96468  -0.00577   0.00000  -0.04163  -0.03989  -2.00458
         Item               Value     Threshold  Converged?
 Maximum Force            0.180593     0.000450     NO 
 RMS     Force            0.023791     0.000300     NO 
 Maximum Displacement     0.348960     0.001800     NO 
 RMS     Displacement     0.095996     0.001200     NO 
 Predicted change in Energy=-5.202231D-02
 GradGradGradGradGradGradGradGradGradGradGradGradGradGradGradGradGradGrad

                          Input orientation:                          
 ---------------------------------------------------------------------
 Center     Atomic      Atomic             Coordinates (Angstroms)
 Number     Number       Type             X           Y           Z
 ---------------------------------------------------------------------
      1          6           0        0.999402    0.300701   -0.020734
      2          6           0        2.288732    0.537030    0.122539
      3          6           0        3.456856    1.478711   -0.187592
      4          7           0        4.227403    0.235168   -0.538216
      5          6           0        3.490021   -0.055283    0.773929
      6          7           0        3.873006    1.421395    1.322195
      7          6           0        2.983245    2.519071    1.899102
      8          6           0        3.500306    2.967807    3.220424
      9          7           0        3.903501    3.332340    4.266141
     10          1           0        0.331417    1.034489   -0.459102
     11          1           0        0.565906   -0.642158    0.306936
     12          1           0        3.413844    2.386444   -0.780782
     13          1           0        5.233872    0.341652   -0.365488
     14          1           0        3.606703   -1.051425    1.203583
     15          1           0        1.945753    2.189704    2.029671
     16          1           0        3.028333    3.356675    1.200135
 ---------------------------------------------------------------------
                    Distance matrix (angstroms):
                    1          2          3          4          5
     1  C    0.000000
     2  C    1.318617   0.000000
     3  C    2.730317   1.532142   0.000000
     4  N    3.269873   2.070305   1.504353   0.000000
     5  C    2.638447   1.489376   1.810735   1.532912   0.000000
     6  N    3.364077   2.175131   1.567138   2.234695   1.621064
     7  C    3.541549   2.750820   2.379274   3.564360   2.854844
     8  C    4.886009   4.119888   3.719390   4.703547   3.889025
     9  N    6.000160   5.252682   4.844705   5.725315   4.882878
    10  H    1.084811   2.101631   3.168505   3.977924   3.561566
    11  H    1.088242   2.095857   3.619425   3.858827   3.018768
    12  H    3.279867   2.345676   1.085220   2.312726   2.895680
    13  H    4.248679   2.991688   2.117153   1.026721   2.120577
    14  H    3.182014   2.329999   2.891264   2.252655   1.091107
    15  H    2.944160   2.546786   2.775824   3.952238   3.000270
    16  H    3.866014   3.107832   2.374062   3.768745   3.469332
                    6          7          8          9         10
     6  N    0.000000
     7  C    1.526234   0.000000
     8  C    2.476604   1.488156   0.000000
     9  N    3.509909   2.666674   1.178548   0.000000
    10  H    3.983160   3.846726   5.226709   6.353568   0.000000
    11  H    4.028140   4.286244   5.489168   6.527747   1.858211
    12  H    2.358953   2.717495   4.044144   5.158091   3.381216
    13  H    2.421998   3.864563   4.770818   5.671516   4.952056
    14  H    2.489944   3.690649   4.498131   5.355814   4.224104
    15  H    2.192060   1.096321   2.107124   3.184366   3.183488
    16  H    2.115108   1.091864   2.110816   3.188558   3.926699
                   11         12         13         14         15
    11  H    0.000000
    12  H    4.297245   0.000000
    13  H    4.817670   2.768781   0.000000
    14  H    3.196548   3.974147   2.655246   0.000000
    15  H    3.590437   3.176893   4.468089   3.734446   0.000000
    16  H    4.780378   2.239196   4.050426   4.445882   1.794973
                   16
    16  H    0.000000
 Stoichiometry    C6H7N3
 Framework group  C1[X(C6H7N3)]
 Deg. of freedom    42
 Full point group                 C1      NOp   1
 Largest Abelian subgroup         C1      NOp   1
 Largest concise Abelian subgroup C1      NOp   1
                         Standard orientation:                         
 ---------------------------------------------------------------------
 Center     Atomic      Atomic             Coordinates (Angstroms)
 Number     Number       Type             X           Y           Z
 ---------------------------------------------------------------------
      1          6           0        2.001018    1.791921   -0.133966
      2          6           0        1.483347    0.582091   -0.049838
      3          6           0        0.924529   -0.506813    0.871829
      4          7           0        1.776654   -1.463037    0.082781
      5          6           0        1.080629   -0.548578   -0.931681
      6          7           0       -0.301547   -0.660312   -0.092067
      7          6           0       -1.218476    0.434907    0.445638
      8          6           0       -2.619244    0.207934   -0.002627
      9          7           0       -3.732174    0.035263   -0.349826
     10          1           0        2.044061    2.453657    0.724561
     11          1           0        2.395380    2.164948   -1.077152
     12          1           0        0.855815   -0.463390    1.954001
     13          1           0        1.371507   -2.405854    0.049522
     14          1           0        1.313836   -0.702351   -1.986425
     15          1           0       -0.910495    1.434917    0.118457
     16          1           0       -1.181452    0.365901    1.534690
 ---------------------------------------------------------------------
 Rotational constants (GHZ):           3.5200398           1.0277150           0.8969970
 Standard basis: 6-31G(2df,p) (6D, 7F)
 There are   314 symmetry adapted cartesian basis functions of A   symmetry.
 There are   287 symmetry adapted basis functions of A   symmetry.
   287 basis functions,   445 primitive gaussians,   314 cartesian basis functions
    32 alpha electrons       32 beta electrons
       nuclear repulsion energy       401.3773300731 Hartrees.
 NAtoms=   16 NActive=   16 NUniq=   16 SFac= 1.00D+00 NAtFMM=   60 NAOKFM=F Big=F
 Integral buffers will be    131072 words long.
 Raffenetti 2 integral format.
 Two-electron integral symmetry is turned on.
 One-electron integrals computed using PRISM.
 PrsmSu:  requested number of processors reduced to:  13 ShMem   1 Linda.
 NBasis=   287 RedAO= T EigKep=  1.51D-04  NBF=   287
 NBsUse=   287 1.00D-06 EigRej= -1.00D+00 NBFU=   287
 Initial guess from the checkpoint file:  "CdC1C2NC1N2CCtN.chk"
 B after Tr=    -0.000000    0.000000   -0.000000
         Rot=    0.999847    0.006290   -0.001577    0.016221 Ang=   2.00 deg.
 ExpMin= 1.61D-01 ExpMax= 4.17D+03 ExpMxC= 6.27D+02 IAcc=2 IRadAn=         4 AccDes= 0.00D+00
 Harris functional with IExCor=  402 and IRadAn=       4 diagonalized for initial guess.
 HarFok:  IExCor=  402 AccDes= 0.00D+00 IRadAn=         4 IDoV= 1 UseB2=F ITyADJ=14
 ICtDFT=  3500011 ScaDFX=  1.000000  1.000000  1.000000  1.000000
 FoFCou: FMM=F IPFlag=           0 FMFlag=      100000 FMFlg1=           0
         NFxFlg=           0 DoJE=T BraDBF=F KetDBF=T FulRan=T
         wScrn=  0.000000 ICntrl=       500 IOpCl=  0 I1Cent=   200000004 NGrid=           0
         NMat0=    1 NMatS0=      1 NMatT0=    0 NMatD0=    1 NMtDS0=    0 NMtDT0=    0
 Petite list used in FoFCou.
 Requested convergence on RMS density matrix=1.00D-08 within 128 cycles.
 Requested convergence on MAX density matrix=1.00D-06.
 Requested convergence on             energy=1.00D-06.
 No special actions if energy rises.
 Integral accuracy reduced to 1.0D-05 until final iterations.
 Initial convergence to 1.0D-05 achieved.  Increase integral accuracy.
 SCF Done:  E(RB3LYP) =  -396.917896210     A.U. after   13 cycles
            NFock= 13  Conv=0.57D-08     -V/T= 2.0083
 PrsmSu:  requested number of processors reduced to:  13 ShMem   1 Linda.
 Calling FoFJK, ICntrl=      2127 FMM=F ISym2X=0 I1Cent= 0 IOpClX= 0 NMat=1 NMatS=1 NMatT=0.
 ***** Axes restored to original set *****
 -------------------------------------------------------------------
 Center     Atomic                   Forces (Hartrees/Bohr)
 Number     Number              X              Y              Z
 -------------------------------------------------------------------
      1        6          -0.002473583    0.003788149    0.001280512
      2        6           0.000260513    0.000294804   -0.002767151
      3        6          -0.000501201   -0.017576049    0.004936056
      4        7          -0.007801101    0.004703792    0.023631512
      5        6          -0.004268062   -0.005354006   -0.017944802
      6        7           0.002818335    0.022285082   -0.047662615
      7        6           0.009084977   -0.027937772    0.033316420
      8        6           0.013077399    0.011486987    0.034080529
      9        7          -0.017884091   -0.016006217   -0.045880810
     10        1           0.000742666   -0.002930023   -0.005161351
     11        1           0.000075138    0.004521812    0.003963564
     12        1           0.007919626    0.005290475    0.000170351
     13        1          -0.001198548    0.005997577    0.004218348
     14        1           0.003112511    0.007997515    0.014739662
     15        1          -0.002407238    0.003624163   -0.001990474
     16        1          -0.000557341   -0.000186289    0.001070249
 -------------------------------------------------------------------
 Cartesian Forces:  Max     0.047662615 RMS     0.015001265

 GradGradGradGradGradGradGradGradGradGradGradGradGradGradGradGradGradGrad
 Berny optimization.
 Using GEDIIS/GDIIS optimizer.
 FormGI is forming the generalized inverse of G from B-inverse, IUseBI=4.
 Internal  Forces:  Max     0.051779105 RMS     0.008663443
 Search for a local minimum.
 Step number   2 out of a maximum of   89
 All quantities printed in internal units (Hartrees-Bohrs-Radians)
 Mixed Optimization -- RFO/linear search
 Update second derivatives using D2CorX and points    1    2
 DE= -5.09D-02 DEPred=-5.20D-02 R= 9.78D-01
 TightC=F SS=  1.41D+00  RLast= 4.45D-01 DXNew= 5.0454D-01 1.3346D+00
 Trust test= 9.78D-01 RLast= 4.45D-01 DXMaxT set to 5.05D-01
 ITU=  1  0
 Use linear search instead of GDIIS.
     Eigenvalues ---    0.00230   0.01409   0.02186   0.02648   0.03225
     Eigenvalues ---    0.03230   0.03531   0.03532   0.03591   0.04700
     Eigenvalues ---    0.04958   0.06175   0.06875   0.06941   0.06990
     Eigenvalues ---    0.07631   0.13302   0.15283   0.15959   0.16000
     Eigenvalues ---    0.16000   0.16071   0.17945   0.19776   0.22417
     Eigenvalues ---    0.22746   0.23160   0.24679   0.25700   0.26256
     Eigenvalues ---    0.26936   0.30323   0.31376   0.34208   0.34228
     Eigenvalues ---    0.34326   0.34401   0.35370   0.36374   0.44692
     Eigenvalues ---    0.63533   0.78235
 RFO step:  Lambda=-2.00970404D-02 EMin= 2.29824135D-03
 Quartic linear search produced a step of  0.51894.
 Iteration  1 RMS(Cart)=  0.12298414 RMS(Int)=  0.02251659
 Iteration  2 RMS(Cart)=  0.05243146 RMS(Int)=  0.00490715
 Iteration  3 RMS(Cart)=  0.00138192 RMS(Int)=  0.00482179
 Iteration  4 RMS(Cart)=  0.00000980 RMS(Int)=  0.00482178
 Iteration  5 RMS(Cart)=  0.00000013 RMS(Int)=  0.00482178
 Variable       Old X    -DE/DX   Delta X   Delta X   Delta X     New X
                                 (Linear)    (Quad)   (Total)
    R1        2.49183   0.00062   0.00467  -0.00416   0.00051   2.49233
    R2        2.05000  -0.00035  -0.00040  -0.00081  -0.00122   2.04878
    R3        2.05648  -0.00275  -0.00683  -0.00155  -0.00838   2.04810
    R4        2.89533  -0.00009   0.00371  -0.00912  -0.00383   2.89149
    R5        2.81451   0.00253   0.01136   0.00573   0.02074   2.83525
    R6        2.84282  -0.01592  -0.02301  -0.02957  -0.05075   2.79207
    R7        3.42179  -0.00466  -0.00321  -0.00089   0.00082   3.42261
    R8        2.96146  -0.00655  -0.01904  -0.02718  -0.05278   2.90868
    R9        2.05077   0.00402   0.00828   0.00389   0.01217   2.06294
   R10        2.89678  -0.01555  -0.02232  -0.04923  -0.07053   2.82626
   R11        1.94022   0.00016   0.00792  -0.00972  -0.00180   1.93842
   R12        3.06337  -0.01085  -0.02631  -0.04726  -0.08049   2.98287
   R13        2.06189  -0.00116  -0.00243  -0.00127  -0.00370   2.05819
   R14        2.88416  -0.01385  -0.03683  -0.01490  -0.05173   2.83243
   R15        2.81221  -0.01351  -0.03123  -0.01552  -0.04676   2.76545
   R16        2.07175   0.00095   0.00204   0.00098   0.00301   2.07476
   R17        2.06332  -0.00085  -0.00338   0.00129  -0.00210   2.06123
   R18        2.22713  -0.05178  -0.08082  -0.00003  -0.08085   2.14628
    A1        2.12323   0.00080   0.00392  -0.00074   0.00317   2.12640
    A2        2.10838  -0.00028  -0.00178   0.00100  -0.00079   2.10759
    A3        2.05154  -0.00051  -0.00210  -0.00027  -0.00237   2.04917
    A4        2.55646  -0.00422  -0.00691  -0.01527  -0.02269   2.53377
    A5        2.44169   0.00688   0.01228   0.01439   0.02618   2.46786
    A6        1.50037   0.00307   0.03632  -0.03663  -0.00284   1.49753
    A7        1.55576   0.00216   0.01450  -0.01132   0.00042   1.55618
    A8        2.20747   0.00009  -0.00006   0.03435   0.03582   2.24329
    A9        1.62912  -0.00983  -0.05661   0.01114  -0.05009   1.57903
   A10        2.19486   0.00395   0.00800   0.01203   0.01816   2.21302
   A11        2.17453  -0.00038   0.00234  -0.01909  -0.01505   2.15948
   A12        1.95753  -0.00432   0.00526  -0.05699  -0.05447   1.90306
   A13        1.92537  -0.00231   0.01252  -0.04050  -0.03007   1.89530
   A14        1.50902   0.00229   0.03443  -0.03495  -0.00391   1.50511
   A15        1.54700   0.00287   0.01480  -0.00888   0.00246   1.54946
   A16        2.24152   0.00716   0.02064   0.05100   0.07183   2.31335
   A17        1.57405  -0.00817  -0.05139   0.02342  -0.03264   1.54141
   A18        2.04723   0.00429   0.01287   0.03406   0.04113   2.08836
   A19        2.30933  -0.00866  -0.02374  -0.06263  -0.08371   2.22562
   A20        1.75488   0.00608   0.01004   0.13936   0.17320   1.92808
   A21        2.27216  -0.00834  -0.03852  -0.08210  -0.12639   2.14577
   A22        1.92829  -0.00071  -0.00759   0.01006   0.00232   1.93061
   A23        1.96129   0.00461   0.01561   0.00869   0.02425   1.98554
   A24        1.86051   0.00002  -0.01017   0.01602   0.00582   1.86633
   A25        1.88983  -0.00068   0.00095  -0.00163  -0.00083   1.88901
   A26        1.89940  -0.00023   0.00268  -0.00596  -0.00342   1.89598
   A27        1.92388  -0.00314  -0.00179  -0.02778  -0.02951   1.89437
   A28        3.15578  -0.00177  -0.00251  -0.01702  -0.01866   3.13712
   A29        3.19559   0.00757   0.02032   0.04441   0.06461   3.26020
   A30        3.15067   0.00012   0.00471  -0.01490  -0.01018   3.14049
   A31        3.16644  -0.00199  -0.00444  -0.03696  -0.04424   3.12220
   A32        2.96452   0.00446   0.01355   0.05386   0.06825   3.03278
   A33        3.14507   0.00029   0.00180   0.00060   0.00240   3.14747
    D1       -0.14029   0.00548   0.02024   0.07210   0.09275  -0.04754
    D2        2.97799   0.00488   0.02351   0.03942   0.06251   3.04050
    D3        3.00969   0.00502   0.01669   0.07352   0.09062   3.10031
    D4       -0.15521   0.00442   0.01996   0.04083   0.06038  -0.09483
    D5       -2.34711  -0.00639  -0.03665  -0.00369  -0.04130  -2.38842
    D6        2.30574   0.00367   0.02348  -0.01638   0.00890   2.31464
    D7       -0.03350   0.00197   0.00597  -0.00154   0.00439  -0.02911
    D8        2.36484   0.00647   0.03556  -0.00439   0.03323   2.39807
    D9       -2.34281  -0.00196  -0.01910   0.02047   0.00044  -2.34237
   D10        0.22660  -0.00447  -0.01619  -0.04084  -0.05872   0.16788
   D11       -2.62568   0.00177   0.01297  -0.00383   0.01194  -2.61375
   D12       -1.07410   0.00483   0.03825  -0.01819   0.01590  -1.05820
   D13        1.33397  -0.00346  -0.02164  -0.02381  -0.04654   1.28744
   D14       -1.49321   0.01035   0.03525   0.14235   0.17105  -1.32216
   D15       -2.99257   0.00695  -0.00546   0.17994   0.17301  -2.81956
   D16        0.86980   0.01230   0.05020   0.16624   0.21094   1.08073
   D17        2.69556  -0.00564  -0.02760  -0.02200  -0.05267   2.64288
   D18        1.14880  -0.00902  -0.04952  -0.01148  -0.05726   1.09154
   D19       -1.28416   0.00596   0.01959   0.02926   0.05116  -1.23300
   D20        0.71727   0.01571   0.05661   0.24153   0.29862   1.01589
   D21        2.22619   0.01820   0.09424   0.20597   0.29539   2.52158
   D22       -1.81341   0.00893   0.02462   0.23993   0.26797  -1.54544
   D23       -2.81606   0.00372   0.01323   0.02345   0.02534  -2.79072
   D24        1.35434   0.00194   0.00664   0.01249   0.00771   1.36205
   D25       -0.75502   0.00307   0.00610   0.03107   0.02591  -0.72911
   D26        2.21757  -0.00483  -0.01357  -0.12103  -0.12327   2.09430
   D27        0.10479  -0.00661  -0.02016  -0.13200  -0.14090  -0.03612
   D28       -2.00458  -0.00548  -0.02070  -0.11342  -0.12270  -2.12727
         Item               Value     Threshold  Converged?
 Maximum Force            0.051779     0.000450     NO 
 RMS     Force            0.008663     0.000300     NO 
 Maximum Displacement     0.466692     0.001800     NO 
 RMS     Displacement     0.147893     0.001200     NO 
 Predicted change in Energy=-2.753425D-02
 GradGradGradGradGradGradGradGradGradGradGradGradGradGradGradGradGradGrad

                          Input orientation:                          
 ---------------------------------------------------------------------
 Center     Atomic      Atomic             Coordinates (Angstroms)
 Number     Number       Type             X           Y           Z
 ---------------------------------------------------------------------
      1          6           0        0.993952    0.349337   -0.074646
      2          6           0        2.286006    0.563617    0.080730
      3          6           0        3.464029    1.464541   -0.295888
      4          7           0        4.228160    0.211259   -0.464389
      5          6           0        3.481225    0.037803    0.819664
      6          7           0        3.864253    1.523839    1.189193
      7          6           0        2.946996    2.438575    1.943164
      8          6           0        3.568662    2.875341    3.193901
      9          7           0        4.047292    3.211852    4.167363
     10          1           0        0.370092    1.015579   -0.659742
     11          1           0        0.514236   -0.505163    0.388327
     12          1           0        3.472696    2.330116   -0.961041
     13          1           0        5.214794    0.389187   -0.247367
     14          1           0        3.641159   -0.857138    1.419452
     15          1           0        1.973376    1.990655    2.181598
     16          1           0        2.781370    3.312921    1.312423
 ---------------------------------------------------------------------
                    Distance matrix (angstroms):
                    1          2          3          4          5
     1  C    0.000000
     2  C    1.318886   0.000000
     3  C    2.719175   1.530112   0.000000
     4  N    3.260532   2.047749   1.477500   0.000000
     5  C    2.661460   1.500351   1.811168   1.495590   0.000000
     6  N    3.348936   2.154433   1.539208   2.142342   1.578469
     7  C    3.500122   2.724157   2.495880   3.521169   2.703952
     8  C    4.867569   4.084251   3.765625   4.573331   3.700847
     9  N    5.959154   5.178402   4.828447   5.521721   4.647807
    10  H    1.084166   2.103162   3.147444   3.945856   3.581038
    11  H    1.083809   2.091907   3.612363   3.877321   3.046947
    12  H    3.294442   2.369396   1.091661   2.303681   2.902702
    13  H    4.224562   2.952266   2.055217   1.025769   2.065741
    14  H    3.270416   2.376376   2.892051   2.243858   1.089149
    15  H    2.956998   2.558871   2.938840   3.905324   2.818174
    16  H    3.728492   3.053051   2.543461   3.856238   3.385115
                    6          7          8          9         10
     6  N    0.000000
     7  C    1.498857   0.000000
     8  C    2.435731   1.463413   0.000000
     9  N    3.428175   2.599167   1.135761   0.000000
    10  H    3.985731   3.929436   5.342296   6.453399   0.000000
    11  H    3.997605   4.123279   5.350568   6.370228   1.852534
    12  H    2.329572   2.953393   4.191662   5.235279   3.383036
    13  H    2.274885   3.760495   4.553354   5.368458   4.902402
    14  H    2.402466   3.408498   4.133440   4.926727   4.304648
    15  H    2.185909   1.097915   2.086232   3.120210   3.405071
    16  H    2.094907   1.090755   2.085969   3.124653   3.870591
                   11         12         13         14         15
    11  H    0.000000
    12  H    4.314172   0.000000
    13  H    4.826926   2.703967   0.000000
    14  H    3.311307   3.981672   2.609203   0.000000
    15  H    3.402061   3.498482   4.355613   3.387077   0.000000
    16  H    4.535594   2.571474   4.111291   4.259117   1.776712
                   16
    16  H    0.000000
 Stoichiometry    C6H7N3
 Framework group  C1[X(C6H7N3)]
 Deg. of freedom    42
 Full point group                 C1      NOp   1
 Largest Abelian subgroup         C1      NOp   1
 Largest concise Abelian subgroup C1      NOp   1
                         Standard orientation:                         
 ---------------------------------------------------------------------
 Center     Atomic      Atomic             Coordinates (Angstroms)
 Number     Number       Type             X           Y           Z
 ---------------------------------------------------------------------
      1          6           0        2.060781    1.732979   -0.145060
      2          6           0        1.501472    0.541479   -0.061620
      3          6           0        1.000764   -0.547200    0.889859
      4          7           0        1.655524   -1.500221   -0.029948
      5          6           0        0.924703   -0.545751   -0.919711
      6          7           0       -0.300365   -0.632032    0.071918
      7          6           0       -1.187421    0.537448    0.375267
      8          6           0       -2.571540    0.245160    0.000622
      9          7           0       -3.645600    0.022242   -0.293753
     10          1           0        2.297335    2.316723    0.737380
     11          1           0        2.296569    2.168280   -1.109196
     12          1           0        1.033080   -0.564289    1.980908
     13          1           0        1.142850   -2.388504   -0.011988
     14          1           0        0.919281   -0.709312   -1.996495
     15          1           0       -0.884001    1.465048   -0.127638
     16          1           0       -1.144580    0.697448    1.453373
 ---------------------------------------------------------------------
 Rotational constants (GHZ):           3.5565669           1.0686173           0.9266383
 Standard basis: 6-31G(2df,p) (6D, 7F)
 There are   314 symmetry adapted cartesian basis functions of A   symmetry.
 There are   287 symmetry adapted basis functions of A   symmetry.
   287 basis functions,   445 primitive gaussians,   314 cartesian basis functions
    32 alpha electrons       32 beta electrons
       nuclear repulsion energy       406.5494999895 Hartrees.
 NAtoms=   16 NActive=   16 NUniq=   16 SFac= 1.00D+00 NAtFMM=   60 NAOKFM=F Big=F
 Integral buffers will be    131072 words long.
 Raffenetti 2 integral format.
 Two-electron integral symmetry is turned on.
 One-electron integrals computed using PRISM.
 PrsmSu:  requested number of processors reduced to:  13 ShMem   1 Linda.
 NBasis=   287 RedAO= T EigKep=  1.37D-04  NBF=   287
 NBsUse=   287 1.00D-06 EigRej= -1.00D+00 NBFU=   287
 Initial guess from the checkpoint file:  "CdC1C2NC1N2CCtN.chk"
 B after Tr=     0.000000    0.000000    0.000000
         Rot=    0.999870    0.003608   -0.010011    0.012123 Ang=   1.85 deg.
 ExpMin= 1.61D-01 ExpMax= 4.17D+03 ExpMxC= 6.27D+02 IAcc=2 IRadAn=         4 AccDes= 0.00D+00
 Harris functional with IExCor=  402 and IRadAn=       4 diagonalized for initial guess.
 HarFok:  IExCor=  402 AccDes= 0.00D+00 IRadAn=         4 IDoV= 1 UseB2=F ITyADJ=14
 ICtDFT=  3500011 ScaDFX=  1.000000  1.000000  1.000000  1.000000
 FoFCou: FMM=F IPFlag=           0 FMFlag=      100000 FMFlg1=           0
         NFxFlg=           0 DoJE=T BraDBF=F KetDBF=T FulRan=T
         wScrn=  0.000000 ICntrl=       500 IOpCl=  0 I1Cent=   200000004 NGrid=           0
         NMat0=    1 NMatS0=      1 NMatT0=    0 NMatD0=    1 NMtDS0=    0 NMtDT0=    0
 Petite list used in FoFCou.
 Requested convergence on RMS density matrix=1.00D-08 within 128 cycles.
 Requested convergence on MAX density matrix=1.00D-06.
 Requested convergence on             energy=1.00D-06.
 No special actions if energy rises.
 Integral accuracy reduced to 1.0D-05 until final iterations.
 Initial convergence to 1.0D-05 achieved.  Increase integral accuracy.
 SCF Done:  E(RB3LYP) =  -396.942608142     A.U. after   13 cycles
            NFock= 13  Conv=0.47D-08     -V/T= 2.0073
 PrsmSu:  requested number of processors reduced to:  13 ShMem   1 Linda.
 Calling FoFJK, ICntrl=      2127 FMM=F ISym2X=0 I1Cent= 0 IOpClX= 0 NMat=1 NMatS=1 NMatT=0.
 ***** Axes restored to original set *****
 -------------------------------------------------------------------
 Center     Atomic                   Forces (Hartrees/Bohr)
 Number     Number              X              Y              Z
 -------------------------------------------------------------------
      1        6          -0.000056876    0.003452785    0.001358736
      2        6          -0.006983474   -0.000134498   -0.002276653
      3        6          -0.012948991   -0.000931067    0.007186889
      4        7           0.011564215   -0.004929142   -0.002727049
      5        6           0.001776390    0.001279797   -0.004366211
      6        7          -0.003659853    0.006341123   -0.013270672
      7        6           0.006635372   -0.013934127    0.007258430
      8        6          -0.018960676   -0.015277839   -0.041177241
      9        7           0.020243249    0.014731620    0.042232029
     10        1           0.000785736   -0.001738242   -0.002546008
     11        1          -0.000775214    0.001146030    0.001968687
     12        1           0.005374903   -0.000349868    0.001260388
     13        1           0.001307632    0.001849059    0.001169814
     14        1          -0.001323942    0.005199774    0.007232194
     15        1          -0.001121098    0.001071748   -0.003139625
     16        1          -0.001857374    0.002222846   -0.000163709
 -------------------------------------------------------------------
 Cartesian Forces:  Max     0.042232029 RMS     0.011041087

 GradGradGradGradGradGradGradGradGradGradGradGradGradGradGradGradGradGrad
 Berny optimization.
 Using GEDIIS/GDIIS optimizer.
 FormGI is forming the generalized inverse of G from B-inverse, IUseBI=4.
 Internal  Forces:  Max     0.049092614 RMS     0.006259210
 Search for a local minimum.
 Step number   3 out of a maximum of   89
 All quantities printed in internal units (Hartrees-Bohrs-Radians)
 Mixed Optimization -- RFO/linear search
 Update second derivatives using D2CorX and points    2    3
 DE= -2.47D-02 DEPred=-2.75D-02 R= 8.97D-01
 TightC=F SS=  1.41D+00  RLast= 7.47D-01 DXNew= 8.4853D-01 2.2398D+00
 Trust test= 8.97D-01 RLast= 7.47D-01 DXMaxT set to 8.49D-01
 ITU=  1  1  0
 Use linear search instead of GDIIS.
     Eigenvalues ---    0.00231   0.01425   0.02651   0.02811   0.03229
     Eigenvalues ---    0.03230   0.03531   0.03535   0.03613   0.04376
     Eigenvalues ---    0.04943   0.05718   0.06575   0.06785   0.06868
     Eigenvalues ---    0.07578   0.12610   0.15399   0.15930   0.16000
     Eigenvalues ---    0.16001   0.16062   0.17377   0.19592   0.22168
     Eigenvalues ---    0.22533   0.23250   0.24647   0.26039   0.26304
     Eigenvalues ---    0.28005   0.30421   0.31517   0.34206   0.34251
     Eigenvalues ---    0.34328   0.34399   0.35370   0.36399   0.44738
     Eigenvalues ---    0.63541   1.03325
 RFO step:  Lambda=-1.14307364D-02 EMin= 2.31105449D-03
 Quartic linear search produced a step of  0.22931.
 Iteration  1 RMS(Cart)=  0.09394441 RMS(Int)=  0.00649977
 Iteration  2 RMS(Cart)=  0.01000178 RMS(Int)=  0.00244335
 Iteration  3 RMS(Cart)=  0.00005055 RMS(Int)=  0.00244313
 Iteration  4 RMS(Cart)=  0.00000007 RMS(Int)=  0.00244313
 Variable       Old X    -DE/DX   Delta X   Delta X   Delta X     New X
                                 (Linear)    (Quad)   (Total)
    R1        2.49233  -0.00053   0.00012  -0.00090  -0.00079   2.49154
    R2        2.04878  -0.00015  -0.00028  -0.00035  -0.00063   2.04815
    R3        2.04810   0.00028  -0.00192   0.00160  -0.00032   2.04778
    R4        2.89149   0.00088  -0.00088  -0.00497  -0.00535   2.88614
    R5        2.83525   0.00464   0.00476   0.01834   0.02494   2.86019
    R6        2.79207   0.00529  -0.01164   0.03683   0.02605   2.81812
    R7        3.42261  -0.00366   0.00019  -0.02390  -0.02047   3.40214
    R8        2.90868  -0.00238  -0.01210  -0.01220  -0.02748   2.88120
    R9        2.06294  -0.00100   0.00279  -0.00407  -0.00128   2.06166
   R10        2.82626   0.00492  -0.01617   0.02404   0.00739   2.83364
   R11        1.93842   0.00183  -0.00041   0.00482   0.00440   1.94283
   R12        2.98287  -0.00763  -0.01846  -0.03806  -0.05981   2.92306
   R13        2.05819  -0.00048  -0.00085  -0.00124  -0.00209   2.05611
   R14        2.83243  -0.00733  -0.01186  -0.02571  -0.03757   2.79486
   R15        2.76545   0.00128  -0.01072   0.00867  -0.00205   2.76340
   R16        2.07476  -0.00012   0.00069  -0.00066   0.00003   2.07479
   R17        2.06123   0.00216  -0.00048   0.00712   0.00664   2.06787
   R18        2.14628   0.04909  -0.01854   0.07562   0.05708   2.20336
    A1        2.12640  -0.00033   0.00073  -0.00247  -0.00178   2.12462
    A2        2.10759   0.00040  -0.00018   0.00276   0.00253   2.11013
    A3        2.04917  -0.00007  -0.00054  -0.00020  -0.00079   2.04838
    A4        2.53377  -0.00136  -0.00520  -0.00337  -0.00907   2.52470
    A5        2.46786   0.00433   0.00600   0.01661   0.02200   2.48987
    A6        1.49753   0.00537  -0.00065   0.04331   0.04124   1.53877
    A7        1.55618   0.00144   0.00010   0.01044   0.00886   1.56504
    A8        2.24329  -0.00043   0.00821   0.02421   0.03331   2.27660
    A9        1.57903  -0.00287  -0.01149  -0.03132  -0.04446   1.53458
   A10        2.21302  -0.00182   0.00416  -0.02146  -0.02043   2.19259
   A11        2.15948  -0.00061  -0.00345  -0.01905  -0.02196   2.13752
   A12        1.90306   0.00093  -0.01249  -0.00642  -0.02139   1.88167
   A13        1.89530   0.00065  -0.00689  -0.00278  -0.01112   1.88419
   A14        1.50511   0.00425  -0.00090   0.03981   0.03733   1.54245
   A15        1.54946   0.00204   0.00056   0.01172   0.01000   1.55946
   A16        2.31335   0.00091   0.01647  -0.00014   0.01442   2.32777
   A17        1.54141  -0.00080  -0.00749  -0.01684  -0.02610   1.51531
   A18        2.08836   0.00005   0.00943   0.03383   0.04004   2.12840
   A19        2.22562  -0.00469  -0.01920  -0.05152  -0.06864   2.15698
   A20        1.92808   0.00205   0.03972   0.05541   0.10524   2.03331
   A21        2.14577  -0.00420  -0.02898  -0.04638  -0.07643   2.06934
   A22        1.93061  -0.00115   0.00053  -0.00350  -0.00300   1.92761
   A23        1.98554  -0.00069   0.00556  -0.00896  -0.00341   1.98213
   A24        1.86633   0.00259   0.00133   0.01460   0.01593   1.88226
   A25        1.88901   0.00151  -0.00019   0.01230   0.01207   1.90108
   A26        1.89598  -0.00003  -0.00078   0.00382   0.00300   1.89898
   A27        1.89437  -0.00226  -0.00677  -0.01828  -0.02502   1.86934
   A28        3.13712  -0.00153  -0.00428  -0.00891  -0.01439   3.12272
   A29        3.26020   0.00138   0.01482  -0.00143   0.01153   3.27173
   A30        3.14049   0.00067  -0.00234   0.01872   0.01639   3.15688
   A31        3.12220  -0.00200  -0.01014  -0.03771  -0.04984   3.07236
   A32        3.03278   0.00391   0.01565   0.06514   0.08179   3.11457
   A33        3.14747   0.00067   0.00055   0.01591   0.01646   3.16393
    D1       -0.04754   0.00376   0.02127   0.07048   0.09198   0.04444
    D2        3.04050   0.00177   0.01434   0.04303   0.05714   3.09764
    D3        3.10031   0.00309   0.02078   0.05321   0.07422  -3.10865
    D4       -0.09483   0.00109   0.01385   0.02576   0.03938  -0.05546
    D5       -2.38842  -0.00193  -0.00947  -0.03747  -0.04702  -2.43543
    D6        2.31464   0.00114   0.00204  -0.00463  -0.00163   2.31301
    D7       -0.02911   0.00079   0.00101  -0.00610  -0.00478  -0.03389
    D8        2.39807   0.00179   0.00762   0.03118   0.04009   2.43816
    D9       -2.34237   0.00077   0.00010   0.01276   0.01295  -2.32943
   D10        0.16788  -0.00356  -0.01347  -0.06354  -0.07795   0.08993
   D11       -2.61375   0.00135   0.00274   0.02846   0.03148  -2.58226
   D12       -1.05820   0.00306   0.00365   0.04164   0.04213  -1.01607
   D13        1.28744  -0.00221  -0.01067  -0.03506  -0.04475   1.24269
   D14       -1.32216   0.00540   0.03922   0.06173   0.09786  -1.22430
   D15       -2.81956  -0.00003   0.03967   0.01784   0.05630  -2.76326
   D16        1.08073   0.00576   0.04837   0.09219   0.13711   1.21784
   D17        2.64288  -0.00223  -0.01208  -0.04138  -0.05523   2.58765
   D18        1.09154  -0.00421  -0.01313  -0.05310  -0.06490   1.02664
   D19       -1.23300   0.00224   0.01173   0.00739   0.02226  -1.21074
   D20        1.01589   0.00451   0.06848   0.08437   0.15364   1.16953
   D21        2.52158   0.00872   0.06774   0.12421   0.19097   2.71256
   D22       -1.54544   0.00549   0.06145   0.12693   0.18822  -1.35721
   D23       -2.79072  -0.00062   0.00581  -0.05731  -0.05743  -2.84815
   D24        1.36205  -0.00122   0.00177  -0.06430  -0.06850   1.29355
   D25       -0.72911   0.00025   0.00594  -0.04603  -0.04601  -0.77512
   D26        2.09430  -0.00185  -0.02827  -0.08070  -0.10302   1.99128
   D27       -0.03612  -0.00245  -0.03231  -0.08769  -0.11409  -0.15021
   D28       -2.12727  -0.00098  -0.02814  -0.06942  -0.09160  -2.21887
         Item               Value     Threshold  Converged?
 Maximum Force            0.049093     0.000450     NO 
 RMS     Force            0.006259     0.000300     NO 
 Maximum Displacement     0.321355     0.001800     NO 
 RMS     Displacement     0.096826     0.001200     NO 
 Predicted change in Energy=-8.169870D-03
 GradGradGradGradGradGradGradGradGradGradGradGradGradGradGradGradGradGrad

                          Input orientation:                          
 ---------------------------------------------------------------------
 Center     Atomic      Atomic             Coordinates (Angstroms)
 Number     Number       Type             X           Y           Z
 ---------------------------------------------------------------------
      1          6           0        0.967514    0.355310   -0.104345
      2          6           0        2.259663    0.565905    0.051735
      3          6           0        3.438612    1.441912   -0.366932
      4          7           0        4.275376    0.208529   -0.417130
      5          6           0        3.466747    0.107821    0.841629
      6          7           0        3.839097    1.587278    1.096996
      7          6           0        2.946622    2.404490    1.947306
      8          6           0        3.628698    2.788580    3.182480
      9          7           0        4.149339    3.106453    4.176145
     10          1           0        0.373034    0.944433   -0.792982
     11          1           0        0.460326   -0.426622    0.448477
     12          1           0        3.487671    2.272301   -1.072833
     13          1           0        5.235359    0.468988   -0.157162
     14          1           0        3.627284   -0.687084    1.567020
     15          1           0        2.003473    1.903599    2.202328
     16          1           0        2.689486    3.310427    1.390009
 ---------------------------------------------------------------------
                    Distance matrix (angstroms):
                    1          2          3          4          5
     1  C    0.000000
     2  C    1.318468   0.000000
     3  C    2.712190   1.527282   0.000000
     4  N    3.325857   2.100155   1.491283   0.000000
     5  C    2.683707   1.513547   1.800335   1.499499   0.000000
     6  N    3.347679   2.151833   1.524665   2.093768   1.546819
     7  C    3.510737   2.728644   2.554273   3.489755   2.601488
     8  C    4.879131   4.076286   3.801049   4.475717   3.562622
     9  N    6.001282   5.199617   4.890335   5.432497   4.536157
    10  H    1.083833   2.101476   3.134768   3.988871   3.597629
    11  H    1.083638   2.092876   3.609224   3.963243   3.078760
    12  H    3.311195   2.384207   1.090985   2.304252   2.889736
    13  H    4.269685   2.984594   2.053993   1.028100   2.063011
    14  H    3.309746   2.395091   2.882428   2.271343   1.088044
    15  H    2.964987   2.545606   2.978905   3.859581   2.686539
    16  H    3.732425   3.083525   2.671962   3.924611   3.340889
                    6          7          8          9         10
     6  N    0.000000
     7  C    1.478978   0.000000
     8  C    2.415914   1.462329   0.000000
     9  N    3.447507   2.628118   1.165968   0.000000
    10  H    3.999858   4.032902   5.459351   6.605076   0.000000
    11  H    3.986535   4.055040   5.277393   6.323523   1.851657
    12  H    2.302371   3.071066   4.288837   5.355874   3.397428
    13  H    2.184727   3.662414   4.372079   5.187795   4.926715
    14  H    2.332062   3.188377   3.832748   4.633681   4.338387
    15  H    2.165949   1.097934   2.094098   3.153974   3.542628
    16  H    2.092058   1.094267   2.089831   3.152036   3.966021
[...]

 Dipole orientation:
     6          1.61824191         -0.68736180         -0.89965449
     6          3.80753775         -1.23169704         -1.95688115
     6          6.23208187         -2.71980662         -1.58423351
     7          7.58575504         -0.56743577         -2.85459524
     6          5.26906213         -1.09362939         -4.42147318
     7          5.85594526         -3.92423508         -4.19339754
     6          3.77404892         -5.74755812         -4.50422359
     6          3.23443762         -6.11498942         -7.19222240
     7          2.78263711         -6.37329174         -9.31219805
     1          1.19163143         -1.26316771          1.01966740
     1          0.19924946          0.40408161         -1.89553365
     1          6.98049500         -3.76233881          0.02589203
     1          9.09436496         -1.33434915         -3.80841854
     1          4.86214594         -0.18658478         -6.22269849
     1          2.01247904         -5.18700465         -3.54679010
     1          4.38407699         -7.55344713         -3.69564410

 Electric dipole moment (dipole orientation):
 (Debye = 10**-18 statcoulomb cm , SI units = C m)
                  (au)            (Debye)         (10**-30 SI)
   Tot        0.136675D+01      0.347394D+01      0.115878D+02
   x          0.000000D+00      0.000000D+00      0.000000D+00
   y          0.000000D+00      0.000000D+00      0.000000D+00
   z          0.136675D+01      0.347394D+01      0.115878D+02

 Dipole polarizability, Alpha (dipole orientation).
 (esu units = cm**3 , SI units = C**2 m**2 J**-1)
 Alpha(0;0):
               (au)            (10**-24 esu)      (10**-40 SI)
   iso        0.777531D+02      0.115218D+02      0.128198D+02
   aniso      0.229076D+02      0.339455D+01      0.377695D+01
   xx         0.782820D+02      0.116002D+02      0.129070D+02
   yx        -0.197983D+01     -0.293380D+00     -0.326430D+00
   yy         0.692205D+02      0.102574D+02      0.114129D+02
   zx        -0.241971D+01     -0.358564D+00     -0.398956D+00
   zy         0.982702D+01      0.145621D+01      0.162026D+01
   zz         0.857570D+02      0.127079D+02      0.141394D+02

 ----------------------------------------------------------------------
 1\1\GINC-LEWIS4-R630-HPC4-NODE224\Freq\RB3LYP\6-31G(2df,p)\C6H7N3\CZ9N
 3\01-Jun-2021\0\\#N Geom=AllCheck Guess=TCheck SCRF=Check GenChk RB3LY
 P/6-31G(2df,p) Freq\\Title Card Required\\0,1\C,0.9957067477,0.3007239
 817,0.1019743798\C,2.2946272232,0.5252981432,0.1248164586\C,3.38805281
 35,1.398488647,-0.4643217031\N,4.2735514792,0.183019557,-0.4349366314\
 C,3.5681560749,0.2261191816,0.894922518\N,3.8641703259,1.7305899985,0.
 9552635121\C,3.0037052219,2.586387022,1.7912945199\C,3.3997568129,2.47
 26563627,3.1958775004\N,3.6989300876,2.3659868884,4.3065044564\H,0.351
 7392032,0.7945114641,-0.6169527199\H,0.5355171284,-0.4082787978,0.7807
 218007\H,3.384189086,2.1309795435,-1.2709337674\H,5.2325330102,0.51621
 49586,-0.2733266913\H,3.7821918707,-0.447994132,1.7225958673\H,1.92991
 11345,2.3537805222,1.7105988624\H,3.1455617802,3.6238366594,1.46864163
 75\\Version=ES64L-G16RevA.03\State=1-A\HF=-396.9520518\RMSD=2.502e-09\
 RMSF=1.733e-05\ZeroPoint=0.124192\Thermal=0.1320233\Dipole=-0.6159342,
 0.2784773,-1.1878944\DipoleDeriv=-0.2769913,-0.0430951,0.0178437,0.007
 2772,-0.1119494,-0.2061097,0.0603791,-0.1902922,-0.0594402,0.5268249,0
 .1487632,0.0456411,0.1398342,-0.0577377,0.0017521,0.0399811,0.0114954,
 -0.0948902,0.2728919,0.0358802,0.0739277,0.009367,0.3400581,-0.0022645
 ,-0.0982029,-0.02329,0.5497313,-0.3352317,0.1157843,0.1091773,0.188799
 7,-0.4684133,-0.1770216,0.1619924,-0.1001315,-0.5271724,0.282301,0.021
 3836,0.0542267,-0.1243176,0.4402071,0.0260682,0.0341866,-0.0176508,0.3
 186452,-0.5979345,-0.2347328,-0.2512633,-0.125898,-0.4486055,-0.050114
 3,-0.113153,-0.0679195,-0.4579467,0.2349873,-0.0398703,-0.0700306,0.07
 77127,0.3035556,0.0629832,0.0494317,0.0542939,0.2975671,0.0721146,0.05
 17229,0.0387363,0.0114205,0.02585,-0.0339514,0.0313079,0.0286967,0.157
 7327,-0.2939493,-0.0265925,-0.0016553,-0.007323,-0.290937,-0.0051968,0
 .0074946,-0.0694941,-0.3085085,0.0100099,-0.0114485,-0.0322394,0.02418
 42,0.0681423,0.0862661,-0.0593124,0.0744249,0.0426828,0.0247476,-0.023
 2403,-0.0156941,-0.0454975,0.0585178,0.0817892,0.0220723,0.0913348,0.0
 456531,0.0137685,-0.0240538,-0.0113479,-0.0000108,-0.0534618,0.0878513
 ,0.0072261,0.071353,-0.0708042,0.0228171,-0.0458805,-0.0303191,-0.1479
 329,0.187898,0.0685879,-0.1107622,0.0428162,0.2078854,0.0082199,0.0073
 213,-0.0442713,0.0197649,-0.0185832,0.0521362,-0.0187126,0.0766983,-0.
 0507116,-0.0458803,0.0786779,0.0896524,-0.0225882,0.0777614,0.0213655,
 0.0028199,0.0077555,-0.0175827,0.0813045,-0.0106197,0.0276159,-0.00479
 24,-0.0523023,-0.0141413,-0.0167484,0.0099095,-0.0328412\Polar=82.3306
 407,4.4546588,66.1550151,5.8578719,4.2872416,84.7737721\Quadrupole=4.2
 912763,3.7433387,-8.034615,-0.6629715,-1.7381227,-6.254522\PG=C01 [X(C
 6H7N3)]\NImag=0\\0.84471141,0.10388813,0.34335114,0.06012510,-0.256327
 75,0.39662960,-0.56667490,-0.09091831,-0.01852256,0.96441177,-0.090675
 64,-0.08716309,0.03238660,0.13644387,0.27082600,-0.01823860,0.03232239
 ,-0.08066306,0.03276330,-0.05806517,0.26315394,-0.00939377,-0.01094528
 ,0.00765087,-0.10615122,-0.05103555,0.04472176,0.33981631,0.00090465,0
 .00459114,-0.00039560,-0.04367111,-0.09716985,0.03712938,-0.00012454,0
 .49866782,-0.00612911,0.00052479,0.00304896,0.04338597,0.03543077,-0.0
 7226246,-0.01513808,-0.26918273,0.52032335,-0.00391902,-0.00163408,-0.
 00084605,-0.09203869,0.03427691,0.04274993,-0.10128035,0.04965583,0.01
 864319,0.59146410,-0.00074793,-0.00016214,-0.00069056,0.00196226,0.008
 85137,0.00198291,0.00931488,-0.11319947,-0.00202797,0.04071871,0.30549
 777,-0.00005367,-0.00059403,0.00028538,0.01484989,-0.00220540,0.002254
 73,-0.00293778,0.02196164,-0.04721825,-0.01286621,0.06729916,0.2806321
 6,-0.01029636,0.00409650,-0.00948942,-0.13146970,0.03306470,-0.0573482
 5,0.02510328,0.01181827,-0.02398307,-0.09476961,-0.00621932,0.00705188
 ,0.36182503,-0.00759765,0.00311416,0.00028470,0.03225382,-0.05370708,0
 .01796682,0.00492764,-0.06214443,0.10055710,0.01681357,-0.04378070,-0.
 01424118,-0.06668544,0.43285457,0.00418383,-0.00065669,0.00591314,-0.0
 5012803,0.02048230,-0.09140839,-0.01470102,0.09571879,-0.08977251,0.04
 021656,0.01875741,-0.12193749,0.07158704,-0.25248709,0.56902154,-0.005
 53591,0.00338536,0.00403133,-0.04025362,-0.05827521,-0.04434349,-0.067
 06130,-0.00342067,-0.01592905,0.01148910,0.04409307,0.03681855,-0.0602
 9498,-0.01013346,-0.00057508,0.28718607,-0.00147313,0.00159837,-0.0018
 8833,-0.03887031,-0.03536852,-0.02698703,0.01206397,-0.05171312,-0.001
 74204,0.00700656,-0.06515033,-0.05805063,-0.02959234,-0.10779853,0.007
 25900,-0.02527129,0.38601500,0.00000691,-0.00250469,0.00204263,-0.0280
 3708,-0.02447542,-0.01602552,-0.03871088,-0.00558946,-0.10185403,0.004
 86787,-0.06401542,-0.05443306,0.01921720,0.01223589,-0.05518822,-0.022
 99913,0.11119193,0.36326687,-0.00053730,-0.00208471,-0.00159727,0.0005
 7431,-0.00228647,-0.00214601,-0.00057839,-0.00400881,-0.00217511,0.006
 10475,0.00024170,0.00049645,-0.00332751,-0.00128026,-0.00213773,-0.111
 43731,0.05061302,0.04583637,0.49748210,0.00310347,-0.00061593,-0.00189
 035,-0.00238586,-0.00381552,-0.00197226,0.00021507,-0.00524919,-0.0029
 4514,0.00036234,-0.00561133,-0.01173884,0.02015174,-0.00840318,-0.0156
 8213,0.01989609,-0.11463530,-0.01618729,0.04885724,0.52741369,0.003252
 38,-0.00109728,-0.00037723,-0.00290062,-0.00255543,-0.00233073,0.02245
 228,-0.01211425,-0.00640223,0.00047414,-0.01276826,-0.00295744,-0.0035
 2359,-0.00378100,-0.00330932,0.01183851,-0.01251123,-0.10657246,0.0344
 9739,-0.04939512,0.47808752,0.00054946,-0.00019305,-0.00025048,-0.0008
 2019,-0.00043098,-0.00067745,-0.00414603,-0.00023048,-0.00155378,-0.00
 016318,0.00309798,0.00097179,0.00058923,0.00022670,0.00091998,0.009990
 69,-0.00585999,0.02116421,-0.08674076,0.00373248,-0.05235791,0.2082035
 1,0.00014553,-0.00006434,0.00013290,0.00012523,0.00032101,-0.00028342,
 0.00276279,-0.00113347,0.00016391,0.00088344,-0.00279207,-0.00105536,-
 0.00075081,0.00101665,-0.00239879,-0.00728348,0.00227262,-0.02485494,0
 .00226797,-0.07249264,0.02081062,-0.03445387,0.12017629,-0.00068034,0.
 00001848,0.00033164,0.00129140,0.00174476,0.00026690,0.00114601,-0.000
 90837,-0.00184280,0.00048399,0.00081212,0.00182320,-0.00081492,-0.0023
 2338,0.00191780,0.00521952,-0.00936616,-0.04181555,-0.05434954,0.01893
 355,-0.23676823,0.36632021,-0.12459269,1.46983646,-0.00002746,-0.00001
 475,0.00002374,0.00005134,0.00007357,0.00017492,0.00136251,0.00036166,
 0.00129145,0.00010553,-0.00120712,-0.00049097,-0.00000519,0.00014118,-
 0.00039693,-0.00222731,0.00197484,-0.00247515,0.01689947,0.00175844,-0
 .00568463,-0.11941900,0.02722883,-0.30414824,0.10223161,-0.00008879,0.
 00002849,-0.00001002,0.00010572,0.00001747,0.00005166,-0.00069297,0.00
 007519,-0.00081972,-0.00027024,0.00107327,0.00031134,0.00006435,-0.000
 69001,0.00110477,0.00197121,-0.00051680,0.00254497,0.00164969,0.018260
 54,0.00087181,0.02752473,-0.04750749,0.10822302,-0.02877697,0.02851019
 ,0.00026696,-0.00010661,-0.00009835,-0.00020203,-0.00039625,-0.0002010
 9,0.00100630,0.00051888,0.00222352,0.00013699,-0.00160881,-0.00096121,
 0.00039703,0.00089887,-0.00067257,-0.00356426,0.00225751,0.00246119,-0
 .00604059,0.00338341,-0.00106809,-0.30328746,0.10670704,-1.16692605,0.
 30973049,-0.10975799,1.16755678,-0.15022889,0.07331218,-0.11266380,-0.
 02015555,0.01545962,-0.02400825,0.00100574,0.00042816,0.00067876,0.000
 05062,-0.00006075,0.00012005,0.00089306,-0.00076005,0.00039903,0.00003
 952,-0.00097846,0.00075406,-0.00016817,-0.00001339,0.00017379,0.000038
 28,0.00000459,0.00002074,0.00000042,-0.00000488,-0.00001415,0.16025820
 ,0.07518068,-0.10190859,0.09935843,-0.00412535,0.00399984,-0.00355177,
 0.00186494,-0.00175151,-0.00332543,-0.00134002,-0.00080317,0.00070043,
 -0.00356778,0.00505323,0.00397432,0.00078902,0.00224064,-0.00139888,-0
 .00004739,-0.00004206,-0.00003242,0.00004442,-0.00000132,-0.00000655,0
 .00001196,-0.00000009,0.00001091,-0.08035553,0.09896767,-0.11605792,0.
 09941007,-0.17138846,0.00144437,-0.00063633,0.00253273,0.00108142,-0.0
 0286432,-0.00132949,-0.00091847,-0.00080621,0.00063613,0.00001268,0.00
 445920,0.00458341,0.00097878,0.00187508,-0.00102029,-0.00000178,-0.000
 09845,-0.00012319,0.00007405,0.00001367,-0.00004174,-0.00000029,-0.000
 03126,0.00002933,0.12524027,-0.10722846,0.17419151,-0.10160194,-0.0792
 6172,0.07109292,-0.01435277,-0.02398285,0.02180536,0.00024037,0.000108
 27,-0.00078428,0.00000774,0.00009697,-0.00006001,0.00103568,0.00067809
 ,0.00036217,-0.00022793,0.00053106,-0.00106895,-0.00018405,0.00016091,
 0.00004366,0.00003750,-0.00006473,-0.00001109,-0.00000262,0.00004048,-
 0.00004308,0.00931529,0.01173483,-0.01111235,0.10682265,-0.08227188,-0
 .16478804,0.13001298,-0.00142688,-0.00103136,0.00233824,-0.00056209,0.
 00579154,0.00433875,-0.00131500,0.00044127,-0.00084060,0.00131059,-0.0
 0197804,-0.00293307,0.00149018,-0.00061562,0.00202859,-0.00003168,-0.0
 0011908,-0.00008831,-0.00002317,-0.00005384,-0.00003753,0.00002707,0.0
 0002444,-0.00001945,-0.00628952,-0.00533294,0.00615082,0.08989809,0.16
 759240,0.07353023,0.12989929,-0.15776999,-0.00092175,-0.00018417,0.001
 94496,-0.00347322,0.00336022,0.00446722,-0.00135547,0.00031052,-0.0005
 5816,0.00177656,-0.00310680,-0.00115471,0.00106710,-0.00091171,0.00213
 160,-0.00001903,-0.00004176,-0.00002331,-0.00000301,-0.00004025,-0.000
 01022,0.00001105,0.00002590,-0.00000399,0.00908621,0.01084312,-0.00817
 408,-0.07966741,-0.14071523,0.15948505,0.00080245,-0.00032066,0.000627
 19,0.01019399,-0.00650641,0.01077497,-0.05587899,-0.00484971,0.0059990
 5,0.00357313,0.00753205,-0.01205428,-0.00357727,-0.00097285,0.00092373
 ,-0.00026852,0.00546541,-0.00482398,-0.00019022,0.00025035,-0.00004195
 ,0.00018107,-0.00007042,-0.00007286,-0.00006385,0.00002870,-0.00008924
 ,-0.00049072,0.00016237,-0.00043645,-0.00071731,-0.00001246,-0.0000288
 3,0.04234627,-0.00031888,-0.00004339,-0.00021311,0.00658539,-0.0017379
 0,0.00352135,-0.00152560,-0.17699665,0.13594354,-0.00579612,-0.0067740
 4,0.01231727,0.00136689,-0.00680064,0.00314990,0.00082361,0.00958193,-
 0.00786678,-0.00053973,0.00159279,0.00059628,0.00015279,-0.00029881,-0
 .00007930,-0.00005668,0.00011002,-0.00004934,-0.00037417,-0.00009558,-
 0.00001251,-0.00018246,-0.00009208,-0.00003598,-0.00033542,0.18012330,
 0.00073863,-0.00033349,0.00022412,-0.00311864,-0.00076535,-0.00046740,
 0.00159189,0.13643502,-0.20128929,-0.00157385,-0.00408602,0.00652771,-
 0.00003048,0.00235991,-0.00653387,0.00218799,0.01346236,-0.00785723,-0
 .00059690,0.00163963,0.00022241,0.00038290,-0.00040981,-0.00023389,-0.
 00011208,0.00005709,-0.00006605,0.00021081,0.00018640,-0.00009718,-0.0
 0004248,-0.00007514,-0.00008316,0.00039715,-0.14987468,0.20904617,0.00
 100196,0.00020183,0.00038693,-0.01344292,0.00303460,0.00390980,-0.0201
 1160,-0.00785938,-0.00081624,-0.32652776,-0.08947396,-0.04145889,-0.01
 489464,-0.00300045,-0.00360649,0.00427139,-0.00232377,-0.00294881,0.00
 134293,-0.00095678,-0.00115363,0.00029029,-0.00009347,0.00023361,-0.00
 011396,0.00005391,-0.00016904,-0.00002562,-0.00014575,-0.00017588,-0.0
 0005845,-0.00031463,-0.00021564,0.00048301,0.00001483,-0.00023167,0.36
 692372,0.00072597,0.00167092,-0.00088060,0.00238229,-0.00357806,-0.000
 26342,0.03376694,0.00498465,0.00086399,-0.13478009,-0.08268038,-0.0071
 8006,-0.00424161,-0.00462747,-0.00613104,0.00235083,0.00187328,0.00349
 074,-0.00020271,-0.00047542,-0.00037606,-0.00016602,0.00019217,-0.0002
 8538,0.00009773,-0.00009506,0.00022690,-0.00011758,-0.00025372,-0.0001
 8841,0.00014387,0.00053129,0.00044441,-0.00042936,0.00009693,0.0000276
 0,0.10134732,0.08211600,0.00085852,-0.00080093,0.00177296,0.00337824,-
 0.00035053,-0.00440786,-0.00645589,-0.00731622,-0.00337076,-0.08054127
 ,-0.01302551,-0.05454831,0.03677116,0.00728317,0.00127082,0.00114000,0
 .00399198,0.00112045,-0.00030731,-0.00032418,-0.00017517,-0.00011588,0
 .00015558,-0.00018558,0.00003807,-0.00005873,0.00020231,0.00016670,0.0
 0061163,0.00050285,-0.00013573,-0.00028419,-0.00024927,-0.00060293,0.0
 0024524,-0.00012127,0.04658084,0.00935404,0.05767827,0.00049631,0.0005
 7456,-0.00042743,0.00835082,0.01137438,-0.00968553,-0.00395454,0.00147
 308,-0.00187203,0.00550946,-0.00955039,0.00824319,-0.06872804,0.038636
 03,-0.04706459,0.00086214,-0.00381579,0.00511428,-0.00010317,-0.000018
 19,0.00029785,0.00013190,0.00007217,-0.00002084,-0.00011915,-0.0000461
 6,0.00000312,-0.00070019,-0.00011137,0.00008648,-0.00047513,-0.0004420
 3,0.00023993,0.00340101,0.00015835,-0.00019739,0.00052548,-0.00053435,
 -0.00039143,0.05465009,0.00065572,0.00030882,-0.00052580,-0.00113493,0
 .00111909,-0.00200006,0.00076059,-0.00526447,0.00170173,-0.00353415,0.
 00570805,-0.00474105,0.03474342,-0.15664146,0.12932031,0.00552440,-0.0
 0655491,0.01589878,-0.00036744,0.00004224,0.00209404,0.00026327,-0.000
 08028,0.00015428,-0.00023880,0.00034295,-0.00039696,-0.00016163,-0.000
 11878,-0.00004616,0.00012150,-0.00011202,0.00018937,0.00035506,0.00169
 776,0.00194754,-0.00013664,-0.00016107,0.00005063,-0.03751685,0.160357
 68,-0.00043359,-0.00039681,0.00019627,0.00458259,0.00225420,-0.0015612
 8,0.00034916,0.00262848,-0.00724990,-0.00859383,0.01056765,-0.00775885
 ,-0.04295810,0.12954560,-0.21205330,0.00220917,-0.00457164,0.00747324,
 -0.00025402,0.00051280,0.00125091,-0.00017524,0.00048070,-0.00014939,0
 .00001331,-0.00011743,-0.00002768,-0.00004995,-0.00003201,-0.00006308,
 -0.00032472,0.00001201,-0.00010477,-0.00041732,0.00200989,0.00114260,-
 0.00005311,0.00035933,0.00010559,0.04597901,-0.14303683,0.21916303,0.0
 0020052,0.00015330,0.00003070,0.00237150,-0.00007674,-0.00022226,0.000
 12467,-0.00059231,-0.00225222,0.00053616,0.00007362,-0.00002873,0.0001
 5184,-0.00244907,-0.00040853,-0.02722806,0.00561815,0.00924955,-0.2682
 2218,-0.05463274,-0.01965896,-0.00901535,-0.00213599,-0.00935154,0.001
 20510,-0.00009154,0.00261310,0.00014364,-0.00007721,-0.00018036,0.0001
 4701,-0.00012227,-0.00004912,0.00007618,0.00004766,0.00029077,0.000284
 93,-0.00033546,-0.00033067,0.00003355,0.00031001,0.00001932,0.30256915
 ,-0.00140862,-0.00001045,0.00071556,0.00217718,-0.00152146,-0.00263014
 ,-0.00036550,0.00075424,0.00068386,-0.00148756,-0.00033018,-0.00007737
 ,0.00227746,0.00171211,0.00109341,0.02281821,0.00310682,-0.00194796,-0
 .05587010,-0.06228575,-0.00338444,0.00514694,0.00087804,0.00087972,-0.
 00055560,0.00028532,0.00101953,-0.00003289,0.00008136,0.00003453,-0.00
 001727,-0.00026805,-0.00003951,-0.00024312,-0.00019488,-0.00006958,-0.
 00029230,0.00029392,0.00039381,-0.00013766,-0.00026722,-0.00007653,0.0
 5618328,0.06401732,-0.00129362,0.00049787,-0.00004583,0.00177968,-0.00
 249894,-0.00119769,0.00200984,0.00119674,0.00134054,-0.00130814,-0.000
 33323,-0.00016526,-0.00084508,0.00108277,0.00029573,0.02292042,0.00002
 202,-0.00012995,-0.02184839,-0.00272114,-0.04975636,-0.03536710,-0.008
 39889,-0.00894598,0.00354152,0.00159083,-0.00202575,-0.00005602,-0.000
 08700,-0.00023464,-0.00006512,0.00011193,0.00011123,-0.00012353,-0.000
 09929,-0.00023750,-0.00029385,0.00046113,0.00033004,-0.00020566,-0.000
 16990,-0.00011335,0.02083563,0.00677123,0.05862562,0.00045345,-0.00023
 932,-0.00017178,-0.00059418,-0.00045780,-0.00023019,0.00090330,0.00000
 710,0.00063456,-0.00014200,0.00012824,0.00139875,-0.00223482,-0.000797
 79,0.00042606,0.00069603,0.02491205,-0.00514646,-0.05091449,-0.0404811
 7,0.01229129,0.00029257,0.01136223,-0.00526610,0.00012254,-0.00146723,
 -0.00074414,0.00002435,-0.00001782,-0.00003456,0.00001397,0.00008569,0
 .00002239,0.00012977,-0.00002047,0.00010335,0.00005123,-0.00000779,-0.
 00005244,0.00011946,0.00035649,0.00010732,-0.00337866,-0.02819244,0.01
 031942,0.05445748,-0.00002163,0.00009294,-0.00006904,0.00049701,-0.000
 04195,0.00044050,-0.00042529,-0.00024241,-0.00016540,0.00043989,-0.000
 28790,-0.00186533,0.00216339,0.00282082,-0.00057137,0.00124211,-0.0243
 3554,0.00144994,-0.03691031,-0.27356386,0.07373108,0.00116825,-0.00043
 255,0.00683343,-0.00082537,0.00008156,-0.00268763,-0.00005569,-0.00003
 498,-0.00003125,-0.00000505,0.00001012,0.00000260,-0.00005355,-0.00016
 876,-0.00050147,-0.00005536,0.00011203,0.00007420,-0.00011579,-0.00037
 636,-0.00013940,-0.00187268,-0.00625115,0.00257388,0.03483005,0.302617
 99,-0.00007571,0.00014539,-0.00010179,0.00035527,-0.00016562,0.0003722
 4,-0.00059267,-0.00057820,0.00118812,0.00043063,-0.00036778,-0.0016212
 8,0.00217936,-0.00073456,-0.00097204,-0.00100034,-0.02403111,0.0064003
 4,0.01064347,0.07852727,-0.06969707,0.00395518,0.03356973,-0.01725656,
 -0.00151625,-0.00398624,-0.00042229,-0.00005825,-0.00002271,-0.0000038
 0,0.00001110,0.00000023,-0.00000840,-0.00003072,0.00044753,-0.00017618
 ,0.00001207,0.00007683,0.00007495,-0.00009898,-0.00043992,-0.00025003,
 -0.00055668,-0.00336612,0.00214914,-0.01365749,-0.07907473,0.08032465\
 \0.00000055,0.00000344,-0.00001557,0.00001571,-0.00000961,0.00003524,-
 0.00000921,-0.00005336,-0.00005503,-0.00000984,0.00003036,-0.00001852,
 -0.00000642,0.00002966,-0.00000090,0.00001973,-0.00002918,0.00004016,-
 0.00001559,-0.00000252,0.00000880,-0.00000102,0.00000160,0.00001183,0.
 00000192,0.00000041,-0.00001177,0.00000198,0.00000619,0.00000148,-0.00
 000244,-0.00000136,-0.00000341,0.00000194,0.00000631,0.00000638,-0.000
 00250,-0.00000684,-0.00000073,0.00000243,0.00000315,0.00000408,0.00001
 485,0.00001118,-0.00000496,-0.00001209,0.00001058,0.00000291\\\@


 My opinions may have changed, but not the fact that I am right.
                       -- Ashleigh Brilliant
 Job cpu time:       0 days  1 hours 37 minutes 41.6 seconds.
 Elapsed time:       0 days  0 hours 24 minutes 26.0 seconds.
 File lengths (MBytes):  RWF=    108 Int=      0 D2E=      0 Chk=      8 Scr=      1
 Normal termination of Gaussian 16 at Tue Jun  1 22:57:59 2021.
### All Done ###
