### Starting Gaussian ###
 Entering Gaussian System, Link 0=g16
 Initial command:
 /cluster/software/gaussian/gaussian-16-A.03/avx2/g16/l1.exe "/local/scratch/cz9n3/Gau-22536.inp" -scrdir="/local/scratch/cz9n3/"
 Entering Link 1 = /cluster/software/gaussian/gaussian-16-A.03/avx2/g16/l1.exe PID=     22537.
  
 Copyright (c) 1988,1990,1992,1993,1995,1998,2003,2009,2016,
            Gaussian, Inc.  All Rights Reserved.
  
 This is part of the Gaussian(R) 16 program.  It is based on
 the Gaussian(R) 09 system (copyright 2009, Gaussian, Inc.),
 the Gaussian(R) 03 system (copyright 2003, Gaussian, Inc.),
 the Gaussian(R) 98 system (copyright 1998, Gaussian, Inc.),
 the Gaussian(R) 94 system (copyright 1995, Gaussian, Inc.),
 the Gaussian 92(TM) system (copyright 1992, Gaussian, Inc.),
 the Gaussian 90(TM) system (copyright 1990, Gaussian, Inc.),
 the Gaussian 88(TM) system (copyright 1988, Gaussian, Inc.),
 the Gaussian 86(TM) system (copyright 1986, Carnegie Mellon
 University), and the Gaussian 82(TM) system (copyright 1983,
 Carnegie Mellon University). Gaussian is a federally registered
 trademark of Gaussian, Inc.
  
 This software contains proprietary and confidential information,
 including trade secrets, belonging to Gaussian, Inc.
  
 This software is provided under written license and may be
 used, copied, transmitted, or stored only in accord with that
 written license.
  
 The following legend is applicable only to US Government
 contracts under FAR:
  
                    RESTRICTED RIGHTS LEGEND
  
 Use, reproduction and disclosure by the US Government is
 subject to restrictions as set forth in subparagraphs (a)
 and (c) of the Commercial Computer Software - Restricted
 Rights clause in FAR 52.227-19.
  
 Gaussian, Inc.
 340 Quinnipiac St., Bldg. 40, Wallingford CT 06492
  
  
 ---------------------------------------------------------------
 Warning -- This program may not be used in any manner that
 competes with the business of Gaussian, Inc. or will provide
 assistance to any competitor of Gaussian, Inc.  The licensee
 of this program is prohibited from giving any competitor of
 Gaussian, Inc. access to this program.  By using this program,
 the user acknowledges that Gaussian, Inc. is engaged in the
 business of creating and licensing software in the field of
 computational chemistry and represents and warrants to the
 licensee that it is not a competitor of Gaussian, Inc. and that
 it will not use this program in any manner prohibited above.
 ---------------------------------------------------------------
  

 Cite this work as:
 Gaussian 16, Revision A.03,
 M. J. Frisch, G. W. Trucks, H. B. Schlegel, G. E. Scuseria, 
 M. A. Robb, J. R. Cheeseman, G. Scalmani, V. Barone, 
 G. A. Petersson, H. Nakatsuji, X. Li, M. Caricato, A. V. Marenich, 
 J. Bloino, B. G. Janesko, R. Gomperts, B. Mennucci, H. P. Hratchian, 
 J. V. Ortiz, A. F. Izmaylov, J. L. Sonnenberg, D. Williams-Young, 
 F. Ding, F. Lipparini, F. Egidi, J. Goings, B. Peng, A. Petrone, 
 T. Henderson, D. Ranasinghe, V. G. Zakrzewski, J. Gao, N. Rega, 
 G. Zheng, W. Liang, M. Hada, M. Ehara, K. Toyota, R. Fukuda, 
 J. Hasegawa, M. Ishida, T. Nakajima, Y. Honda, O. Kitao, H. Nakai, 
 T. Vreven, K. Throssell, J. A. Montgomery, Jr., J. E. Peralta, 
 F. Ogliaro, M. J. Bearpark, J. J. Heyd, E. N. Brothers, K. N. Kudin, 
 V. N. Staroverov, T. A. Keith, R. Kobayashi, J. Normand, 
 K. Raghavachari, A. P. Rendell, J. C. Burant, S. S. Iyengar, 
 J. Tomasi, M. Cossi, J. M. Millam, M. Klene, C. Adamo, R. Cammi, 
 J. W. Ochterski, R. L. Martin, K. Morokuma, O. Farkas, 
 J. B. Foresman, and D. J. Fox, Gaussian, Inc., Wallingford CT, 2016.
 
 ******************************************
 Gaussian 16:  ES64L-G16RevA.03 25-Dec-2016
                 1-Jun-2021 
 ******************************************
 %chk=CdCCN1COCN1CCC1CC1.chk
 %NProcShared=20
 Will use up to   20 processors via shared memory.
 -----------------------------
 # opt freq b3lyp/6-31g(2df,p)
 -----------------------------
 1/18=20,19=15,26=3,38=1/1,3;
 2/9=110,12=2,17=6,18=5,40=1/2;
 3/5=1,6=6,7=104,11=2,25=1,30=1,71=1,74=-5/1,2,3;
 4//1;
 5/5=2,38=5/2;
 6/7=2,8=2,9=2,10=2,28=1/1;
 7//1,2,3,16;
 1/18=20,19=15,26=3/3(2);
 2/9=110/2;
 99//99;
 2/9=110/2;
 3/5=1,6=6,7=104,11=2,25=1,30=1,71=1,74=-5/1,2,3;
 4/5=5,16=3,69=1/1;
 5/5=2,38=5/2;
 7//1,2,3,16;
 1/18=20,19=15,26=3/3(-5);
 2/9=110/2;
 6/7=2,8=2,9=2,10=2,19=2,28=1/1;
 99/9=1/99;
 -------------------
 Title Card Required
 -------------------
 Symbolic Z-matrix:
 Charge =  0 Multiplicity = 1
 C                     0.79145   0.22508   0.20559 
 C                     2.10065   0.40778   0.07366 
 C                     3.07974   1.068     1.02261 
 N                     4.53085   0.77906   0.80617 
 C                     5.31312   1.78543   1.53911 
 O                     6.59023   1.22429   1.80546 
 C                     6.30884  -0.15392   2.03178 
 N                     4.98908  -0.49693   1.45489 
 C                     5.21894  -1.56376   0.44646 
 C                     3.92871  -1.94674  -0.24319 
 C                     3.9594   -3.03427  -1.2458 
 C                     4.46231  -4.38633  -0.88038 
 C                     2.9923   -4.18422  -1.14596 
 H                     0.26344  -0.36181  -0.55034 
 H                     0.21014   0.65254   1.0145 
 H                     2.48021   0.05821  -0.8762 
 H                     2.79875   0.85955   2.06191 
 H                     2.93168   2.14026   0.84228 
 H                     4.86886   2.04046   2.51209 
 H                     5.4391    2.7102    0.96795 
 H                     6.30006  -0.33817   3.11116 
 H                     7.14429  -0.73039   1.61255 
 H                     5.63506  -2.44511   0.94998 
 H                     5.94609  -1.24685  -0.31339 
 H                     3.75279  -1.10225  -0.8865 
 H                     3.11895  -2.08853   0.48352 
 H                     4.12317  -2.64143  -2.24487 
 H                     4.77418  -4.53834   0.14533 
 H                     5.09856  -4.84521  -1.62483 
 H                     2.3053   -4.21712  -0.30619 
 H                     2.56642  -4.56015  -2.06951 
 

 GradGradGradGradGradGradGradGradGradGradGradGradGradGradGradGradGradGrad
 Berny optimization.
 Initialization pass.
                           ----------------------------
                           !    Initial Parameters    !
                           ! (Angstroms and Degrees)  !
 --------------------------                            --------------------------
 ! Name  Definition              Value          Derivative Info.                !
 --------------------------------------------------------------------------------
 ! R1    R(1,2)                  1.3285         estimate D2E/DX2                !
 ! R2    R(1,14)                 1.093          estimate D2E/DX2                !
 ! R3    R(1,15)                 1.084          estimate D2E/DX2                !
 ! R4    R(2,3)                  1.5149         estimate D2E/DX2                !
 ! R5    R(2,16)                 1.081          estimate D2E/DX2                !
 ! R6    R(3,4)                  1.4953         estimate D2E/DX2                !
 ! R7    R(3,17)                 1.0966         estimate D2E/DX2                !
 ! R8    R(3,18)                 1.0974         estimate D2E/DX2                !
 ! R9    R(4,5)                  1.4703         estimate D2E/DX2                !
 ! R10   R(4,8)                  1.503          estimate D2E/DX2                !
 ! R11   R(5,6)                  1.4202         estimate D2E/DX2                !
 ! R12   R(5,19)                 1.0996         estimate D2E/DX2                !
 ! R13   R(5,20)                 1.0942         estimate D2E/DX2                !
 ! R14   R(6,7)                  1.4247         estimate D2E/DX2                !
 ! R15   R(7,8)                  1.4806         estimate D2E/DX2                !
 ! R16   R(7,21)                 1.095          estimate D2E/DX2                !
 ! R17   R(7,22)                 1.0982         estimate D2E/DX2                !
 ! R18   R(8,9)                  1.4859         estimate D2E/DX2                !
 ! R19   R(9,10)                 1.5123         estimate D2E/DX2                !
 ! R20   R(9,23)                 1.097          estimate D2E/DX2                !
 ! R21   R(9,24)                 1.0984         estimate D2E/DX2                !
 ! R22   R(10,11)                1.4795         estimate D2E/DX2                !
 ! R23   R(10,25)                1.0761         estimate D2E/DX2                !
 ! R24   R(10,26)                1.0972         estimate D2E/DX2                !
 ! R25   R(11,12)                1.4881         estimate D2E/DX2                !
 ! R26   R(11,13)                1.5059         estimate D2E/DX2                !
 ! R27   R(11,27)                1.0859         estimate D2E/DX2                !
 ! R28   R(12,13)                1.5074         estimate D2E/DX2                !
 ! R29   R(12,28)                1.0828         estimate D2E/DX2                !
 ! R30   R(12,29)                1.0815         estimate D2E/DX2                !
 ! R31   R(13,30)                1.0855         estimate D2E/DX2                !
 ! R32   R(13,31)                1.0843         estimate D2E/DX2                !
 ! A1    A(2,1,14)             118.7664         estimate D2E/DX2                !
 ! A2    A(2,1,15)             123.2563         estimate D2E/DX2                !
 ! A3    A(14,1,15)            117.9558         estimate D2E/DX2                !
 ! A4    A(1,2,3)              129.3944         estimate D2E/DX2                !
 ! A5    A(1,2,16)             112.8817         estimate D2E/DX2                !
 ! A6    A(3,2,16)             117.673          estimate D2E/DX2                !
 ! A7    A(2,3,4)              116.8913         estimate D2E/DX2                !
 ! A8    A(2,3,17)             110.1951         estimate D2E/DX2                !
 ! A9    A(2,3,18)             103.6332         estimate D2E/DX2                !
 ! A10   A(4,3,17)             110.4325         estimate D2E/DX2                !
 ! A11   A(4,3,18)             107.2149         estimate D2E/DX2                !
 ! A12   A(17,3,18)            107.8732         estimate D2E/DX2                !
 ! A13   A(3,4,5)              108.1731         estimate D2E/DX2                !
 ! A14   A(3,4,8)              113.4177         estimate D2E/DX2                !
 ! A15   A(5,4,8)              101.7541         estimate D2E/DX2                !
 ! A16   A(4,5,6)              107.5472         estimate D2E/DX2                !
 ! A17   A(4,5,19)             112.636          estimate D2E/DX2                !
 ! A18   A(4,5,20)             112.3034         estimate D2E/DX2                !
 ! A19   A(6,5,19)             106.7991         estimate D2E/DX2                !
 ! A20   A(6,5,20)             109.1658         estimate D2E/DX2                !
 ! A21   A(19,5,20)            108.2028         estimate D2E/DX2                !
 ! A22   A(5,6,7)              103.5566         estimate D2E/DX2                !
 ! A23   A(6,7,8)              109.7707         estimate D2E/DX2                !
 ! A24   A(6,7,21)             108.7192         estimate D2E/DX2                !
 ! A25   A(6,7,22)             107.271          estimate D2E/DX2                !
 ! A26   A(8,7,21)             109.751          estimate D2E/DX2                !
 ! A27   A(8,7,22)             114.0636         estimate D2E/DX2                !
 ! A28   A(21,7,22)            107.1014         estimate D2E/DX2                !
 ! A29   A(4,8,7)              104.0785         estimate D2E/DX2                !
 ! A30   A(4,8,9)              111.332          estimate D2E/DX2                !
 ! A31   A(7,8,9)              107.0298         estimate D2E/DX2                !
 ! A32   A(8,9,10)             111.0596         estimate D2E/DX2                !
 ! A33   A(8,9,23)             108.9047         estimate D2E/DX2                !
 ! A34   A(8,9,24)             111.3914         estimate D2E/DX2                !
 ! A35   A(10,9,23)            109.237          estimate D2E/DX2                !
 ! A36   A(10,9,24)            108.8074         estimate D2E/DX2                !
 ! A37   A(23,9,24)            107.3492         estimate D2E/DX2                !
 ! A38   A(9,10,11)            118.5222         estimate D2E/DX2                !
 ! A39   A(9,10,25)            102.3195         estimate D2E/DX2                !
 ! A40   A(9,10,26)            111.1205         estimate D2E/DX2                !
 ! A41   A(11,10,25)           100.0863         estimate D2E/DX2                !
 ! A42   A(11,10,26)           111.6632         estimate D2E/DX2                !
 ! A43   A(25,10,26)           112.13           estimate D2E/DX2                !
 ! A44   A(10,11,12)           120.5615         estimate D2E/DX2                !
 ! A45   A(10,11,13)           120.2041         estimate D2E/DX2                !
 ! A46   A(10,11,27)           111.1416         estimate D2E/DX2                !
 ! A47   A(12,11,27)           120.2397         estimate D2E/DX2                !
 ! A48   A(13,11,27)           115.7278         estimate D2E/DX2                !
 ! A49   A(11,12,28)           117.2258         estimate D2E/DX2                !
 ! A50   A(11,12,29)           114.5382         estimate D2E/DX2                !
 ! A51   A(13,12,28)           117.8132         estimate D2E/DX2                !
 ! A52   A(13,12,29)           120.6191         estimate D2E/DX2                !
 ! A53   A(28,12,29)           115.0277         estimate D2E/DX2                !
 ! A54   A(11,13,30)           118.7442         estimate D2E/DX2                !
 ! A55   A(11,13,31)           117.4223         estimate D2E/DX2                !
 ! A56   A(12,13,30)           118.4785         estimate D2E/DX2                !
 ! A57   A(12,13,31)           119.1182         estimate D2E/DX2                !
 ! A58   A(30,13,31)           113.5697         estimate D2E/DX2                !
 ! D1    D(14,1,2,3)          -174.2523         estimate D2E/DX2                !
 ! D2    D(14,1,2,16)            8.4415         estimate D2E/DX2                !
 ! D3    D(15,1,2,3)             7.4669         estimate D2E/DX2                !
 ! D4    D(15,1,2,16)         -169.8393         estimate D2E/DX2                !
 ! D5    D(1,2,3,4)            162.4365         estimate D2E/DX2                !
 ! D6    D(1,2,3,17)            35.3074         estimate D2E/DX2                !
 ! D7    D(1,2,3,18)           -79.8882         estimate D2E/DX2                !
 ! D8    D(16,2,3,4)           -20.3659         estimate D2E/DX2                !
 ! D9    D(16,2,3,17)         -147.4951         estimate D2E/DX2                !
 ! D10   D(16,2,3,18)           97.3094         estimate D2E/DX2                !
 ! D11   D(2,3,4,5)            163.6989         estimate D2E/DX2                !
 ! D12   D(2,3,4,8)            -84.2258         estimate D2E/DX2                !
 ! D13   D(17,3,4,5)           -69.2883         estimate D2E/DX2                !
 ! D14   D(17,3,4,8)            42.787          estimate D2E/DX2                !
 ! D15   D(18,3,4,5)            47.9895         estimate D2E/DX2                !
 ! D16   D(18,3,4,8)           160.0647         estimate D2E/DX2                !
 ! D17   D(3,4,5,6)            156.0401         estimate D2E/DX2                !
 ! D18   D(3,4,5,19)            38.6352         estimate D2E/DX2                !
 ! D19   D(3,4,5,20)           -83.8358         estimate D2E/DX2                !
 ! D20   D(8,4,5,6)             36.3335         estimate D2E/DX2                !
 ! D21   D(8,4,5,19)           -81.0714         estimate D2E/DX2                !
 ! D22   D(8,4,5,20)           156.4576         estimate D2E/DX2                !
 ! D23   D(3,4,8,7)           -138.5518         estimate D2E/DX2                !
 ! D24   D(3,4,8,9)            106.4819         estimate D2E/DX2                !
 ! D25   D(5,4,8,7)            -22.6213         estimate D2E/DX2                !
 ! D26   D(5,4,8,9)           -137.5875         estimate D2E/DX2                !
 ! D27   D(4,5,6,7)            -35.0665         estimate D2E/DX2                !
 ! D28   D(19,5,6,7)            86.0724         estimate D2E/DX2                !
 ! D29   D(20,5,6,7)          -157.1592         estimate D2E/DX2                !
 ! D30   D(5,6,7,8)             19.4918         estimate D2E/DX2                !
 ! D31   D(5,6,7,21)          -100.5715         estimate D2E/DX2                !
 ! D32   D(5,6,7,22)           143.9292         estimate D2E/DX2                !
 ! D33   D(6,7,8,4)              2.5586         estimate D2E/DX2                !
 ! D34   D(6,7,8,9)            120.5312         estimate D2E/DX2                !
 ! D35   D(21,7,8,4)           121.9919         estimate D2E/DX2                !
 ! D36   D(21,7,8,9)          -120.0354         estimate D2E/DX2                !
 ! D37   D(22,7,8,4)          -117.8411         estimate D2E/DX2                !
 ! D38   D(22,7,8,9)             0.1316         estimate D2E/DX2                !
 ! D39   D(4,8,9,10)           -64.6142         estimate D2E/DX2                !
 ! D40   D(4,8,9,23)           175.0505         estimate D2E/DX2                !
 ! D41   D(4,8,9,24)            56.8428         estimate D2E/DX2                !
 ! D42   D(7,8,9,10)          -177.7391         estimate D2E/DX2                !
 ! D43   D(7,8,9,23)            61.9257         estimate D2E/DX2                !
 ! D44   D(7,8,9,24)           -56.2821         estimate D2E/DX2                !
 ! D45   D(8,9,10,11)         -177.722          estimate D2E/DX2                !
 ! D46   D(8,9,10,25)           73.4514         estimate D2E/DX2                !
 ! D47   D(8,9,10,26)          -46.3976         estimate D2E/DX2                !
 ! D48   D(23,9,10,11)         -57.5838         estimate D2E/DX2                !
 ! D49   D(23,9,10,25)        -166.4104         estimate D2E/DX2                !
 ! D50   D(23,9,10,26)          73.7406         estimate D2E/DX2                !
 ! D51   D(24,9,10,11)          59.3198         estimate D2E/DX2                !
 ! D52   D(24,9,10,25)         -49.5069         estimate D2E/DX2                !
 ! D53   D(24,9,10,26)        -169.3559         estimate D2E/DX2                !
 ! D54   D(9,10,11,12)          56.9144         estimate D2E/DX2                !
 ! D55   D(9,10,11,13)         128.3222         estimate D2E/DX2                !
 ! D56   D(9,10,11,27)         -91.8917         estimate D2E/DX2                !
 ! D57   D(25,10,11,12)        166.9934         estimate D2E/DX2                !
 ! D58   D(25,10,11,13)       -121.5987         estimate D2E/DX2                !
 ! D59   D(25,10,11,27)         18.1874         estimate D2E/DX2                !
 ! D60   D(26,10,11,12)        -74.1672         estimate D2E/DX2                !
 ! D61   D(26,10,11,13)         -2.7594         estimate D2E/DX2                !
 ! D62   D(26,10,11,27)        137.0267         estimate D2E/DX2                !
 ! D63   D(10,11,12,28)          1.572          estimate D2E/DX2                !
 ! D64   D(10,11,12,29)       -137.7063         estimate D2E/DX2                !
 ! D65   D(27,11,12,28)        147.5741         estimate D2E/DX2                !
 ! D66   D(27,11,12,29)          8.2957         estimate D2E/DX2                !
 ! D67   D(10,11,13,30)         -2.4393         estimate D2E/DX2                !
 ! D68   D(10,11,13,31)        140.5358         estimate D2E/DX2                !
 ! D69   D(27,11,13,30)       -140.4917         estimate D2E/DX2                !
 ! D70   D(27,11,13,31)          2.4835         estimate D2E/DX2                !
 ! D71   D(28,12,13,30)         -1.1168         estimate D2E/DX2                !
 ! D72   D(28,12,13,31)       -146.4911         estimate D2E/DX2                !
 ! D73   D(29,12,13,30)        149.1139         estimate D2E/DX2                !
 ! D74   D(29,12,13,31)          3.7396         estimate D2E/DX2                !
 --------------------------------------------------------------------------------
 Trust Radius=3.00D-01 FncErr=1.00D-07 GrdErr=1.00D-06 EigMax=2.50D+02 EigMin=1.00D-04
 Number of steps in this run=    174 maximum allowed number of steps=    186.
 GradGradGradGradGradGradGradGradGradGradGradGradGradGradGradGradGradGrad

                          Input orientation:                          
 ---------------------------------------------------------------------
 Center     Atomic      Atomic             Coordinates (Angstroms)
 Number     Number       Type             X           Y           Z
 ---------------------------------------------------------------------
      1          6           0        0.791450    0.225080    0.205590
      2          6           0        2.100650    0.407780    0.073660
      3          6           0        3.079740    1.068000    1.022610
      4          7           0        4.530850    0.779060    0.806170
      5          6           0        5.313120    1.785430    1.539110
      6          8           0        6.590230    1.224290    1.805460
      7          6           0        6.308840   -0.153920    2.031780
      8          7           0        4.989080   -0.496930    1.454890
      9          6           0        5.218940   -1.563760    0.446460
     10          6           0        3.928710   -1.946740   -0.243190
     11          6           0        3.959400   -3.034270   -1.245800
     12          6           0        4.462310   -4.386330   -0.880380
     13          6           0        2.992300   -4.184220   -1.145960
     14          1           0        0.263440   -0.361810   -0.550340
     15          1           0        0.210140    0.652540    1.014500
     16          1           0        2.480210    0.058210   -0.876200
     17          1           0        2.798750    0.859550    2.061910
     18          1           0        2.931680    2.140260    0.842280
     19          1           0        4.868860    2.040460    2.512090
     20          1           0        5.439100    2.710200    0.967950
     21          1           0        6.300060   -0.338170    3.111160
     22          1           0        7.144290   -0.730390    1.612550
     23          1           0        5.635060   -2.445110    0.949980
     24          1           0        5.946090   -1.246850   -0.313390
     25          1           0        3.752790   -1.102250   -0.886500
     26          1           0        3.118950   -2.088530    0.483520
     27          1           0        4.123170   -2.641430   -2.244870
     28          1           0        4.774180   -4.538340    0.145330
     29          1           0        5.098560   -4.845210   -1.624830
     30          1           0        2.305300   -4.217120   -0.306190
     31          1           0        2.566420   -4.560150   -2.069510
 ---------------------------------------------------------------------
                    Distance matrix (angstroms):
                    1          2          3          4          5
     1  C    0.000000
     2  C    1.328454   0.000000
     3  C    2.571829   1.514930   0.000000
     4  N    3.827624   2.565208   1.495344   0.000000
     5  C    4.965729   3.790175   2.401971   1.470350   0.000000
     6  O    6.097857   4.880794   3.600114   2.331921   1.420152
     7  C    5.824105   4.675319   3.597026   2.352407   2.235008
     8  N    4.438710   3.327059   2.506282   1.502985   2.306786
     9  C    4.781280   3.708056   3.440100   2.468130   3.524178
    10  C    3.841953   2.997659   3.378114   2.982233   4.361454
    11  C    4.771352   4.128394   4.769497   4.367908   5.728681
    12  C    5.993300   5.428731   5.939915   5.434188   6.683445
    13  C    5.110025   4.834147   5.682971   5.550864   6.944964
    14  H    1.093007   2.087339   3.528466   4.620876   5.871602
    15  H    1.083964   2.125821   2.899530   4.327579   5.253481
    16  H    2.012468   1.080971   2.232620   2.748657   4.103948
    17  H    2.806729   2.155128   1.096609   2.140918   2.729951
    18  H    2.941747   2.069511   1.097352   2.100360   2.506538
    19  H    5.024024   4.034175   2.522931   2.148382   1.099590
    20  H    5.325192   4.152847   2.875133   2.140185   1.094209
    21  H    6.253349   5.236210   4.087764   3.113083   2.820473
    22  H    6.576552   5.394619   4.483615   3.123901   3.112544
    23  H    5.580734   4.625902   4.344753   3.411046   4.283479
    24  H    5.385743   4.204167   3.919106   2.713048   3.609311
    25  H    3.424033   2.435501   2.967774   2.647610   4.081288
    26  H    3.293523   2.726992   3.202474   3.212575   4.575611
    27  H    5.032096   4.331726   5.052231   4.601608   5.944037
    28  H    6.209343   5.622900   5.922144   5.363829   6.497934
    29  H    6.899962   6.282216   6.786061   6.153411   7.349962
    30  H    4.720890   4.644983   5.504358   5.581418   6.962953
    31  H    5.587936   5.430511   6.442110   6.374612   7.799544
                    6          7          8          9         10
     6  O    0.000000
     7  C    1.424733   0.000000
     8  N    2.376800   1.480616   0.000000
     9  C    3.391245   2.385114   1.485898   0.000000
    10  C    4.619100   3.748961   2.471803   1.512278   0.000000
    11  C    5.862319   4.955685   3.846045   2.571495   1.479490
    12  C    6.574256   5.459271   4.567100   3.209345   2.577274
    13  C    7.134981   6.110711   4.934335   3.789530   2.588083
    14  H    6.934968   6.577038   5.135258   5.195698   4.005065
    15  H    6.454306   6.235333   4.934926   5.506608   4.708057
    16  H    5.044136   4.812458   3.469379   3.446862   2.553170
    17  H    3.817607   3.653596   2.646896   3.786744   3.803362
    18  H    3.892519   4.252456   3.400435   4.371269   4.344638
    19  H    2.031889   2.668247   2.751449   4.168907   4.936924
    20  H    2.057778   3.176691   3.274952   4.311282   5.043335
    21  H    2.056777   1.095028   2.118278   3.125943   4.411628
    22  H    2.040826   1.098202   2.173543   2.400259   3.906819
    23  H    3.886990   2.621798   2.113677   1.097026   2.140948
    24  H    3.318279   2.612643   2.145941   1.098431   2.136492
    25  H    4.550879   3.993630   2.716051   2.034544   1.076085
    26  H    4.977156   4.039211   2.640859   2.164882   1.097234
    27  H    6.118443   5.408752   4.363130   3.099249   2.127706
    28  H    6.265938   5.013683   4.253719   3.022684   2.753572
    29  H    7.129572   6.069907   5.329559   3.882351   3.417398
    30  H    7.240762   6.164741   4.913643   4.011994   2.791783
    31  H    8.041529   7.088099   5.899189   4.726978   3.467159
                   11         12         13         14         15
    11  C    0.000000
    12  C    1.488125   0.000000
    13  C    1.505867   1.507419   0.000000
    14  H    4.613657   5.825478   4.734159   0.000000
    15  H    5.723502   6.860155   5.983498   1.865602   0.000000
    16  H    3.447904   4.866485   4.281731   2.279621   3.013502
    17  H    5.239264   6.240494   5.980594   3.839709   2.800147
    18  H    5.673804   6.921471   6.629919   3.913981   3.106405
    19  H    6.379791   7.278583   7.459856   6.029865   5.086528
    20  H    6.331598   7.398052   7.615016   6.207246   5.619444
    21  H    5.633005   5.974723   6.622420   7.060306   6.516488
    22  H    4.860201   5.174323   6.064432   7.222191   7.095956
    23  H    2.824251   2.914429   3.794950   5.953604   6.247348
    24  H    2.830406   3.518439   4.248081   5.756036   6.186445
    25  H    1.975977   3.359857   3.184997   3.582851   4.386737
    26  H    2.142738   2.990773   2.657661   3.493475   4.031945
    27  H    1.085949   2.240876   2.206053   4.792245   6.065108
    28  H    2.204844   1.082798   2.228885   6.186609   6.966430
    29  H    2.172752   1.081476   2.258884   6.680852   7.815879
    30  H    2.240100   2.238530   1.085479   4.369464   5.463287
    31  H    2.224230   2.244692   1.084270   5.023709   6.498870
                   16         17         18         19         20
    16  H    0.000000
    17  H    3.062042   0.000000
    18  H    2.737139   1.773524   0.000000
    19  H    4.595158   2.425400   2.559471   0.000000
    20  H    4.380522   3.404864   2.574447   1.777103   0.000000
    21  H    5.536010   3.846379   4.757774   2.839912   3.824547
    22  H    5.345036   4.649038   5.155582   3.696534   3.893693
    23  H    4.422061   4.494644   5.324047   4.811194   5.159064
    24  H    3.745966   4.470427   4.679183   4.466561   4.190121
    25  H    1.722276   3.667693   3.765206   4.761581   4.562609
    26  H    2.620176   3.359318   4.248111   4.921975   5.352156
    27  H    3.443927   5.706076   5.815041   6.716012   6.379171
    28  H    5.237757   6.059110   6.963063   6.992219   7.325309
    29  H    5.608898   7.171155   7.718730   8.036126   7.995167
    30  H    4.316706   5.623519   6.490579   7.326107   7.709209
    31  H    4.770814   6.818780   7.314877   8.358250   8.386682
                   21         22         23         24         25
    21  H    0.000000
    22  H    1.764197   0.000000
    23  H    3.090650   2.378453   0.000000
    24  H    3.560693   2.326297   1.768805   0.000000
    25  H    4.801426   4.229161   2.952774   2.271548   0.000000
    26  H    4.481932   4.395750   2.583707   3.055521   1.803179
    27  H    6.223417   5.259176   3.539974   2.999751   2.086007
    28  H    5.363384   4.719178   2.402122   3.523876   3.730231
    29  H    6.647301   5.621155   3.560612   3.922547   4.045489
    30  H    6.533195   6.265355   3.975586   4.698713   3.483447
    31  H    7.655359   7.012954   4.796589   5.048176   3.842403
                   26         27         28         29         30
    26  H    0.000000
    27  H    2.959437   0.000000
    28  H    2.975858   3.120118   0.000000
    29  H    3.995407   2.488470   1.825612   0.000000
    30  H    2.411755   3.089649   2.530301   3.152080   0.000000
    31  H    3.596131   2.477036   3.127331   2.586645   1.815255
                   31
    31  H    0.000000
 Stoichiometry    C10H18N2O
 Framework group  C1[X(C10H18N2O)]
 Deg. of freedom    87
 Full point group                 C1      NOp   1
 Largest Abelian subgroup         C1      NOp   1
 Largest concise Abelian subgroup C1      NOp   1
                         Standard orientation:                         
 ---------------------------------------------------------------------
 Center     Atomic      Atomic             Coordinates (Angstroms)
 Number     Number       Type             X           Y           Z
 ---------------------------------------------------------------------
      1          6           0       -0.250875    3.523481    0.338327
      2          6           0        0.226179    2.413710   -0.214498
      3          6           0        1.500602    1.655861    0.096188
      4          7           0        1.584354    0.244765   -0.391507
      5          6           0        2.993510   -0.172710   -0.347676
      6          8           0        3.017638   -1.589795   -0.257561
      7          6           0        1.880138   -1.892815    0.545020
      8          7           0        0.942093   -0.747287    0.537091
      9          6           0       -0.346868   -1.244104   -0.010307
     10          6           0       -1.361261   -0.127003   -0.110689
     11          6           0       -2.723332   -0.450480   -0.589243
     12          6           0       -3.545593   -1.477573    0.106087
     13          6           0       -3.927623   -0.022884    0.207299
     14          1           0       -1.243477    3.873364    0.043390
     15          1           0        0.306808    4.119453    1.051619
     16          1           0       -0.389435    2.049723   -1.025074
     17          1           0        1.716930    1.703192    1.170205
     18          1           0        2.276103    2.227588   -0.429082
     19          1           0        3.521254    0.211044    0.537376
     20          1           0        3.547179    0.140101   -1.238121
     21          1           0        2.214850   -2.089933    1.568835
     22          1           0        1.449374   -2.826999    0.160583
     23          1           0       -0.736022   -2.027268    0.652022
     24          1           0       -0.213889   -1.692071   -1.004387
     25          1           0       -0.996426    0.439726   -0.949541
     26          1           0       -1.386391    0.468203    0.810735
     27          1           0       -2.800712   -0.324466   -1.665077
     28          1           0       -3.114289   -1.948674    0.980439
     29          1           0       -4.084191   -2.143897   -0.553848
     30          1           0       -3.773721    0.488118    1.152527
     31          1           0       -4.789432    0.335908   -0.344241
 ---------------------------------------------------------------------
 Rotational constants (GHZ):           1.0096291           0.5190722           0.3603600
 Standard basis: 6-31G(2df,p) (6D, 7F)
 There are   493 symmetry adapted cartesian basis functions of A   symmetry.
 There are   454 symmetry adapted basis functions of A   symmetry.
   454 basis functions,   698 primitive gaussians,   493 cartesian basis functions
    50 alpha electrons       50 beta electrons
       nuclear repulsion energy       836.4273695446 Hartrees.
 NAtoms=   31 NActive=   31 NUniq=   31 SFac= 1.00D+00 NAtFMM=   60 NAOKFM=F Big=F
 Integral buffers will be    131072 words long.
 Raffenetti 2 integral format.
 Two-electron integral symmetry is turned on.
 One-electron integrals computed using PRISM.
 PrsmSu:  requested number of processors reduced to:  12 ShMem   1 Linda.
 NBasis=   454 RedAO= T EigKep=  2.60D-04  NBF=   454
 NBsUse=   454 1.00D-06 EigRej= -1.00D+00 NBFU=   454
 ExpMin= 1.61D-01 ExpMax= 5.48D+03 ExpMxC= 8.25D+02 IAcc=3 IRadAn=         5 AccDes= 0.00D+00
 Harris functional with IExCor=  402 and IRadAn=       5 diagonalized for initial guess.
 HarFok:  IExCor=  402 AccDes= 0.00D+00 IRadAn=         5 IDoV= 1 UseB2=F ITyADJ=14
 ICtDFT=  3500011 ScaDFX=  1.000000  1.000000  1.000000  1.000000
 FoFCou: FMM=F IPFlag=           0 FMFlag=      100000 FMFlg1=           0
         NFxFlg=           0 DoJE=T BraDBF=F KetDBF=T FulRan=T
         wScrn=  0.000000 ICntrl=       500 IOpCl=  0 I1Cent=   200000004 NGrid=           0
         NMat0=    1 NMatS0=      1 NMatT0=    0 NMatD0=    1 NMtDS0=    0 NMtDT0=    0
 Petite list used in FoFCou.
 Requested convergence on RMS density matrix=1.00D-08 within 128 cycles.
 Requested convergence on MAX density matrix=1.00D-06.
 Requested convergence on             energy=1.00D-06.
 No special actions if energy rises.
 Integral accuracy reduced to 1.0D-05 until final iterations.
 SCF Done:  E(RB3LYP) =  -576.538223590     A.U. after   12 cycles
            NFock= 12  Conv=0.26D-08     -V/T= 2.0079
 PrsmSu:  requested number of processors reduced to:  13 ShMem   1 Linda.
 Initial convergence to 1.0D-05 achieved.  Increase integral accuracy.
 Calling FoFJK, ICntrl=      2127 FMM=F ISym2X=0 I1Cent= 0 IOpClX= 0 NMat=1 NMatS=1 NMatT=0.
 ***** Axes restored to original set *****
 -------------------------------------------------------------------
 Center     Atomic                   Forces (Hartrees/Bohr)
 Number     Number              X              Y              Z
 -------------------------------------------------------------------
      1        6          -0.000543485   -0.001776058   -0.000713877
      2        6          -0.000660149    0.000842043    0.000372568
      3        6           0.001053051    0.000742378    0.001400519
      4        7          -0.001533654   -0.004209716    0.004927596
      5        6           0.001386128    0.003480035    0.001481161
      6        8          -0.001108213    0.000332863   -0.004170590
      7        6          -0.001932594   -0.000990563    0.000194499
      8        7           0.003710886   -0.003132670   -0.003742477
      9        6           0.000826791    0.002262949   -0.000458485
     10        6           0.001473007   -0.000308062   -0.002451648
     11        6          -0.001446710    0.000171006    0.002589762
     12        6          -0.000246653    0.000198503   -0.000522232
     13        6          -0.000402395    0.000221033   -0.002630912
     14        1           0.000088678    0.000176630    0.000748828
     15        1           0.000032827   -0.000191248    0.000457783
     16        1           0.001205986    0.002072569   -0.000266630
     17        1          -0.000181492    0.000772386   -0.000629358
     18        1           0.000591500   -0.000024277   -0.000578829
     19        1          -0.001142580    0.000711974   -0.000557062
     20        1           0.000800455   -0.000390322   -0.000182948
     21        1          -0.001214941    0.002259821    0.000332850
     22        1          -0.001586198   -0.001192948    0.001509444
     23        1          -0.000278454   -0.000275341   -0.000634569
     24        1           0.000039287    0.000532904    0.000251103
     25        1          -0.002630307    0.000096079    0.001559800
     26        1           0.001446386   -0.000061005    0.001331398
     27        1           0.002027734   -0.001172645    0.000021939
     28        1          -0.000059476   -0.000207249   -0.000000901
     29        1          -0.000024985   -0.000971358    0.000060806
     30        1           0.000302953    0.000592497   -0.000002412
     31        1           0.000006616   -0.000562209    0.000302876
 -------------------------------------------------------------------
 Cartesian Forces:  Max     0.004927596 RMS     0.001491383

 GradGradGradGradGradGradGradGradGradGradGradGradGradGradGradGradGradGrad
 Berny optimization.
 Using GEDIIS/GDIIS optimizer.
 FormGI is forming the generalized inverse of G from B-inverse, IUseBI=4.
 Internal  Forces:  Max     0.003076159 RMS     0.000933640
 Search for a local minimum.
 Step number   4 out of a maximum of  174
 All quantities printed in internal units (Hartrees-Bohrs-Radians)
 Mixed Optimization -- En-DIIS/RFO-DIIS
 Update second derivatives using D2CorX and points    3    4
 DE= -5.67D-03 DEPred=-5.23D-03 R= 1.08D+00
 TightC=F SS=  1.41D+00  RLast= 6.20D-01 DXNew= 8.4853D-01 1.8607D+00
 Trust test= 1.08D+00 RLast= 6.20D-01 DXMaxT set to 8.49D-01
 ITU=  1  1  0  0
 Use linear search instead of GDIIS.
     Eigenvalues ---    0.00342   0.00517   0.00560   0.00600   0.00659
     Eigenvalues ---    0.00996   0.01386   0.01623   0.02043   0.02405
     Eigenvalues ---    0.03035   0.03072   0.03104   0.03179   0.03498
     Eigenvalues ---    0.03678   0.03897   0.03914   0.03976   0.04341
     Eigenvalues ---    0.04637   0.05207   0.05352   0.05584   0.06393
     Eigenvalues ---    0.06467   0.07553   0.07704   0.08737   0.09807
     Eigenvalues ---    0.10005   0.10407   0.10501   0.10699   0.11021
     Eigenvalues ---    0.11129   0.11325   0.11403   0.12309   0.13068
     Eigenvalues ---    0.13531   0.14546   0.15125   0.15529   0.15983
     Eigenvalues ---    0.15997   0.16240   0.16518   0.17315   0.19246
     Eigenvalues ---    0.20452   0.21921   0.21954   0.22001   0.26751
     Eigenvalues ---    0.27937   0.28946   0.30649   0.30967   0.31304
     Eigenvalues ---    0.31877   0.32510   0.33188   0.33686   0.33836
     Eigenvalues ---    0.33888   0.33948   0.33985   0.33998   0.34018
     Eigenvalues ---    0.34034   0.34251   0.34331   0.34468   0.35037
     Eigenvalues ---    0.35283   0.35342   0.35483   0.35518   0.35657
     Eigenvalues ---    0.35803   0.36064   0.37385   0.38141   0.39529
     Eigenvalues ---    0.41409   0.60239
 RFO step:  Lambda=-5.86471697D-03 EMin= 3.42182234D-03
 Quartic linear search produced a step of  0.90458.
 Iteration  1 RMS(Cart)=  0.13940104 RMS(Int)=  0.01283095
 Iteration  2 RMS(Cart)=  0.02189856 RMS(Int)=  0.00204341
 Iteration  3 RMS(Cart)=  0.00043888 RMS(Int)=  0.00202532
 Iteration  4 RMS(Cart)=  0.00000112 RMS(Int)=  0.00202532
 Iteration  5 RMS(Cart)=  0.00000000 RMS(Int)=  0.00202532
 Variable       Old X    -DE/DX   Delta X   Delta X   Delta X     New X
                                 (Linear)    (Quad)   (Total)
    R1        2.51028   0.00091  -0.00595   0.00303  -0.00293   2.50735
    R2        2.05138  -0.00063   0.00684  -0.00400   0.00284   2.05422
    R3        2.05217   0.00042  -0.00289   0.00220  -0.00069   2.05148
    R4        2.84104  -0.00083   0.00835  -0.00601   0.00234   2.84338
    R5        2.05242   0.00057  -0.00026   0.00436   0.00411   2.05653
    R6        2.79114  -0.00075   0.00522  -0.00664  -0.00142   2.78972
    R7        2.08023  -0.00079   0.00040  -0.00354  -0.00313   2.07710
    R8        2.07987  -0.00007   0.00038  -0.00032   0.00007   2.07994
    R9        2.78258   0.00052   0.01481   0.00296   0.01860   2.80117
   R10        2.79235  -0.00019  -0.01085  -0.00502  -0.01903   2.77332
   R11        2.63652  -0.00144   0.00142  -0.00499  -0.00015   2.63637
   R12        2.09601   0.00020  -0.00372   0.00141  -0.00231   2.09370
   R13        2.06696  -0.00005   0.00056  -0.00028   0.00029   2.06725
   R14        2.66822   0.00167  -0.00412   0.00614   0.00356   2.67178
   R15        2.80424  -0.00308  -0.00135  -0.01214  -0.01590   2.78834
   R16        2.07940   0.00026  -0.00499   0.00218  -0.00281   2.07659
   R17        2.07015  -0.00086   0.00158  -0.00449  -0.00291   2.06724
   R18        2.78965   0.00021  -0.01082   0.00017  -0.01065   2.77900
   R19        2.88535   0.00009  -0.00573   0.00294  -0.00279   2.88256
   R20        2.06960  -0.00020  -0.00106  -0.00074  -0.00180   2.06780
   R21        2.08594   0.00002  -0.00072   0.00025  -0.00046   2.08548
   R22        2.88053   0.00152  -0.03529   0.01162  -0.02368   2.85685
   R23        2.06387  -0.00012  -0.00638   0.00309  -0.00329   2.06058
   R24        2.06919  -0.00022   0.00497  -0.00151   0.00346   2.07265
   R25        2.85484   0.00066  -0.01669   0.00543  -0.01130   2.84355
   R26        2.85415  -0.00032  -0.00139  -0.00186  -0.00329   2.85086
   R27        2.05233   0.00033  -0.00026   0.00137   0.00110   2.05343
   R28        2.84598  -0.00013   0.00815  -0.00103   0.00718   2.85316
   R29        2.05062  -0.00000  -0.00042   0.00013  -0.00029   2.05033
   R30        2.04821   0.00045  -0.00303   0.00232  -0.00071   2.04750
   R31        2.05116  -0.00022   0.00078  -0.00103  -0.00025   2.05092
   R32        2.05008   0.00001  -0.00023   0.00008  -0.00015   2.04993
    A1        2.11825   0.00069   0.01125   0.00427   0.01550   2.13375
    A2        2.13099  -0.00047  -0.01313  -0.00210  -0.01525   2.11574
    A3        2.03395  -0.00022   0.00190  -0.00217  -0.00029   2.03366
    A4        2.16943   0.00040   0.00655   0.00161   0.00813   2.17756
    A5        2.08399   0.00157  -0.00280   0.01672   0.01388   2.09787
    A6        2.02720  -0.00197  -0.00462  -0.01709  -0.02175   2.00544
    A7        2.01691  -0.00008  -0.03905  -0.01014  -0.04912   1.96779
    A8        1.92856   0.00059   0.00435   0.00522   0.00943   1.93799
    A9        1.86902  -0.00052   0.00546   0.00035   0.00634   1.87535
   A10        1.92439  -0.00038   0.01358  -0.00196   0.01114   1.93553
   A11        1.84934   0.00033   0.02277   0.00312   0.02583   1.87517
   A12        1.86721   0.00005  -0.00424   0.00451  -0.00021   1.86699
   A13        1.89846  -0.00233   0.03591   0.00038   0.03936   1.93782
   A14        1.93045   0.00084  -0.01077   0.01313   0.00427   1.93471
   A15        1.79800   0.00206   0.00031   0.03450   0.02587   1.82387
   A16        1.85414  -0.00222   0.01469  -0.01788  -0.00849   1.84565
   A17        1.94079  -0.00016  -0.00802  -0.00037  -0.00808   1.93271
   A18        1.93484   0.00076   0.00847   0.00199   0.01261   1.94744
   A19        1.91886   0.00160  -0.00817   0.01446   0.00766   1.92652
   A20        1.90922   0.00017  -0.00222  -0.00051  -0.00111   1.90811
   A21        1.90539  -0.00015  -0.00428   0.00214  -0.00247   1.90292
   A22        1.82357   0.00065  -0.00943  -0.00062  -0.01490   1.80867
   A23        1.87188   0.00031  -0.00587  -0.00490  -0.02156   1.85032
   A24        1.94294  -0.00053   0.00710  -0.00717   0.00286   1.94580
   A25        1.86691   0.00087  -0.00797   0.01520   0.01065   1.87756
   A26        1.92639   0.00031  -0.00100   0.00303   0.00369   1.93008
   A27        1.95184  -0.00144   0.00507  -0.01149  -0.00310   1.94874
   A28        1.90336   0.00046   0.00256   0.00522   0.00707   1.91043
   A29        1.83142  -0.00107   0.01586  -0.01379  -0.00799   1.82343
   A30        1.95519   0.00089  -0.02046  -0.00763  -0.02429   1.93090
   A31        1.90073   0.00040   0.00998   0.01804   0.03265   1.93338
   A32        2.00931   0.00120  -0.03539  -0.00052  -0.03583   1.97348
   A33        1.82916   0.00049   0.02624   0.00975   0.03544   1.86460
   A34        1.94209  -0.00114   0.01718  -0.01281   0.00411   1.94619
   A35        1.89699  -0.00125  -0.00980  -0.00337  -0.01264   1.88435
   A36        1.90927   0.00041   0.00753   0.00369   0.01135   1.92061
   A37        1.87010   0.00021  -0.00394   0.00402  -0.00036   1.86975
   A38        1.96358   0.00095   0.00859   0.00644   0.01478   1.97836
   A39        1.89348  -0.00029   0.02680  -0.00194   0.02465   1.91812
   A40        1.92517  -0.00087  -0.00177  -0.01316  -0.01478   1.91039
   A41        1.87464   0.00055  -0.01379   0.01791   0.00332   1.87796
   A42        1.93539  -0.00003  -0.01947   0.00396  -0.01555   1.91984
   A43        1.86786  -0.00033   0.00076  -0.01351  -0.01294   1.85492
   A44        2.11816   0.00061  -0.01276   0.00476  -0.00816   2.11000
   A45        2.11400   0.00084  -0.00056   0.00697   0.00643   2.12043
   A46        1.98443   0.00047   0.00035   0.00548   0.00546   1.98989
   A47        2.01942  -0.00108  -0.00168  -0.00916  -0.01100   2.00842
   A48        2.00555  -0.00111   0.01150  -0.01131   0.00016   2.00571
   A49        2.06007  -0.00063   0.01597  -0.00356   0.01250   2.07258
   A50        2.06222   0.00114  -0.01121   0.01355   0.00226   2.06448
   A51        2.04905   0.00036  -0.00509   0.00061  -0.00449   2.04456
   A52        2.07559  -0.00042   0.00101  -0.00685  -0.00587   2.06972
   A53        1.98971  -0.00019  -0.00077  -0.00168  -0.00265   1.98707
   A54        2.06036  -0.00114   0.01431  -0.01354   0.00069   2.06105
   A55        2.06081   0.00094  -0.01210   0.01348   0.00156   2.06237
   A56        2.05653   0.00003  -0.01155   0.00419  -0.00720   2.04933
   A57        2.06955  -0.00033   0.01535  -0.00807   0.00723   2.07679
   A58        1.98935   0.00016  -0.00065   0.00131   0.00064   1.98999
    D1        3.06446  -0.00009  -0.03715   0.01821  -0.01892   3.04554
    D2        0.00301  -0.00005  -0.02192  -0.00029  -0.02223  -0.01922
    D3       -0.07750  -0.00022  -0.04453   0.01610  -0.02841  -0.10592
    D4       -3.13895  -0.00019  -0.02929  -0.00241  -0.03172   3.11251
    D5        2.65360  -0.00124  -0.11183  -0.08743  -0.19919   2.45441
    D6        0.45350  -0.00116  -0.10218  -0.08103  -0.18330   0.27020
    D7       -1.57417  -0.00124  -0.10249  -0.08934  -0.19176  -1.76593
    D8       -0.56577  -0.00113  -0.12657  -0.06808  -0.19462  -0.76039
    D9       -2.76587  -0.00105  -0.11693  -0.06168  -0.17873  -2.94460
   D10        1.48965  -0.00113  -0.11724  -0.06999  -0.18719   1.30245
   D11        2.73031  -0.00175  -0.10100  -0.01317  -0.11132   2.61899
   D12       -1.59014  -0.00013  -0.08656   0.03496  -0.05492  -1.64506
   D13       -1.35066  -0.00133  -0.11497  -0.01589  -0.12799  -1.47865
   D14        0.61208   0.00029  -0.10053   0.03224  -0.07159   0.54049
   D15        0.66395  -0.00128  -0.10158  -0.00986  -0.10791   0.55604
   D16        2.62669   0.00034  -0.08714   0.03826  -0.05151   2.57518
   D17        2.61843   0.00030  -0.06312  -0.03399  -0.09675   2.52168
   D18        0.53098  -0.00018  -0.05787  -0.04031  -0.09642   0.43456
   D19       -1.59219  -0.00040  -0.05280  -0.04416  -0.09636  -1.68855
   D20        0.56951  -0.00067  -0.06630  -0.06651  -0.13451   0.43500
   D21       -1.51794  -0.00116  -0.06105  -0.07283  -0.13418  -1.65212
   D22        2.64208  -0.00138  -0.05598  -0.07668  -0.13412   2.50795
   D23       -2.27022   0.00246   0.06511   0.08827   0.15350  -2.11672
   D24        1.95336   0.00216   0.05396   0.07892   0.13180   2.08515
   D25       -0.24401   0.00124   0.10208   0.11286   0.21606  -0.02795
   D26       -2.30362   0.00093   0.09093   0.10351   0.19436  -2.10926
   D27       -0.67514   0.00015   0.00091  -0.00774  -0.00459  -0.67973
   D28        1.42655  -0.00048  -0.00442  -0.01080  -0.01510   1.41145
   D29       -2.76449   0.00043  -0.01620   0.00039  -0.01411  -2.77860
   D30        0.50788   0.00200   0.06324   0.09453   0.15542   0.66329
   D31       -1.60106   0.00173   0.06397   0.09820   0.16289  -1.43817
   D32        2.60441   0.00094   0.06171   0.08656   0.14593   2.75035
   D33       -0.14969  -0.00168  -0.10367  -0.12897  -0.23243  -0.38213
   D34        1.94650  -0.00102  -0.11399  -0.13637  -0.24899   1.69750
   D35        1.96968  -0.00194  -0.09927  -0.13899  -0.24016   1.72952
   D36       -2.21731  -0.00129  -0.10959  -0.14638  -0.25672  -2.47404
   D37       -2.19124  -0.00212  -0.09326  -0.13805  -0.23067  -2.42191
   D38       -0.09505  -0.00146  -0.10358  -0.14544  -0.24723  -0.34228
   D39       -1.19115  -0.00104  -0.03146  -0.02297  -0.05876  -1.24991
   D40        3.00914  -0.00051  -0.01770  -0.02519  -0.04634   2.96280
   D41        0.99366  -0.00048  -0.03485  -0.02922  -0.06838   0.92528
   D42        3.07415  -0.00050  -0.04543  -0.01280  -0.05450   3.01965
   D43        0.99125   0.00004  -0.03167  -0.01501  -0.04207   0.94918
   D44       -1.02423   0.00007  -0.04882  -0.01904  -0.06411  -1.08834
   D45       -2.96128  -0.00001   0.01520  -0.02768  -0.01245  -2.97373
   D46        1.25045  -0.00108   0.01001  -0.05256  -0.04295   1.20749
   D47       -0.79026  -0.00001  -0.00528  -0.02773  -0.03317  -0.82343
   D48       -0.91637   0.00048   0.01918  -0.01800   0.00162  -0.91475
   D49       -2.98783  -0.00059   0.01400  -0.04289  -0.02888  -3.01672
   D50        1.25465   0.00047  -0.00130  -0.01806  -0.01911   1.23554
   D51        1.12015   0.00025   0.01316  -0.01305   0.00027   1.12042
   D52       -0.95131  -0.00081   0.00798  -0.03793  -0.03024  -0.98155
   D53       -2.99201   0.00025  -0.00732  -0.01310  -0.02046  -3.01247
   D54        0.97478   0.00045   0.02754   0.06793   0.09555   1.07033
   D55        2.21977   0.00093   0.03049   0.07163   0.10206   2.32183
   D56       -1.56138   0.00083   0.05220   0.06928   0.12152  -1.43985
   D57        3.05725   0.00101   0.05672   0.08102   0.13766  -3.08827
   D58       -1.98095   0.00149   0.05967   0.08472   0.14418  -1.83677
   D59        0.52109   0.00139   0.08138   0.08236   0.16364   0.68473
   D60       -1.19059   0.00092   0.03826   0.07742   0.11584  -1.07475
   D61        0.05440   0.00140   0.04121   0.08111   0.12235   0.17674
   D62        2.55643   0.00130   0.06292   0.07876   0.14181   2.69824
   D63        0.05329   0.00012   0.02022   0.00457   0.02476   0.07804
   D64       -2.45771  -0.00034   0.01393  -0.00842   0.00535  -2.45236
   D65        2.57817   0.00025  -0.00439   0.00803   0.00383   2.58201
   D66        0.06717  -0.00021  -0.01067  -0.00497  -0.01557   0.05160
   D67       -0.05095   0.00029  -0.01035   0.00937  -0.00104  -0.05199
   D68        2.45749   0.00030  -0.00799   0.01187   0.00391   2.46141
   D69       -2.54584  -0.00016  -0.02837   0.00598  -0.02248  -2.56832
   D70       -0.03740  -0.00015  -0.02601   0.00848  -0.01753  -0.05492
   D71        0.00274   0.00025   0.00285   0.01203   0.01480   0.01754
   D72       -2.51376   0.00042  -0.00211   0.01579   0.01352  -2.50024
   D73        2.51754  -0.00023  -0.00556  -0.00163  -0.00711   2.51043
   D74        0.00104  -0.00005  -0.01052   0.00214  -0.00839  -0.00735
         Item               Value     Threshold  Converged?
 Maximum Force            0.003076     0.000450     NO 
 RMS     Force            0.000934     0.000300     NO 
 Maximum Displacement     0.638576     0.001800     NO 
 RMS     Displacement     0.147209     0.001200     NO 
 Predicted change in Energy=-5.783195D-03
 GradGradGradGradGradGradGradGradGradGradGradGradGradGradGradGradGradGrad

                          Input orientation:                          
 ---------------------------------------------------------------------
 Center     Atomic      Atomic             Coordinates (Angstroms)
 Number     Number       Type             X           Y           Z
 ---------------------------------------------------------------------
      1          6           0        0.830276    0.289184    0.477845
      2          6           0        2.029810    0.759619    0.161156
      3          6           0        3.074387    1.186094    1.156624
      4          7           0        4.439446    0.792043    0.755788
      5          6           0        5.443636    1.751968    1.272901
      6          8           0        6.567323    0.989226    1.592082
      7          6           0        6.022085   -0.189763    2.150348
      8          7           0        4.811851   -0.491534    1.362032
      9          6           0        5.102005   -1.490690    0.322744
     10          6           0        3.853843   -1.967576   -0.413102
     11          6           0        4.107022   -3.153022   -1.316485
     12          6           0        4.597175   -4.460682   -0.756111
     13          6           0        3.197044   -4.356273   -1.311370
     14          1           0        0.074274    0.074943   -0.273312
     15          1           0        0.558477    0.089731    1.509765
     16          1           0        2.294109    0.928063   -0.881006
     17          1           0        2.837453    0.811131    2.162311
     18          1           0        3.050514    2.285212    1.209674
     19          1           0        5.061749    2.272037    2.173578
     20          1           0        5.713959    2.496800    0.518677
     21          1           0        5.768327   -0.052974    3.210746
     22          1           0        6.773566   -0.978911    2.054321
     23          1           0        5.546293   -2.353625    0.828012
     24          1           0        5.847891   -1.117753   -0.400085
     25          1           0        3.456272   -1.161518   -1.030522
     26          1           0        3.071076   -2.211551    0.315403
     27          1           0        4.511168   -2.888788   -2.289936
     28          1           0        4.696808   -4.562942    0.319440
     29          1           0        5.338277   -5.015105   -1.319431
     30          1           0        2.375660   -4.372766   -0.602195
     31          1           0        2.970894   -4.831249   -2.260052
 ---------------------------------------------------------------------
                    Distance matrix (angstroms):
                    1          2          3          4          5
     1  C    0.000000
     2  C    1.326831   0.000000
     3  C    2.510224   1.504652   0.000000
     4  N    3.654617   2.482133   1.476256   0.000000
     5  C    4.904583   3.724908   2.438662   1.482316   0.000000
     6  O    5.886025   4.763328   3.525476   2.294805   1.395108
     7  C    5.475540   4.560315   3.401381   2.326690   2.207903
     8  N    4.152619   3.278298   2.423924   1.467579   2.332467
     9  C    4.630299   3.811612   3.460023   2.416067   3.396225
    10  C    3.876688   3.330836   3.607940   3.053642   4.382358
    11  C    5.079907   4.669796   5.100052   4.468596   5.705295
    12  C    6.186549   5.889337   6.153334   5.468256   6.590175
    13  C    5.512091   5.450057   6.068268   5.685232   7.002589
    14  H    1.087049   2.116994   3.504291   4.541807   5.833801
    15  H    1.085595   2.105307   2.767043   4.015426   5.165647
    16  H    2.097009   1.088269   2.197123   2.701863   3.903543
    17  H    2.671819   2.158602   1.099155   2.131913   2.910054
    18  H    3.073948   2.113920   1.100656   2.089186   2.452627
    19  H    4.971175   3.940800   2.482554   2.141909   1.107939
    20  H    5.359626   4.088835   3.015338   2.141682   1.093939
    21  H    5.654216   4.892526   3.607217   2.916641   2.668048
    22  H    6.278219   5.395349   4.379159   3.204775   3.136405
    23  H    5.417368   4.743695   4.329886   3.335499   4.130903
    24  H    5.284570   4.291534   3.927261   2.639522   3.346282
    25  H    3.357910   2.673137   3.231212   2.823816   4.212337
    26  H    3.361733   3.152123   3.500237   3.329858   4.717555
    27  H    5.595452   5.047363   5.527005   4.778085   5.924519
    28  H    6.206310   5.955468   6.031961   5.378894   6.430003
    29  H    7.189420   6.818030   7.050597   6.231966   7.247384
    30  H    5.028765   5.200356   5.872188   5.725258   7.102171
    31  H    6.188470   6.164877   6.920463   6.547774   7.869877
                    6          7          8          9         10
     6  O    0.000000
     7  C    1.413846   0.000000
     8  N    2.308085   1.475525   0.000000
     9  C    3.147755   2.424684   1.470585   0.000000
    10  C    4.486248   3.799101   2.499516   1.525385   0.000000
    11  C    5.627705   4.946443   3.841192   2.537797   1.511781
    12  C    6.252758   5.358975   4.504081   3.199943   2.624075
    13  C    6.954364   6.109350   4.968993   3.809301   2.635174
    14  H    6.817279   6.428114   5.043796   5.299487   4.298438
    15  H    6.076355   5.508128   4.295449   4.954835   4.334671
    16  H    4.937637   4.933198   3.658620   3.896621   3.322113
    17  H    3.777407   3.338235   2.497124   3.716259   3.922629
    18  H    3.767461   3.980026   3.291784   4.387789   4.622223
    19  H    2.061673   2.642583   2.891087   4.193486   5.111191
    20  H    2.037943   3.158309   3.233449   4.038930   4.925333
    21  H    2.084382   1.098885   2.127186   3.294171   4.523630
    22  H    2.032182   1.093938   2.136616   2.460568   3.948471
    23  H    3.577842   2.580164   2.071706   1.094232   2.133960
    24  H    2.987586   2.719598   2.137893   1.103589   2.167624
    25  H    4.602433   4.200671   2.830334   2.155950   1.090412
    26  H    4.909035   4.020336   2.661614   2.155079   1.096799
    27  H    5.859764   5.411444   4.378825   3.021567   2.191623
    28  H    5.995417   4.922731   4.204355   3.098860   2.825444
    29  H    6.785238   5.982549   5.284890   3.895391   3.508904
    30  H    7.150934   6.194387   4.985697   4.073676   2.829438
    31  H    7.851826   7.092587   5.944892   4.729885   3.520149
                   11         12         13         14         15
    11  C    0.000000
    12  C    1.504740   0.000000
    13  C    1.508608   1.509829   0.000000
    14  H    5.269822   6.423521   5.519504   0.000000
    15  H    5.576317   6.492421   5.889634   1.847711   0.000000
    16  H    4.486820   5.861594   5.378170   2.454542   3.070994
    17  H    5.424789   6.277405   6.236813   3.756247   2.477895
    18  H    6.088684   7.194689   7.105382   3.992811   3.334732
    19  H    6.520990   7.357201   7.717285   5.974061   5.048026
    20  H    6.153906   7.160925   7.526523   6.188593   5.775399
    21  H    5.732892   6.044455   6.751253   6.676620   5.482356
    22  H    4.816591   4.975734   5.960367   7.170007   6.329761
    23  H    2.703591   2.801778   3.755866   6.087188   5.595810
    24  H    2.830677   3.586951   4.283158   5.896884   5.751821
    25  H    2.114553   3.501634   3.217535   3.679690   4.051655
    26  H    2.150025   2.921593   2.694827   3.815162   3.610479
    27  H    1.086628   2.197923   2.199551   5.704078   6.239638
    28  H    2.238744   1.084985   2.225207   6.574888   6.339561
    29  H    2.232343   1.083488   2.240314   7.396802   7.543885
    30  H    2.235084   2.228576   1.085299   5.018631   5.260837
    31  H    2.235520   2.245874   1.084778   6.033926   6.651867
                   16         17         18         19         20
    16  H    0.000000
    17  H    3.093650   0.000000
    18  H    2.604792   1.768001   0.000000
    19  H    4.335502   2.661178   2.230326   0.000000
    20  H    4.014401   3.717163   2.759744   1.792929   0.000000
    21  H    5.456652   3.230466   4.105838   2.642091   3.708306
    22  H    5.684912   4.325378   5.022852   3.676031   3.944812
    23  H    4.926147   4.374226   5.281419   4.841702   4.863170
    24  H    4.128682   4.398773   4.690076   4.328099   3.731897
    25  H    2.395690   3.803744   4.130747   4.963176   4.569515
    26  H    3.448514   3.549966   4.584869   5.245775   5.403214
    27  H    4.633443   6.026046   6.414909   6.845452   6.191896
    28  H    6.112706   5.977796   7.099297   7.091400   7.135423
    29  H    6.691818   7.233373   8.057597   8.085792   7.742642
    30  H    5.308783   5.893093   6.933034   7.685923   7.719556
    31  H    5.960662   7.170186   7.917661   8.630494   8.303376
                   21         22         23         24         25
    21  H    0.000000
    22  H    1.790303   0.000000
    23  H    3.319596   2.213565   0.000000
    24  H    3.765393   2.626835   1.768208   0.000000
    25  H    4.956089   4.533657   3.040305   2.473703   0.000000
    26  H    4.507508   4.272198   2.531729   3.069041   1.749988
    27  H    6.315045   5.257247   3.328585   2.914606   2.383776
    28  H    5.463298   4.490882   2.421024   3.702977   3.864067
    29  H    6.732770   5.452809   3.426114   4.036615   4.298319
    30  H    6.686502   6.157671   4.021858   4.763649   3.415157
    31  H    7.783776   6.922040   4.723075   5.052390   3.900546
                   26         27         28         29         30
    26  H    0.000000
    27  H    3.052917   0.000000
    28  H    2.858682   3.105816   0.000000
    29  H    3.958888   2.479357   1.817094   0.000000
    30  H    2.448763   3.100170   2.504657   3.115145   0.000000
    31  H    3.675027   2.479212   3.115212   2.554030   1.820165
                   31
    31  H    0.000000
 Stoichiometry    C10H18N2O
 Framework group  C1[X(C10H18N2O)]
 Deg. of freedom    87
 Full point group                 C1      NOp   1
 Largest Abelian subgroup         C1      NOp   1
 Largest concise Abelian subgroup C1      NOp   1
                         Standard orientation:                         
 ---------------------------------------------------------------------
 Center     Atomic      Atomic             Coordinates (Angstroms)
 Number     Number       Type             X           Y           Z
 ---------------------------------------------------------------------
      1          6           0        0.441697    3.453597    0.461913
      2          6           0        0.917007    2.480869   -0.305135
      3          6           0        1.897991    1.433384    0.146999
      4          7           0        1.598088    0.095945   -0.401314
      5          6           0        2.837199   -0.699977   -0.569752
      6          8           0        2.483997   -2.017239   -0.275822
      7          6           0        1.593010   -1.887923    0.814305
      8          7           0        0.785372   -0.684051    0.539371
      9          6           0       -0.503623   -1.048128   -0.067720
     10          6           0       -1.449784    0.138802   -0.218634
     11          6           0       -2.850804   -0.259410   -0.623667
     12          6           0       -3.685519   -1.150427    0.255868
     13          6           0       -4.063201    0.300548    0.078074
     14          1           0       -0.197984    4.240722    0.070866
     15          1           0        0.668807    3.495716    1.522650
     16          1           0        0.656756    2.439642   -1.361022
     17          1           0        1.963947    1.401731    1.243716
     18          1           0        2.890691    1.727878   -0.226181
     19          1           0        3.626626   -0.348285    0.123535
     20          1           0        3.213548   -0.646334   -1.595513
     21          1           0        2.133272   -1.781848    1.765312
     22          1           0        0.975196   -2.790184    0.844820
     23          1           0       -0.975853   -1.773139    0.602134
     24          1           0       -0.365276   -1.547794   -1.041939
     25          1           0       -1.069009    0.822825   -0.977660
     26          1           0       -1.477467    0.705602    0.719950
     27          1           0       -2.973492   -0.420611   -1.691245
     28          1           0       -3.292624   -1.444687    1.223462
     29          1           0       -4.300094   -1.907692   -0.216142
     30          1           0       -3.904100    0.965288    0.921093
     31          1           0       -4.932977    0.547810   -0.521171
 ---------------------------------------------------------------------
 Rotational constants (GHZ):           0.9904940           0.5114794           0.3615498
 Standard basis: 6-31G(2df,p) (6D, 7F)
 There are   493 symmetry adapted cartesian basis functions of A   symmetry.
 There are   454 symmetry adapted basis functions of A   symmetry.
   454 basis functions,   698 primitive gaussians,   493 cartesian basis functions
    50 alpha electrons       50 beta electrons
       nuclear repulsion energy       835.6946351614 Hartrees.
 NAtoms=   31 NActive=   31 NUniq=   31 SFac= 1.00D+00 NAtFMM=   60 NAOKFM=F Big=F
 Integral buffers will be    131072 words long.
 Raffenetti 2 integral format.
 Two-electron integral symmetry is turned on.
 One-electron integrals computed using PRISM.
 PrsmSu:  requested number of processors reduced to:  12 ShMem   1 Linda.
 SCF Done:  E(RB3LYP) =  -576.510758933     A.U. after   12 cycles
            NFock= 12  Conv=0.88D-08     -V/T= 2.0077

 **********************************************************************

            Population analysis using the SCF density.

 **********************************************************************

 Orbital symmetries:
       Occupied  (A) (A) (A) (A) (A) (A) (A) (A) (A) (A) (A) (A)
                 (A) (A) (A) (A) (A) (A) (A) (A) (A) (A) (A) (A)
                 (A) (A) (A) (A) (A) (A) (A) (A) (A) (A) (A) (A)
                 (A) (A) (A) (A) (A) (A) (A) (A) (A) (A) (A) (A)
                 (A) (A)
       Virtual   (A) (A) (A) (A) (A) (A) (A) (A) (A) (A) (A) (A)
                 (A) (A) (A) (A) (A) (A) (A) (A) (A) (A) (A) (A)
                 (A) (A) (A) (A) (A) (A) (A) (A) (A) (A) (A) (A)
                 (A) (A) (A) (A) (A) (A) (A) (A) (A) (A) (A) (A)
                 (A) (A) (A) (A) (A) (A) (A) (A) (A) (A) (A) (A)
                 (A) (A) (A) (A) (A) (A) (A) (A) (A) (A) (A) (A)
                 (A) (A) (A) (A) (A) (A) (A) (A) (A) (A) (A) (A)
                 (A) (A) (A) (A) (A) (A) (A) (A) (A) (A) (A) (A)
                 (A) (A) (A) (A) (A) (A) (A) (A) (A) (A) (A) (A)
                 (A) (A) (A) (A) (A) (A) (A) (A) (A) (A) (A) (A)
                 (A) (A) (A) (A) (A) (A) (A) (A) (A) (A) (A) (A)
                 (A) (A) (A) (A) (A) (A) (A) (A) (A) (A) (A) (A)
                 (A) (A) (A) (A) (A) (A) (A) (A) (A) (A) (A) (A)
                 (A) (A) (A) (A) (A) (A) (A) (A) (A) (A) (A) (A)
                 (A) (A) (A) (A) (A) (A) (A) (A) (A) (A) (A) (A)
                 (A) (A) (A) (A) (A) (A) (A) (A) (A) (A) (A) (A)
                 (A) (A) (A) (A) (A) (A) (A) (A) (A) (A) (A) (A)
                 (A) (A) (A) (A) (A) (A) (A) (A) (A) (A) (A) (A)
                 (A) (A) (A) (A) (A) (A) (A) (A) (A) (A) (A) (A)
                 (A) (A) (A) (A) (A) (A) (A) (A) (A) (A) (A) (A)
                 (A) (A) (A) (A) (A) (A) (A) (A) (A) (A) (A) (A)
                 (A) (A) (A) (A) (A) (A) (A) (A) (A) (A) (A) (A)
                 (A) (A) (A) (A) (A) (A) (A) (A) (A) (A) (A) (A)
                 (A) (A) (A) (A) (A) (A) (A) (A) (A) (A) (A) (A)
                 (A) (A) (A) (A) (A) (A) (A) (A) (A) (A) (A) (A)
                 (A) (A) (A) (A) (A) (A) (A) (A) (A) (A) (A) (A)
                 (A) (A) (A) (A) (A) (A) (A) (A) (A) (A) (A) (A)
                 (A) (A) (A) (A) (A) (A) (A) (A) (A) (A) (A) (A)
                 (A) (A) (A) (A) (A) (A) (A) (A) (A) (A) (A) (A)
                 (A) (A) (A) (A) (A) (A) (A) (A) (A) (A) (A) (A)
                 (A) (A) (A) (A) (A) (A) (A) (A) (A) (A) (A) (A)
                 (A) (A) (A) (A) (A) (A) (A) (A) (A) (A) (A) (A)
                 (A) (A) (A) (A) (A) (A) (A) (A) (A) (A) (A) (A)
                 (A) (A) (A) (A) (A) (A) (A) (A)
 The electronic state is 1-A.
 Alpha  occ. eigenvalues --  -19.14784 -14.35610 -14.35074 -10.25565 -10.25164
 Alpha  occ. eigenvalues --  -10.21874 -10.20110 -10.18428 -10.18085 -10.18058
 Alpha  occ. eigenvalues --  -10.17848 -10.17340 -10.16355  -1.06128  -0.94488
 Alpha  occ. eigenvalues --   -0.86078  -0.84561  -0.77792  -0.74767  -0.69342
 Alpha  occ. eigenvalues --   -0.65466  -0.62865  -0.60374  -0.59388  -0.55826
 Alpha  occ. eigenvalues --   -0.54685  -0.50792  -0.49982  -0.49369  -0.46552
 Alpha  occ. eigenvalues --   -0.46078  -0.45345  -0.44520  -0.43596  -0.41952
 Alpha  occ. eigenvalues --   -0.40442  -0.39623  -0.39073  -0.37432  -0.36691
 Alpha  occ. eigenvalues --   -0.35943  -0.34362  -0.33346  -0.33274  -0.29418
 Alpha  occ. eigenvalues --   -0.28196  -0.26890  -0.25454  -0.24850  -0.20308
 Alpha virt. eigenvalues --    0.01677   0.08059   0.08825   0.09827   0.09873
 Alpha virt. eigenvalues --    0.11210   0.11524   0.12123   0.13061   0.14077
 Alpha virt. eigenvalues --    0.14314   0.15845   0.16302   0.16872   0.17211
 Alpha virt. eigenvalues --    0.17728   0.18328   0.18546   0.19321   0.20211
 Alpha virt. eigenvalues --    0.20278   0.21304   0.22674   0.23500   0.24383
 Alpha virt. eigenvalues --    0.24951   0.26695   0.28358   0.29113   0.30810
 Alpha virt. eigenvalues --    0.32041   0.32782   0.34045   0.41099   0.42886
 Alpha virt. eigenvalues --    0.43655   0.44881   0.45341   0.46727   0.47435
 Alpha virt. eigenvalues --    0.49249   0.49743   0.50126   0.50801   0.52113
 Alpha virt. eigenvalues --    0.52719   0.53409   0.54377   0.55937   0.56893
 Alpha virt. eigenvalues --    0.57354   0.58724   0.59199   0.60673   0.60909
 Alpha virt. eigenvalues --    0.62808   0.63205   0.63862   0.66111   0.67087
 Alpha virt. eigenvalues --    0.68700   0.68762   0.70315   0.71051   0.72053
 Alpha virt. eigenvalues --    0.73627   0.74371   0.75237   0.75570   0.75804
 Alpha virt. eigenvalues --    0.77106   0.78068   0.78673   0.78977   0.79647
 Alpha virt. eigenvalues --    0.80169   0.81019   0.81262   0.81497   0.82643
 Alpha virt. eigenvalues --    0.83561   0.84653   0.85156   0.85355   0.86653
 Alpha virt. eigenvalues --    0.88293   0.90442   0.90963   0.92407   0.93710
 Alpha virt. eigenvalues --    0.94705   0.97174   0.98893   0.99323   1.00851
 Alpha virt. eigenvalues --    1.04109   1.05071   1.07311   1.08634   1.12036
 Alpha virt. eigenvalues --    1.12456   1.14274   1.14737   1.16542   1.16669
 Alpha virt. eigenvalues --    1.18357   1.18996   1.21429   1.22987   1.24414
 Alpha virt. eigenvalues --    1.26407   1.28723   1.29795   1.32083   1.33368
 Alpha virt. eigenvalues --    1.33955   1.37387   1.37984   1.38979   1.40070
 Alpha virt. eigenvalues --    1.41952   1.42436   1.44198   1.45689   1.46874
 Alpha virt. eigenvalues --    1.47909   1.48657   1.49792   1.50836   1.52329
 Alpha virt. eigenvalues --    1.52722   1.54109   1.55608   1.56940   1.58009
 Alpha virt. eigenvalues --    1.58764   1.60072   1.61164   1.62980   1.63690
 Alpha virt. eigenvalues --    1.63777   1.65667   1.68763   1.69258   1.71180
 Alpha virt. eigenvalues --    1.73143   1.76092   1.78039   1.79751   1.81429
 Alpha virt. eigenvalues --    1.81732   1.84195   1.84801   1.87162   1.89998
 Alpha virt. eigenvalues --    1.91254   1.94105   1.95194   1.96732   1.98034
 Alpha virt. eigenvalues --    2.00584   2.01245   2.03970   2.05367   2.08076
 Alpha virt. eigenvalues --    2.09952   2.11699   2.14935   2.17066   2.19374
 Alpha virt. eigenvalues --    2.20191   2.21259   2.23294   2.24110   2.25966
 Alpha virt. eigenvalues --    2.28208   2.28894   2.30456   2.31887   2.34205
 Alpha virt. eigenvalues --    2.38062   2.38456   2.40657   2.43323   2.44102
 Alpha virt. eigenvalues --    2.47419   2.50606   2.54925   2.55331   2.56402
 Alpha virt. eigenvalues --    2.58308   2.60439   2.64715   2.67110   2.68985
 Alpha virt. eigenvalues --    2.70899   2.71245   2.72266   2.74384   2.76484
 Alpha virt. eigenvalues --    2.78201   2.79338   2.79533   2.81408   2.82334
 Alpha virt. eigenvalues --    2.82981   2.83587   2.84132   2.85771   2.87532
 Alpha virt. eigenvalues --    2.87653   2.89186   2.90089   2.90853   2.91915
 Alpha virt. eigenvalues --    2.92474   2.92882   2.96097   2.96549   2.97919
 Alpha virt. eigenvalues --    2.99705   3.02217   3.02738   3.06149   3.07088
 Alpha virt. eigenvalues --    3.08192   3.09370   3.10472   3.12179   3.14820
 Alpha virt. eigenvalues --    3.16770   3.17895   3.18331   3.19800   3.20697
 Alpha virt. eigenvalues --    3.21627   3.23276   3.24279   3.27319   3.28004
 Alpha virt. eigenvalues --    3.28803   3.30189   3.31314   3.33528   3.34339
 Alpha virt. eigenvalues --    3.34963   3.35676   3.38026   3.39513   3.40515
 Alpha virt. eigenvalues --    3.41990   3.42768   3.43767   3.44531   3.46249
 Alpha virt. eigenvalues --    3.46583   3.47798   3.48988   3.50706   3.51581
 Alpha virt. eigenvalues --    3.52144   3.55548   3.56612   3.58140   3.61841
 Alpha virt. eigenvalues --    3.62875   3.64742   3.66123   3.68633   3.69192
 Alpha virt. eigenvalues --    3.70189   3.72876   3.76793   3.79056   3.80459
 Alpha virt. eigenvalues --    3.80684   3.81792   3.85136   3.86392   3.88387
 Alpha virt. eigenvalues --    3.89755   3.91886   3.96215   3.97561   4.02429
 Alpha virt. eigenvalues --    4.04198   4.07362   4.12070   4.14006   4.16107
 Alpha virt. eigenvalues --    4.20548   4.22296   4.24165   4.25836   4.28049
 Alpha virt. eigenvalues --    4.29761   4.32846   4.34532   4.35958   4.37634
 Alpha virt. eigenvalues --    4.39280   4.40195   4.41412   4.42208   4.42839
 Alpha virt. eigenvalues --    4.45238   4.46019   4.46944   4.49462   4.49806
 Alpha virt. eigenvalues --    4.51717   4.52612   4.52923   4.54926   4.55423
 Alpha virt. eigenvalues --    4.56743   4.57392   4.59344   4.60128   4.60972
 Alpha virt. eigenvalues --    4.62569   4.62957   4.65323   4.67956   4.68413
 Alpha virt. eigenvalues --    4.70227   4.71006   4.71836   4.72453   4.73473
 Alpha virt. eigenvalues --    4.74129   4.75305   4.76198   4.77149   4.78005
 Alpha virt. eigenvalues --    4.78983   4.79545   4.80872   4.82457   4.83450
 Alpha virt. eigenvalues --    4.83931   4.84837   4.86184   4.87663   4.89298
 Alpha virt. eigenvalues --    4.90547   4.92137   4.94548   4.95170   4.97021
 Alpha virt. eigenvalues --    4.98370   5.00825   5.04677   5.04904   5.05711
 Alpha virt. eigenvalues --    5.10771   5.13602   5.16488   5.17989   5.21790
 Alpha virt. eigenvalues --    5.23316   5.24153   5.27760   5.29932   5.31132
 Alpha virt. eigenvalues --    5.33237   5.38363   5.41200   5.43323   5.46532
 Alpha virt. eigenvalues --    5.48645   5.49826   5.53496   5.55331   5.60111
 Alpha virt. eigenvalues --    5.62388   5.65345   5.68789   5.77266   5.85281
 Alpha virt. eigenvalues --    5.86442   5.91123   5.98854   6.04403   6.10695
 Alpha virt. eigenvalues --    6.17134   6.28248   6.45382   7.02104  10.43252
 Alpha virt. eigenvalues --   10.78609  11.18882  11.23239  11.50403  11.53563
 Alpha virt. eigenvalues --   11.61300  11.74400  11.99191  12.09243  12.24276
 Alpha virt. eigenvalues --   12.55337  13.31494  17.50215  19.36602
          Condensed to atoms (all electrons):
               1          2          3          4          5          6
     1  C    5.028090   0.653330  -0.023937   0.002206  -0.000080   0.000000
     2  C    0.653330   4.638592   0.427396  -0.023661   0.001428  -0.000047
     3  C   -0.023937   0.427396   4.923188   0.346180  -0.053635   0.001565
     4  N    0.002206  -0.023661   0.346180   6.463172   0.348528  -0.045121
     5  C   -0.000080   0.001428  -0.053635   0.348528   4.796480   0.397663
     6  O    0.000000  -0.000047   0.001565  -0.045121   0.397663   7.663362
     7  C    0.000012   0.000015   0.004259  -0.051275  -0.124852   0.378615
     8  N    0.000046  -0.001556  -0.048289   0.259359  -0.069537  -0.038843
     9  C    0.000244   0.001592  -0.001238  -0.045900   0.004713   0.001602
    10  C   -0.001283  -0.009101  -0.000472  -0.012191  -0.000150  -0.000121
    11  C   -0.000055   0.000003   0.000155  -0.000059   0.000007   0.000001
    12  C    0.000000   0.000007  -0.000003  -0.000003   0.000000   0.000000
    13  C    0.000004  -0.000084  -0.000000   0.000001   0.000000  -0.000000
    14  H    0.361079  -0.004693   0.004807  -0.000065   0.000001  -0.000000
    15  H    0.365034  -0.024153  -0.014348   0.000058  -0.000007   0.000000
    16  H   -0.044540   0.373348  -0.065243  -0.000773   0.000084  -0.000002
    17  H   -0.002556  -0.028379   0.323014  -0.035353  -0.002656  -0.000113
    18  H   -0.001407  -0.037176   0.351387  -0.024146  -0.004751   0.000181
    19  H    0.000045   0.000476  -0.007550  -0.053496   0.356265  -0.043069
    20  H   -0.000001  -0.000296   0.000593  -0.015091   0.358752  -0.009826
    21  H   -0.000000   0.000015   0.000095   0.001687   0.005436  -0.034324
    22  H   -0.000000  -0.000008  -0.000118   0.001679   0.005604  -0.018198
    23  H    0.000003  -0.000020  -0.000308   0.003481  -0.000218   0.000166
    24  H    0.000002  -0.000264   0.000468   0.006525   0.002128   0.000681
    25  H    0.000727  -0.007796  -0.004297   0.010531  -0.000044   0.000003
    26  H    0.002006   0.003772  -0.000134  -0.000252   0.000050  -0.000002
    27  H   -0.000006   0.000033   0.000001   0.000006  -0.000000  -0.000000
    28  H   -0.000000  -0.000001   0.000000  -0.000001  -0.000000  -0.000000
    29  H    0.000000   0.000000   0.000000   0.000000  -0.000000   0.000000
    30  H    0.000007  -0.000018  -0.000001   0.000000   0.000000  -0.000000
    31  H   -0.000002  -0.000001   0.000000  -0.000000   0.000000   0.000000
               7          8          9         10         11         12
     1  C    0.000012   0.000046   0.000244  -0.001283  -0.000055   0.000000
     2  C    0.000015  -0.001556   0.001592  -0.009101   0.000003   0.000007
     3  C    0.004259  -0.048289  -0.001238  -0.000472   0.000155  -0.000003
     4  N   -0.051275   0.259359  -0.045900  -0.012191  -0.000059  -0.000003
     5  C   -0.124852  -0.069537   0.004713  -0.000150   0.000007   0.000000
     6  O    0.378615  -0.038843   0.001602  -0.000121   0.000001   0.000000
     7  C    4.808975   0.353158  -0.062326   0.001818  -0.000115  -0.000001
     8  N    0.353158   6.457575   0.362759  -0.031213   0.001795   0.000307
     9  C   -0.062326   0.362759   4.897149   0.407273  -0.036398  -0.012126
    10  C    0.001818  -0.031213   0.407273   4.872130   0.421614  -0.025706
    11  C   -0.000115   0.001795  -0.036398   0.421614   4.672882   0.337720
    12  C   -0.000001   0.000307  -0.012126  -0.025706   0.337720   4.939891
    13  C    0.000001  -0.000073   0.003537  -0.005891   0.335193   0.324090
    14  H   -0.000000  -0.000002  -0.000008   0.000207   0.000017   0.000000
    15  H    0.000000   0.000007   0.000001  -0.000037   0.000002  -0.000000
    16  H   -0.000007   0.000363  -0.000006  -0.009943   0.000940  -0.000021
    17  H    0.001092   0.008972   0.000498  -0.000930   0.000016  -0.000000
[...]
 .00002171,-0.00000856,-0.00000903,-0.00003469,0.00007388,0.00032286,-0
 .00019652,0.00031814,-0.00011770,0.00009273,0.00021868,0.00004732,-0.0
 0003959,-0.00001304,0.00006524,0.00005518,-0.00002197,0.00013128,-0.00
 002050,-0.00005377,-0.00000886,-0.00015073,-0.00004779,0.00022573,-0.0
 0010711,0.00019765,-0.00333164,-0.00221734,-0.00202963,0.00041585,-0.0
 0058420,0.00107159,0.04399632,-0.12549521,0.14916387,-0.00004891,0.000
 15947,0.00001598,-0.00011345,0.00006053,-0.00000039,-0.00020473,-0.000
 09724,-0.00000633,0.00007419,-0.00023984,0.00003949,-0.00012124,0.0001
 9140,0.00010551,0.00040684,0.00012583,-0.00014395,-0.00010677,0.000002
 70,-0.00014348,0.00220479,0.00114527,0.00082496,-0.02255938,-0.0080212
 8,0.01169230,-0.21338298,-0.05957331,0.10341131,-0.01008994,-0.0026951
 4,0.00614281,0.00011561,-0.00086063,0.00006481,0.00063942,-0.00056183,
 -0.00064219,0.00000804,0.00001105,-0.00000012,0.00000784,-0.00003046,-
 0.00000520,0.00001757,0.00001784,0.00003454,0.00002259,-0.00001334,-0.
 00002529,0.00003461,-0.00001111,-0.00000872,0.00003974,-0.00001919,-0.
 00003429,0.00002698,0.00004612,-0.00005602,-0.00000958,-0.00005170,-0.
 00006138,-0.00000812,-0.00000648,0.00007006,0.00077168,0.00054332,0.00
 028207,-0.00255952,-0.00123682,-0.00356137,0.00689450,0.00227930,-0.00
 419075,0.23670849,0.00028852,0.00036615,-0.00019360,-0.00036980,-0.000
 08873,0.00015146,-0.00044286,-0.00007717,-0.00006645,0.00026350,-0.000
 54945,-0.00028267,-0.00000419,0.00008056,0.00016797,0.00031658,0.00007
 950,-0.00013831,-0.00020965,-0.00005064,-0.00014998,0.00026121,0.00071
 477,0.00103186,-0.00908174,-0.00390565,0.00500905,-0.06048312,-0.06972
 435,0.03954651,0.02133415,0.00474941,-0.01421668,0.00086121,0.00179965
 ,-0.00041280,0.00074862,0.00146703,0.00006691,0.00005963,-0.00002991,-
 0.00000142,0.00000343,-0.00002062,0.00002282,0.00003168,-0.00012621,0.
 00017606,0.00010499,-0.00003606,-0.00004556,0.00007945,0.00003922,-0.0
 0000945,0.00002009,-0.00003071,-0.00003497,0.00006919,0.00004736,-0.00
 003331,0.00001156,-0.00003115,-0.00004737,0.00004438,-0.00000963,0.000
 05411,0.00060064,0.00050499,-0.00053488,-0.00126780,0.00027162,-0.0019
 9492,-0.02037525,-0.00683377,0.01239444,0.06614464,0.07463450,0.000013
 20,-0.00011160,-0.00005205,0.00012793,-0.00011372,0.00009734,0.0002582
 0,-0.00002061,-0.00002941,0.00005274,0.00014199,0.00023254,-0.00013806
 ,0.00011946,-0.00011621,0.00027201,-0.00004126,-0.00021139,-0.00036635
 ,0.00012961,0.00016412,0.00050046,0.00100952,0.00154354,-0.02006291,-0
 .00767103,0.01025836,0.10501030,0.03897755,-0.11237829,0.01549315,0.00
 479627,-0.01155763,-0.00040518,0.00084523,0.00087851,0.00097460,0.0010
 6222,0.00032728,-0.00003399,-0.00000202,0.00001709,-0.00000446,-0.0000
 0518,-0.00002951,-0.00000299,0.00008812,-0.00015468,-0.00004760,-0.000
 01213,0.00000750,-0.00001903,0.00000218,-0.00000309,0.00002671,0.00000
 434,-0.00000981,0.00001123,0.00004238,-0.00001245,0.00005414,0.0000236
 6,0.00003600,0.00000250,-0.00000019,0.00003355,0.00066239,0.00032175,0
 .00114780,-0.00331742,-0.00208373,-0.00249366,0.01550991,0.00499471,-0
 .00980647,-0.11377713,-0.03848989,0.12283989,0.00000988,0.00005530,-0.
 00001931,-0.00004568,0.00001176,0.00000622,-0.00003558,-0.00001774,-0.
 00000857,0.00001468,0.00001993,0.00000486,-0.00005750,-0.00005843,0.00
 011802,0.00006917,0.00010003,-0.00003371,-0.00007683,0.00002277,-0.000
 00838,0.00032032,0.00004311,-0.00002584,-0.00001527,-0.00013393,-0.000
 46172,-0.00806893,-0.00269928,0.00506720,-0.22341401,-0.04897788,0.127
 38118,0.00676110,0.00114272,-0.00754012,-0.01686060,-0.00385523,0.0121
 3853,0.00001503,-0.00000911,-0.00000062,0.00000609,-0.00000672,0.00000
 400,0.00000706,-0.00002653,0.00002948,0.00000655,-0.00000101,0.0000016
 4,0.00000561,0.00001779,0.00000013,0.00000889,0.00001248,-0.00001437,0
 .00003372,0.00001631,-0.00002005,0.00000881,0.00001289,0.00001259,-0.0
 0000651,0.00000018,-0.00000933,0.00002900,0.00002842,-0.00004323,0.000
 58852,0.00023582,0.00027824,0.00015234,0.00005533,-0.00031465,0.000218
 90,0.00180844,0.00081911,0.23824385,-0.00001890,-0.00007685,0.00001966
 ,0.00005081,0.00000240,-0.00000816,-0.00000067,0.00004157,0.00001756,-
 0.00002443,0.00000245,-0.00001807,0.00004627,0.00004090,-0.00008564,-0
 .00011397,-0.00012274,0.00002919,0.00006385,0.00004209,0.00013868,-0.0
 0028200,-0.00019878,-0.00004472,0.00115570,0.00100951,0.00061507,0.020
 09523,0.00658266,-0.01385066,-0.04623769,-0.05898734,0.02825643,-0.019
 88589,-0.00773277,0.01253163,-0.00689775,-0.00588724,0.00452114,-0.000
 00782,0.00000848,0.00000085,-0.00000488,0.00000798,-0.00000468,-0.0000
 1586,0.00002600,-0.00003533,-0.00000226,0.00000298,-0.00000777,-0.0000
 0172,-0.00001967,0.00000458,-0.00000944,-0.00001751,0.00000841,-0.0000
 2797,-0.00001492,0.00001572,0.00000348,-0.00002095,-0.00000330,-0.0000
 0095,-0.00000215,0.00000399,-0.00013773,-0.00003093,-0.00004640,-0.000
 52393,-0.00012174,0.00004864,-0.00034755,0.00095221,0.00090483,0.00155
 550,-0.00340976,-0.00329954,0.05315139,0.06929540,-0.00003444,-0.00006
 526,0.00000551,0.00006730,0.00000312,0.00002684,0.00007464,0.00004343,
 0.00001431,-0.00004511,-0.00004687,-0.00008510,0.00011116,-0.00000208,
 -0.00005647,-0.00012973,-0.00001025,0.00001714,0.00000711,-0.00003528,
 -0.00002256,-0.00063675,-0.00015902,0.00025271,0.00155999,0.00114893,0
 .00038791,0.01342015,0.00457432,-0.00924770,0.12862841,0.03048914,-0.1
 2657418,0.01364580,0.00150363,-0.01100662,-0.01861317,-0.00374457,0.01
 100500,-0.00001307,0.00000477,-0.00000040,-0.00000004,0.00000947,-0.00
 000729,-0.00002693,0.00002012,-0.00003524,-0.00000807,-0.00000229,-0.0
 0000708,-0.00001853,0.00000026,0.00000223,-0.00001535,0.00000438,0.000
 01540,-0.00002017,-0.00002156,0.00002300,0.00000778,0.00001604,0.00002
 266,0.00000625,-0.00000210,-0.00001331,-0.00003357,0.00000640,-0.00011
 832,-0.00080901,-0.00058459,-0.00006395,-0.00033274,-0.00026617,0.0006
 0489,0.00077349,-0.00294604,-0.00107488,-0.13633600,-0.02986921,0.1337
 4952,-0.00000387,-0.00000867,0.00000630,0.00001269,0.00000406,0.000000
 49,0.00005898,0.00000773,0.00000091,-0.00003786,0.00009308,0.00003143,
 -0.00001633,-0.00001915,0.00003353,0.00000025,0.00004623,-0.00003909,-
 0.00002045,-0.00007629,0.00002700,-0.00000402,0.00003810,-0.00017403,0
 .00012051,-0.00020564,0.00034414,0.00100588,0.00196638,-0.00088796,-0.
 00813751,0.00036377,0.00770657,-0.09829935,-0.01147147,0.11754739,0.01
 038869,0.00287167,-0.02186533,-0.00001057,0.00000252,-0.00000212,-0.00
 000003,-0.00000111,-0.00000206,0.00000102,0.00000024,-0.00000478,-0.00
 000876,0.00000102,0.00000381,-0.00001484,0.00000794,0.00000082,0.00000
 394,0.00001364,-0.00000320,0.00000499,0.00000348,-0.00000844,0.0000007
 2,0.00001700,0.00000481,-0.00002236,-0.00000095,-0.00001628,-0.0001940
 7,-0.00008593,-0.00026959,0.00000869,0.00012688,-0.00005070,-0.0000599
 0,0.00028489,0.00003662,0.00011815,-0.00019828,-0.00042238,0.00105470,
 -0.00219835,0.00120118,0.10179359,0.00000031,0.00002292,-0.00001013,-0
 .00001287,0.00000766,0.00001243,0.00004161,-0.00000802,-0.00000379,-0.
 00001003,0.00012471,0.00004868,-0.00003979,-0.00002591,0.00003748,0.00
 002663,0.00006000,-0.00002069,-0.00002881,-0.00010417,-0.00003561,-0.0
 0004294,-0.00000235,-0.00031476,0.00011356,-0.00050560,0.00007004,-0.0
 0246905,0.00267649,-0.00075961,-0.01291472,-0.00335500,0.02675403,-0.0
 1004867,-0.04878543,0.03652002,0.00334347,-0.00418846,-0.00329092,0.00
 000169,-0.00000588,0.00000135,0.00000386,-0.00000686,-0.00000192,0.000
 00578,-0.00000663,0.00000507,-0.00000908,0.00000124,0.00000717,-0.0000
 0609,0.00001261,-0.00000030,0.00000659,0.00001600,-0.00000311,0.000012
 44,0.00000318,-0.00000903,-0.00000644,0.00000900,-0.00000488,-0.000015
 58,0.00000044,-0.00001347,-0.00025784,-0.00006590,-0.00029452,0.000132
 20,0.00019139,0.00000068,0.00023674,0.00061884,-0.00006204,0.00081336,
 -0.00016215,-0.00042590,0.00216679,-0.00333973,0.00323598,0.01282526,0
 .05156323,0.00000281,-0.00000667,0.00001124,0.00000319,0.00000066,-0.0
 0002146,0.00002114,-0.00001217,-0.00000816,0.00001128,-0.00000499,0.00
 002360,-0.00000556,-0.00000379,-0.00001291,0.00001752,0.00000748,0.000
 01329,-0.00003456,0.00005073,-0.00001743,0.00010747,0.00009482,0.00018
 965,-0.00045311,0.00028366,0.00017448,0.00073951,-0.00045316,0.0001020
 8,-0.00327350,0.00065500,-0.00038072,0.11500927,0.03816445,-0.26904751
 ,0.00971544,0.00321667,-0.01693244,-0.00000749,0.00000462,-0.00000445,
 -0.00000122,0.00000249,0.00000402,0.00000553,-0.00000170,0.00000595,-0
 .00000180,0.00000173,0.00000717,-0.00000580,-0.00000185,-0.00000102,0.
 00000012,0.00000321,0.00000229,-0.00000277,-0.00000116,0.00000188,0.00
 000767,0.00000798,0.00001733,0.00000542,-0.00000333,0.00000118,0.00008
 276,0.00002081,0.00008229,-0.00000702,-0.00003720,0.00000255,-0.000145
 27,0.00000051,0.00007337,-0.00036342,0.00046871,0.00030392,-0.00064168
 ,-0.00108333,0.00024073,-0.12044250,-0.04403994,0.28763439,-0.00000590
 ,0.00000552,-0.00000645,0.00000304,0.00000136,0.00000815,-0.00001630,0
 .00000955,0.00000573,-0.00001334,-0.00001977,-0.00003599,0.00001749,0.
 00000156,-0.00001218,-0.00000336,0.00001336,-0.00000026,-0.00001049,-0
 .00001755,-0.00000834,-0.00000410,0.00000304,0.00000427,0.00011840,0.0
 0007995,0.00015998,0.00064704,-0.00205721,0.00192780,0.00918442,-0.007
 59986,-0.00634406,-0.20791646,0.13955728,0.05302328,-0.01488422,0.0109
 4772,0.00696812,0.00000970,-0.00000561,-0.00000176,0.00000345,0.000001
 05,0.00000138,-0.00001052,-0.00000197,-0.00000373,0.00000509,-0.000001
 43,-0.00000128,0.00000270,0.00000271,-0.00000125,-0.00000251,0.0000007
 5,0.00000213,-0.00000190,-0.00000054,0.00000237,-0.00000055,0.00000289
 ,0.00000113,-0.00000256,-0.00000058,-0.00000406,-0.00005081,-0.0000112
 9,-0.00006926,-0.00001904,-0.00000618,0.00000671,0.00034313,-0.0008797
 4,-0.00041307,0.00010105,-0.00007291,-0.00001255,0.00024148,0.00117608
 ,-0.00106985,-0.00781078,0.00673304,0.00040021,0.21867141,-0.00000929,
 -0.00002640,-0.00000938,0.00003006,-0.00000529,0.00005468,-0.00006228,
 0.00005980,0.00002449,-0.00007702,-0.00011762,-0.00017855,0.00012610,0
 .00006539,0.00000142,-0.00011447,-0.00004657,-0.00004383,0.00012835,-0
 .00004366,0.00008573,-0.00016161,-0.00004372,-0.00012467,0.00049186,0.
 00022407,0.00045186,0.00123018,-0.00259178,0.00476645,0.02159563,-0.01
 382802,-0.00727067,0.13873610,-0.15096256,-0.03523428,-0.00589143,-0.0
 0000744,0.00413861,0.00000356,0.00000164,0.00000229,-0.00000113,0.0000
 0485,-0.00001116,-0.00003364,0.00002148,-0.00003430,0.00001508,-0.0000
 0961,-0.00003018,0.00000520,-0.00000794,0.00000423,-0.00000799,-0.0000
 1884,-0.00000330,-0.00001148,0.00000528,0.00001021,-0.00001622,-0.0000
 2129,-0.00003128,-0.00000612,0.00000886,-0.00000373,-0.00006843,0.0000
 5155,-0.00021363,-0.00008542,-0.00007113,-0.00000713,0.00030716,-0.001
 37371,-0.00111554,0.00000026,0.00011556,0.00003860,-0.00134626,0.00202
 184,-0.00178754,-0.00559124,0.00400545,0.00115509,-0.14896795,0.161491
 90,-0.00000213,-0.00001498,0.00000749,0.00001192,-0.00000309,-0.000010
 18,-0.00000915,0.00001039,0.00000306,-0.00001962,-0.00003061,-0.000045
 03,0.00002794,0.00000822,-0.00000070,-0.00003553,-0.00001704,-0.000002
 82,0.00004347,0.00000323,0.00002246,-0.00006143,-0.00002354,0.00001657
 ,0.00020842,0.00001711,0.00020895,-0.00000096,-0.00117378,0.00000362,-
 0.00189839,0.00311928,-0.00440141,0.05482234,-0.03778917,-0.06108554,-
 0.01755681,0.01523043,0.00457431,-0.00000215,0.00000396,-0.00000409,-0
 .00000103,0.00000596,0.00000251,-0.00000594,-0.00000047,-0.00000178,0.
 00000508,-0.00000031,-0.00000289,-0.00000189,-0.00000376,0.00000093,-0
 .00000352,-0.00000376,-0.00000022,-0.00000432,-0.00000055,0.00000343,-
 0.00000433,0.00000237,-0.00000259,0.00000328,0.00000226,-0.00000368,0.
 00014887,0.00007370,0.00001287,-0.00006717,-0.00008235,0.00000048,-0.0
 0018068,-0.00036803,0.00011765,-0.00039448,0.00028119,0.00022057,-0.00
 000801,0.00107874,0.00115372,0.01882261,-0.01760002,-0.00307541,-0.052
 95073,0.03603737,0.06252756,0.00000570,0.00001113,0.00000398,-0.000009
 78,-0.00000529,-0.00002692,-0.00007164,0.00000970,0.00001202,0.0000204
 2,-0.00003529,-0.00002258,-0.00001410,0.00000655,-0.00000087,0.0000094
 0,-0.00002656,0.00000694,0.00000998,0.00002039,0.00002585,0.00003813,-
 0.00005595,-0.00006186,0.00020981,0.00025108,-0.00013603,0.00087270,0.
 00082781,0.00218264,-0.01243947,0.00253167,0.00127141,-0.00873258,-0.0
 0114070,0.00121599,-0.31593957,0.03542713,0.05808907,0.00001584,-0.000
 00307,-0.00000383,0.00000098,0.00000201,0.00000669,-0.00000607,-0.0000
 1104,0.00000828,0.00001453,0.00000054,-0.00000168,0.00001273,-0.000004
 17,-0.00000174,0.00000018,-0.00001037,-0.00000402,0.00000306,0.0000048
 7,-0.00000192,-0.00000199,-0.00001136,-0.00001180,0.00000248,0.0000003
 5,0.00000635,0.00001185,0.00000641,0.00009458,0.00016869,0.00010832,0.
 00011034,0.00017697,-0.00044223,-0.00039920,0.00054653,-0.00041283,-0.
 00076620,-0.00091896,0.00037754,-0.00197049,0.00117108,0.00056282,0.00
 018617,-0.00035796,-0.00125527,-0.00070116,0.33784774,0.00000541,0.000
 01398,0.00001108,-0.00000878,-0.00000214,-0.00004511,-0.00002287,-0.00
 000935,0.00000196,0.00000820,-0.00000516,0.00002743,-0.00002987,-0.000
 02200,0.00001769,0.00003398,0.00002182,0.00000308,-0.00003831,0.000038
 24,0.00000620,0.00020233,0.00001805,0.00004467,-0.00029698,0.00022099,
 0.00003807,0.00133707,0.00167566,0.00276067,-0.02738025,0.00362247,0.0
 0841983,0.01873763,-0.00505213,-0.00760924,0.03649413,-0.04108302,-0.0
 1300821,0.00001063,-0.00000253,-0.00001082,0.00000240,0.00000334,0.000
 01197,-0.00000019,-0.00002044,0.00001683,0.00000839,0.00000395,0.00000
 942,0.00000237,0.00000224,-0.00000254,0.00000209,0.00000358,-0.0000031
 2,0.00000561,0.00000350,-0.00000622,0.00000476,0.00001110,0.00001226,-
 0.00000136,-0.00000226,-0.00000383,0.00003644,-0.00001371,0.00006478,0
 .00025428,0.00008383,-0.00000871,0.00003900,-0.00042730,0.00007463,0.0
 0039711,0.00006543,-0.00048832,-0.00358289,-0.00122460,-0.00375438,-0.
 00222379,0.00055677,-0.00162996,0.00284850,0.00085093,0.00329090,-0.03
 654943,0.04218887,-0.00000144,0.00001994,-0.00001850,-0.00001376,0.000
 00375,0.00003055,-0.00001577,-0.00000593,-0.00000474,0.00001066,-0.000
 03520,-0.00002284,0.00001044,0.00000281,-0.00000160,0.00000598,0.00000
 829,-0.00000085,-0.00000989,0.00000336,-0.00000286,0.00004226,-0.00000
 220,0.00003075,0.00010723,0.00005011,-0.00009675,-0.00134478,-0.000947
 23,0.00133662,-0.00461925,0.00136047,-0.00320214,-0.02227246,0.0017801
 8,0.00308148,0.06136339,-0.01328902,-0.06029023,0.00001037,-0.00000873
 ,0.00000634,0.00000234,-0.00000368,-0.00000395,0.00000070,-0.00000011,
 0.00000093,0.00000016,-0.00000288,-0.00000458,0.00000664,0.00000285,0.
 00000035,-0.00000060,-0.00000100,0.00000081,0.00000020,-0.00000032,0.0
 0000043,0.00000129,-0.00000324,-0.00000055,0.00000028,-0.00000019,0.00
 000378,-0.00004564,0.00003423,0.00006354,0.00005764,0.00001561,-0.0000
 1891,0.00017652,-0.00024869,-0.00008539,-0.00004948,0.00016112,-0.0002
 3628,-0.00002888,0.00066453,0.00015239,0.00115465,0.00146300,0.0018937
 7,-0.00270187,-0.00148422,-0.00215921,-0.05855657,0.01236038,0.0621732
 0,0.00000052,0.00001161,-0.00000409,-0.00001373,-0.00000029,-0.0000104
 3,-0.00006652,-0.00000058,0.00000767,0.00002232,-0.00003764,-0.0000119
 1,0.00000329,0.00001018,-0.00001490,-0.00001980,-0.00004857,0.00001837
 ,0.00007692,-0.00002340,0.00000666,-0.00018808,-0.00015893,-0.00018756
 ,0.00064188,-0.00028253,-0.00047246,-0.00195169,0.00105426,-0.00091595
 ,0.00048535,-0.00453030,-0.01515132,-0.00037157,-0.00540835,-0.0124250
 6,-0.06312196,0.02312363,0.06016099,0.00001745,-0.00000638,-0.00000183
 ,0.00000283,0.00000170,0.00000515,-0.00000551,-0.00000805,0.00000970,0
 .00001115,0.00000030,-0.00000323,0.00001627,-0.00000565,-0.00000084,-0
 .00000373,-0.00001204,-0.00000033,-0.00000080,-0.00000036,0.00000390,-
 0.00001765,-0.00001982,-0.00002768,0.00000493,0.00000459,0.00000774,0.
 00009641,-0.00001086,0.00012684,0.00004140,0.00001549,0.00009226,0.000
 08159,-0.00004459,0.00013947,0.00024712,-0.00013348,-0.00041235,0.0017
 0417,-0.00093608,0.00060974,-0.00110317,-0.00116425,-0.00092980,0.0017
 6242,0.00103772,-0.00018451,-0.00264669,0.00970438,0.02670965,0.064294
 91,0.00000849,-0.00001782,0.00001329,0.00000461,-0.00001816,-0.0000186
 5,-0.00009927,0.00003437,0.00001992,-0.00000584,-0.00001281,-0.0000510
 5,0.00003942,0.00007709,-0.00005772,-0.00009095,-0.00014187,0.00003015
 ,0.00024242,-0.00010797,0.00003062,-0.00053147,-0.00024268,-0.00061344
 ,0.00127856,-0.00119590,-0.00005988,-0.00492763,-0.00000361,-0.0032377
 6,0.01027321,-0.00832757,-0.02275315,-0.00875544,0.00607032,0.01955839
 ,0.02158956,-0.06982506,-0.09437742,0.00000476,0.00000622,-0.00000202,
 -0.00000454,0.00000405,0.00000038,-0.00001245,0.00001622,-0.00001021,0
 .00001617,-0.00000102,-0.00001382,0.00001757,-0.00002380,0.00000027,-0
 .00000554,-0.00003095,-0.00000179,-0.00001480,-0.00000086,0.00001364,-
 0.00004794,-0.00005603,-0.00007689,0.00000370,0.00001119,0.00001565,0.
 00002209,0.00005739,-0.00005494,-0.00017577,-0.00002743,-0.00002867,0.
 00008405,0.00000663,0.00015925,-0.00007532,0.00015022,0.00016751,0.001
 81355,0.00117120,0.00223721,0.00340698,0.00069217,0.00314060,-0.001741
 74,0.00024699,-0.00205364,-0.00018475,-0.00152012,-0.00189801,-0.02213
 170,0.07300961,0.00000585,-0.00001600,0.00000997,0.00000681,-0.0000103
 8,-0.00001157,-0.00005471,0.00001513,0.00001052,0.00000727,-0.00006145
 ,-0.00003313,0.00001635,0.00003513,-0.00001651,-0.00002891,-0.00007111
 ,0.00001338,0.00006947,0.00005150,0.00005241,-0.00002143,-0.00005368,0
 .00002880,0.00006091,0.00017784,0.00007281,-0.00003213,0.00096444,0.00
 033484,-0.00197869,0.00198252,-0.00182993,0.00421887,-0.00730205,-0.01
 596442,0.05725165,-0.09396808,-0.28714645,-0.00000124,0.00000578,-0.00
 000213,-0.00000377,0.00000519,0.00000044,-0.00000779,0.00001021,-0.000
 00348,0.00000893,-0.00000054,-0.00000862,0.00000843,-0.00001342,0.0000
 0062,-0.00000141,-0.00001823,-0.00000327,-0.00000502,0.00000216,0.0000
 0462,-0.00000364,-0.00001915,-0.00001384,0.00000871,0.00000260,0.00001
 207,0.00009331,-0.00001312,0.00012201,-0.00001647,-0.00004677,-0.00002
 134,0.00004444,-0.00008960,-0.00002167,0.00000664,0.00006608,0.0000578
 2,-0.00034671,-0.00050282,0.00063912,-0.00273383,-0.00126529,-0.001283
 67,0.00112542,0.00081236,0.00191937,-0.00055344,-0.00060140,-0.0026255
 5,-0.05714391,0.09992216,0.30570679\\-0.00000047,0.00000122,0.00000109
 ,-0.00000072,0.00000278,0.00000018,-0.00000197,-0.00000026,-0.00000110
 ,0.00000292,0.00000170,0.00000227,-0.00000641,0.00000386,-0.00000592,-
 0.00000362,-0.00000766,0.00000638,0.00001205,0.00000015,-0.00000054,0.
 00000091,0.00000102,-0.00000580,-0.00000357,0.00000267,0.00000325,-0.0
 0000171,-0.00000446,0.00000069,0.00000138,-0.00000012,-0.00000261,0.00
 000012,-0.00000033,-0.00000191,-0.00000265,-0.00000008,0.00000215,0.00
 000091,-0.00000086,-0.00000039,-0.00000009,-0.00000029,0.00000032,0.00
 000028,-0.00000024,0.00000029,0.00000096,-0.00000022,0.00000061,0.0000
 0082,-0.00000167,-0.00000006,0.00000081,-0.00000022,0.00000060,0.00000
 098,-0.00000058,0.00000104,-0.00000166,0.00000076,0.00000096,-0.000000
 86,-0.00000091,0.00000229,0.00000037,0.00000018,0.00000021,0.00000116,
 -0.00000181,-0.00000143,0.00000124,0.00000309,0.00000084,-0.00000048,0
 .00000051,-0.00000157,-0.00000105,0.00000168,-0.00000074,-0.00000017,0
 .00000038,-0.00000007,-0.00000056,-0.00000066,-0.00000001,-0.00000012,
 0.00000030,-0.00000105,0.00000121,0.00000008,0.00000002\\\@


 WORK FAITHFULLY FOR EIGHT HOURS A DAY AND DON'T WORRY.
 IN TIME YOU MAY BECOME BOSS AND WORK TWELVE HOURS A DAY
 AND HAVE ALL THE WORRY.
 Job cpu time:       0 days  6 hours 43 minutes 27.1 seconds.
 Elapsed time:       0 days  1 hours 41 minutes 14.0 seconds.
 File lengths (MBytes):  RWF=    457 Int=      0 D2E=      0 Chk=     18 Scr=      1
 Normal termination of Gaussian 16 at Wed Jun  2 02:06:26 2021.
### All Done ###
