### Starting Gaussian ###
 Entering Gaussian System, Link 0=g16
 Initial command:
 /cluster/software/gaussian/gaussian-16-A.03/avx2/g16/l1.exe "/local/scratch/linjian/Gau-29670.inp" -scrdir="/local/scratch/linjian/"
 Entering Link 1 = /cluster/software/gaussian/gaussian-16-A.03/avx2/g16/l1.exe PID=     29671.
  
 Copyright (c) 1988,1990,1992,1993,1995,1998,2003,2009,2016,
            Gaussian, Inc.  All Rights Reserved.
  
 This is part of the Gaussian(R) 16 program.  It is based on
 the Gaussian(R) 09 system (copyright 2009, Gaussian, Inc.),
 the Gaussian(R) 03 system (copyright 2003, Gaussian, Inc.),
 the Gaussian(R) 98 system (copyright 1998, Gaussian, Inc.),
 the Gaussian(R) 94 system (copyright 1995, Gaussian, Inc.),
 the Gaussian 92(TM) system (copyright 1992, Gaussian, Inc.),
 the Gaussian 90(TM) system (copyright 1990, Gaussian, Inc.),
 the Gaussian 88(TM) system (copyright 1988, Gaussian, Inc.),
 the Gaussian 86(TM) system (copyright 1986, Carnegie Mellon
 University), and the Gaussian 82(TM) system (copyright 1983,
 Carnegie Mellon University). Gaussian is a federally registered
 trademark of Gaussian, Inc.
  
 This software contains proprietary and confidential information,
 including trade secrets, belonging to Gaussian, Inc.
  
 This software is provided under written license and may be
 used, copied, transmitted, or stored only in accord with that
 written license.
  
 The following legend is applicable only to US Government
 contracts under FAR:
  
                    RESTRICTED RIGHTS LEGEND
  
 Use, reproduction and disclosure by the US Government is
 subject to restrictions as set forth in subparagraphs (a)
 and (c) of the Commercial Computer Software - Restricted
 Rights clause in FAR 52.227-19.
  
 Gaussian, Inc.
 340 Quinnipiac St., Bldg. 40, Wallingford CT 06492
  
  
 ---------------------------------------------------------------
 Warning -- This program may not be used in any manner that
 competes with the business of Gaussian, Inc. or will provide
 assistance to any competitor of Gaussian, Inc.  The licensee
 of this program is prohibited from giving any competitor of
 Gaussian, Inc. access to this program.  By using this program,
 the user acknowledges that Gaussian, Inc. is engaged in the
 business of creating and licensing software in the field of
 computational chemistry and represents and warrants to the
 licensee that it is not a competitor of Gaussian, Inc. and that
 it will not use this program in any manner prohibited above.
 ---------------------------------------------------------------
  

 Cite this work as:
 Gaussian 16, Revision A.03,
 M. J. Frisch, G. W. Trucks, H. B. Schlegel, G. E. Scuseria, 
 M. A. Robb, J. R. Cheeseman, G. Scalmani, V. Barone, 
 G. A. Petersson, H. Nakatsuji, X. Li, M. Caricato, A. V. Marenich, 
 J. Bloino, B. G. Janesko, R. Gomperts, B. Mennucci, H. P. Hratchian, 
 J. V. Ortiz, A. F. Izmaylov, J. L. Sonnenberg, D. Williams-Young, 
 F. Ding, F. Lipparini, F. Egidi, J. Goings, B. Peng, A. Petrone, 
 T. Henderson, D. Ranasinghe, V. G. Zakrzewski, J. Gao, N. Rega, 
 G. Zheng, W. Liang, M. Hada, M. Ehara, K. Toyota, R. Fukuda, 
 J. Hasegawa, M. Ishida, T. Nakajima, Y. Honda, O. Kitao, H. Nakai, 
 T. Vreven, K. Throssell, J. A. Montgomery, Jr., J. E. Peralta, 
 F. Ogliaro, M. J. Bearpark, J. J. Heyd, E. N. Brothers, K. N. Kudin, 
 V. N. Staroverov, T. A. Keith, R. Kobayashi, J. Normand, 
 K. Raghavachari, A. P. Rendell, J. C. Burant, S. S. Iyengar, 
 J. Tomasi, M. Cossi, J. M. Millam, M. Klene, C. Adamo, R. Cammi, 
 J. W. Ochterski, R. L. Martin, K. Morokuma, O. Farkas, 
 J. B. Foresman, and D. J. Fox, Gaussian, Inc., Wallingford CT, 2016.
 
 ******************************************
 Gaussian 16:  ES64L-G16RevA.03 25-Dec-2016
                31-May-2021 
 ******************************************
 %chk=CdCpNpCCdCN.chk
 %NProcShared=20
 Will use up to   20 processors via shared memory.
 -----------------------------
 # opt freq b3lyp/6-31g(2df,p)
 -----------------------------
 1/18=20,19=15,26=3,38=1/1,3;
 2/9=110,12=2,17=6,18=5,40=1/2;
 3/5=1,6=6,7=104,11=2,25=1,30=1,71=1,74=-5/1,2,3;
 4//1;
 5/5=2,38=5/2;
 6/7=2,8=2,9=2,10=2,28=1/1;
 7//1,2,3,16;
 1/18=20,19=15,26=3/3(2);
 2/9=110/2;
 99//99;
 2/9=110/2;
 3/5=1,6=6,7=104,11=2,25=1,30=1,71=1,74=-5/1,2,3;
 4/5=5,16=3,69=1/1;
 5/5=2,38=5/2;
 7//1,2,3,16;
 1/18=20,19=15,26=3/3(-5);
 2/9=110/2;
 6/7=2,8=2,9=2,10=2,19=2,28=1/1;
 99/9=1/99;
 -------------------
 Title Card Required
 -------------------
 Symbolic Z-matrix:
 Charge =  0 Multiplicity = 1
 C                     0.93477  -0.01965  -0.03358 
 C                     2.27659  -0.07691  -0.02217 
 N                     2.89688  -1.27496   0.21667 
 C                     3.0786    1.20876  -0.27848 
 C                     4.57493   1.05351  -0.24753 
 C                     5.47008   2.02881  -0.44196 
 N                     6.81002   1.82572  -0.40147 
 H                     0.33437  -0.90601   0.14312 
 H                     0.40259   0.90675  -0.21827 
 H                     2.35027  -2.10922   0.38299 
 H                     3.90076  -1.36641   0.2349 
 H                     2.78737   1.95199   0.47667 
 H                     2.78737   1.60559  -1.2609 
 H                     4.99466   0.0799   -0.05343 
 H                     5.16718   3.0525   -0.64604 
 H                     7.17432   0.8974   -0.21641 
 H                     7.45802   2.58801  -0.55344 
 

 GradGradGradGradGradGradGradGradGradGradGradGradGradGradGradGradGradGrad
 Berny optimization.
 Initialization pass.
                           ----------------------------
                           !    Initial Parameters    !
                           ! (Angstroms and Degrees)  !
 --------------------------                            --------------------------
 ! Name  Definition              Value          Derivative Info.                !
 --------------------------------------------------------------------------------
 ! R1    R(1,2)                  1.3431         estimate D2E/DX2                !
 ! R2    R(1,8)                  1.0851         estimate D2E/DX2                !
 ! R3    R(1,9)                  1.0842         estimate D2E/DX2                !
 ! R4    R(2,3)                  1.3701         estimate D2E/DX2                !
 ! R5    R(2,4)                  1.5368         estimate D2E/DX2                !
 ! R6    R(3,10)                 1.0112         estimate D2E/DX2                !
 ! R7    R(3,11)                 1.0082         estimate D2E/DX2                !
 ! R8    R(4,5)                  1.5047         estimate D2E/DX2                !
 ! R9    R(4,12)                 1.0988         estimate D2E/DX2                !
 ! R10   R(4,13)                 1.0988         estimate D2E/DX2                !
 ! R11   R(5,6)                  1.338          estimate D2E/DX2                !
 ! R12   R(5,14)                 1.0779         estimate D2E/DX2                !
 ! R13   R(6,7)                  1.3558         estimate D2E/DX2                !
 ! R14   R(6,15)                 1.0869         estimate D2E/DX2                !
 ! R15   R(7,16)                 1.0143         estimate D2E/DX2                !
 ! R16   R(7,17)                 1.012          estimate D2E/DX2                !
 ! A1    A(2,1,8)              121.1048         estimate D2E/DX2                !
 ! A2    A(2,1,9)              121.8873         estimate D2E/DX2                !
 ! A3    A(8,1,9)              117.0079         estimate D2E/DX2                !
 ! A4    A(1,2,3)              119.411          estimate D2E/DX2                !
 ! A5    A(1,2,4)              118.9655         estimate D2E/DX2                !
 ! A6    A(3,2,4)              121.6235         estimate D2E/DX2                !
 ! A7    A(2,3,10)             120.3573         estimate D2E/DX2                !
 ! A8    A(2,3,11)             122.2265         estimate D2E/DX2                !
 ! A9    A(10,3,11)            117.4162         estimate D2E/DX2                !
 ! A10   A(2,4,5)              115.4178         estimate D2E/DX2                !
 ! A11   A(2,4,12)             108.2348         estimate D2E/DX2                !
 ! A12   A(2,4,13)             108.2349         estimate D2E/DX2                !
 ! A13   A(5,4,12)             108.6154         estimate D2E/DX2                !
 ! A14   A(5,4,13)             108.6155         estimate D2E/DX2                !
 ! A15   A(12,4,13)            107.4521         estimate D2E/DX2                !
 ! A16   A(4,5,6)              125.9515         estimate D2E/DX2                !
 ! A17   A(4,5,14)             118.9572         estimate D2E/DX2                !
 ! A18   A(6,5,14)             115.0913         estimate D2E/DX2                !
 ! A19   A(5,6,7)              123.2051         estimate D2E/DX2                !
 ! A20   A(5,6,15)             121.8277         estimate D2E/DX2                !
 ! A21   A(7,6,15)             114.9672         estimate D2E/DX2                !
 ! A22   A(6,7,16)             119.8351         estimate D2E/DX2                !
 ! A23   A(6,7,17)             121.0313         estimate D2E/DX2                !
 ! A24   A(16,7,17)            119.1337         estimate D2E/DX2                !
 ! D1    D(8,1,2,3)             -0.0004         estimate D2E/DX2                !
 ! D2    D(8,1,2,4)            179.9998         estimate D2E/DX2                !
 ! D3    D(9,1,2,3)           -179.9997         estimate D2E/DX2                !
 ! D4    D(9,1,2,4)              0.0005         estimate D2E/DX2                !
 ! D5    D(1,2,3,10)             0.0            estimate D2E/DX2                !
 ! D6    D(1,2,3,11)          -179.9998         estimate D2E/DX2                !
 ! D7    D(4,2,3,10)           179.9998         estimate D2E/DX2                !
 ! D8    D(4,2,3,11)             0.0            estimate D2E/DX2                !
 ! D9    D(1,2,4,5)            179.9998         estimate D2E/DX2                !
 ! D10   D(1,2,4,12)            58.0839         estimate D2E/DX2                !
 ! D11   D(1,2,4,13)           -58.084          estimate D2E/DX2                !
 ! D12   D(3,2,4,5)             -0.0001         estimate D2E/DX2                !
 ! D13   D(3,2,4,12)          -121.916          estimate D2E/DX2                !
 ! D14   D(3,2,4,13)           121.9161         estimate D2E/DX2                !
 ! D15   D(2,4,5,6)           -179.9997         estimate D2E/DX2                !
 ! D16   D(2,4,5,14)            -0.0001         estimate D2E/DX2                !
 ! D17   D(12,4,5,6)           -58.2882         estimate D2E/DX2                !
 ! D18   D(12,4,5,14)          121.7114         estimate D2E/DX2                !
 ! D19   D(13,4,5,6)            58.2884         estimate D2E/DX2                !
 ! D20   D(13,4,5,14)         -121.712          estimate D2E/DX2                !
 ! D21   D(4,5,6,7)            179.9999         estimate D2E/DX2                !
 ! D22   D(4,5,6,15)            -0.0002         estimate D2E/DX2                !
 ! D23   D(14,5,6,7)             0.0002         estimate D2E/DX2                !
 ! D24   D(14,5,6,15)         -179.9998         estimate D2E/DX2                !
 ! D25   D(5,6,7,16)             0.0004         estimate D2E/DX2                !
 ! D26   D(5,6,7,17)           179.9997         estimate D2E/DX2                !
 ! D27   D(15,6,7,16)         -179.9995         estimate D2E/DX2                !
 ! D28   D(15,6,7,17)           -0.0002         estimate D2E/DX2                !
 --------------------------------------------------------------------------------
 Trust Radius=3.00D-01 FncErr=1.00D-07 GrdErr=1.00D-06 EigMax=2.50D+02 EigMin=1.00D-04
 Number of steps in this run=     78 maximum allowed number of steps=    102.
 GradGradGradGradGradGradGradGradGradGradGradGradGradGradGradGradGradGrad

                          Input orientation:                          
 ---------------------------------------------------------------------
 Center     Atomic      Atomic             Coordinates (Angstroms)
 Number     Number       Type             X           Y           Z
 ---------------------------------------------------------------------
      1          6           0        0.934770   -0.019650   -0.033580
      2          6           0        2.276590   -0.076910   -0.022170
      3          7           0        2.896880   -1.274960    0.216670
      4          6           0        3.078600    1.208760   -0.278480
      5          6           0        4.574930    1.053510   -0.247530
      6          6           0        5.470080    2.028810   -0.441960
      7          7           0        6.810020    1.825720   -0.401470
      8          1           0        0.334370   -0.906010    0.143120
      9          1           0        0.402590    0.906750   -0.218270
     10          1           0        2.350270   -2.109220    0.382990
     11          1           0        3.900760   -1.366410    0.234900
     12          1           0        2.787370    1.951990    0.476670
     13          1           0        2.787370    1.605590   -1.260900
     14          1           0        4.994660    0.079900   -0.053430
     15          1           0        5.167180    3.052500   -0.646040
     16          1           0        7.174320    0.897400   -0.216410
     17          1           0        7.458020    2.588010   -0.553440
 ---------------------------------------------------------------------
                    Distance matrix (angstroms):
                    1          2          3          4          5
     1  C    0.000000
     2  C    1.343090   0.000000
     3  N    2.342713   1.370083   0.000000
     4  C    2.482937   1.536835   2.539106   0.000000
     5  C    3.801080   2.571187   2.907423   1.504681   0.000000
     6  C    4.993195   3.848202   4.239109   2.533453   1.338023
     7  N    6.169222   4.931111   5.030803   3.784080   2.369733
     8  H    1.085052   2.118241   2.589979   3.490100   4.687715
     9  H    1.084225   2.125540   3.342232   2.693671   4.175023
    10  H    2.558021   2.073612   1.011155   3.460780   3.917847
    11  H    3.268477   2.089695   1.008202   2.751546   2.557979
    12  H    2.753152   2.150854   3.239259   1.098844   2.127699
    13  H    2.753152   2.150850   3.239255   1.098835   2.127694
    14  H    4.061159   2.722769   2.511828   2.235231   1.077852
    15  H    5.265597   4.305570   4.962403   2.810097   2.122624
    16  H    6.309231   4.997476   4.816970   4.108007   2.604259
    17  H    7.044355   5.850749   6.026575   4.599701   3.280317
                    6          7          8          9         10
     6  C    0.000000
     7  N    1.355848   0.000000
     8  H    5.943989   7.049324   0.000000
     9  H    5.195047   6.475587   1.849691   0.000000
    10  H    5.247576   5.999042   2.359895   3.640199   0.000000
    11  H    3.801108   4.365599   3.597156   4.196405   1.725606
    12  H    2.836673   4.119319   3.781088   2.694929   4.085738
    13  H    2.836672   4.119319   3.781087   2.694927   4.085737
    14  H    2.043338   2.542548   4.767489   4.668829   3.460565
    15  H    1.086894   2.064879   6.296716   5.242952   5.969693
    16  H    2.058008   1.014268   7.082829   6.771737   5.715812
    17  H    2.068100   1.011971   7.964908   7.260721   7.002141
                   11         12         13         14         15
    11  H    0.000000
    12  H    3.508542   0.000000
    13  H    3.508538   1.771763   0.000000
    14  H    1.836182   2.942424   2.942421   0.000000
    15  H    4.680453   2.852209   2.852209   3.036001   0.000000
    16  H    4.005585   4.564849   4.564846   2.333621   2.976180
    17  H    5.377082   4.824999   4.824999   3.550883   2.339289
                   16         17
    16  H    0.000000
    17  H    1.747065   0.000000
 Stoichiometry    C5H10N2
 Framework group  C1[X(C5H10N2)]
 Deg. of freedom    45
 Full point group                 C1      NOp   1
 Largest Abelian subgroup         C1      NOp   1
 Largest concise Abelian subgroup C1      NOp   1
                         Standard orientation:                         
 ---------------------------------------------------------------------
 Center     Atomic      Atomic             Coordinates (Angstroms)
 Number     Number       Type             X           Y           Z
 ---------------------------------------------------------------------
      1          6           0        2.837158   -0.666124    0.000004
      2          6           0        1.668110   -0.004900   -0.000001
      3          7           0        1.670068    1.365182   -0.000001
      4          6           0        0.358327   -0.808846   -0.000003
      5          6           0       -0.903024    0.011556   -0.000003
      6          6           0       -2.152110   -0.468122    0.000000
      7          7           0       -3.251970    0.324740    0.000003
      8          1           0        3.782449   -0.133430    0.000001
      9          1           0        2.882454   -1.749402   -0.000002
     10          1           0        2.543313    1.874964    0.000004
     11          1           0        0.817951    1.904041   -0.000001
     12          1           0        0.353918   -1.458957    0.885882
     13          1           0        0.353919   -1.458954   -0.885880
     14          1           0       -0.826272    1.086671    0.000001
     15          1           0       -2.356141   -1.535694   -0.000000
     16          1           0       -3.146798    1.333541   -0.000004
     17          1           0       -4.182235   -0.073622    0.000001
 ---------------------------------------------------------------------
 Rotational constants (GHZ):           7.7856290           1.1236925           0.9880399
 Standard basis: 6-31G(2df,p) (6D, 7F)
 There are   267 symmetry adapted cartesian basis functions of A   symmetry.
 There are   246 symmetry adapted basis functions of A   symmetry.
   246 basis functions,   378 primitive gaussians,   267 cartesian basis functions
    27 alpha electrons       27 beta electrons
       nuclear repulsion energy       283.9799859563 Hartrees.
 NAtoms=   17 NActive=   17 NUniq=   17 SFac= 1.00D+00 NAtFMM=   60 NAOKFM=F Big=F
 Integral buffers will be    131072 words long.
 Raffenetti 2 integral format.
 Two-electron integral symmetry is turned on.
 One-electron integrals computed using PRISM.
 PrsmSu:  requested number of processors reduced to:  13 ShMem   1 Linda.
 NBasis=   246 RedAO= T EigKep=  3.69D-04  NBF=   246
 NBsUse=   246 1.00D-06 EigRej= -1.00D+00 NBFU=   246
 ExpMin= 1.61D-01 ExpMax= 4.17D+03 ExpMxC= 6.27D+02 IAcc=3 IRadAn=         5 AccDes= 0.00D+00
 Harris functional with IExCor=  402 and IRadAn=       5 diagonalized for initial guess.
 HarFok:  IExCor=  402 AccDes= 0.00D+00 IRadAn=         5 IDoV= 1 UseB2=F ITyADJ=14
 ICtDFT=  3500011 ScaDFX=  1.000000  1.000000  1.000000  1.000000
 FoFCou: FMM=F IPFlag=           0 FMFlag=      100000 FMFlg1=           0
         NFxFlg=           0 DoJE=T BraDBF=F KetDBF=T FulRan=T
         wScrn=  0.000000 ICntrl=       500 IOpCl=  0 I1Cent=   200000004 NGrid=           0
         NMat0=    1 NMatS0=      1 NMatT0=    0 NMatD0=    1 NMtDS0=    0 NMtDT0=    0
 Petite list used in FoFCou.
 Requested convergence on RMS density matrix=1.00D-08 within 128 cycles.
 Requested convergence on MAX density matrix=1.00D-06.
 Requested convergence on             energy=1.00D-06.
 No special actions if energy rises.
 Integral accuracy reduced to 1.0D-05 until final iterations.
 Initial convergence to 1.0D-05 achieved.  Increase integral accuracy.
 SCF Done:  E(RB3LYP) =  -306.019475191     A.U. after   12 cycles
            NFock= 12  Conv=0.85D-08     -V/T= 2.0080

 **********************************************************************

            Population analysis using the SCF density.

 **********************************************************************

 Orbital symmetries:
       Occupied  (A) (A) (A) (A) (A) (A) (A) (A) (A) (A) (A) (A)
                 (A) (A) (A) (A) (A) (A) (A) (A) (A) (A) (A) (A)
                 (A) (A) (A)
       Virtual   (A) (A) (A) (A) (A) (A) (A) (A) (A) (A) (A) (A)
                 (A) (A) (A) (A) (A) (A) (A) (A) (A) (A) (A) (A)
                 (A) (A) (A) (A) (A) (A) (A) (A) (A) (A) (A) (A)
                 (A) (A) (A) (A) (A) (A) (A) (A) (A) (A) (A) (A)
                 (A) (A) (A) (A) (A) (A) (A) (A) (A) (A) (A) (A)
                 (A) (A) (A) (A) (A) (A) (A) (A) (A) (A) (A) (A)
                 (A) (A) (A) (A) (A) (A) (A) (A) (A) (A) (A) (A)
                 (A) (A) (A) (A) (A) (A) (A) (A) (A) (A) (A) (A)
                 (A) (A) (A) (A) (A) (A) (A) (A) (A) (A) (A) (A)
                 (A) (A) (A) (A) (A) (A) (A) (A) (A) (A) (A) (A)
                 (A) (A) (A) (A) (A) (A) (A) (A) (A) (A) (A) (A)
                 (A) (A) (A) (A) (A) (A) (A) (A) (A) (A) (A) (A)
                 (A) (A) (A) (A) (A) (A) (A) (A) (A) (A) (A) (A)
                 (A) (A) (A) (A) (A) (A) (A) (A) (A) (A) (A) (A)
                 (A) (A) (A) (A) (A) (A) (A) (A) (A) (A) (A) (A)
                 (A) (A) (A) (A) (A) (A) (A) (A) (A) (A) (A) (A)
                 (A) (A) (A) (A) (A) (A) (A) (A) (A) (A) (A) (A)
                 (A) (A) (A) (A) (A) (A) (A) (A) (A) (A) (A) (A)
                 (A) (A) (A)
 The electronic state is 1-A.
 Alpha  occ. eigenvalues --  -14.33151 -14.31833 -10.20324 -10.20154 -10.17872
 Alpha  occ. eigenvalues --  -10.14939 -10.12020  -0.90693  -0.89472  -0.76402
 Alpha  occ. eigenvalues --   -0.71173  -0.65101  -0.57421  -0.54938  -0.51368
 Alpha  occ. eigenvalues --   -0.51166  -0.46364  -0.43535  -0.41765  -0.39299
 Alpha  occ. eigenvalues --   -0.37139  -0.34273  -0.33748  -0.33290  -0.30940
 Alpha  occ. eigenvalues --   -0.18601  -0.16408
 Alpha virt. eigenvalues --    0.04837   0.07464   0.07847   0.08369   0.10844
 Alpha virt. eigenvalues --    0.13670   0.14660   0.16118   0.18087   0.19549
 Alpha virt. eigenvalues --    0.21633   0.23650   0.26603   0.28383   0.33337
 Alpha virt. eigenvalues --    0.35491   0.37156   0.42081   0.45857   0.46698
 Alpha virt. eigenvalues --    0.48526   0.52017   0.52250   0.53746   0.54381
 Alpha virt. eigenvalues --    0.55956   0.57654   0.58646   0.59330   0.62684
 Alpha virt. eigenvalues --    0.62881   0.66888   0.67986   0.68226   0.73392
 Alpha virt. eigenvalues --    0.74525   0.74697   0.75958   0.76384   0.78099
 Alpha virt. eigenvalues --    0.79076   0.79746   0.79781   0.82390   0.82748
 Alpha virt. eigenvalues --    0.83151   0.84851   0.87648   0.89220   0.89605
 Alpha virt. eigenvalues --    0.92859   0.94039   0.98164   0.98701   0.99672
 Alpha virt. eigenvalues --    1.05659   1.07433   1.09607   1.15844   1.17981
 Alpha virt. eigenvalues --    1.22025   1.25718   1.27809   1.28224   1.31947
 Alpha virt. eigenvalues --    1.34532   1.40763   1.43861   1.46285   1.46385
 Alpha virt. eigenvalues --    1.49903   1.50643   1.56201   1.56533   1.59956
 Alpha virt. eigenvalues --    1.65063   1.69112   1.71200   1.73477   1.77708
 Alpha virt. eigenvalues --    1.79586   1.84012   1.86650   1.87955   1.91248
 Alpha virt. eigenvalues --    1.92647   1.97407   2.01686   2.03930   2.05487
 Alpha virt. eigenvalues --    2.15020   2.16886   2.18432   2.20741   2.21359
 Alpha virt. eigenvalues --    2.27843   2.32427   2.34721   2.37855   2.38449
 Alpha virt. eigenvalues --    2.44587   2.47807   2.52034   2.53317   2.61154
 Alpha virt. eigenvalues --    2.70434   2.71275   2.72742   2.77621   2.78356
 Alpha virt. eigenvalues --    2.82935   2.85411   2.86107   2.89472   2.90494
 Alpha virt. eigenvalues --    2.92096   2.94519   2.98273   2.98921   3.00708
 Alpha virt. eigenvalues --    3.02860   3.05455   3.08363   3.10088   3.12044
 Alpha virt. eigenvalues --    3.12128   3.16800   3.17529   3.20641   3.22825
 Alpha virt. eigenvalues --    3.25171   3.29908   3.32753   3.36657   3.37530
 Alpha virt. eigenvalues --    3.41213   3.42644   3.44884   3.46196   3.49836
 Alpha virt. eigenvalues --    3.52644   3.54545   3.58772   3.60090   3.66915
 Alpha virt. eigenvalues --    3.69375   3.69492   3.75007   3.75964   3.83346
 Alpha virt. eigenvalues --    3.89333   3.89395   3.94632   4.01857   4.02202
 Alpha virt. eigenvalues --    4.08231   4.08529   4.09734   4.11649   4.12659
 Alpha virt. eigenvalues --    4.15147   4.18620   4.20977   4.22744   4.25317
 Alpha virt. eigenvalues --    4.26108   4.30903   4.33293   4.36730   4.37756
 Alpha virt. eigenvalues --    4.41369   4.44353   4.48096   4.48427   4.50031
 Alpha virt. eigenvalues --    4.52440   4.55487   4.56510   4.57688   4.58966
 Alpha virt. eigenvalues --    4.62545   4.66633   4.68132   4.72704   4.74215
 Alpha virt. eigenvalues --    4.75977   4.76565   4.79891   4.81841   4.82912
 Alpha virt. eigenvalues --    4.87205   4.88520   4.90027   4.91812   4.96019
 Alpha virt. eigenvalues --    5.03766   5.08078   5.10858   5.19999   5.32183
 Alpha virt. eigenvalues --    5.38558   5.44299   5.57080   5.61546   5.63034
 Alpha virt. eigenvalues --    5.70730   5.72297   5.83966   6.04215   6.37933
 Alpha virt. eigenvalues --    9.64036  10.22677  10.72623  11.04861  11.31365
 Alpha virt. eigenvalues --   11.41865  11.89614  12.41595  13.39062
          Condensed to atoms (all electrons):
               1          2          3          4          5          6
     1  C    5.261347   0.607028  -0.039959  -0.070424   0.000684  -0.000242
     2  C    0.607028   4.228008   0.463847   0.399932  -0.018878   0.000428
     3  N   -0.039959   0.463847   6.504206  -0.039387  -0.001519   0.000698
     4  C   -0.070424   0.399932  -0.039387   5.036310   0.402131  -0.010013
     5  C    0.000684  -0.018878  -0.001519   0.402131   4.815978   0.676789
     6  C   -0.000242   0.000428   0.000698  -0.010013   0.676789   4.640311
     7  N    0.000001  -0.000048  -0.000000   0.003025  -0.019218   0.408779
     8  H    0.341416   0.002154  -0.014589   0.005704  -0.000150   0.000002
     9  H    0.366966  -0.006667   0.003190  -0.010430   0.000769   0.000001
    10  H   -0.009223  -0.027436   0.351009   0.006159  -0.000049  -0.000011
    11  H    0.007955  -0.036122   0.351172  -0.006134   0.000167  -0.000407
    12  H   -0.004067  -0.018690   0.000221   0.351028  -0.026981  -0.006788
    13  H   -0.004067  -0.018690   0.000221   0.351029  -0.026980  -0.006788
    14  H    0.000445  -0.001631  -0.005048  -0.078406   0.344637  -0.032267
    15  H    0.000000   0.000183  -0.000011  -0.013174  -0.035400   0.357268
    16  H    0.000000   0.000013  -0.000009  -0.000294  -0.010042  -0.027862
    17  H   -0.000000   0.000000   0.000000  -0.000112   0.003741  -0.035372
               7          8          9         10         11         12
     1  C    0.000001   0.341416   0.366966  -0.009223   0.007955  -0.004067
     2  C   -0.000048   0.002154  -0.006667  -0.027436  -0.036122  -0.018690
     3  N   -0.000000  -0.014589   0.003190   0.351009   0.351172   0.000221
     4  C    0.003025   0.005704  -0.010430   0.006159  -0.006134   0.351028
     5  C   -0.019218  -0.000150   0.000769  -0.000049   0.000167  -0.026981
     6  C    0.408779   0.000002   0.000001  -0.000011  -0.000407  -0.006788
     7  N    6.473535  -0.000000  -0.000000  -0.000000   0.000008   0.000021
     8  H   -0.000000   0.640285  -0.046017   0.006953  -0.000094  -0.000057
     9  H   -0.000000  -0.046017   0.608329  -0.000269  -0.000247   0.001635
    10  H   -0.000000   0.006953  -0.000269   0.455411  -0.030940  -0.000142
    11  H    0.000008  -0.000094  -0.000247  -0.030940   0.460533  -0.000028
    12  H    0.000021  -0.000057   0.001635  -0.000142  -0.000028   0.612670
    13  H    0.000021  -0.000057   0.001635  -0.000142  -0.000028  -0.040953
    14  H   -0.017659  -0.000005   0.000025  -0.000174   0.005074   0.004812
    15  H   -0.047340  -0.000000   0.000003   0.000000   0.000002   0.001918
    16  H    0.348849  -0.000000   0.000000   0.000000  -0.000009   0.000011
    17  H    0.363004   0.000000  -0.000000   0.000000  -0.000000   0.000004
              13         14         15         16         17
     1  C   -0.004067   0.000445   0.000000   0.000000  -0.000000
     2  C   -0.018690  -0.001631   0.000183   0.000013   0.000000
     3  N    0.000221  -0.005048  -0.000011  -0.000009   0.000000
     4  C    0.351029  -0.078406  -0.013174  -0.000294  -0.000112
     5  C   -0.026980   0.344637  -0.035400  -0.010042   0.003741
     6  C   -0.006788  -0.032267   0.357268  -0.027862  -0.035372
     7  N    0.000021  -0.017659  -0.047340   0.348849   0.363004
     8  H   -0.000057  -0.000005  -0.000000  -0.000000   0.000000
     9  H    0.001635   0.000025   0.000003   0.000000  -0.000000
    10  H   -0.000142  -0.000174   0.000000   0.000000   0.000000
    11  H   -0.000028   0.005074   0.000002  -0.000009  -0.000000
    12  H   -0.040953   0.004812   0.001918   0.000011   0.000004
    13  H    0.612668   0.004812   0.001918   0.000011   0.000004
    14  H    0.004812   0.730629   0.008776   0.008407  -0.000109
    15  H    0.001918   0.008776   0.634419   0.006121  -0.005639
    16  H    0.000011   0.008407   0.006121   0.456299  -0.030167
    17  H    0.000004  -0.000109  -0.005639  -0.030167   0.450757
 Mulliken charges:
               1
     1  C   -0.457860
     2  C    0.426568
     3  N   -0.574042
     4  C   -0.326945
     5  C   -0.105679
     6  C    0.035476
     7  N   -0.512975
     8  H    0.064455
     9  H    0.081077
    10  H    0.248856
    11  H    0.249097
    12  H    0.125386
    13  H    0.125386
    14  H    0.027682
    15  H    0.090956
    16  H    0.248673
    17  H    0.253890
 Sum of Mulliken charges =  -0.00000
 Mulliken charges with hydrogens summed into heavy atoms:
               1
     1  C   -0.312328
     2  C    0.426568
     3  N   -0.076089
     4  C   -0.076173
     5  C   -0.077998
     6  C    0.126432
     7  N   -0.010412
 Electronic spatial extent (au):  <R**2>=           1155.6286
 Charge=             -0.0000 electrons
 Dipole moment (field-independent basis, Debye):
    X=             -3.0406    Y=              1.6145    Z=             -0.0000  Tot=              3.4427
 Quadrupole moment (field-independent basis, Debye-Ang):
   XX=            -35.7677   YY=            -36.1852   ZZ=            -47.7694
   XY=              3.1107   XZ=              0.0000   YZ=              0.0000
 Traceless Quadrupole moment (field-independent basis, Debye-Ang):
   XX=              4.1397   YY=              3.7223   ZZ=             -7.8620
   XY=              3.1107   XZ=              0.0000   YZ=              0.0000
 Octapole moment (field-independent basis, Debye-Ang**2):
  XXX=            -60.2019  YYY=             15.2252  ZZZ=             -0.0000  XYY=             -3.9941
  XXY=             15.1469  XXZ=             -0.0002  XZZ=             -2.8387  YZZ=              0.2721
  YYZ=             -0.0000  XYZ=              0.0001
 Hexadecapole moment (field-independent basis, Debye-Ang**3):
 XXXX=          -1004.9387 YYYY=           -195.5824 ZZZZ=            -54.1566 XXXY=             47.5042
 XXXZ=              0.0003 YYYX=             11.3425 YYYZ=              0.0001 ZZZX=             -0.0000
 ZZZY=              0.0000 XXYY=           -202.1194 XXZZ=           -245.0363 YYZZ=            -49.0099
 XXYZ=              0.0000 YYXZ=              0.0001 ZZXY=              2.7034
 N-N= 2.839799859563D+02 E-N=-1.278877980498D+03  KE= 3.035834136065D+02
 PrsmSu:  requested number of processors reduced to:  13 ShMem   1 Linda.
 Calling FoFJK, ICntrl=      2127 FMM=F ISym2X=0 I1Cent= 0 IOpClX= 0 NMat=1 NMatS=1 NMatT=0.
 ***** Axes restored to original set *****
 -------------------------------------------------------------------
 Center     Atomic                   Forces (Hartrees/Bohr)
 Number     Number              X              Y              Z
 -------------------------------------------------------------------
      1        6          -0.004608327    0.004225683   -0.000842985
      2        6          -0.018895802    0.006599209   -0.001315267
      3        7           0.019446398   -0.006153601    0.001226642
      4        6           0.008293930   -0.007420930    0.001483735
      5        6          -0.000889474    0.005163091   -0.001029077
      6        6          -0.016528716   -0.004858509    0.000968289
      7        7           0.028147928    0.004251452   -0.000847379
      8        1          -0.000717925    0.000348189   -0.000069267
      9        1           0.001752419   -0.001073177    0.000214144
     10        1           0.003164799    0.007291254   -0.001453589
     11        1          -0.007981529   -0.000446660    0.000089075
     12        1          -0.004231160   -0.001855908   -0.002440431
     13        1          -0.004232553   -0.000776382    0.002960881
     14        1           0.001967778   -0.006371459    0.001270098
     15        1           0.000115427    0.000517226   -0.000103075
     16        1          -0.000566073    0.010296248   -0.002052595
     17        1          -0.004237120   -0.009735726    0.001940801
 -------------------------------------------------------------------
 Cartesian Forces:  Max     0.028147928 RMS     0.007119705

 GradGradGradGradGradGradGradGradGradGradGradGradGradGradGradGradGradGrad
 Berny optimization.
 FormGI is forming the generalized inverse of G from B-inverse, IUseBI=4.
 Internal  Forces:  Max     0.022321482 RMS     0.005547837
 Search for a local minimum.
 Step number   1 out of a maximum of   78
 All quantities printed in internal units (Hartrees-Bohrs-Radians)
 Mixed Optimization -- RFO/linear search
 Second derivative matrix not updated -- first step.
 ITU=  0
     Eigenvalues ---    0.00279   0.00704   0.01512   0.01550   0.02088
     Eigenvalues ---    0.02088   0.02276   0.02276   0.02613   0.02842
     Eigenvalues ---    0.02842   0.02909   0.04516   0.06306   0.10329
     Eigenvalues ---    0.13500   0.16000   0.16000   0.16000   0.16000
     Eigenvalues ---    0.16000   0.16000   0.16000   0.16000   0.22000
     Eigenvalues ---    0.22000   0.22068   0.25000   0.25000   0.28801
     Eigenvalues ---    0.31891   0.33810   0.33811   0.35174   0.35391
     Eigenvalues ---    0.35489   0.36255   0.45265   0.45644   0.45780
     Eigenvalues ---    0.46275   0.50961   0.53796   0.56518   0.57650
 RFO step:  Lambda=-7.13671701D-03 EMin= 2.78689424D-03
 Linear search not attempted -- first point.
 Iteration  1 RMS(Cart)=  0.07554058 RMS(Int)=  0.00200041
 Iteration  2 RMS(Cart)=  0.00317875 RMS(Int)=  0.00034420
 Iteration  3 RMS(Cart)=  0.00000218 RMS(Int)=  0.00034419
 Iteration  4 RMS(Cart)=  0.00000000 RMS(Int)=  0.00034419
 Variable       Old X    -DE/DX   Delta X   Delta X   Delta X     New X
                                 (Linear)    (Quad)   (Total)
    R1        2.53807   0.00373   0.00000   0.00651   0.00651   2.54458
    R2        2.05045   0.00010   0.00000   0.00028   0.00028   2.05073
    R3        2.04889  -0.00181   0.00000  -0.00501  -0.00501   2.04388
    R4        2.58908   0.00600   0.00000   0.01160   0.01160   2.60068
    R5        2.90420  -0.00529   0.00000  -0.01794  -0.01794   2.88626
    R6        1.91081  -0.00797   0.00000  -0.01713  -0.01713   1.89367
    R7        1.90522  -0.00791   0.00000  -0.01682  -0.01682   1.88840
    R8        2.84343   0.00804   0.00000   0.02467   0.02467   2.86811
    R9        2.07651  -0.00181   0.00000  -0.00525  -0.00525   2.07127
   R10        2.07650  -0.00181   0.00000  -0.00523  -0.00523   2.07127
   R11        2.52850   0.00499   0.00000   0.00856   0.00856   2.53705
   R12        2.03684   0.00675   0.00000   0.01826   0.01826   2.05510
   R13        2.56218   0.02232   0.00000   0.04095   0.04095   2.60313
   R14        2.05393   0.00047   0.00000   0.00132   0.00132   2.05525
   R15        1.91669  -0.01000   0.00000  -0.02175  -0.02175   1.89494
   R16        1.91235  -0.01034   0.00000  -0.02230  -0.02230   1.89005
    A1        2.11368   0.00176   0.00000   0.01054   0.01054   2.12422
    A2        2.12733  -0.00189   0.00000  -0.01134  -0.01134   2.11600
    A3        2.04217   0.00013   0.00000   0.00080   0.00080   2.04297
    A4        2.08412   0.01402   0.00000   0.05451   0.05451   2.13863
    A5        2.07634   0.00170   0.00000   0.00662   0.00662   2.08296
    A6        2.12273  -0.01572   0.00000  -0.06113  -0.06113   2.06160
    A7        2.10063  -0.00248   0.00000  -0.01487  -0.01487   2.08576
    A8        2.13325   0.00238   0.00000   0.01423   0.01423   2.14748
    A9        2.04930   0.00011   0.00000   0.00064   0.00064   2.04994
   A10        2.01442   0.00913   0.00000   0.04661   0.04642   2.06084
   A11        1.88905  -0.00553   0.00000  -0.03565  -0.03663   1.85242
   A12        1.88906  -0.00553   0.00000  -0.03565  -0.03664   1.85242
   A13        1.89570   0.00099   0.00000   0.02357   0.02384   1.91953
   A14        1.89570   0.00099   0.00000   0.02357   0.02384   1.91953
   A15        1.87539  -0.00065   0.00000  -0.02788  -0.02922   1.84618
   A16        2.19827  -0.00558   0.00000  -0.02456  -0.02456   2.17371
   A17        2.07619   0.00206   0.00000   0.00791   0.00791   2.08410
   A18        2.00872   0.00352   0.00000   0.01665   0.01665   2.02537
   A19        2.15034   0.01438   0.00000   0.06333   0.06333   2.21367
   A20        2.12629  -0.00693   0.00000  -0.03008  -0.03008   2.09621
   A21        2.00656  -0.00746   0.00000  -0.03325  -0.03325   1.97331
   A22        2.09152   0.00217   0.00000   0.01296   0.01296   2.10447
   A23        2.11239   0.00188   0.00000   0.01127   0.01127   2.12366
   A24        2.07927  -0.00405   0.00000  -0.02423  -0.02423   2.05505
    D1       -0.00001   0.00000   0.00000   0.00000   0.00000  -0.00000
    D2        3.14159   0.00000   0.00000   0.00000   0.00000   3.14159
    D3       -3.14159  -0.00000   0.00000  -0.00000  -0.00000  -3.14159
    D4        0.00001  -0.00000   0.00000  -0.00001  -0.00001   0.00000
    D5       -0.00000  -0.00000   0.00000  -0.00000  -0.00000  -0.00000
    D6       -3.14159  -0.00000   0.00000  -0.00000  -0.00000  -3.14159
    D7        3.14159   0.00000   0.00000   0.00000   0.00000   3.14159
    D8        0.00000   0.00000   0.00000   0.00000   0.00000   0.00000
    D9        3.14159   0.00000   0.00000   0.00000   0.00000   3.14159
   D10        1.01375  -0.00331   0.00000  -0.03528  -0.03434   0.97942
   D11       -1.01376   0.00331   0.00000   0.03528   0.03434  -0.97942
   D12       -0.00000   0.00000   0.00000  -0.00000  -0.00000  -0.00000
   D13       -2.12784  -0.00331   0.00000  -0.03528  -0.03434  -2.16218
   D14        2.12784   0.00331   0.00000   0.03528   0.03434   2.16217
   D15       -3.14159  -0.00000   0.00000  -0.00000  -0.00000  -3.14159
   D16       -0.00000  -0.00000   0.00000  -0.00000  -0.00000  -0.00000
   D17       -1.01732  -0.00016   0.00000   0.00370   0.00409  -1.01323
   D18        2.12426  -0.00016   0.00000   0.00371   0.00409   2.12836
   D19        1.01733   0.00016   0.00000  -0.00371  -0.00409   1.01323
   D20       -2.12427   0.00016   0.00000  -0.00371  -0.00409  -2.12836
   D21        3.14159   0.00000   0.00000   0.00000   0.00000   3.14159
   D22       -0.00000   0.00000   0.00000   0.00000   0.00000  -0.00000
   D23        0.00000  -0.00000   0.00000  -0.00000  -0.00000   0.00000
   D24       -3.14159  -0.00000   0.00000  -0.00000  -0.00000  -3.14159
   D25        0.00001   0.00000   0.00000   0.00000   0.00000   0.00001
   D26        3.14159  -0.00000   0.00000  -0.00000  -0.00000   3.14159
   D27       -3.14158   0.00000   0.00000   0.00000   0.00000  -3.14158
   D28       -0.00000  -0.00000   0.00000  -0.00000  -0.00000  -0.00001
         Item               Value     Threshold  Converged?
 Maximum Force            0.022321     0.000450     NO 
 RMS     Force            0.005548     0.000300     NO 
 Maximum Displacement     0.251185     0.001800     NO 
 RMS     Displacement     0.075219     0.001200     NO 
 Predicted change in Energy=-3.662368D-03
 GradGradGradGradGradGradGradGradGradGradGradGradGradGradGradGradGradGrad

                          Input orientation:                          
 ---------------------------------------------------------------------
 Center     Atomic      Atomic             Coordinates (Angstroms)
 Number     Number       Type             X           Y           Z
 ---------------------------------------------------------------------
      1          6           0        0.896541    0.021702   -0.041826
      2          6           0        2.238148   -0.091166   -0.019327
      3          7           0        2.876412   -1.286902    0.219050
      4          6           0        3.097698    1.146986   -0.266162
      5          6           0        4.606642    0.987000   -0.234267
      6          6           0        5.482382    1.984969   -0.433220
      7          7           0        6.856740    1.893528   -0.414988
      8          1           0        0.249337   -0.832572    0.128478
      9          1           0        0.416741    0.972322   -0.231340
     10          1           0        2.332642   -2.112380    0.383617
     11          1           0        3.871259   -1.379305    0.237472
     12          1           0        2.783913    1.888784    0.477235
     13          1           0        2.783913    1.547003   -1.237187
     14          1           0        5.035753    0.007010   -0.038896
     15          1           0        5.125050    2.992361   -0.634052
     16          1           0        7.307241    1.014952   -0.239844
     17          1           0        7.438367    2.691488   -0.574074
 ---------------------------------------------------------------------
                    Distance matrix (angstroms):
                    1          2          3          4          5
     1  C    0.000000
     2  C    1.346534   0.000000
     3  N    2.387549   1.376223   0.000000
     4  C    2.482273   1.527342   2.491628   0.000000
     5  C    3.838448   2.611207   2.893064   1.517737   0.000000
     6  C    5.003752   3.873847   4.233400   2.533148   1.342551
     7  N    6.258351   5.042514   5.134214   3.835345   2.432570
     8  H    1.085200   2.127651   2.667609   3.491067   4.735877
     9  H    1.081574   2.119783   3.370003   2.686866   4.189928
    10  H    2.607239   2.063153   1.002089   3.410424   3.893458
    11  H    3.299966   2.095781   0.999299   2.689645   2.522444
    12  H    2.705105   2.112968   3.187506   1.096068   2.154482
    13  H    2.705106   2.112969   3.187506   1.096067   2.154482
    14  H    4.139239   2.799395   2.530514   2.259924   1.087514
    15  H    5.201522   4.268516   4.908793   2.766028   2.109514
    16  H    6.490210   5.193055   5.014116   4.211696   2.700750
    17  H    7.085657   5.923950   6.104758   4.617543   3.322562
                    6          7          8          9         10
     6  C    0.000000
     7  N    1.377518   0.000000
     8  H    5.969823   7.168316   0.000000
     9  H    5.169809   6.508144   1.848008   0.000000
    10  H    5.232241   6.095288   2.458285   3.682965   0.000000
    11  H    3.789971   4.477749   3.664575   4.205190   1.710584
    12  H    2.849546   4.169413   3.735168   2.635429   4.027620
    13  H    2.849546   4.169414   3.735169   2.635429   4.027621
    14  H    2.065742   2.648847   4.862375   4.722726   3.460800
    15  H    1.087593   2.062565   6.243728   5.139154   5.906909
    16  H    2.075678   1.002757   7.304999   6.890637   5.908938
    17  H    2.084440   1.000170   8.037085   7.237143   7.075504
                   11         12         13         14         15
    11  H    0.000000
    12  H    3.452566   0.000000
    13  H    3.452567   1.748158   0.000000
    14  H    1.831473   2.979640   2.979642   0.000000
    15  H    4.630660   2.816694   2.816692   3.045408   0.000000
    16  H    4.215005   4.662433   4.662432   2.493188   2.971112
    17  H    5.473045   4.838753   4.838751   3.642169   2.333572
                   16         17
    16  H    0.000000
    17  H    1.714549   0.000000
 Stoichiometry    C5H10N2
 Framework group  C1[X(C5H10N2)]
 Deg. of freedom    45
 Full point group                 C1      NOp   1
 Largest Abelian subgroup         C1      NOp   1
 Largest concise Abelian subgroup C1      NOp   1
                         Standard orientation:                         
 ---------------------------------------------------------------------
 Center     Atomic      Atomic             Coordinates (Angstroms)
 Number     Number       Type             X           Y           Z
 ---------------------------------------------------------------------
      1          6           0        2.854462   -0.711531    0.000002
      2          6           0        1.707168   -0.006640   -0.000000
      3          7           0        1.683918    1.369386   -0.000001
      4          6           0        0.372474   -0.749181   -0.000001
      5          6           0       -0.902802    0.073738   -0.000000
      6          6           0       -2.142062   -0.442671   -0.000000
      7          7           0       -3.328429    0.257392    0.000002
      8          1           0        3.823737   -0.223509    0.000000
      9          1           0        2.848259   -1.793087   -0.000000
     10          1           0        2.547582    1.877584    0.000001
     11          1           0        0.837145    1.900021   -0.000000
     12          1           0        0.391658   -1.410227    0.874079
     13          1           0        0.391657   -1.410227   -0.874080
     14          1           0       -0.837861    1.159312    0.000004
     15          1           0       -2.283688   -1.521004   -0.000002
     16          1           0       -3.329009    1.260149   -0.000003
     17          1           0       -4.213334   -0.208744   -0.000004
 ---------------------------------------------------------------------
 Rotational constants (GHZ):           7.9252523           1.0959554           0.9684944
 Standard basis: 6-31G(2df,p) (6D, 7F)
 There are   267 symmetry adapted cartesian basis functions of A   symmetry.
 There are   246 symmetry adapted basis functions of A   symmetry.
   246 basis functions,   378 primitive gaussians,   267 cartesian basis functions
    27 alpha electrons       27 beta electrons
       nuclear repulsion energy       282.6312042836 Hartrees.
 NAtoms=   17 NActive=   17 NUniq=   17 SFac= 1.00D+00 NAtFMM=   60 NAOKFM=F Big=F
 Integral buffers will be    131072 words long.
 Raffenetti 2 integral format.
 Two-electron integral symmetry is turned on.
 One-electron integrals computed using PRISM.
 PrsmSu:  requested number of processors reduced to:  13 ShMem   1 Linda.
 NBasis=   246 RedAO= T EigKep=  3.71D-04  NBF=   246
 NBsUse=   246 1.00D-06 EigRej= -1.00D+00 NBFU=   246
 Initial guess from the checkpoint file:  "CdCpNpCCdCN.chk"
 B after Tr=     0.000000   -0.000000   -0.000000
         Rot=    0.999998    0.000000   -0.000000   -0.001854 Ang=  -0.21 deg.
 ExpMin= 1.61D-01 ExpMax= 4.17D+03 ExpMxC= 6.27D+02 IAcc=2 IRadAn=         4 AccDes= 0.00D+00
 Harris functional with IExCor=  402 and IRadAn=       4 diagonalized for initial guess.
 HarFok:  IExCor=  402 AccDes= 0.00D+00 IRadAn=         4 IDoV= 1 UseB2=F ITyADJ=14
 ICtDFT=  3500011 ScaDFX=  1.000000  1.000000  1.000000  1.000000
 FoFCou: FMM=F IPFlag=           0 FMFlag=      100000 FMFlg1=           0
         NFxFlg=           0 DoJE=T BraDBF=F KetDBF=T FulRan=T
         wScrn=  0.000000 ICntrl=       500 IOpCl=  0 I1Cent=   200000004 NGrid=           0
         NMat0=    1 NMatS0=      1 NMatT0=    0 NMatD0=    1 NMtDS0=    0 NMtDT0=    0
 Petite list used in FoFCou.
 Requested convergence on RMS density matrix=1.00D-08 within 128 cycles.
 Requested convergence on MAX density matrix=1.00D-06.
 Requested convergence on             energy=1.00D-06.
 No special actions if energy rises.
 Integral accuracy reduced to 1.0D-05 until final iterations.
 Initial convergence to 1.0D-05 achieved.  Increase integral accuracy.
 SCF Done:  E(RB3LYP) =  -306.023036544     A.U. after   12 cycles
            NFock= 12  Conv=0.23D-08     -V/T= 2.0082
 PrsmSu:  requested number of processors reduced to:  13 ShMem   1 Linda.
 Calling FoFJK, ICntrl=      2127 FMM=F ISym2X=0 I1Cent= 0 IOpClX= 0 NMat=1 NMatS=1 NMatT=0.
 ***** Axes restored to original set *****
 -------------------------------------------------------------------
 Center     Atomic                   Forces (Hartrees/Bohr)
 Number     Number              X              Y              Z
 -------------------------------------------------------------------
      1        6           0.002505317   -0.002442291    0.000486717
      2        6          -0.005571978   -0.000074029    0.000014771
      3        7           0.000219140    0.000845300   -0.000168582
      4        6           0.005015532   -0.000284960    0.000057288
      5        6           0.002768935    0.001155186   -0.000230237
      6        6          -0.003801932   -0.001135157    0.000226121
      7        7          -0.001669513   -0.001123310    0.000224213
      8        1           0.000268826    0.000238896   -0.000047565
      9        1           0.000919589    0.000390281   -0.000077742
     10        1          -0.000503393   -0.000999631    0.000199297
     11        1          -0.000663585    0.000827167   -0.000164885
     12        1           0.000309999    0.000974387   -0.000163919
     13        1           0.000309914    0.000962824   -0.000222650
     14        1          -0.000487032   -0.000165657    0.000032985
     15        1          -0.000215057    0.000633780   -0.000126323
     16        1           0.001036349   -0.000252049    0.000050197
     17        1          -0.000441111    0.000449263   -0.000089685
 -------------------------------------------------------------------
 Cartesian Forces:  Max     0.005571978 RMS     0.001445135

 GradGradGradGradGradGradGradGradGradGradGradGradGradGradGradGradGradGrad
 Berny optimization.
 Using GEDIIS/GDIIS optimizer.
 FormGI is forming the generalized inverse of G from B-inverse, IUseBI=4.
 Internal  Forces:  Max     0.004606989 RMS     0.001255072
 Search for a local minimum.
 Step number   2 out of a maximum of   78
 All quantities printed in internal units (Hartrees-Bohrs-Radians)
 Mixed Optimization -- RFO/linear search
 Update second derivatives using D2CorX and points    1    2
 DE= -3.56D-03 DEPred=-3.66D-03 R= 9.72D-01
 TightC=F SS=  1.41D+00  RLast= 1.78D-01 DXNew= 5.0454D-01 5.3409D-01
 Trust test= 9.72D-01 RLast= 1.78D-01 DXMaxT set to 5.05D-01
 ITU=  1  0
 Use linear search instead of GDIIS.
     Eigenvalues ---    0.00279   0.00704   0.01553   0.01572   0.02088
     Eigenvalues ---    0.02088   0.02276   0.02276   0.02612   0.02842
     Eigenvalues ---    0.02842   0.02909   0.04172   0.06072   0.10987
     Eigenvalues ---    0.13752   0.15556   0.16000   0.16000   0.16000
     Eigenvalues ---    0.16000   0.16000   0.16000   0.16206   0.19420
     Eigenvalues ---    0.22033   0.22679   0.24795   0.25593   0.29275
     Eigenvalues ---    0.32713   0.33811   0.33905   0.35171   0.35393
     Eigenvalues ---    0.35492   0.36320   0.45366   0.45602   0.46148
     Eigenvalues ---    0.46177   0.51096   0.53811   0.56933   0.60362
 RFO step:  Lambda=-4.03036250D-04 EMin= 2.78689424D-03
 Quartic linear search produced a step of  0.00641.
 Iteration  1 RMS(Cart)=  0.02678134 RMS(Int)=  0.00021663
 Iteration  2 RMS(Cart)=  0.00037301 RMS(Int)=  0.00001410
 Iteration  3 RMS(Cart)=  0.00000002 RMS(Int)=  0.00001410
 Variable       Old X    -DE/DX   Delta X   Delta X   Delta X     New X
                                 (Linear)    (Quad)   (Total)
    R1        2.54458  -0.00384   0.00004  -0.00651  -0.00647   2.53811
    R2        2.05073  -0.00036   0.00000  -0.00100  -0.00100   2.04974
    R3        2.04388  -0.00005  -0.00003  -0.00039  -0.00042   2.04346
    R4        2.60068  -0.00105   0.00007  -0.00150  -0.00143   2.59926
    R5        2.88626   0.00261  -0.00012   0.00825   0.00813   2.89439
    R6        1.89367   0.00113  -0.00011   0.00164   0.00153   1.89521
    R7        1.88840  -0.00074  -0.00011  -0.00243  -0.00254   1.88586
    R8        2.86811  -0.00275   0.00016  -0.00745  -0.00729   2.86082
    R9        2.07127   0.00046  -0.00003   0.00111   0.00108   2.07234
   R10        2.07127   0.00046  -0.00003   0.00111   0.00108   2.07234
   R11        2.53705  -0.00442   0.00005  -0.00730  -0.00724   2.52981
   R12        2.05510  -0.00004   0.00012   0.00079   0.00091   2.05601
   R13        2.60313  -0.00101   0.00026   0.00012   0.00038   2.60351
   R14        2.05525   0.00068   0.00001   0.00201   0.00202   2.05727
   R15        1.89494   0.00070  -0.00014   0.00048   0.00034   1.89528
   R16        1.89005   0.00012  -0.00014  -0.00083  -0.00098   1.88907
    A1        2.12422   0.00059   0.00007   0.00419   0.00425   2.12847
    A2        2.11600  -0.00132  -0.00007  -0.00880  -0.00888   2.10712
    A3        2.04297   0.00073   0.00001   0.00462   0.00462   2.04759
    A4        2.13863  -0.00054   0.00035   0.00048   0.00083   2.13946
    A5        2.08296   0.00144   0.00004   0.00612   0.00616   2.08912
    A6        2.06160  -0.00090  -0.00039  -0.00660  -0.00699   2.05461
    A7        2.08576   0.00065  -0.00010   0.00338   0.00328   2.08905
    A8        2.14748  -0.00106   0.00009  -0.00596  -0.00587   2.14161
    A9        2.04994   0.00041   0.00000   0.00258   0.00259   2.05253
   A10        2.06084   0.00223   0.00030   0.01450   0.01477   2.07561
   A11        1.85242  -0.00005  -0.00023   0.00193   0.00169   1.85410
   A12        1.85242  -0.00005  -0.00023   0.00193   0.00168   1.85410
   A13        1.91953  -0.00107   0.00015  -0.00547  -0.00537   1.91416
   A14        1.91953  -0.00107   0.00015  -0.00547  -0.00537   1.91416
   A15        1.84618  -0.00015  -0.00019  -0.00956  -0.00979   1.83638
   A16        2.17371  -0.00461  -0.00016  -0.02223  -0.02239   2.15132
   A17        2.08410   0.00178   0.00005   0.00759   0.00764   2.09174
   A18        2.02537   0.00283   0.00011   0.01464   0.01475   2.04012
   A19        2.21367   0.00004   0.00041   0.00329   0.00370   2.21736
   A20        2.09621  -0.00001  -0.00019  -0.00151  -0.00170   2.09451
   A21        1.97331  -0.00003  -0.00021  -0.00178  -0.00199   1.97131
   A22        2.10447   0.00142   0.00008   0.00953   0.00961   2.11408
   A23        2.12366  -0.00130   0.00007  -0.00761  -0.00753   2.11613
   A24        2.05505  -0.00012  -0.00016  -0.00192  -0.00208   2.05297
    D1       -0.00000   0.00000   0.00000   0.00000   0.00000  -0.00000
    D2        3.14159   0.00000   0.00000   0.00000   0.00000   3.14159
    D3       -3.14159  -0.00000  -0.00000  -0.00000  -0.00000  -3.14159
    D4        0.00000  -0.00000  -0.00000  -0.00000  -0.00000   0.00000
    D5       -0.00000  -0.00000  -0.00000  -0.00000  -0.00000  -0.00000
    D6       -3.14159   0.00000  -0.00000   0.00000   0.00000  -3.14159
    D7        3.14159  -0.00000   0.00000  -0.00000  -0.00000   3.14159
    D8        0.00000   0.00000   0.00000   0.00000   0.00000   0.00000
    D9        3.14159   0.00000   0.00000  -0.00000  -0.00000   3.14159
   D10        0.97942  -0.00011  -0.00022  -0.00456  -0.00480   0.97462
   D11       -0.97942   0.00011   0.00022   0.00455   0.00479  -0.97463
   D12       -0.00000   0.00000  -0.00000  -0.00000  -0.00000  -0.00001
   D13       -2.16218  -0.00011  -0.00022  -0.00456  -0.00480  -2.16697
   D14        2.16217   0.00011   0.00022   0.00455   0.00479   2.16696
   D15       -3.14159  -0.00000  -0.00000  -0.00000  -0.00000   3.14159
   D16       -0.00000  -0.00000  -0.00000  -0.00000  -0.00000  -0.00000
   D17       -1.01323   0.00071   0.00003   0.00899   0.00899  -1.00425
   D18        2.12836   0.00071   0.00003   0.00899   0.00899   2.13734
   D19        1.01323  -0.00071  -0.00003  -0.00899  -0.00899   1.00424
   D20       -2.12836  -0.00071  -0.00003  -0.00899  -0.00899  -2.13735
   D21        3.14159  -0.00000   0.00000  -0.00000  -0.00000   3.14159
   D22       -0.00000   0.00000   0.00000   0.00000   0.00000  -0.00000
   D23        0.00000  -0.00000  -0.00000  -0.00000  -0.00000  -0.00000
   D24       -3.14159  -0.00000  -0.00000  -0.00000  -0.00000  -3.14159
   D25        0.00001   0.00000   0.00000   0.00000   0.00000   0.00001
   D26        3.14159  -0.00000  -0.00000  -0.00000  -0.00000   3.14158
   D27       -3.14158   0.00000   0.00000   0.00000   0.00000  -3.14158
   D28       -0.00001  -0.00000  -0.00000  -0.00000  -0.00000  -0.00001
         Item               Value     Threshold  Converged?
 Maximum Force            0.004607     0.000450     NO 
 RMS     Force            0.001255     0.000300     NO 
 Maximum Displacement     0.070124     0.001800     NO 
 RMS     Displacement     0.026819     0.001200     NO 
 Predicted change in Energy=-2.019260D-04
 GradGradGradGradGradGradGradGradGradGradGradGradGradGradGradGradGradGrad

                          Input orientation:                          
 ---------------------------------------------------------------------
 Center     Atomic      Atomic             Coordinates (Angstroms)
 Number     Number       Type             X           Y           Z
 ---------------------------------------------------------------------
      1          6           0        0.895878    0.032152   -0.043908
      2          6           0        2.232569   -0.096480   -0.018268
      3          7           0        2.856542   -1.298619    0.221382
      4          6           0        3.117683    1.129401   -0.262656
      5          6           0        4.622192    0.964466   -0.229772
      6          6           0        5.476242    1.975474   -0.431327
      7          7           0        6.852547    1.914313   -0.419130
      8          1           0        0.234719   -0.811130    0.124206
      9          1           0        0.436744    0.992297   -0.235317
     10          1           0        2.305505   -2.120402    0.385212
     11          1           0        3.849516   -1.396291    0.240854
     12          1           0        2.812347    1.880144    0.476105
     13          1           0        2.812350    1.539454   -1.232832
     14          1           0        5.055498   -0.014260   -0.034649
     15          1           0        5.097596    2.976467   -0.630889
     16          1           0        7.331624    1.050197   -0.246865
     17          1           0        7.409227    2.728596   -0.581476
 ---------------------------------------------------------------------
                    Distance matrix (angstroms):
                    1          2          3          4          5
     1  C    0.000000
     2  C    1.343111   0.000000
     3  N    2.384435   1.375468   0.000000
     4  C    2.487614   1.531644   2.489531   0.000000
     5  C    3.845669   2.623097   2.905617   1.513880   0.000000
     6  C    4.990624   3.871049   4.243648   2.511392   1.338717
     7  N    6.258213   5.054520   5.167325   3.819657   2.431574
     8  H    1.084674   2.126600   2.668528   3.496684   4.746362
     9  H    1.081350   2.111287   3.363374   2.684582   4.185544
    10  H    2.608579   2.065037   1.002901   3.411830   3.906617
    11  H    3.293253   2.090734   0.997956   2.677353   2.528179
    12  H    2.712626   2.118393   3.189259   1.096637   2.147619
    13  H    2.712630   2.118393   3.189255   1.096638   2.147619
    14  H    4.159889   2.824173   2.559402   2.261652   1.087994
    15  H    5.164104   4.245784   4.901536   2.732637   2.105957
    16  H    6.518929   5.231394   5.075683   4.214715   2.710842
    17  H    7.069901   5.924191   6.131068   4.590906   3.317140
                    6          7          8          9         10
     6  C    0.000000
     7  N    1.377718   0.000000
     8  H    5.962159   7.177666   0.000000
     9  H    5.138248   6.484322   1.849978   0.000000
    10  H    5.243712   6.132005   2.463833   3.683235   0.000000
    11  H    3.803533   4.518172   3.663710   4.192743   1.711475
    12  H    2.815822   4.138337   3.743121   2.633986   4.033550
    13  H    2.815820   4.138336   3.743124   2.633993   4.033548
    14  H    2.072057   2.663945   4.888777   4.731417   3.489209
    15  H    1.088662   2.062249   6.209962   5.081038   5.899687
    16  H    2.081492   1.002939   7.346311   6.895133   5.976127
    17  H    2.079945   0.999653   8.031264   7.193753   7.106001
                   11         12         13         14         15
    11  H    0.000000
    12  H    3.444719   0.000000
    13  H    3.444715   1.742566   0.000000
    14  H    1.854806   2.980162   2.980164   0.000000
    15  H    4.630189   2.765813   2.765808   3.049872   0.000000
    16  H    4.283486   4.651383   4.651381   2.521677   2.974706
    17  H    5.510215   4.792667   4.792661   3.655451   2.325408
                   16         17
    16  H    0.000000
    17  H    1.713187   0.000000
 Stoichiometry    C5H10N2
 Framework group  C1[X(C5H10N2)]
 Deg. of freedom    45
 Full point group                 C1      NOp   1
 Largest Abelian subgroup         C1      NOp   1
 Largest concise Abelian subgroup C1      NOp   1
                         Standard orientation:                         
 ---------------------------------------------------------------------
 Center     Atomic      Atomic             Coordinates (Angstroms)
 Number     Number       Type             X           Y           Z
 ---------------------------------------------------------------------
      1          6           0        2.846197   -0.732468    0.000002
      2          6           0        1.712660   -0.012024   -0.000000
      3          7           0        1.709227    1.363440   -0.000003
      4          6           0        0.358587   -0.727861   -0.000001
      5          6           0       -0.907985    0.101372    0.000003
      6          6           0       -2.135433   -0.432984   -0.000002
      7          7           0       -3.335375    0.243955    0.000003
      8          1           0        3.824321   -0.263649    0.000003
      9          1           0        2.813933   -1.813337    0.000004
     10          1           0        2.579191    1.862410   -0.000001
     11          1           0        0.868142    1.900555   -0.000003
     12          1           0        0.363884   -1.393786    0.871279
     13          1           0        0.363882   -1.393780   -0.871286
     14          1           0       -0.844121    1.187489    0.000010
     15          1           0       -2.258321   -1.514687   -0.000010
     16          1           0       -3.365108    1.246453    0.000002
     17          1           0       -4.206924   -0.245645   -0.000010
 ---------------------------------------------------------------------
 Rotational constants (GHZ):           7.9770747           1.0930699           0.9669699
 Standard basis: 6-31G(2df,p) (6D, 7F)
 There are   267 symmetry adapted cartesian basis functions of A   symmetry.
 There are   246 symmetry adapted basis functions of A   symmetry.
   246 basis functions,   378 primitive gaussians,   267 cartesian basis functions
    27 alpha electrons       27 beta electrons
       nuclear repulsion energy       282.6871840941 Hartrees.
 NAtoms=   17 NActive=   17 NUniq=   17 SFac= 1.00D+00 NAtFMM=   60 NAOKFM=F Big=F
 Integral buffers will be    131072 words long.
 Raffenetti 2 integral format.
 Two-electron integral symmetry is turned on.
 One-electron integrals computed using PRISM.
 PrsmSu:  requested number of processors reduced to:  13 ShMem   1 Linda.
 NBasis=   246 RedAO= T EigKep=  3.70D-04  NBF=   246
 NBsUse=   246 1.00D-06 EigRej= -1.00D+00 NBFU=   246
 Initial guess from the checkpoint file:  "CdCpNpCCdCN.chk"
 B after Tr=     0.000000   -0.000000    0.000000
         Rot=    0.999999   -0.000000   -0.000000    0.001557 Ang=  -0.18 deg.
 ExpMin= 1.61D-01 ExpMax= 4.17D+03 ExpMxC= 6.27D+02 IAcc=2 IRadAn=         4 AccDes= 0.00D+00
 Harris functional with IExCor=  402 and IRadAn=       4 diagonalized for initial guess.
 HarFok:  IExCor=  402 AccDes= 0.00D+00 IRadAn=         4 IDoV= 1 UseB2=F ITyADJ=14
 ICtDFT=  3500011 ScaDFX=  1.000000  1.000000  1.000000  1.000000
 FoFCou: FMM=F IPFlag=           0 FMFlag=      100000 FMFlg1=           0
         NFxFlg=           0 DoJE=T BraDBF=F KetDBF=T FulRan=T
         wScrn=  0.000000 ICntrl=       500 IOpCl=  0 I1Cent=   200000004 NGrid=           0
         NMat0=    1 NMatS0=      1 NMatT0=    0 NMatD0=    1 NMtDS0=    0 NMtDT0=    0
 Petite list used in FoFCou.
 Requested convergence on RMS density matrix=1.00D-08 within 128 cycles.
 Requested convergence on MAX density matrix=1.00D-06.
 Requested convergence on             energy=1.00D-06.
 No special actions if energy rises.
 Integral accuracy reduced to 1.0D-05 until final iterations.
 Initial convergence to 1.0D-05 achieved.  Increase integral accuracy.
 SCF Done:  E(RB3LYP) =  -306.023256071     A.U. after   10 cycles
            NFock= 10  Conv=0.39D-08     -V/T= 2.0082
 PrsmSu:  requested number of processors reduced to:  13 ShMem   1 Linda.
 Calling FoFJK, ICntrl=      2127 FMM=F ISym2X=0 I1Cent= 0 IOpClX= 0 NMat=1 NMatS=1 NMatT=0.
 ***** Axes restored to original set *****
 -------------------------------------------------------------------
 Center     Atomic                   Forces (Hartrees/Bohr)
 Number     Number              X              Y              Z
 -------------------------------------------------------------------
      1        6           0.000025781   -0.000388982    0.000077548
      2        6          -0.000291586    0.000641112   -0.000127706
      3        7          -0.000369973    0.000108335   -0.000021681
      4        6          -0.000100199    0.000084826   -0.000017087
      5        6           0.000739939   -0.001682034    0.000335286
      6        6           0.000360279    0.000553646   -0.000110553
      7        7          -0.001332621   -0.000532011    0.000106435
      8        1           0.000192235    0.000100131   -0.000019974
      9        1           0.000029791    0.000268133   -0.000053435
     10        1          -0.000021095   -0.000355228    0.000070830
     11        1           0.000773087    0.000237163   -0.000047300
     12        1          -0.000055521    0.000191590    0.000233761
     13        1          -0.000055398    0.000087258   -0.000289204
     14        1          -0.000379596    0.000315017   -0.000062729
     15        1           0.000000752   -0.000066129    0.000013216
     16        1           0.000260041   -0.000279385    0.000055613
     17        1           0.000224084    0.000716559   -0.000143019
 -------------------------------------------------------------------
 Cartesian Forces:  Max     0.001682034 RMS     0.000418428

 GradGradGradGradGradGradGradGradGradGradGradGradGradGradGradGradGradGrad
 Berny optimization.
 Using GEDIIS/GDIIS optimizer.
 FormGI is forming the generalized inverse of G from B-inverse, IUseBI=4.
 Internal  Forces:  Max     0.001174168 RMS     0.000370282
 Search for a local minimum.
 Step number   3 out of a maximum of   78
 All quantities printed in internal units (Hartrees-Bohrs-Radians)
 Mixed Optimization -- En-DIIS/RFO-DIIS
 Update second derivatives using D2CorX and points    1    2    3
 DE= -2.20D-04 DEPred=-2.02D-04 R= 1.09D+00
 TightC=F SS=  1.41D+00  RLast= 4.73D-02 DXNew= 8.4853D-01 1.4184D-01
 Trust test= 1.09D+00 RLast= 4.73D-02 DXMaxT set to 5.05D-01
 ITU=  1  1  0
 Use linear search instead of GDIIS.
     Eigenvalues ---    0.00279   0.00704   0.01557   0.01574   0.02088
     Eigenvalues ---    0.02088   0.02276   0.02276   0.02612   0.02842
     Eigenvalues ---    0.02842   0.02909   0.04060   0.06225   0.11129
     Eigenvalues ---    0.12990   0.13834   0.16000   0.16000   0.16000
     Eigenvalues ---    0.16000   0.16000   0.16031   0.16136   0.17977
     Eigenvalues ---    0.22471   0.23104   0.24798   0.25793   0.30215
     Eigenvalues ---    0.33620   0.33811   0.33828   0.35270   0.35382
     Eigenvalues ---    0.35545   0.36419   0.45366   0.45782   0.46102
     Eigenvalues ---    0.46975   0.51173   0.54746   0.56816   0.60334
 RFO step:  Lambda=-4.03396559D-05 EMin= 2.78689422D-03
 Quartic linear search produced a step of  0.09401.
 Iteration  1 RMS(Cart)=  0.00673357 RMS(Int)=  0.00001461
 Iteration  2 RMS(Cart)=  0.00002387 RMS(Int)=  0.00000140
 Iteration  3 RMS(Cart)=  0.00000000 RMS(Int)=  0.00000140
 Variable       Old X    -DE/DX   Delta X   Delta X   Delta X     New X
                                 (Linear)    (Quad)   (Total)
    R1        2.53811  -0.00025  -0.00061  -0.00046  -0.00106   2.53705
    R2        2.04974  -0.00020  -0.00009  -0.00062  -0.00071   2.04903
    R3        2.04346   0.00023  -0.00004   0.00067   0.00063   2.04409
    R4        2.59926   0.00018  -0.00013   0.00050   0.00037   2.59962
    R5        2.89439  -0.00070   0.00076  -0.00280  -0.00204   2.89235
    R6        1.89521   0.00031   0.00014   0.00059   0.00073   1.89594
    R7        1.88586   0.00075  -0.00024   0.00158   0.00134   1.88720
    R8        2.86082  -0.00002  -0.00069   0.00015  -0.00054   2.86028
    R9        2.07234   0.00030   0.00010   0.00094   0.00104   2.07338
   R10        2.07234   0.00030   0.00010   0.00094   0.00104   2.07338
   R11        2.52981  -0.00000  -0.00068   0.00004  -0.00064   2.52916
   R12        2.05601  -0.00045   0.00009  -0.00116  -0.00107   2.05494
   R13        2.60351  -0.00084   0.00004  -0.00130  -0.00127   2.60224
   R14        2.05727  -0.00006   0.00019  -0.00017   0.00002   2.05729
   R15        1.89528   0.00037   0.00003   0.00069   0.00072   1.89600
   R16        1.88907   0.00073  -0.00009   0.00153   0.00143   1.89050
    A1        2.12847  -0.00003   0.00040  -0.00005   0.00035   2.12882
    A2        2.10712  -0.00013  -0.00083  -0.00107  -0.00191   2.10521
    A3        2.04759   0.00016   0.00043   0.00112   0.00156   2.04915
    A4        2.13946   0.00064   0.00008   0.00337   0.00345   2.14290
    A5        2.08912   0.00053   0.00058   0.00242   0.00300   2.09212
    A6        2.05461  -0.00117  -0.00066  -0.00579  -0.00645   2.04816
    A7        2.08905   0.00043   0.00031   0.00280   0.00311   2.09216
    A8        2.14161  -0.00051  -0.00055  -0.00341  -0.00396   2.13765
    A9        2.05253   0.00009   0.00024   0.00060   0.00085   2.05337
   A10        2.07561  -0.00101   0.00139  -0.00491  -0.00353   2.07208
   A11        1.85410   0.00032   0.00016   0.00095   0.00111   1.85522
   A12        1.85410   0.00032   0.00016   0.00095   0.00111   1.85522
   A13        1.91416   0.00026  -0.00050   0.00127   0.00076   1.91492
   A14        1.91416   0.00026  -0.00051   0.00127   0.00076   1.91492
   A15        1.83638  -0.00007  -0.00092   0.00110   0.00017   1.83655
   A16        2.15132  -0.00111  -0.00210  -0.00589  -0.00799   2.14333
   A17        2.09174   0.00033   0.00072   0.00133   0.00205   2.09379
   A18        2.04012   0.00078   0.00139   0.00455   0.00594   2.04606
   A19        2.21736   0.00018   0.00035   0.00154   0.00189   2.21925
   A20        2.09451  -0.00011  -0.00016  -0.00091  -0.00107   2.09344
   A21        1.97131  -0.00007  -0.00019  -0.00063  -0.00081   1.97050
   A22        2.11408   0.00026   0.00090   0.00193   0.00284   2.11692
   A23        2.11613  -0.00034  -0.00071  -0.00223  -0.00294   2.11319
   A24        2.05297   0.00008  -0.00020   0.00030   0.00010   2.05308
    D1       -0.00000   0.00000   0.00000   0.00000   0.00000   0.00000
    D2        3.14159  -0.00000   0.00000  -0.00000  -0.00000   3.14159
    D3       -3.14159  -0.00000  -0.00000   0.00000   0.00000  -3.14159
    D4        0.00000  -0.00000  -0.00000  -0.00000  -0.00000  -0.00000
    D5       -0.00000  -0.00000  -0.00000  -0.00000  -0.00000  -0.00000
    D6       -3.14159  -0.00000   0.00000  -0.00000  -0.00000  -3.14159
    D7        3.14159   0.00000  -0.00000   0.00000   0.00000   3.14159
    D8        0.00000  -0.00000   0.00000   0.00000   0.00000   0.00000
    D9        3.14159  -0.00000  -0.00000  -0.00002  -0.00002   3.14157
   D10        0.97462   0.00010  -0.00045   0.00101   0.00056   0.97518
   D11       -0.97463  -0.00010   0.00045  -0.00104  -0.00059  -0.97522
   D12       -0.00001  -0.00000  -0.00000  -0.00002  -0.00002  -0.00003
   D13       -2.16697   0.00010  -0.00045   0.00101   0.00056  -2.16642
   D14        2.16696  -0.00010   0.00045  -0.00105  -0.00059   2.16637
   D15        3.14159  -0.00000  -0.00000  -0.00000  -0.00001   3.14158
   D16       -0.00000  -0.00000  -0.00000  -0.00001  -0.00001  -0.00001
   D17       -1.00425  -0.00011   0.00084  -0.00138  -0.00054  -1.00478
   D18        2.13734  -0.00011   0.00084  -0.00138  -0.00054   2.13681
   D19        1.00424   0.00011  -0.00085   0.00137   0.00052   1.00477
   D20       -2.13735   0.00011  -0.00085   0.00137   0.00052  -2.13683
   D21        3.14159  -0.00000  -0.00000  -0.00000  -0.00000   3.14159
   D22       -0.00000  -0.00000   0.00000  -0.00000  -0.00000  -0.00000
   D23       -0.00000  -0.00000  -0.00000  -0.00000  -0.00000  -0.00000
   D24       -3.14159   0.00000  -0.00000   0.00000   0.00000  -3.14159
   D25        0.00001   0.00000   0.00000   0.00000   0.00000   0.00002
   D26        3.14158  -0.00000  -0.00000  -0.00001  -0.00001   3.14158
   D27       -3.14158   0.00000   0.00000   0.00000   0.00000  -3.14158
   D28       -0.00001  -0.00000  -0.00000  -0.00001  -0.00001  -0.00002
         Item               Value     Threshold  Converged?
 Maximum Force            0.001174     0.000450     NO 
 RMS     Force            0.000370     0.000300     NO 
 Maximum Displacement     0.024558     0.001800     NO 
 RMS     Displacement     0.006745     0.001200     NO 
 Predicted change in Energy=-2.184588D-05
 GradGradGradGradGradGradGradGradGradGradGradGradGradGradGradGradGradGrad

                          Input orientation:                          
 ---------------------------------------------------------------------
 Center     Atomic      Atomic             Coordinates (Angstroms)
 Number     Number       Type             X           Y           Z
 ---------------------------------------------------------------------
      1          6           0        0.894888    0.034123   -0.044290
      2          6           0        2.231103   -0.093608   -0.018842
      3          7           0        2.860177   -1.293402    0.220330
      4          6           0        3.118532    1.129363   -0.262653
      5          6           0        4.621742    0.955788   -0.228036
      6          6           0        5.473398    1.968303   -0.429900
      7          7           0        6.849271    1.912565   -0.418773
      8          1           0        0.234215   -0.809061    0.123806
      9          1           0        0.436843    0.995131   -0.235862
     10          1           0        2.314983   -2.119378    0.384997
     11          1           0        3.854626   -1.383296    0.238240
     12          1           0        2.815676    1.881744    0.476279
     13          1           0        2.815689    1.540848   -1.233625
     14          1           0        5.050999   -0.024043   -0.032677
     15          1           0        5.091500    2.968114   -0.629242
     16          1           0        7.334542    1.051355   -0.247076
     17          1           0        7.400596    2.731235   -0.582006
 ---------------------------------------------------------------------
                    Distance matrix (angstroms):
                    1          2          3          4          5
     1  C    0.000000
     2  C    1.342547   0.000000
     3  N    2.386358   1.375661   0.000000
     4  C    2.488338   1.530565   2.483910   0.000000
     5  C    3.843524   2.619189   2.891886   1.513594   0.000000
     6  C    4.985228   3.864313   4.229709   2.505431   1.338376
     7  N    6.254875   5.050956   5.157476   3.815258   2.431808
     8  H    1.084299   2.125978   2.671999   3.496587   4.742244
     9  H    1.081684   2.109933   3.364229   2.685180   4.185091
    10  H    2.615057   2.067334   1.003289   3.408733   3.892762
    11  H    3.293774   2.089310   0.998665   2.665742   2.505433
    12  H    2.715534   2.118699   3.185756   1.097187   2.148332
    13  H    2.715551   2.118699   3.185740   1.097188   2.148332
    14  H    4.156534   2.820788   2.544600   2.262225   1.087426
    15  H    5.153836   4.234218   4.884782   2.721764   2.105016
    16  H    6.522655   5.235277   5.073096   4.216761   2.714549
    17  H    7.063129   5.917816   6.120201   4.583018   3.316554
                    6          7          8          9         10
     6  C    0.000000
     7  N    1.377047   0.000000
     8  H    5.955617   7.173605   0.000000
     9  H    5.133380   6.480307   1.850818   0.000000
    10  H    5.229606   6.120653   2.472801   3.689585   0.000000
    11  H    3.781540   4.501362   3.667454   4.190814   1.712851
    12  H    2.809295   4.131823   3.745478   2.636678   4.033361
    13  H    2.809289   4.131820   3.745491   2.636711   4.033348
    14  H    2.075006   2.670825   4.882842   4.729739   3.471407
    15  H    1.088671   2.061125   6.198980   5.070823   5.883902
    16  H    2.082805   1.003320   7.349377   6.897937   5.970682
    17  H    2.078291   1.000412   8.024268   7.185244   7.094153
                   11         12         13         14         15
    11  H    0.000000
    12  H    3.434613   0.000000
    13  H    3.434588   1.743554   0.000000
    14  H    1.830920   2.981230   2.981236   0.000000
    15  H    4.606207   2.753499   2.753486   3.051317   0.000000
    16  H    4.274678   4.651123   4.651120   2.533184   2.975105
    17  H    5.493275   4.781537   4.781527   3.662503   2.321694
                   16         17
    16  H    0.000000
    17  H    1.714217   0.000000
 Stoichiometry    C5H10N2
 Framework group  C1[X(C5H10N2)]
 Deg. of freedom    45
 Full point group                 C1      NOp   1
 Largest Abelian subgroup         C1      NOp   1
 Largest concise Abelian subgroup C1      NOp   1
                         Standard orientation:                         
 ---------------------------------------------------------------------
 Center     Atomic      Atomic             Coordinates (Angstroms)
 Number     Number       Type             X           Y           Z
 ---------------------------------------------------------------------
      1          6           0        2.846555   -0.731049    0.000012
      2          6           0        1.712004   -0.013256   -0.000001
      3          7           0        1.700981    1.362361   -0.000010
      4          6           0        0.358220   -0.727328   -0.000008
      5          6           0       -0.904405    0.107385    0.000008
      6          6           0       -2.129646   -0.431166   -0.000007
      7          7           0       -3.332652    0.238933    0.000010
      8          1           0        3.823532   -0.260709    0.000016
      9          1           0        2.814460   -1.812258    0.000019
     10          1           0        2.566943    1.869016   -0.000004
     11          1           0        0.854244    1.891859   -0.000019
     12          1           0        0.361541   -1.393535    0.871758
     13          1           0        0.361536   -1.393508   -0.871796
     14          1           0       -0.837961    1.192780    0.000035
     15          1           0       -2.247550   -1.513434   -0.000034
     16          1           0       -3.370676    1.241533    0.000024
     17          1           0       -4.200736   -0.258313   -0.000018
 ---------------------------------------------------------------------
[...]
   xx         0.540095D+02      0.800338D+01      0.890496D+01
   yx         0.179578D+01      0.266108D+00      0.296085D+00
   yy         0.566141D+02      0.838934D+01      0.933440D+01
   zx         0.134610D+02      0.199472D+01      0.221942D+01
   zy         0.470767D+01      0.697605D+00      0.776190D+00
   zz         0.105907D+03      0.156938D+02      0.174617D+02

 ----------------------------------------------------------------------
 1\1\GINC-LEWIS4-R630-HPC4RC-NODE358\Freq\RB3LYP\6-31G(2df,p)\C5H10N2\L
 INJIAN\31-May-2021\0\\#N Geom=AllCheck Guess=TCheck SCRF=Check GenChk 
 RB3LYP/6-31G(2df,p) Freq\\Title Card Required\\0,1\C,1.0595811278,-0.0
 928154693,0.4336758592\C,2.2997002863,-0.0291482429,-0.068102946\N,3.0
 575037843,-1.1473629608,-0.4065715807\C,3.012066516,1.2945579185,-0.29
 1218146\C,4.4383562426,1.3215130469,0.1880507691\C,5.4857920215,1.5694
 575413,-0.6050952202\N,6.8351956678,1.5132616985,-0.2496539448\H,0.539
 5764754,-1.0360829838,0.5641222066\H,0.5396794865,0.8062235634,0.73618
 24665\H,2.5390655907,-1.9860846306,-0.6190358839\H,3.8216649872,-0.977
 9219797,-1.0429132991\H,2.4195266472,2.076647431,0.197643052\H,2.99896
 94127,1.5212139443,-1.3677014721\H,4.6037578522,1.1071030895,1.2429526
 811\H,5.3287479292,1.7857591713,-1.6606906967\H,7.0019475151,1.5268776
 056,0.7480046241\H,7.4176484575,2.1925812568,-0.7189784693\\Version=ES
 64L-G16RevA.03\State=1-A\HF=-306.0398548\RMSD=2.252e-09\RMSF=1.307e-05
 \ZeroPoint=0.1479229\Thermal=0.1563771\Dipole=0.791561,0.3329456,-0.41
 5106\DipoleDeriv=-0.5423527,0.1323472,0.032848,-0.093446,-0.0387385,0.
 0421467,0.0201213,-0.0139935,-0.4322609,0.7749227,-0.2498967,-0.317769
 2,-0.4222449,0.5702058,0.2027829,-0.4087494,0.1016409,0.1741859,-0.766
 3329,0.2632913,0.095852,0.5440741,-0.7040673,-0.1854614,-0.0972005,0.0
 818604,-0.3576113,0.276425,-0.0044898,-0.0028131,0.0566709,0.138914,0.
 0003434,0.1141131,0.0596833,0.138148,-0.3214123,-0.0265558,0.0398894,-
 0.1589537,-0.3010939,-0.0419719,0.3004549,0.0074751,0.008355,1.3671018
 ,0.1818143,-0.1230094,-0.0210316,-0.0829236,-0.0135576,0.0437517,-0.07
 58117,0.1840367,-1.4009968,-0.0867678,0.1289364,0.4830897,-0.285977,-0
 .1178876,-0.1311378,-0.0832751,-0.1949653,0.0050024,-0.051706,0.045275
 3,-0.0959664,-0.1106842,0.011778,0.0631012,-0.0036484,0.1210729,0.0445
 11,0.0103473,0.0413901,0.0688146,-0.0656835,-0.0447777,0.0451868,-0.03
 37393,0.1133551,0.1127425,-0.0960629,0.0236664,-0.0526257,0.1488396,-0
 .0291158,0.0966467,-0.1178152,0.1959277,0.255071,-0.0034558,0.0391885,
 0.0257997,0.1944841,0.0308999,0.1892613,-0.0168212,0.128543,-0.1432852
 ,0.0551033,0.0487925,0.0563085,-0.0401183,-0.0424549,0.0235762,-0.0826
 271,0.0318317,-0.0303133,-0.050741,0.0443217,-0.056453,-0.0033928,0.03
 51535,-0.0097199,0.058005,-0.1488137,-0.0244001,-0.0064673,-0.0549825,
 0.01749,0.1115028,0.0443133,-0.0651189,0.0277533,-0.1005914,0.0194392,
 -0.0036112,-0.0429338,0.0405683,0.1047642,0.0286356,-0.0285751,0.04533
 31,-0.0972328,0.1719952,-0.0330663,0.0367148,-0.1568975,0.2213005,-0.0
 162314,-0.0137547,0.0141721,0.0554093,0.2018824,-0.0300829,-0.0353672,
 -0.2351966,0.142668,0.0954048,-0.141957,0.0318083,0.1806101\Polar=103.
 434446,10.571077,58.273266,-14.5065757,-1.9062139,54.8228924\Quadrupol
 e=-0.2819856,1.0237331,-0.7417475,3.9781728,0.9893611,1.3617501\PG=C01
  [X(C5H10N2)]\NImag=0\\0.71703149,0.01824777,0.64719038,-0.26112009,0.
 04386873,0.19071742,-0.44511084,-0.03060939,0.15835363,0.76166845,-0.0
 2899866,-0.11057153,0.00435527,-0.00333904,0.55570257,0.15908413,0.007
 04754,-0.11990588,-0.24470418,0.03082142,0.28524328,-0.03461820,0.0455
 1291,0.02025022,-0.16216241,0.06953865,0.04447678,0.60622228,0.0189814
 5,-0.00149915,-0.00734254,0.07654585,-0.23390933,-0.03064856,0.1382648
 2,0.66122936,0.01359677,-0.01860038,0.00681068,0.07307291,-0.06570938,
 -0.07116853,-0.26682040,0.12377239,0.28295888,-0.01446402,-0.02794783,
 0.00846955,-0.09970100,-0.03767698,0.01015794,0.00949919,0.01519958,-0
 .00254746,0.48953124,-0.00770504,-0.00325031,0.00288170,-0.04024766,-0
 .15994912,0.01405778,-0.01053999,-0.03788362,0.00136593,-0.04923432,0.
 49267934,0.00893626,0.01091317,0.00339468,0.01070319,0.01694173,-0.078
 80221,-0.00282442,-0.01094587,0.00186383,-0.03334520,0.01892770,0.5479
 6931,0.00099405,-0.00105771,-0.00111355,-0.02563897,-0.01260331,-0.003
 31043,-0.00084450,0.00145598,0.00004528,-0.19074171,0.00260041,-0.0449
 8968,0.69536039,-0.00042487,-0.00391862,0.00000125,-0.02796794,0.00140
 259,-0.00953645,-0.00274640,-0.00127833,-0.00142058,0.00209328,-0.0643
 2387,0.00304136,0.07369238,0.16313142,0.00117485,0.00262221,-0.0000696
 2,0.00726235,-0.00475427,0.00359061,-0.00069724,0.00138127,-0.00007260
 ,-0.03792882,0.00458561,-0.09785752,-0.11699625,-0.12705942,0.67364135
 ,0.00049696,0.00023741,-0.00005696,-0.00223570,0.00268458,0.00166417,0
 .00250721,0.00189550,0.00010986,-0.03378968,-0.00609978,0.01326634,-0.
 34840014,-0.06825292,0.19375995,0.75854538,-0.00013389,-0.00008528,0.0
 0001926,-0.00109561,-0.00146327,-0.00029226,-0.00117827,-0.00008922,0.
 00019878,0.00029554,-0.00206166,-0.00129939,-0.06637901,-0.06914168,0.
 06292825,0.07603185,0.17546873,-0.00045868,-0.00100055,0.00045882,-0.0
 0355618,-0.00038797,-0.00112520,-0.00075428,-0.00052853,-0.00013355,-0
 .00467022,-0.00359868,0.00800119,0.18899733,0.06218830,-0.26743927,-0.
 10384652,-0.14067252,0.71380231,-0.00060683,-0.00201583,0.00000898,-0.
 00148039,0.00260272,-0.00209105,-0.00107930,-0.00217106,0.00045666,0.0
 0423577,-0.00318446,0.00533003,-0.05019791,-0.00051415,-0.00544447,-0.
 29053110,0.01293927,-0.04503182,0.58054930,0.00009966,0.00092853,0.000
 07422,0.00182755,-0.00089883,0.00084341,0.00048137,0.00081240,-0.00031
 605,-0.00316105,0.01061305,0.00210757,-0.00503920,0.01043325,-0.005361
 29,-0.03286809,-0.04989608,0.02094558,0.20243113,0.25354914,0.00002774
 ,0.00019778,-0.00001681,0.00081278,-0.00042449,0.00025676,-0.00006114,
 -0.00002228,0.00007947,0.00081223,0.00167018,-0.00258363,0.02404400,-0
 .00058349,0.01541301,-0.06187108,0.03009011,-0.12618880,0.02867450,-0.
 16077109,0.68691169,-0.11414821,-0.11381312,0.02623863,-0.01012137,-0.
 02831168,0.00310286,0.00152172,-0.00030728,-0.00295325,-0.00156571,0.0
 0149899,0.00507270,0.00020661,-0.00042498,0.00037731,0.00010349,-0.000
 08489,-0.00009587,-0.00037199,0.00021408,-0.00001612,0.11773568,-0.118
 52506,-0.26794177,0.02711541,0.00289023,-0.00143174,-0.00157348,0.0008
 0050,0.00134062,0.00038181,-0.00041584,0.00106313,-0.00121950,-0.00013
 624,-0.00005714,0.00064834,0.00004024,0.00005508,-0.00015890,-0.000282
 40,0.00003820,0.00003349,0.12907702,0.28140350,0.02578772,0.02594367,-
 0.03496214,0.00588673,0.01183708,0.00176239,-0.00233592,0.00199074,-0.
 00376384,0.00569184,-0.00254971,0.00892456,0.00118928,0.00192300,-0.00
 106431,-0.00018650,0.00011871,0.00059276,0.00056306,-0.00026448,-0.000
 16168,-0.02974275,-0.02973591,0.02837956,-0.11295761,0.11086812,0.0493
 9465,-0.01145053,0.02589302,0.00594129,-0.00298874,-0.00338264,0.00494
 257,-0.00046835,0.00273069,-0.00225062,-0.00004912,-0.00049484,0.00008
 850,-0.00005311,-0.00010897,-0.00009823,0.00008856,0.00002540,0.000028
 63,0.00789770,-0.01254170,-0.00461196,0.12023177,0.11741392,-0.2568683
 7,-0.07170341,-0.00275063,0.00124277,0.00154360,-0.00157427,0.00194363
 ,-0.00061184,-0.00115903,0.00004114,0.00086113,0.00038410,0.00036579,0
 .00010686,-0.00031041,0.00008277,0.00013801,0.00022129,-0.00012728,0.0
 0000711,0.01276721,-0.01577845,-0.00676826,-0.12387442,0.26825325,0.05
 072577,-0.06956043,-0.04684708,0.00330671,-0.01145305,-0.00430066,0.00
 396664,-0.00072459,0.00574220,-0.00301797,0.00048641,-0.00584480,-0.00
 068841,-0.00042661,0.00068233,-0.00002331,0.00002191,-0.00028539,-0.00
 020017,0.00004214,0.00008640,-0.00220910,0.00390177,0.00107753,-0.0541
 9782,0.07561930,0.04759386,0.00113697,0.00167348,-0.00084841,0.0120914
 7,0.02168150,0.00264683,-0.16325295,-0.18533921,-0.01521745,-0.0022443
 4,0.00308572,0.00187774,-0.00053285,-0.00111147,0.00031602,0.00087939,
 -0.00024595,-0.00035174,-0.00041008,0.00019531,-0.00002287,-0.00059864
 ,-0.00082606,-0.00015901,-0.00010983,-0.00044580,-0.00000939,0.1634065
 7,-0.00208524,0.00304350,0.00236619,-0.01601611,-0.02747905,-0.0064020
 8,-0.16707427,-0.31054869,-0.07265479,0.00352893,-0.00242204,-0.003527
 37,0.00087935,0.00034176,0.00006938,-0.00033906,0.00027130,0.00005048,
 0.00013657,-0.00009943,0.00004099,0.00031588,0.00041521,-0.00154488,0.
 00035681,0.00005894,0.00153396,0.18070939,0.34006637,0.00202129,-0.000
 78606,-0.00110378,-0.01192857,0.00252079,-0.00153937,-0.02777943,-0.10
 810146,-0.04364521,0.00110704,0.00009615,0.00228595,0.00026465,0.00055
 592,0.00027516,0.00014447,-0.00009008,0.00006790,-0.00024675,0.0001076
 9,-0.00001748,0.00076047,0.00029821,-0.00010875,-0.00009671,0.00054217
 ,-0.00069076,0.02510724,0.08254508,0.04081738,0.00293929,0.00265007,0.
 00037643,-0.02151819,0.00178946,0.01296135,-0.25456751,-0.05871375,0.1
 9480553,0.00068699,-0.00220247,-0.00110828,0.00200344,0.00048463,-0.00
 046284,-0.00128587,0.00046780,0.00096213,0.00001409,-0.00016684,-0.000
 06892,0.00019263,-0.00011434,-0.00019682,-0.00042864,-0.00010705,0.000
 86449,-0.01086145,0.00028388,0.01056520,0.28333809,0.00150816,-0.00570
 705,-0.00105049,0.02631376,0.00863070,-0.02063052,-0.06572931,-0.07646
 296,0.03304239,0.00114016,-0.00007348,-0.00087373,0.00103017,0.0005582
 2,-0.00066469,-0.00242901,0.00011871,0.00089784,0.00130634,-0.00065817
 ,0.00003911,0.00012560,0.00016434,-0.00002821,0.00158608,0.00014189,-0
 .00021571,-0.02030649,-0.00235358,0.02287927,0.05548929,0.07548012,0.0
 0126794,-0.00178496,0.00052132,-0.00210052,0.00684969,-0.01008056,0.23
 134054,0.03135976,-0.18135004,0.00078871,-0.00001961,0.00109010,0.0001
 8223,0.00096021,-0.00069900,-0.00149537,0.00017178,0.00058378,0.000633
 43,-0.00023341,-0.00008252,-0.00051757,0.00017681,-0.00108717,0.001117
 96,0.00001433,0.00282697,-0.01320672,-0.00295451,0.00308739,-0.2175001
 0,-0.03454474,0.18605555,-0.00026164,-0.00166150,-0.00028864,0.0069705
 0,-0.00960645,-0.00624437,-0.00075268,-0.00316317,0.00081491,-0.115244
 64,0.10059814,0.06324416,-0.02361725,0.01727714,0.01468615,0.00084809,
 0.00287764,-0.00289500,-0.00290569,-0.00149960,0.00031663,0.00007903,0
 .00009214,-0.00036227,-0.00005859,-0.00039018,0.00048479,0.00055472,-0
 .00065101,0.00013788,-0.00058748,-0.00009597,-0.00016545,0.13441300,0.
 00132212,0.00123886,0.00021469,0.01788295,-0.02532120,-0.01498335,-0.0
 0527577,-0.00405008,0.00054220,0.09385276,-0.17355717,-0.08231102,-0.0
 0033979,0.00377039,0.00187981,-0.00093000,0.00012641,0.00053752,0.0001
 3290,-0.00054027,-0.00016013,0.00011150,0.00066493,0.00033827,-0.00123
 733,0.00057125,0.00015082,0.00114678,-0.00140686,0.00016619,-0.0003479
 6,0.00038856,0.00022330,-0.10274589,0.19309539,-0.00031773,0.00074991,
 -0.00023155,-0.00128433,0.00556556,0.00052069,0.00097202,0.00088198,0.
 00124735,0.05964395,-0.08467518,-0.10121136,-0.00529920,0.00855295,0.0
 0699320,-0.00020876,0.00043734,0.00003243,-0.00057240,-0.00030971,0.00
 033914,-0.00018037,0.00007709,0.00012345,-0.00006591,0.00011281,0.0003
 4051,-0.00009584,0.00035010,0.00055428,-0.00052317,0.00019282,-0.00020
 650,-0.06860729,0.09065965,0.10559237,-0.00028633,-0.00202595,-0.00035
 570,-0.00326669,-0.00490867,0.01661929,0.00034172,0.00083817,-0.000334
 49,-0.04341519,0.00168868,0.00030818,-0.00356692,0.00619537,-0.0325386
 8,0.00195029,0.00062865,-0.00203902,-0.00040065,0.00015695,0.00019120,
 -0.00090857,-0.00004993,-0.00146833,0.00035495,-0.00016977,0.00106109,
 -0.00012812,0.00006508,-0.00005974,0.00017919,0.00008486,-0.00020427,0
 .00023227,-0.00376450,0.01597532,0.05427221,0.00022333,-0.00196756,-0.
 00084644,-0.00287679,-0.00816436,0.03025932,-0.00094531,0.00139847,-0.
 00030293,0.00266357,-0.05671718,0.04798353,0.00076555,0.00001057,0.000
 41787,-0.00035558,-0.00031640,-0.00023130,-0.00010369,-0.00013489,-0.0
 0017870,-0.00105908,0.00013602,-0.00134993,0.00008993,0.00006245,0.000
 66828,-0.00021660,0.00019590,-0.00069116,0.00084160,-0.00044491,-0.000
 09484,-0.00073581,0.00470608,-0.02206874,0.00195773,0.05943708,-0.0005
 1681,0.00105968,0.00109843,0.00411485,0.00238205,-0.00502468,-0.000295
 29,-0.00025602,0.00097352,-0.00343734,0.04509827,-0.28123410,-0.002171
 10,0.00217342,-0.01326353,0.00320230,-0.00006510,0.00067712,-0.0007579
 2,0.00016326,0.00071433,0.00033516,0.00012402,0.00038582,-0.00025999,0
 .00013794,-0.00040577,0.00000386,0.00016783,0.00001645,-0.00046641,0.0
 0056816,-0.00034227,-0.00024969,0.00263257,-0.01430644,0.00322732,-0.0
 5385481,0.30947190,-0.00020264,-0.00028180,0.00073464,0.00175781,0.001
 45842,-0.00030530,0.00006572,-0.00028150,0.00010741,-0.00265454,0.0047
 9386,-0.02834454,-0.06039901,0.00603860,-0.03962465,0.00480697,-0.0053
 4884,0.02544655,0.00244651,0.00073411,0.00090616,-0.00008603,-0.000029
 03,-0.00002342,-0.00001134,0.00002462,-0.00005145,0.00003715,-0.000088
 93,-0.00001902,-0.00013044,0.00008695,-0.00009176,0.00095576,0.0004233
 2,0.00070219,-0.00547031,-0.00029167,-0.00222634,0.06224488,0.00004371
 ,0.00001949,0.00013225,0.00045079,0.00114277,-0.00038658,0.00039185,-0
 .00032009,0.00005640,-0.00106308,0.00083101,-0.00057178,0.00538455,-0.
 04598254,0.05588934,0.00245268,0.00415157,0.00707762,0.00151954,-0.004
 97759,-0.00124106,0.00001754,-0.00001595,-0.00004080,0.00005491,-0.000
 03017,-0.00000663,0.00006714,-0.00007955,0.00007752,-0.00014524,0.0000
 6814,-0.00027671,-0.00053428,0.00010701,-0.00003906,-0.00038964,0.0015
 9066,0.00007456,-0.00555412,0.03509078,-0.00014007,-0.00051358,0.00012
 050,-0.00007914,0.00121362,0.00031664,0.00048867,-0.00051577,0.0003829
 3,0.00008550,0.00186535,-0.00738934,-0.03562554,0.05445630,-0.30533488
 ,-0.00667275,0.00468949,-0.01829060,-0.00103682,-0.00156553,0.00169359
 ,-0.00008842,-0.00004116,-0.00002351,0.00003498,-0.00000858,-0.0000117
 6,0.00002098,-0.00006141,0.00000891,-0.00015425,0.00013413,-0.00030535
 ,-0.00049017,0.00012147,0.00019923,-0.00158521,0.00032389,0.00044722,0
 .04115434,-0.06260223,0.32854821,0.00000391,0.00006785,-0.00006277,0.0
 0000031,-0.00008546,-0.00016321,-0.00004992,0.00009499,-0.00008702,0.0
 0170063,0.00022783,0.00247922,0.00535194,-0.00486650,0.02290071,-0.060
 40325,0.00552672,-0.03048144,-0.00829248,0.00670460,-0.03560593,0.0000
 2601,0.00000662,0.00002356,0.00000016,-0.00000146,-0.00000984,0.000000
 38,-0.00000038,0.00000602,0.00008988,-0.00001611,0.00005332,-0.0001411
 9,-0.00003711,-0.00002498,-0.00022176,0.00012308,-0.00084920,-0.003378
 92,-0.00149443,0.00267322,0.07002431,0.00008584,-0.00028935,-0.0000646
 4,-0.00105668,0.00057744,0.00027753,0.00017741,0.00006017,0.00011613,0
 .00107344,-0.00633301,-0.00133602,0.00151439,0.00504137,0.00665517,0.0
 0471569,-0.05240733,0.05479045,0.00083251,0.00113454,0.00216311,-0.000
 05977,0.00001080,0.00006007,-0.00000960,0.00000165,-0.00000472,0.00006
 524,-0.00004863,-0.00003542,-0.00018512,-0.00025278,0.00003843,0.00106
 623,0.00024475,-0.00029118,-0.00019089,0.00024384,-0.00030148,-0.00164
 547,0.00914303,0.00250221,-0.00672427,0.03947542,-0.00002683,-0.000074
 99,0.00005198,-0.00015973,0.00009738,0.00031183,0.00017360,-0.00000178
 ,0.00006928,-0.00181785,-0.00188580,0.00030122,-0.00447548,0.00459303,
 -0.01805748,-0.03440155,0.05614940,-0.30676146,-0.00220539,0.00157425,
 -0.00844309,-0.00005835,0.00000229,-0.00008031,0.00000166,-0.00000268,
 0.00003371,-0.00000534,0.00000562,0.00001178,-0.00004703,0.00007001,-0
 .00010858,0.00027622,0.00001679,0.00020734,0.00103110,-0.00004919,0.00
 094194,0.00264299,0.00280060,-0.00051019,0.04082225,-0.06341196,0.3302
 5405,0.00004292,0.00009786,0.00000524,0.00009403,-0.00018900,0.0001357
 6,0.00005179,0.00006344,0.00002149,-0.00051493,0.00051519,0.00036634,0
 .00274206,0.00122655,-0.00120407,-0.00633264,0.00061634,-0.04201607,-0
 .06529954,-0.01873450,-0.04787886,0.00000795,0.00002053,-0.00005362,0.
 00000335,-0.00000515,0.00001713,0.00001227,-0.00000451,0.00001085,-0.0
 0002557,-0.00003533,-0.00005043,-0.00010805,-0.00004706,-0.00001047,0.
 00025899,-0.00005230,0.00037103,-0.00028118,-0.00052252,0.00156927,-0.
 00598448,-0.00066291,-0.00152456,0.07088913,0.00000556,-0.00024532,-0.
 00000090,-0.00039166,0.00046109,-0.00040874,0.00006886,-0.00042962,0.0
 0015858,0.00023406,-0.00093007,0.00043515,-0.00221926,-0.00080608,0.00
 026861,0.01060424,-0.00233081,0.00430753,-0.02875972,-0.01900558,-0.02
 510651,-0.00003635,-0.00003620,0.00007848,0.00001015,0.00002011,-0.000
 03574,-0.00006376,0.00002354,-0.00006223,-0.00006040,0.00020139,-0.000
 06644,-0.00007433,0.00000062,0.00014589,-0.00002330,-0.00005684,-0.000
 01082,-0.00009270,0.00014952,0.00025742,0.00053393,0.00334140,0.000434
 72,0.01432180,0.02175431,0.00003658,0.00007762,-0.00002921,0.00017871,
 -0.00003421,0.00012275,0.00007281,0.00000215,-0.00000190,-0.00008124,0
 .00097753,0.00005503,0.00254067,0.00009135,0.00291893,-0.00153230,-0.0
 0228394,-0.01041716,-0.06214089,0.01656697,-0.42796783,0.00001267,0.00
 000533,-0.00003153,0.00000653,-0.00001289,0.00001292,0.00001373,-0.000
 00349,0.00000075,-0.00005580,-0.00001725,-0.00007059,-0.00000395,-0.00
 004688,0.00003044,0.00017330,0.00002544,-0.00004109,-0.00081583,-0.001
 17129,-0.00020277,-0.00146889,-0.00034086,0.00153108,0.06717950,-0.006
 97668,0.44846667,0.00001074,0.00005768,0.00001416,0.00010349,0.0000708
 9,0.00002814,0.00010657,0.00001882,-0.00001331,-0.00084972,0.00147422,
 0.00127858,-0.00267010,-0.00020387,-0.00566880,-0.02710631,-0.02480837
 ,0.02088904,-0.16575827,-0.15140088,0.08971106,0.00002970,-0.00000670,
 -0.00000159,-0.00000061,-0.00002298,-0.00001918,0.00001934,-0.00001637
 ,0.00000512,-0.00003844,-0.00005915,-0.00005194,-0.00037616,-0.0001469
 3,-0.00010302,0.00007492,-0.00002796,-0.00002443,0.00029960,-0.0006794
 0,-0.00015461,0.00127447,0.00100397,-0.00022572,0.00444389,0.00594290,
 -0.00411562,0.19043689,-0.00005875,-0.00007643,-0.00002055,0.00044039,
 0.00002849,0.00001142,-0.00017278,-0.00031357,-0.00001864,0.00057679,0
 .00227385,0.00087333,0.00006765,0.00045290,0.00038697,0.01292266,-0.00
 248283,-0.00435487,-0.18509096,-0.20117098,0.15424588,-0.00003065,-0.0
 0003056,-0.00000784,0.00003440,0.00001863,0.00000290,-0.00006924,0.000
 02131,-0.00002257,0.00003643,0.00020087,0.00018091,-0.00075310,-0.0000
 3867,-0.00034222,-0.00009284,0.00002106,-0.00009355,0.00005418,-0.0008
 8807,-0.00025561,-0.00005990,0.00005671,-0.00031771,0.00339157,-0.0021
 1147,-0.00685891,0.16880413,0.20403875,-0.00007884,-0.00015936,-0.0000
 0776,0.00012080,0.00017877,-0.00017787,-0.00017315,-0.00030088,0.00000
 752,0.00008934,0.00071638,0.00103711,-0.00259381,0.00048947,0.00034363
 ,-0.00185200,-0.01012174,0.00642509,0.08406101,0.12639647,-0.14003256,
 -0.00003799,-0.00003561,0.00003719,0.00002445,0.00002439,-0.00001023,-
 0.00006965,0.00001890,-0.00002061,0.00004849,0.00020160,0.00016746,-0.
 00065391,0.00001811,-0.00022459,-0.00000136,-0.00001029,-0.00010884,-0
 .00019195,0.00022785,0.00035117,-0.00020502,-0.00081682,0.00024690,0.0
 2306148,0.02658168,-0.01437648,-0.10154788,-0.14340894,0.14634287\\-0.
 00000561,0.00000128,0.00000414,0.00001273,-0.00000475,0.00000918,-0.00
 001062,0.00000211,0.00000804,-0.00000468,0.00000484,0.00000872,0.00001
 360,-0.00001993,-0.00000471,-0.00005901,0.00001616,-0.00001764,0.00004
 409,-0.00000998,0.00001824,0.00000085,-0.00000113,-0.00000264,0.000001
 07,0.00000046,0.,0.00000163,-0.00000308,-0.00000668,0.00000663,0.00000
 622,-0.00000324,-0.00000095,0.00000632,-0.00000194,0.00000031,-0.00000
 053,-0.00000873,-0.00000986,-0.00000272,-0.00000426,0.00000538,-0.0000
 0252,0.00000209,-0.00000141,0.00000178,0.00001625,0.00000585,0.0000054
 9,-0.00001683\\\@


 THE CAUTIOUS SELDOM ERR...CONFUCIUS                   
 Job cpu time:       0 days  1 hours  1 minutes 21.9 seconds.
 Elapsed time:       0 days  0 hours 15 minutes 21.3 seconds.
 File lengths (MBytes):  RWF=     86 Int=      0 D2E=      0 Chk=      6 Scr=      1
 Normal termination of Gaussian 16 at Mon May 31 13:44:00 2021.
### All Done ###
