### Starting Gaussian ###
 Entering Gaussian System, Link 0=g16
 Initial command:
 /cluster/software/gaussian/gaussian-16-A.03/avx2/g16/l1.exe "/local/scratch/cz9n3/Gau-9985.inp" -scrdir="/local/scratch/cz9n3/"
 Entering Link 1 = /cluster/software/gaussian/gaussian-16-A.03/avx2/g16/l1.exe PID=      9986.
  
 Copyright (c) 1988,1990,1992,1993,1995,1998,2003,2009,2016,
            Gaussian, Inc.  All Rights Reserved.
  
 This is part of the Gaussian(R) 16 program.  It is based on
 the Gaussian(R) 09 system (copyright 2009, Gaussian, Inc.),
 the Gaussian(R) 03 system (copyright 2003, Gaussian, Inc.),
 the Gaussian(R) 98 system (copyright 1998, Gaussian, Inc.),
 the Gaussian(R) 94 system (copyright 1995, Gaussian, Inc.),
 the Gaussian 92(TM) system (copyright 1992, Gaussian, Inc.),
 the Gaussian 90(TM) system (copyright 1990, Gaussian, Inc.),
 the Gaussian 88(TM) system (copyright 1988, Gaussian, Inc.),
 the Gaussian 86(TM) system (copyright 1986, Carnegie Mellon
 University), and the Gaussian 82(TM) system (copyright 1983,
 Carnegie Mellon University). Gaussian is a federally registered
 trademark of Gaussian, Inc.
  
 This software contains proprietary and confidential information,
 including trade secrets, belonging to Gaussian, Inc.
  
 This software is provided under written license and may be
 used, copied, transmitted, or stored only in accord with that
 written license.
  
 The following legend is applicable only to US Government
 contracts under FAR:
  
                    RESTRICTED RIGHTS LEGEND
  
 Use, reproduction and disclosure by the US Government is
 subject to restrictions as set forth in subparagraphs (a)
 and (c) of the Commercial Computer Software - Restricted
 Rights clause in FAR 52.227-19.
  
 Gaussian, Inc.
 340 Quinnipiac St., Bldg. 40, Wallingford CT 06492
  
  
 ---------------------------------------------------------------
 Warning -- This program may not be used in any manner that
 competes with the business of Gaussian, Inc. or will provide
 assistance to any competitor of Gaussian, Inc.  The licensee
 of this program is prohibited from giving any competitor of
 Gaussian, Inc. access to this program.  By using this program,
 the user acknowledges that Gaussian, Inc. is engaged in the
 business of creating and licensing software in the field of
 computational chemistry and represents and warrants to the
 licensee that it is not a competitor of Gaussian, Inc. and that
 it will not use this program in any manner prohibited above.
 ---------------------------------------------------------------
  

 Cite this work as:
 Gaussian 16, Revision A.03,
 M. J. Frisch, G. W. Trucks, H. B. Schlegel, G. E. Scuseria, 
 M. A. Robb, J. R. Cheeseman, G. Scalmani, V. Barone, 
 G. A. Petersson, H. Nakatsuji, X. Li, M. Caricato, A. V. Marenich, 
 J. Bloino, B. G. Janesko, R. Gomperts, B. Mennucci, H. P. Hratchian, 
 J. V. Ortiz, A. F. Izmaylov, J. L. Sonnenberg, D. Williams-Young, 
 F. Ding, F. Lipparini, F. Egidi, J. Goings, B. Peng, A. Petrone, 
 T. Henderson, D. Ranasinghe, V. G. Zakrzewski, J. Gao, N. Rega, 
 G. Zheng, W. Liang, M. Hada, M. Ehara, K. Toyota, R. Fukuda, 
 J. Hasegawa, M. Ishida, T. Nakajima, Y. Honda, O. Kitao, H. Nakai, 
 T. Vreven, K. Throssell, J. A. Montgomery, Jr., J. E. Peralta, 
 F. Ogliaro, M. J. Bearpark, J. J. Heyd, E. N. Brothers, K. N. Kudin, 
 V. N. Staroverov, T. A. Keith, R. Kobayashi, J. Normand, 
 K. Raghavachari, A. P. Rendell, J. C. Burant, S. S. Iyengar, 
 J. Tomasi, M. Cossi, J. M. Millam, M. Klene, C. Adamo, R. Cammi, 
 J. W. Ochterski, R. L. Martin, K. Morokuma, O. Farkas, 
 J. B. Foresman, and D. J. Fox, Gaussian, Inc., Wallingford CT, 2016.
 
 ******************************************
 Gaussian 16:  ES64L-G16RevA.03 25-Dec-2016
                 1-Jun-2021 
 ******************************************
 %chk=CdNNpCpCCNC.chk
 %NProcShared=20
 Will use up to   20 processors via shared memory.
 -----------------------------
 # opt freq b3lyp/6-31g(2df,p)
 -----------------------------
 1/18=20,19=15,26=3,38=1/1,3;
 2/9=110,12=2,17=6,18=5,40=1/2;
 3/5=1,6=6,7=104,11=2,25=1,30=1,71=1,74=-5/1,2,3;
 4//1;
 5/5=2,38=5/2;
 6/7=2,8=2,9=2,10=2,28=1/1;
 7//1,2,3,16;
 1/18=20,19=15,26=3/3(2);
 2/9=110/2;
 99//99;
 2/9=110/2;
 3/5=1,6=6,7=104,11=2,25=1,30=1,71=1,74=-5/1,2,3;
 4/5=5,16=3,69=1/1;
 5/5=2,38=5/2;
 7//1,2,3,16;
 1/18=20,19=15,26=3/3(-5);
 2/9=110/2;
 6/7=2,8=2,9=2,10=2,19=2,28=1/1;
 99/9=1/99;
 -------------------
 Title Card Required
 -------------------
 Symbolic Z-matrix:
 Charge =  0 Multiplicity = 1
 C                     1.146    -0.02325   0.06977 
 N                     2.43408  -0.02044  -0.00935 
 N                     3.02835   0.1002   -1.22005 
 C                     2.36759   0.24165  -2.50981 
 C                     4.50852   0.11413  -1.2454 
 C                     5.14786   0.25711  -2.64473 
 N                     6.6144    0.25491  -2.64371 
 C                     7.09363   0.39007  -4.01649 
 H                     0.67176  -0.12224   1.0576 
 H                     0.44345   0.0648   -0.76972 
 H                     1.27907   0.23796  -2.47789 
 H                     2.63494  -0.58905  -3.17055 
 H                     2.63651   1.19195  -2.98152 
 H                     4.8731   -0.81589  -0.78877 
 H                     4.86612   0.93665  -0.61152 
 H                     4.81045   1.20024  -3.08975 
 H                     4.80548  -0.5714   -3.27587 
 H                     6.94854  -0.62582  -2.25261 
 H                     6.75144   1.33171  -4.46046 
 H                     6.74798  -0.43918  -4.64388 
 H                     8.1862    0.39453  -4.02948 
 

 GradGradGradGradGradGradGradGradGradGradGradGradGradGradGradGradGradGrad
 Berny optimization.
 Initialization pass.
                           ----------------------------
                           !    Initial Parameters    !
                           ! (Angstroms and Degrees)  !
 --------------------------                            --------------------------
 ! Name  Definition              Value          Derivative Info.                !
 --------------------------------------------------------------------------------
 ! R1    R(1,2)                  1.2905         estimate D2E/DX2                !
 ! R2    R(1,9)                  1.1002         estimate D2E/DX2                !
 ! R3    R(1,10)                 1.0982         estimate D2E/DX2                !
 ! R4    R(2,3)                  1.3541         estimate D2E/DX2                !
 ! R5    R(3,4)                  1.4561         estimate D2E/DX2                !
 ! R6    R(3,5)                  1.4805         estimate D2E/DX2                !
 ! R7    R(4,11)                 1.089          estimate D2E/DX2                !
 ! R8    R(4,12)                 1.0946         estimate D2E/DX2                !
 ! R9    R(4,13)                 1.0945         estimate D2E/DX2                !
 ! R10   R(5,6)                  1.5451         estimate D2E/DX2                !
 ! R11   R(5,14)                 1.0983         estimate D2E/DX2                !
 ! R12   R(5,15)                 1.0983         estimate D2E/DX2                !
 ! R13   R(6,7)                  1.4665         estimate D2E/DX2                !
 ! R14   R(6,16)                 1.0961         estimate D2E/DX2                !
 ! R15   R(6,17)                 1.0964         estimate D2E/DX2                !
 ! R16   R(7,8)                  1.4603         estimate D2E/DX2                !
 ! R17   R(7,18)                 1.0199         estimate D2E/DX2                !
 ! R18   R(8,19)                 1.0959         estimate D2E/DX2                !
 ! R19   R(8,20)                 1.0958         estimate D2E/DX2                !
 ! R20   R(8,21)                 1.0927         estimate D2E/DX2                !
 ! A1    A(2,1,9)              119.043          estimate D2E/DX2                !
 ! A2    A(2,1,10)             126.2618         estimate D2E/DX2                !
 ! A3    A(9,1,10)             114.6952         estimate D2E/DX2                !
 ! A4    A(1,2,3)              119.542          estimate D2E/DX2                !
 ! A5    A(2,3,4)              126.9771         estimate D2E/DX2                !
 ! A6    A(2,3,5)              117.0612         estimate D2E/DX2                !
 ! A7    A(4,3,5)              115.953          estimate D2E/DX2                !
 ! A8    A(3,4,11)             115.297          estimate D2E/DX2                !
 ! A9    A(3,4,12)             110.4957         estimate D2E/DX2                !
 ! A10   A(3,4,13)             110.7697         estimate D2E/DX2                !
 ! A11   A(11,4,12)            105.0264         estimate D2E/DX2                !
 ! A12   A(11,4,13)            105.1396         estimate D2E/DX2                !
 ! A13   A(12,4,13)            109.8015         estimate D2E/DX2                !
 ! A14   A(3,5,6)              115.473          estimate D2E/DX2                !
 ! A15   A(3,5,14)             108.4686         estimate D2E/DX2                !
 ! A16   A(3,5,15)             108.8264         estimate D2E/DX2                !
 ! A17   A(6,5,14)             108.5134         estimate D2E/DX2                !
 ! A18   A(6,5,15)             108.5828         estimate D2E/DX2                !
 ! A19   A(14,5,15)            106.6255         estimate D2E/DX2                !
 ! A20   A(5,6,7)              114.3945         estimate D2E/DX2                !
 ! A21   A(5,6,16)             108.6602         estimate D2E/DX2                !
 ! A22   A(5,6,17)             108.7967         estimate D2E/DX2                !
 ! A23   A(7,6,16)             108.0235         estimate D2E/DX2                !
 ! A24   A(7,6,17)             108.153          estimate D2E/DX2                !
 ! A25   A(16,6,17)            108.6861         estimate D2E/DX2                !
 ! A26   A(6,7,8)              109.1099         estimate D2E/DX2                !
 ! A27   A(6,7,18)             109.2182         estimate D2E/DX2                !
 ! A28   A(8,7,18)             109.4439         estimate D2E/DX2                !
 ! A29   A(7,8,19)             110.9722         estimate D2E/DX2                !
 ! A30   A(7,8,20)             111.3876         estimate D2E/DX2                !
 ! A31   A(7,8,21)             109.8587         estimate D2E/DX2                !
 ! A32   A(19,8,20)            108.6515         estimate D2E/DX2                !
 ! A33   A(19,8,21)            107.6927         estimate D2E/DX2                !
 ! A34   A(20,8,21)            108.1613         estimate D2E/DX2                !
 ! D1    D(9,1,2,3)            179.9695         estimate D2E/DX2                !
 ! D2    D(10,1,2,3)             0.0082         estimate D2E/DX2                !
 ! D3    D(2,1,9,10)          -179.9656         estimate D2E/DX2                !
 ! D4    D(1,2,3,4)              0.3762         estimate D2E/DX2                !
 ! D5    D(1,2,3,5)            179.2492         estimate D2E/DX2                !
 ! D6    D(2,3,4,11)            -0.6501         estimate D2E/DX2                !
 ! D7    D(2,3,4,12)          -119.5194         estimate D2E/DX2                !
 ! D8    D(2,3,4,13)           118.5724         estimate D2E/DX2                !
 ! D9    D(5,3,4,11)          -179.5339         estimate D2E/DX2                !
 ! D10   D(5,3,4,12)            61.5968         estimate D2E/DX2                !
 ! D11   D(5,3,4,13)           -60.3113         estimate D2E/DX2                !
 ! D12   D(2,3,5,6)           -179.84           estimate D2E/DX2                !
 ! D13   D(2,3,5,14)            58.1595         estimate D2E/DX2                !
 ! D14   D(2,3,5,15)           -57.4713         estimate D2E/DX2                !
 ! D15   D(4,3,5,6)             -0.8413         estimate D2E/DX2                !
 ! D16   D(4,3,5,14)          -122.8418         estimate D2E/DX2                !
 ! D17   D(4,3,5,15)           121.5274         estimate D2E/DX2                !
 ! D18   D(3,5,6,7)           -179.4269         estimate D2E/DX2                !
 ! D19   D(3,5,6,16)            59.7932         estimate D2E/DX2                !
 ! D20   D(3,5,6,17)           -58.3809         estimate D2E/DX2                !
 ! D21   D(14,5,6,7)           -57.4504         estimate D2E/DX2                !
 ! D22   D(14,5,6,16)         -178.2302         estimate D2E/DX2                !
 ! D23   D(14,5,6,17)           63.5956         estimate D2E/DX2                !
 ! D24   D(15,5,6,7)            58.0746         estimate D2E/DX2                !
 ! D25   D(15,5,6,16)          -62.7053         estimate D2E/DX2                !
 ! D26   D(15,5,6,17)          179.1206         estimate D2E/DX2                !
 ! D27   D(5,6,7,8)            179.7803         estimate D2E/DX2                !
 ! D28   D(5,6,7,18)            60.1852         estimate D2E/DX2                !
 ! D29   D(16,6,7,8)           -59.0879         estimate D2E/DX2                !
 ! D30   D(16,6,7,18)         -178.683          estimate D2E/DX2                !
 ! D31   D(17,6,7,8)            58.3796         estimate D2E/DX2                !
 ! D32   D(17,6,7,18)          -61.2155         estimate D2E/DX2                !
 ! D33   D(6,7,8,19)            60.7578         estimate D2E/DX2                !
 ! D34   D(6,7,8,20)           -60.4371         estimate D2E/DX2                !
 ! D35   D(6,7,8,21)           179.7371         estimate D2E/DX2                !
 ! D36   D(18,7,8,19)         -179.7869         estimate D2E/DX2                !
 ! D37   D(18,7,8,20)           59.0182         estimate D2E/DX2                !
 ! D38   D(18,7,8,21)          -60.8076         estimate D2E/DX2                !
 --------------------------------------------------------------------------------
 Trust Radius=3.00D-01 FncErr=1.00D-07 GrdErr=1.00D-06 EigMax=2.50D+02 EigMin=1.00D-04
 Number of steps in this run=    102 maximum allowed number of steps=    126.
 GradGradGradGradGradGradGradGradGradGradGradGradGradGradGradGradGradGrad

                          Input orientation:                          
 ---------------------------------------------------------------------
 Center     Atomic      Atomic             Coordinates (Angstroms)
 Number     Number       Type             X           Y           Z
 ---------------------------------------------------------------------
      1          6           0        1.146000   -0.023250    0.069770
      2          7           0        2.434080   -0.020440   -0.009350
      3          7           0        3.028350    0.100200   -1.220050
      4          6           0        2.367590    0.241650   -2.509810
      5          6           0        4.508520    0.114130   -1.245400
      6          6           0        5.147860    0.257110   -2.644730
      7          7           0        6.614400    0.254910   -2.643710
      8          6           0        7.093630    0.390070   -4.016490
      9          1           0        0.671760   -0.122240    1.057600
     10          1           0        0.443450    0.064800   -0.769720
     11          1           0        1.279070    0.237960   -2.477890
     12          1           0        2.634940   -0.589050   -3.170550
     13          1           0        2.636510    1.191950   -2.981520
     14          1           0        4.873100   -0.815890   -0.788770
     15          1           0        4.866120    0.936650   -0.611520
     16          1           0        4.810450    1.200240   -3.089750
     17          1           0        4.805480   -0.571400   -3.275870
     18          1           0        6.948540   -0.625820   -2.252610
     19          1           0        6.751440    1.331710   -4.460460
     20          1           0        6.747980   -0.439180   -4.643880
     21          1           0        8.186200    0.394530   -4.029480
 ---------------------------------------------------------------------
                    Distance matrix (angstroms):
                    1          2          3          4          5
     1  C    0.000000
     2  N    1.290511   0.000000
     3  N    2.285195   1.354070   0.000000
     4  C    2.866476   2.515037   1.456054   0.000000
     5  C    3.613182   2.418518   1.480453   2.489694   0.000000
     6  C    4.843758   3.793002   2.558643   2.783585   1.545097
     7  N    6.110953   4.948813   3.861411   4.248941   2.531762
     8  C    7.227908   6.159310   4.942732   4.962617   3.799721
     9  H    1.100232   2.062648   3.284918   3.966695   4.481117
    10  H    1.098213   2.132613   2.624073   2.600289   4.093104
    11  H    2.564471   2.737610   2.158963   1.088994   3.458860
    12  H    3.610643   3.218206   2.105775   1.094585   2.776863
    13  H    3.606758   3.216312   2.109083   1.094485   2.771323
    14  H    3.905975   2.681241   2.104359   3.218377   1.098347
    15  H    3.901904   2.682061   2.108876   3.213904   1.098281
    16  H    4.990760   4.077506   2.807445   2.687525   2.161579
    17  H    4.988544   4.073972   2.799220   2.681642   2.163549
    18  H    6.279013   5.077307   4.118395   4.669450   2.741477
    19  H    7.333475   6.346675   5.087069   4.920509   4.104851
    20  H    7.333054   6.345388   5.084210   4.919919   4.107432
    21  H    8.157377   7.029974   5.880726   6.015729   4.621153
                    6          7          8          9         10
     6  C    0.000000
     7  N    1.466542   0.000000
     8  C    2.384413   1.460293   0.000000
     9  H    5.821222   7.011199   8.200565   0.000000
    10  H    5.067950   6.452023   7.407578   1.851002   0.000000
    11  H    3.872433   5.337933   6.016605   3.605310   1.909474
    12  H    2.703191   4.101942   4.642651   4.685002   3.315740
    13  H    2.700784   4.100703   4.645438   4.679939   3.312407
    14  H    2.161344   2.760352   4.099179   4.641281   4.516390
    15  H    2.162197   2.766053   4.105408   4.636795   4.510561
    16  H    1.096076   2.084907   2.593865   6.006515   5.073702
    17  H    1.096353   2.086769   2.590091   6.005693   5.070783
    18  H    2.043471   1.019948   2.040675   7.114004   6.707616
    19  H    2.650115   2.116331   1.095851   8.338193   7.417369
    20  H    2.653640   2.121387   1.095786   8.338332   7.416887
    21  H    3.341845   2.100097   1.092656   9.089128   8.407433
                   11         12         13         14         15
    11  H    0.000000
    12  H    1.732659   0.000000
    13  H    1.733893   1.791004   0.000000
    14  H    4.108622   3.276231   3.720472   0.000000
    15  H    4.103466   3.722171   3.263930   1.761494   0.000000
    16  H    3.710930   2.817966   2.176648   3.059937   2.492830
    17  H    3.705051   2.173165   2.810779   2.500003   3.062132
    18  H    5.739317   4.410341   4.735948   2.546842   3.077493
    19  H    5.922306   4.722156   4.374865   4.649909   4.304050
    20  H    5.921065   4.371528   4.725274   4.303366   4.657707
    21  H    7.080988   5.702778   5.703785   4.789984   4.795756
                   16         17         18         19         20
    16  H    0.000000
    17  H    1.781397   0.000000
    18  H    2.933722   2.375443   0.000000
    19  H    2.379826   2.968475   2.957258   0.000000
    20  H    2.976078   2.379546   2.406913   1.780367   0.000000
    21  H    3.595546   3.595861   2.393780   1.767084   1.772297
                   21
    21  H    0.000000
 Stoichiometry    C5H13N3
 Framework group  C1[X(C5H13N3)]
 Deg. of freedom    57
 Full point group                 C1      NOp   1
 Largest Abelian subgroup         C1      NOp   1
 Largest concise Abelian subgroup C1      NOp   1
                         Standard orientation:                         
 ---------------------------------------------------------------------
 Center     Atomic      Atomic             Coordinates (Angstroms)
 Number     Number       Type             X           Y           Z
 ---------------------------------------------------------------------
      1          6           0        3.535450   -0.166108    0.002180
      2          7           0        2.390878   -0.761959   -0.016149
      3          7           0        1.254570   -0.025746    0.001142
      4          6           0        1.152219    1.426376    0.032099
      5          6           0       -0.027534   -0.764916   -0.038588
      6          6           0       -1.300326    0.110881   -0.021187
      7          7           0       -2.556463   -0.645527   -0.047883
      8          6           0       -3.678055    0.289276   -0.022843
      9          1           0        4.453495   -0.772337   -0.011584
     10          1           0        3.702513    0.918924    0.031658
     11          1           0        2.101591    1.959441    0.053184
     12          1           0        0.622662    1.754154    0.932236
     13          1           0        0.635385    1.798096   -0.858184
     14          1           0       -0.062266   -1.447751    0.821003
     15          1           0       -0.046937   -1.392680   -0.939564
     16          1           0       -1.283528    0.771373   -0.895745
     17          1           0       -1.292280    0.727789    0.885097
     18          1           0       -2.601040   -1.251342    0.771443
     19          1           0       -3.656553    0.951166   -0.895958
     20          1           0       -3.665248    0.904598    0.883779
     21          1           0       -4.621217   -0.261864   -0.047096
 ---------------------------------------------------------------------
 Rotational constants (GHZ):           6.8273737           0.7814709           0.7152001
 Standard basis: 6-31G(2df,p) (6D, 7F)
 There are   313 symmetry adapted cartesian basis functions of A   symmetry.
 There are   289 symmetry adapted basis functions of A   symmetry.
   289 basis functions,   443 primitive gaussians,   313 cartesian basis functions
    32 alpha electrons       32 beta electrons
       nuclear repulsion energy       384.0178615149 Hartrees.
 NAtoms=   21 NActive=   21 NUniq=   21 SFac= 1.00D+00 NAtFMM=   60 NAOKFM=F Big=F
 Integral buffers will be    131072 words long.
 Raffenetti 2 integral format.
 Two-electron integral symmetry is turned on.
 One-electron integrals computed using PRISM.
 PrsmSu:  requested number of processors reduced to:  13 ShMem   1 Linda.
 NBasis=   289 RedAO= T EigKep=  2.44D-04  NBF=   289
 NBsUse=   289 1.00D-06 EigRej= -1.00D+00 NBFU=   289
 ExpMin= 1.61D-01 ExpMax= 4.17D+03 ExpMxC= 6.27D+02 IAcc=3 IRadAn=         5 AccDes= 0.00D+00
 Harris functional with IExCor=  402 and IRadAn=       5 diagonalized for initial guess.
 HarFok:  IExCor=  402 AccDes= 0.00D+00 IRadAn=         5 IDoV= 1 UseB2=F ITyADJ=14
 ICtDFT=  3500011 ScaDFX=  1.000000  1.000000  1.000000  1.000000
 FoFCou: FMM=F IPFlag=           0 FMFlag=      100000 FMFlg1=           0
         NFxFlg=           0 DoJE=T BraDBF=F KetDBF=T FulRan=T
         wScrn=  0.000000 ICntrl=       500 IOpCl=  0 I1Cent=   200000004 NGrid=           0
         NMat0=    1 NMatS0=      1 NMatT0=    0 NMatD0=    1 NMtDS0=    0 NMtDT0=    0
 Petite list used in FoFCou.
 Requested convergence on RMS density matrix=1.00D-08 within 128 cycles.
 Requested convergence on MAX density matrix=1.00D-06.
 Requested convergence on             energy=1.00D-06.
 No special actions if energy rises.
 Integral accuracy reduced to 1.0D-05 until final iterations.
 Initial convergence to 1.0D-05 achieved.  Increase integral accuracy.
 SCF Done:  E(RB3LYP) =  -362.554365031     A.U. after   13 cycles
            NFock= 13  Conv=0.70D-08     -V/T= 2.0084

 **********************************************************************

            Population analysis using the SCF density.

 **********************************************************************

 Orbital symmetries:
       Occupied  (A) (A) (A) (A) (A) (A) (A) (A) (A) (A) (A) (A)
                 (A) (A) (A) (A) (A) (A) (A) (A) (A) (A) (A) (A)
                 (A) (A) (A) (A) (A) (A) (A) (A)
       Virtual   (A) (A) (A) (A) (A) (A) (A) (A) (A) (A) (A) (A)
                 (A) (A) (A) (A) (A) (A) (A) (A) (A) (A) (A) (A)
                 (A) (A) (A) (A) (A) (A) (A) (A) (A) (A) (A) (A)
                 (A) (A) (A) (A) (A) (A) (A) (A) (A) (A) (A) (A)
                 (A) (A) (A) (A) (A) (A) (A) (A) (A) (A) (A) (A)
                 (A) (A) (A) (A) (A) (A) (A) (A) (A) (A) (A) (A)
                 (A) (A) (A) (A) (A) (A) (A) (A) (A) (A) (A) (A)
                 (A) (A) (A) (A) (A) (A) (A) (A) (A) (A) (A) (A)
                 (A) (A) (A) (A) (A) (A) (A) (A) (A) (A) (A) (A)
                 (A) (A) (A) (A) (A) (A) (A) (A) (A) (A) (A) (A)
                 (A) (A) (A) (A) (A) (A) (A) (A) (A) (A) (A) (A)
                 (A) (A) (A) (A) (A) (A) (A) (A) (A) (A) (A) (A)
                 (A) (A) (A) (A) (A) (A) (A) (A) (A) (A) (A) (A)
                 (A) (A) (A) (A) (A) (A) (A) (A) (A) (A) (A) (A)
                 (A) (A) (A) (A) (A) (A) (A) (A) (A) (A) (A) (A)
                 (A) (A) (A) (A) (A) (A) (A) (A) (A) (A) (A) (A)
                 (A) (A) (A) (A) (A) (A) (A) (A) (A) (A) (A) (A)
                 (A) (A) (A) (A) (A) (A) (A) (A) (A) (A) (A) (A)
                 (A) (A) (A) (A) (A) (A) (A) (A) (A) (A) (A) (A)
                 (A) (A) (A) (A) (A) (A) (A) (A) (A) (A) (A) (A)
                 (A) (A) (A) (A) (A) (A) (A) (A) (A) (A) (A) (A)
                 (A) (A) (A) (A) (A)
 The electronic state is 1-A.
 Alpha  occ. eigenvalues --  -14.36054 -14.35575 -14.31819 -10.21258 -10.21202
 Alpha  occ. eigenvalues --  -10.21197 -10.20258 -10.18799  -0.99018  -0.90435
 Alpha  occ. eigenvalues --   -0.82898  -0.73617  -0.70409  -0.65399  -0.60862
 Alpha  occ. eigenvalues --   -0.55530  -0.50749  -0.49453  -0.48071  -0.46381
 Alpha  occ. eigenvalues --   -0.43889  -0.42279  -0.41093  -0.39137  -0.38115
 Alpha  occ. eigenvalues --   -0.37812  -0.36606  -0.35064  -0.33410  -0.26386
 Alpha  occ. eigenvalues --   -0.22574  -0.19074
 Alpha virt. eigenvalues --    0.02075   0.07108   0.09409   0.11153   0.12047
 Alpha virt. eigenvalues --    0.12865   0.13159   0.15402   0.15950   0.16543
 Alpha virt. eigenvalues --    0.18405   0.18918   0.18970   0.20734   0.21899
 Alpha virt. eigenvalues --    0.24242   0.25130   0.25844   0.26723   0.27380
 Alpha virt. eigenvalues --    0.39007   0.42523   0.45149   0.47005   0.47911
 Alpha virt. eigenvalues --    0.49149   0.49173   0.52203   0.53790   0.55027
 Alpha virt. eigenvalues --    0.56260   0.56644   0.58541   0.59739   0.60116
 Alpha virt. eigenvalues --    0.64046   0.66454   0.68507   0.68579   0.69967
 Alpha virt. eigenvalues --    0.70510   0.71142   0.72447   0.73316   0.74219
 Alpha virt. eigenvalues --    0.75209   0.75969   0.76925   0.77907   0.80474
 Alpha virt. eigenvalues --    0.81057   0.82195   0.83453   0.83868   0.84592
 Alpha virt. eigenvalues --    0.85198   0.86987   0.87392   0.89061   0.93256
 Alpha virt. eigenvalues --    0.95698   0.95967   0.98447   0.98984   1.04670
 Alpha virt. eigenvalues --    1.07994   1.14864   1.16932   1.19393   1.21257
 Alpha virt. eigenvalues --    1.23633   1.26650   1.27893   1.30903   1.31927
 Alpha virt. eigenvalues --    1.32925   1.33541   1.36159   1.42180   1.44588
 Alpha virt. eigenvalues --    1.44746   1.48512   1.49160   1.52034   1.54302
 Alpha virt. eigenvalues --    1.55610   1.58229   1.60437   1.62711   1.65873
 Alpha virt. eigenvalues --    1.66679   1.72556   1.74633   1.77665   1.80033
 Alpha virt. eigenvalues --    1.81254   1.85176   1.86537   1.88263   1.94230
 Alpha virt. eigenvalues --    1.95148   1.95633   1.95868   1.98897   2.00272
 Alpha virt. eigenvalues --    2.03612   2.04814   2.16142   2.17922   2.22793
 Alpha virt. eigenvalues --    2.24491   2.26737   2.27546   2.29245   2.34142
 Alpha virt. eigenvalues --    2.37577   2.40732   2.43000   2.45946   2.47167
 Alpha virt. eigenvalues --    2.48627   2.53716   2.54971   2.60861   2.61234
 Alpha virt. eigenvalues --    2.71209   2.73289   2.75793   2.76854   2.77150
 Alpha virt. eigenvalues --    2.80654   2.82657   2.83564   2.84703   2.85970
 Alpha virt. eigenvalues --    2.87153   2.88497   2.90936   2.93394   2.95005
 Alpha virt. eigenvalues --    2.96580   2.97532   2.99182   2.99755   3.03990
 Alpha virt. eigenvalues --    3.05309   3.06665   3.11064   3.13487   3.16810
 Alpha virt. eigenvalues --    3.19883   3.23795   3.25885   3.26863   3.31012
 Alpha virt. eigenvalues --    3.32200   3.34754   3.38069   3.40223   3.42241
 Alpha virt. eigenvalues --    3.44656   3.45616   3.48841   3.50257   3.55541
 Alpha virt. eigenvalues --    3.57711   3.58578   3.60162   3.61263   3.63892
 Alpha virt. eigenvalues --    3.65494   3.67960   3.68554   3.71068   3.72418
 Alpha virt. eigenvalues --    3.72876   3.80076   3.85748   3.87838   3.88103
 Alpha virt. eigenvalues --    3.91835   3.94375   3.99447   4.00629   4.07280
 Alpha virt. eigenvalues --    4.10683   4.13941   4.15326   4.17122   4.21047
 Alpha virt. eigenvalues --    4.24770   4.26924   4.31654   4.33793   4.35280
 Alpha virt. eigenvalues --    4.37171   4.40258   4.42284   4.44440   4.46285
 Alpha virt. eigenvalues --    4.47156   4.48683   4.49391   4.52316   4.54159
 Alpha virt. eigenvalues --    4.55240   4.55878   4.58435   4.59208   4.61758
 Alpha virt. eigenvalues --    4.64355   4.64942   4.69601   4.70425   4.73054
 Alpha virt. eigenvalues --    4.74674   4.75730   4.79515   4.81357   4.84640
 Alpha virt. eigenvalues --    4.85613   4.86269   4.87471   4.90958   4.92101
 Alpha virt. eigenvalues --    4.94517   4.95883   5.01448   5.05965   5.08264
 Alpha virt. eigenvalues --    5.10681   5.12559   5.17568   5.20800   5.22636
 Alpha virt. eigenvalues --    5.25941   5.33773   5.36956   5.40313   5.42437
 Alpha virt. eigenvalues --    5.47759   5.54601   5.59340   5.73327   5.93095
 Alpha virt. eigenvalues --    6.06171   8.36936  10.63622  10.75176  11.18862
 Alpha virt. eigenvalues --   11.44397  11.45693  11.51294  11.73624  11.98429
 Alpha virt. eigenvalues --   13.25955  19.28419
          Condensed to atoms (all electrons):
               1          2          3          4          5          6
     1  C    4.997783   0.630556  -0.104364  -0.005847   0.003741  -0.000253
     2  N    0.630556   6.194933   0.421792  -0.051464  -0.050680   0.002653
     3  N   -0.104364   0.421792   6.102866   0.387643   0.390379  -0.033387
     4  C   -0.005847  -0.051464   0.387643   4.951196  -0.088713   0.002136
     5  C    0.003741  -0.050680   0.390379  -0.088713   4.867642   0.393500
     6  C   -0.000253   0.002653  -0.033387   0.002136   0.393500   4.853464
     7  N    0.000000  -0.000001   0.000867   0.000268  -0.026712   0.392865
     8  C   -0.000000   0.000000  -0.000094   0.000071   0.002699  -0.071515
     9  H    0.378409  -0.019293   0.003484  -0.000065  -0.000181   0.000001
    10  H    0.361204  -0.037898  -0.008038   0.002784   0.000263   0.000033
    11  H    0.000787  -0.006687  -0.014175   0.369088   0.004974  -0.000133
    12  H    0.000897   0.002389  -0.031953   0.376518  -0.003690   0.000294
    13  H    0.000919   0.002414  -0.032359   0.376575  -0.002884   0.000125
    14  H    0.000637   0.001510  -0.033094   0.004459   0.350770  -0.031546
    15  H    0.000673   0.001286  -0.032530   0.004536   0.350140  -0.025346
    16  H    0.000004   0.000004  -0.001699  -0.000944  -0.022751   0.354707
    17  H    0.000014  -0.000018   0.001167   0.000226  -0.040998   0.359647
    18  H    0.000000   0.000001  -0.000109   0.000003  -0.000395  -0.051843
    19  H    0.000000   0.000000  -0.000002  -0.000007   0.000270  -0.004691
    20  H    0.000000   0.000000   0.000012   0.000002   0.000085  -0.002144
    21  H    0.000000  -0.000000   0.000000  -0.000000  -0.000195   0.004073
               7          8          9         10         11         12
     1  C    0.000000  -0.000000   0.378409   0.361204   0.000787   0.000897
     2  N   -0.000001   0.000000  -0.019293  -0.037898  -0.006687   0.002389
     3  N    0.000867  -0.000094   0.003484  -0.008038  -0.014175  -0.031953
     4  C    0.000268   0.000071  -0.000065   0.002784   0.369088   0.376518
     5  C   -0.026712   0.002699  -0.000181   0.000263   0.004974  -0.003690
     6  C    0.392865  -0.071515   0.000001   0.000033  -0.000133   0.000294
     7  N    6.362632   0.390666  -0.000000   0.000000  -0.000011   0.000092
     8  C    0.390666   4.909483   0.000000   0.000000  -0.000000  -0.000008
     9  H   -0.000000   0.000000   0.578175  -0.054357  -0.000115   0.000001
    10  H    0.000000   0.000000  -0.054357   0.636353   0.006970  -0.000403
    11  H   -0.000011  -0.000000  -0.000115   0.006970   0.571736  -0.033157
    12  H    0.000092  -0.000008   0.000001  -0.000403  -0.033157   0.604122
    13  H    0.000161   0.000002   0.000001  -0.000389  -0.033471  -0.046762
    14  H   -0.001675  -0.000027  -0.000005   0.000027  -0.000152   0.001489
    15  H    0.003757   0.000087  -0.000005   0.000026  -0.000118  -0.000561
    16  H   -0.021285  -0.004594   0.000000  -0.000001  -0.000080   0.000273
    17  H   -0.053234  -0.002987   0.000000  -0.000002   0.000100   0.001581
    18  H    0.344112  -0.045023   0.000000  -0.000000  -0.000000   0.000005
    19  H   -0.024258   0.380722   0.000000  -0.000000   0.000000  -0.000005
    20  H   -0.047129   0.366725   0.000000  -0.000000   0.000000   0.000027
    21  H   -0.023116   0.380887  -0.000000   0.000000  -0.000000  -0.000000
              13         14         15         16         17         18
     1  C    0.000919   0.000637   0.000673   0.000004   0.000014   0.000000
     2  N    0.002414   0.001510   0.001286   0.000004  -0.000018   0.000001
     3  N   -0.032359  -0.033094  -0.032530  -0.001699   0.001167  -0.000109
     4  C    0.376575   0.004459   0.004536  -0.000944   0.000226   0.000003
     5  C   -0.002884   0.350770   0.350140  -0.022751  -0.040998  -0.000395
     6  C    0.000125  -0.031546  -0.025346   0.354707   0.359647  -0.051843
     7  N    0.000161  -0.001675   0.003757  -0.021285  -0.053234   0.344112
     8  C    0.000002  -0.000027   0.000087  -0.004594  -0.002987  -0.045023
     9  H    0.000001  -0.000005  -0.000005   0.000000   0.000000   0.000000
    10  H   -0.000389   0.000027   0.000026  -0.000001  -0.000002  -0.000000
    11  H   -0.033471  -0.000152  -0.000118  -0.000080   0.000100  -0.000000
    12  H   -0.046762   0.001489  -0.000561   0.000273   0.001581   0.000005
    13  H    0.605964  -0.000631   0.001510   0.000175   0.000294  -0.000005
    14  H   -0.000631   0.653887  -0.053185   0.006075  -0.007242   0.005475
    15  H    0.001510  -0.053185   0.629792  -0.007246   0.006985  -0.000908
    16  H    0.000175   0.006075  -0.007246   0.625728  -0.052916   0.007024
    17  H    0.000294  -0.007242   0.006985  -0.052916   0.697267  -0.007158
    18  H   -0.000005   0.005475  -0.000908   0.007024  -0.007158   0.532053
    19  H    0.000000   0.000008  -0.000016   0.006855  -0.001799   0.005860
    20  H   -0.000005  -0.000017   0.000035  -0.001923   0.015583  -0.006163
    21  H    0.000000   0.000009   0.000004   0.000146  -0.000227  -0.001397
              19         20         21
     1  C    0.000000   0.000000   0.000000
     2  N    0.000000   0.000000  -0.000000
     3  N   -0.000002   0.000012   0.000000
     4  C   -0.000007   0.000002  -0.000000
     5  C    0.000270   0.000085  -0.000195
     6  C   -0.004691  -0.002144   0.004073
     7  N   -0.024258  -0.047129  -0.023116
     8  C    0.380722   0.366725   0.380887
     9  H    0.000000   0.000000  -0.000000
    10  H   -0.000000  -0.000000   0.000000
    11  H    0.000000   0.000000  -0.000000
    12  H   -0.000005   0.000027  -0.000000
    13  H    0.000000  -0.000005   0.000000
    14  H    0.000008  -0.000017   0.000009
    15  H   -0.000016   0.000035   0.000004
    16  H    0.006855  -0.001923   0.000146
    17  H   -0.001799   0.015583  -0.000227
    18  H    0.005860  -0.006163  -0.001397
    19  H    0.584427  -0.043810  -0.028740
    20  H   -0.043810   0.664081  -0.039863
    21  H   -0.028740  -0.039863   0.589562
 Mulliken charges:
               1
     1  C   -0.265158
     2  N   -0.091498
     3  N   -0.016407
     4  C   -0.328464
     5  C   -0.127264
     6  C   -0.142641
     7  N   -0.298000
     8  C   -0.307093
     9  H    0.113950
    10  H    0.093428
    11  H    0.134444
    12  H    0.128852
    13  H    0.128365
    14  H    0.103225
    15  H    0.121084
    16  H    0.112446
    17  H    0.083717
    18  H    0.218469
    19  H    0.125186
    20  H    0.094503
    21  H    0.118857
 Sum of Mulliken charges =  -0.00000
 Mulliken charges with hydrogens summed into heavy atoms:
               1
     1  C   -0.057780
     2  N   -0.091498
     3  N   -0.016407
     4  C    0.063197
     5  C    0.097045
     6  C    0.053522
     7  N   -0.079532
     8  C    0.031453
 Electronic spatial extent (au):  <R**2>=           1607.7378
 Charge=             -0.0000 electrons
 Dipole moment (field-independent basis, Debye):
    X=             -1.3443    Y=              2.1172    Z=              0.8773  Tot=              2.6570
 Quadrupole moment (field-independent basis, Debye-Ang):
   XX=            -49.7204   YY=            -51.0145   ZZ=            -51.1781
   XY=              3.1593   XZ=             -2.3219   YZ=             -2.0105
 Traceless Quadrupole moment (field-independent basis, Debye-Ang):
   XX=              0.9173   YY=             -0.3768   ZZ=             -0.5404
   XY=              3.1593   XZ=             -2.3219   YZ=             -2.0105
 Octapole moment (field-independent basis, Debye-Ang**2):
  XXX=             -3.5103  YYY=              2.0675  ZZZ=              0.5449  XYY=             -0.3273
  XXY=              8.3711  XXZ=              6.1034  XZZ=             -4.9993  YZZ=             -0.1031
  YYZ=              1.9419  XYZ=              5.6270
 Hexadecapole moment (field-independent basis, Debye-Ang**3):
 XXXX=          -1695.6622 YYYY=           -259.8643 ZZZZ=            -79.8168 XXXY=             14.6589
 XXXZ=            -12.7855 YYYX=             15.1003 YYYZ=             -4.3102 ZZZX=             -2.1074
 ZZZY=             -2.3037 XXYY=           -346.4421 XXZZ=           -329.2671 YYZZ=            -53.5151
 XXYZ=            -14.7531 YYXZ=             -4.8794 ZZXY=              0.6139
 N-N= 3.840178615149D+02 E-N=-1.609705265637D+03  KE= 3.595214585740D+02
 PrsmSu:  requested number of processors reduced to:  13 ShMem   1 Linda.
 Calling FoFJK, ICntrl=      2127 FMM=F ISym2X=0 I1Cent= 0 IOpClX= 0 NMat=1 NMatS=1 NMatT=0.
 ***** Axes restored to original set *****
 -------------------------------------------------------------------
 Center     Atomic                   Forces (Hartrees/Bohr)
 Number     Number              X              Y              Z
 -------------------------------------------------------------------
      1        6          -0.003326389   -0.001049396    0.009659064
      2        7          -0.008962326    0.002025178   -0.016764077
      3        7           0.008330304    0.000674971   -0.009712181
      4        6          -0.007004293   -0.000759301   -0.000095393
      5        6           0.001802811    0.000419949    0.012912331
      6        6          -0.002944058   -0.005144739    0.004450229
      7        7          -0.006891767    0.008636259    0.008080830
      8        6           0.005359852   -0.003939183    0.005495509
      9        1           0.009932173    0.000616141   -0.006935911
     10        1           0.005964318   -0.000278546    0.003059620
     11        1           0.000183107   -0.000682875    0.008498789
     12        1           0.001221576    0.001421908   -0.002516015
     13        1           0.001137045   -0.000381405   -0.002531563
     14        1           0.000788000   -0.000613350    0.000984067
     15        1           0.001031352   -0.000695943   -0.000318809
     16        1           0.002515937   -0.001769133   -0.002278904
     17        1          -0.007203295    0.000065750   -0.005018220
     18        1          -0.000932757    0.003485743   -0.001678272
     19        1          -0.000949317   -0.000698891    0.002198496
     20        1          -0.001134130   -0.001387010   -0.007650388
     21        1           0.001081856    0.000053873    0.000160798
 -------------------------------------------------------------------
 Cartesian Forces:  Max     0.016764077 RMS     0.005093685

 GradGradGradGradGradGradGradGradGradGradGradGradGradGradGradGradGradGrad
 Berny optimization.
 FormGI is forming the generalized inverse of G from B-inverse, IUseBI=4.
 Internal  Forces:  Max     0.028131317 RMS     0.006512994
 Search for a local minimum.
 Step number   1 out of a maximum of  102
 All quantities printed in internal units (Hartrees-Bohrs-Radians)
 Mixed Optimization -- RFO/linear search
 Second derivative matrix not updated -- first step.
 ITU=  0
     Eigenvalues ---    0.00230   0.00628   0.00812   0.00894   0.00950
     Eigenvalues ---    0.00981   0.01360   0.01902   0.03140   0.03160
     Eigenvalues ---    0.03756   0.03994   0.05320   0.05393   0.06944
     Eigenvalues ---    0.07254   0.07264   0.07464   0.09632   0.09778
     Eigenvalues ---    0.10467   0.12991   0.13122   0.16000   0.16000
     Eigenvalues ---    0.16000   0.16000   0.16000   0.16000   0.16000
     Eigenvalues ---    0.16000   0.22005   0.22065   0.23470   0.24995
     Eigenvalues ---    0.24998   0.25000   0.28072   0.33656   0.33866
     Eigenvalues ---    0.33873   0.33880   0.34089   0.34120   0.34145
     Eigenvalues ---    0.34152   0.34288   0.34299   0.34507   0.34518
     Eigenvalues ---    0.34929   0.36157   0.36928   0.37463   0.44346
     Eigenvalues ---    0.54164   0.69899
 RFO step:  Lambda=-1.56650173D-02 EMin= 2.30000000D-03
 Linear search not attempted -- first point.
 Iteration  1 RMS(Cart)=  0.17298375 RMS(Int)=  0.00883018
 Iteration  2 RMS(Cart)=  0.02222205 RMS(Int)=  0.00040433
 Iteration  3 RMS(Cart)=  0.00025334 RMS(Int)=  0.00039134
 Iteration  4 RMS(Cart)=  0.00000005 RMS(Int)=  0.00039134
 Variable       Old X    -DE/DX   Delta X   Delta X   Delta X     New X
                                 (Linear)    (Quad)   (Total)
    R1        2.43871  -0.01219   0.00000  -0.01706  -0.01706   2.42166
    R2        2.07914  -0.01056   0.00000  -0.02999  -0.02999   2.04915
    R3        2.07532  -0.00618   0.00000  -0.01742  -0.01742   2.05790
    R4        2.55882  -0.01152   0.00000  -0.02067  -0.02067   2.53815
    R5        2.75154  -0.00099   0.00000  -0.00253  -0.00253   2.74902
    R6        2.79765  -0.00778   0.00000  -0.02157  -0.02157   2.77608
    R7        2.05790   0.00007   0.00000   0.00019   0.00019   2.05809
    R8        2.06847   0.00074   0.00000   0.00206   0.00206   2.07053
    R9        2.06828   0.00104   0.00000   0.00290   0.00290   2.07117
   R10        2.91981  -0.00806   0.00000  -0.02721  -0.02721   2.89260
   R11        2.07558   0.00119   0.00000   0.00336   0.00336   2.07893
   R12        2.07545  -0.00037   0.00000  -0.00104  -0.00104   2.07441
   R13        2.77136  -0.00347   0.00000  -0.00920  -0.00920   2.76217
   R14        2.07128  -0.00137   0.00000  -0.00384  -0.00384   2.06744
   R15        2.07181   0.00509   0.00000   0.01427   0.01427   2.08608
   R16        2.75955   0.00068   0.00000   0.00178   0.00178   2.76133
   R17        1.92742  -0.00396   0.00000  -0.00862  -0.00862   1.91880
   R18        2.07086  -0.00120   0.00000  -0.00335  -0.00335   2.06751
   R19        2.07074   0.00579   0.00000   0.01620   0.01620   2.08694
   R20        2.06482   0.00108   0.00000   0.00299   0.00299   2.06782
    A1        2.07769  -0.00645   0.00000  -0.03672  -0.03672   2.04097
    A2        2.20368   0.00051   0.00000   0.00289   0.00289   2.20657
    A3        2.00181   0.00594   0.00000   0.03383   0.03383   2.03564
    A4        2.08640   0.02301   0.00000   0.08661   0.08661   2.17301
    A5        2.21617  -0.00463   0.00000  -0.01744  -0.01744   2.19873
    A6        2.04310  -0.02350   0.00000  -0.08848  -0.08848   1.95462
    A7        2.02376   0.02813   0.00000   0.10588   0.10588   2.12964
    A8        2.01231  -0.01304   0.00000  -0.07642  -0.07619   1.93613
    A9        1.92851   0.00416   0.00000   0.02545   0.02540   1.95392
   A10        1.93330   0.00361   0.00000   0.02093   0.02078   1.95408
   A11        1.83306   0.00430   0.00000   0.02358   0.02391   1.85696
   A12        1.83503   0.00418   0.00000   0.02057   0.02069   1.85572
   A13        1.91640  -0.00322   0.00000  -0.01413  -0.01451   1.90189
   A14        2.01538   0.00263   0.00000   0.01311   0.01309   2.02848
   A15        1.89313  -0.00072   0.00000  -0.00139  -0.00139   1.89175
   A16        1.89938  -0.00004   0.00000   0.00420   0.00421   1.90359
   A17        1.89392  -0.00067   0.00000  -0.00334  -0.00337   1.89054
   A18        1.89513  -0.00130   0.00000  -0.00678  -0.00684   1.88829
   A19        1.86097  -0.00007   0.00000  -0.00739  -0.00742   1.85355
   A20        1.99656  -0.02166   0.00000  -0.09177  -0.09153   1.90503
   A21        1.89648   0.00859   0.00000   0.02976   0.02788   1.92435
   A22        1.89886   0.00449   0.00000   0.02625   0.02759   1.92645
   A23        1.88537   0.00287   0.00000  -0.01379  -0.01432   1.87104
   A24        1.88763   0.01112   0.00000   0.07201   0.07299   1.96062
   A25        1.89693  -0.00507   0.00000  -0.02110  -0.02150   1.87543
   A26        1.90433   0.01124   0.00000   0.04532   0.04534   1.94967
   A27        1.90622  -0.00329   0.00000  -0.01141  -0.01134   1.89487
   A28        1.91016  -0.00353   0.00000  -0.01355  -0.01353   1.89663
   A29        1.93683  -0.00509   0.00000  -0.03406  -0.03397   1.90286
   A30        1.94408   0.00818   0.00000   0.05025   0.05020   1.99428
   A31        1.91740  -0.00059   0.00000  -0.00197  -0.00239   1.91501
   A32        1.89633  -0.00222   0.00000  -0.01515  -0.01475   1.88157
   A33        1.87959   0.00115   0.00000  -0.00081  -0.00110   1.87849
   A34        1.88777  -0.00159   0.00000   0.00081   0.00033   1.88810
    D1        3.14106  -0.00009   0.00000  -0.00202  -0.00202   3.13904
    D2        0.00014  -0.00009   0.00000  -0.00194  -0.00194  -0.00179
    D3       -3.14099   0.00000   0.00000   0.00008   0.00008  -3.14091
    D4        0.00657  -0.00012   0.00000   0.00157   0.00145   0.00802
    D5        3.12849   0.00017   0.00000  -0.00001   0.00011   3.12860
    D6       -0.01135   0.00007   0.00000  -0.00090  -0.00100  -0.01235
    D7       -2.08601   0.00034   0.00000   0.00195   0.00220  -2.08381
    D8        2.06948  -0.00086   0.00000  -0.01162  -0.01183   2.05765
    D9       -3.13346   0.00028   0.00000   0.00255   0.00249  -3.13097
   D10        1.07507   0.00055   0.00000   0.00540   0.00569   1.08076
   D11       -1.05263  -0.00065   0.00000  -0.00817  -0.00834  -1.06097
   D12       -3.13880  -0.00004   0.00000  -0.00564  -0.00564   3.13875
   D13        1.01507  -0.00042   0.00000  -0.00927  -0.00926   1.00581
   D14       -1.00306   0.00007   0.00000  -0.00202  -0.00197  -1.00504
   D15       -0.01468  -0.00008   0.00000  -0.00817  -0.00821  -0.02289
   D16       -2.14399  -0.00046   0.00000  -0.01180  -0.01183  -2.15583
   D17        2.12105   0.00003   0.00000  -0.00456  -0.00455   2.11651
   D18       -3.13159  -0.00241   0.00000  -0.03701  -0.03706   3.11454
   D19        1.04359   0.00201   0.00000   0.01984   0.02004   1.06363
   D20       -1.01894   0.00067   0.00000   0.01340   0.01322  -1.00572
   D21       -1.00270  -0.00206   0.00000  -0.03233  -0.03238  -1.03508
   D22       -3.11070   0.00236   0.00000   0.02452   0.02471  -3.08599
   D23        1.10995   0.00103   0.00000   0.01808   0.01790   1.12785
   D24        1.01359  -0.00319   0.00000  -0.04644  -0.04645   0.96714
   D25       -1.09441   0.00123   0.00000   0.01041   0.01064  -1.08377
   D26        3.12624  -0.00010   0.00000   0.00397   0.00383   3.13007
   D27        3.13776   0.00020   0.00000   0.01036   0.00903  -3.13640
   D28        1.05043  -0.00026   0.00000   0.00655   0.00522   1.05565
   D29       -1.03128  -0.00090   0.00000  -0.02163  -0.02085  -1.05213
   D30       -3.11861  -0.00137   0.00000  -0.02544  -0.02467   3.13991
   D31        1.01892   0.00063   0.00000  -0.01531  -0.01475   1.00417
   D32       -1.06841   0.00016   0.00000  -0.01911  -0.01856  -1.08697
   D33        1.06042   0.00065   0.00000   0.02295   0.02269   1.08312
   D34       -1.05483   0.00138   0.00000   0.03132   0.03168  -1.02315
   D35        3.13700  -0.00149   0.00000  -0.00060  -0.00065   3.13635
   D36       -3.13787   0.00130   0.00000   0.02821   0.02792  -3.10996
   D37        1.03006   0.00203   0.00000   0.03658   0.03690   1.06696
   D38       -1.06129  -0.00084   0.00000   0.00466   0.00457  -1.05672
         Item               Value     Threshold  Converged?
 Maximum Force            0.028131     0.000450     NO 
 RMS     Force            0.006513     0.000300     NO 
 Maximum Displacement     0.627403     0.001800     NO 
 RMS     Displacement     0.188648     0.001200     NO 
 Predicted change in Energy=-8.420826D-03
 GradGradGradGradGradGradGradGradGradGradGradGradGradGradGradGradGradGrad

                          Input orientation:                          
 ---------------------------------------------------------------------
 Center     Atomic      Atomic             Coordinates (Angstroms)
 Number     Number       Type             X           Y           Z
 ---------------------------------------------------------------------
      1          6           0        1.256722   -0.021927    0.183635
      2          7           0        2.502977   -0.007444   -0.114428
      3          7           0        2.985475    0.108297   -1.362547
      4          6           0        2.194070    0.244917   -2.575484
      5          6           0        4.454314    0.111313   -1.386427
      6          6           0        5.108108    0.235287   -2.764913
      7          7           0        6.560933    0.259417   -2.606131
      8          6           0        7.243197    0.383983   -3.892288
      9          1           0        1.003767   -0.123509    1.233175
     10          1           0        0.424081    0.057145   -0.513762
     11          1           0        1.128925    0.230000   -2.348835
     12          1           0        2.372768   -0.578366   -3.276037
     13          1           0        2.387133    1.195383   -3.085972
     14          1           0        4.810960   -0.817421   -0.916819
     15          1           0        4.821501    0.932939   -0.757845
     16          1           0        4.818614    1.178304   -3.238031
     17          1           0        4.771763   -0.583207   -3.424872
     18          1           0        6.852559   -0.607995   -2.166180
     19          1           0        6.957925    1.332514   -4.356962
     20          1           0        7.013721   -0.425172   -4.607984
     21          1           0        8.325956    0.404182   -3.735484
 ---------------------------------------------------------------------
                    Distance matrix (angstroms):
                    1          2          3          4          5
     1  C    0.000000
     2  N    1.281485   0.000000
     3  N    2.322979   1.343131   0.000000
     4  C    2.926186   2.493171   1.454717   0.000000
     5  C    3.564751   2.332338   1.469036   2.557423   0.000000
     6  C    4.857291   3.724338   2.547219   2.920205   1.530699
     7  N    5.999717   4.769361   3.788566   4.366995   2.438740
     8  C    7.253675   6.074136   4.960220   5.219866   3.759197
     9  H    1.084361   2.019192   3.273939   4.007298   4.338632
    10  H    1.088993   2.117888   2.698851   2.723750   4.123986
    11  H    2.548177   2.633812   2.105790   1.089093   3.463889
    12  H    3.677569   3.215381   2.123289   1.095675   2.894671
    13  H    3.667425   3.207847   2.123667   1.096018   2.887369
    14  H    3.804789   2.574234   2.094760   3.275339   1.100124
    15  H    3.808649   2.583381   2.101592   3.268116   1.097730
    16  H    5.082857   4.065104   2.832446   2.863287   2.167862
    17  H    5.068715   4.054372   2.814637   2.837561   2.176785
    18  H    6.097418   4.846567   4.014130   4.753579   2.622403
    19  H    7.413181   6.296121   5.123044   5.201043   4.072282
    20  H    7.501018   6.380702   5.200405   5.273435   4.149315
    21  H    8.094143   6.869394   5.851420   6.242676   4.538001
                    6          7          8          9         10
     6  C    0.000000
     7  N    1.461675   0.000000
     8  C    2.419027   1.461233   0.000000
     9  H    5.740998   6.765279   8.090637   0.000000
    10  H    5.199955   6.486901   7.617192   1.849449   0.000000
    11  H    4.000880   5.438177   6.307953   3.601587   1.973367
    12  H    2.899201   4.323353   5.002695   4.734348   3.439683
    13  H    2.903200   4.304287   4.988975   4.723156   3.430076
    14  H    2.147543   2.660030   4.026483   4.427042   4.491328
    15  H    2.144104   2.625912   3.998837   4.433434   4.490423
    16  H    1.094042   2.068653   2.633932   6.019922   5.290611
    17  H    1.103906   2.140440   2.694796   6.008870   5.271333
    18  H    2.027983   1.015385   2.028810   6.782235   6.670700
    19  H    2.675883   2.091542   1.094080   8.295880   7.686864
    20  H    2.732120   2.163584   1.104360   8.386280   7.772943
    21  H    3.365276   2.100405   1.094241   8.864563   8.540466
                   11         12         13         14         15
    11  H    0.000000
    12  H    1.749373   0.000000
    13  H    1.748834   1.783961   0.000000
    14  H    4.087192   3.401152   3.825120   0.000000
    15  H    4.081726   3.823823   3.378638   1.757596   0.000000
    16  H    3.912001   3.011561   2.436291   3.061209   2.492295
    17  H    3.884511   2.403612   2.994110   2.519271   3.068258
    18  H    5.787537   4.615321   4.902879   2.402684   2.912573
    19  H    6.263014   5.083653   4.746195   4.589800   4.204475
    20  H    6.337494   4.830735   5.133034   4.316331   4.633990
    21  H    7.331466   6.051194   6.026400   4.668231   4.628944
                   16         17         18         19         20
    16  H    0.000000
    17  H    1.772011   0.000000
    18  H    2.911470   2.432002   0.000000
    19  H    2.419181   3.052554   2.928515   0.000000
    20  H    3.044076   2.539903   2.453936   1.776397   0.000000
    21  H    3.626041   3.701852   2.378679   1.766223   1.780743
                   21
    21  H    0.000000
 Stoichiometry    C5H13N3
 Framework group  C1[X(C5H13N3)]
 Deg. of freedom    57
 Full point group                 C1      NOp   1
 Largest Abelian subgroup         C1      NOp   1
 Largest concise Abelian subgroup C1      NOp   1
                         Standard orientation:                         
 ---------------------------------------------------------------------
 Center     Atomic      Atomic             Coordinates (Angstroms)
 Number     Number       Type             X           Y           Z
 ---------------------------------------------------------------------
      1          6           0        3.503036   -0.408418   -0.017338
      2          7           0        2.274489   -0.772940   -0.016636
      3          7           0        1.230313    0.071524    0.007424
      4          6           0        1.306249    1.524126    0.027010
      5          6           0       -0.054116   -0.641041   -0.016280
      6          6           0       -1.311915    0.230838    0.012185
      7          7           0       -2.492537   -0.628397   -0.053698
      8          6           0       -3.729087    0.149980   -0.037128
      9          1           0        4.248926   -1.195277   -0.035790
     10          1           0        3.873786    0.615383   -0.000547
     11          1           0        2.342392    1.859544    0.032234
     12          1           0        0.839879    1.946590    0.923965
     13          1           0        0.842305    1.970808   -0.859830
     14          1           0       -0.087685   -1.324683    0.844986
     15          1           0       -0.096366   -1.274402   -0.911869
     16          1           0       -1.338907    0.885536   -0.863926
     17          1           0       -1.312135    0.876111    0.907858
     18          1           0       -2.487292   -1.247354    0.751207
     19          1           0       -3.755782    0.795917   -0.919775
     20          1           0       -3.850037    0.790818    0.854112
     21          1           0       -4.589939   -0.523207   -0.092950
 ---------------------------------------------------------------------
 Rotational constants (GHZ):           6.5096436           0.7858155           0.7150212
 Standard basis: 6-31G(2df,p) (6D, 7F)
 There are   313 symmetry adapted cartesian basis functions of A   symmetry.
 There are   289 symmetry adapted basis functions of A   symmetry.
   289 basis functions,   443 primitive gaussians,   313 cartesian basis functions
    32 alpha electrons       32 beta electrons
       nuclear repulsion energy       384.1008217307 Hartrees.
 NAtoms=   21 NActive=   21 NUniq=   21 SFac= 1.00D+00 NAtFMM=   60 NAOKFM=F Big=F
 Integral buffers will be    131072 words long.
 Raffenetti 2 integral format.
 Two-electron integral symmetry is turned on.
 One-electron integrals computed using PRISM.
 PrsmSu:  requested number of processors reduced to:  13 ShMem   1 Linda.
 NBasis=   289 RedAO= T EigKep=  2.35D-04  NBF=   289
 NBsUse=   289 1.00D-06 EigRej= -1.00D+00 NBFU=   289
 Initial guess from the checkpoint file:  "CdNNpCpCCNC.chk"
 B after Tr=     0.000000    0.000000   -0.000000
         Rot=    0.999969    0.002907   -0.000386    0.007324 Ang=   0.90 deg.
 ExpMin= 1.61D-01 ExpMax= 4.17D+03 ExpMxC= 6.27D+02 IAcc=2 IRadAn=         4 AccDes= 0.00D+00
 Harris functional with IExCor=  402 and IRadAn=       4 diagonalized for initial guess.
 HarFok:  IExCor=  402 AccDes= 0.00D+00 IRadAn=         4 IDoV= 1 UseB2=F ITyADJ=14
 ICtDFT=  3500011 ScaDFX=  1.000000  1.000000  1.000000  1.000000
 FoFCou: FMM=F IPFlag=           0 FMFlag=      100000 FMFlg1=           0
         NFxFlg=           0 DoJE=T BraDBF=F KetDBF=T FulRan=T
         wScrn=  0.000000 ICntrl=       500 IOpCl=  0 I1Cent=   200000004 NGrid=           0
         NMat0=    1 NMatS0=      1 NMatT0=    0 NMatD0=    1 NMtDS0=    0 NMtDT0=    0
 Petite list used in FoFCou.
 Requested convergence on RMS density matrix=1.00D-08 within 128 cycles.
 Requested convergence on MAX density matrix=1.00D-06.
 Requested convergence on             energy=1.00D-06.
 No special actions if energy rises.
 Integral accuracy reduced to 1.0D-05 until final iterations.
 Initial convergence to 1.0D-05 achieved.  Increase integral accuracy.
 SCF Done:  E(RB3LYP) =  -362.562413803     A.U. after   12 cycles
            NFock= 12  Conv=0.85D-08     -V/T= 2.0082
 PrsmSu:  requested number of processors reduced to:  13 ShMem   1 Linda.
 Calling FoFJK, ICntrl=      2127 FMM=F ISym2X=0 I1Cent= 0 IOpClX= 0 NMat=1 NMatS=1 NMatT=0.
 ***** Axes restored to original set *****
 -------------------------------------------------------------------
 Center     Atomic                   Forces (Hartrees/Bohr)
 Number     Number              X              Y              Z
 -------------------------------------------------------------------
      1        6           0.001484314    0.000016739   -0.000650483
      2        7          -0.002212983    0.000320652   -0.003656694
      3        7           0.002793578   -0.000715293   -0.000053221
      4        6          -0.001228660    0.000019089    0.002605886
      5        6          -0.000729734    0.000510219    0.003574786
      6        6          -0.001188740   -0.000858004    0.003119872
      7        7          -0.002329899   -0.000510188   -0.003551281
      8        6           0.001350355   -0.000172135    0.002654394
      9        1           0.001441942   -0.000038387    0.000423618
     10        1          -0.000119789    0.000230044   -0.002140369
     11        1           0.000164261   -0.000367245    0.003107688
     12        1           0.001523200    0.000006016   -0.000956154
     13        1           0.001471967    0.000237028   -0.001000141
     14        1          -0.000351825   -0.000017090    0.000102704
     15        1           0.000059202   -0.000390858   -0.000816899
     16        1          -0.001157041    0.000795773   -0.001577023
     17        1          -0.001052379    0.000240550   -0.001451860
     18        1           0.000647632    0.000083452    0.001308504
     19        1           0.000030142    0.000638534   -0.000794872
     20        1          -0.000488382    0.000279932   -0.000394326
     21        1          -0.000107159   -0.000308828    0.000145872
 -------------------------------------------------------------------
 Cartesian Forces:  Max     0.003656694 RMS     0.001413804

 GradGradGradGradGradGradGradGradGradGradGradGradGradGradGradGradGradGrad
 Berny optimization.
 Using GEDIIS/GDIIS optimizer.
 FormGI is forming the generalized inverse of G from B-inverse, IUseBI=4.
 Internal  Forces:  Max     0.006621708 RMS     0.001745599
 Search for a local minimum.
 Step number   2 out of a maximum of  102
 All quantities printed in internal units (Hartrees-Bohrs-Radians)
 Mixed Optimization -- RFO/linear search
 Update second derivatives using D2CorX and points    1    2
 DE= -8.05D-03 DEPred=-8.42D-03 R= 9.56D-01
 TightC=F SS=  1.41D+00  RLast= 2.76D-01 DXNew= 5.0454D-01 8.2686D-01
 Trust test= 9.56D-01 RLast= 2.76D-01 DXMaxT set to 5.05D-01
 ITU=  1  0
 Use linear search instead of GDIIS.
     Eigenvalues ---    0.00230   0.00627   0.00812   0.00895   0.00950
     Eigenvalues ---    0.00961   0.01341   0.01902   0.03001   0.03140
     Eigenvalues ---    0.03671   0.04430   0.05331   0.05465   0.06994
     Eigenvalues ---    0.07102   0.07358   0.07619   0.08925   0.09890
     Eigenvalues ---    0.10820   0.12518   0.13186   0.14639   0.16000
     Eigenvalues ---    0.16000   0.16000   0.16000   0.16000   0.16000
     Eigenvalues ---    0.16154   0.20297   0.22452   0.23228   0.24616
     Eigenvalues ---    0.24998   0.27996   0.29427   0.33505   0.33856
     Eigenvalues ---    0.33867   0.33906   0.34043   0.34128   0.34138
     Eigenvalues ---    0.34183   0.34292   0.34312   0.34504   0.34918
     Eigenvalues ---    0.35223   0.36135   0.36956   0.37967   0.44418
     Eigenvalues ---    0.53662   0.69507
 RFO step:  Lambda=-1.30750805D-03 EMin= 2.30047489D-03
 Quartic linear search produced a step of  0.04628.
 Iteration  1 RMS(Cart)=  0.03168970 RMS(Int)=  0.00029687
 Iteration  2 RMS(Cart)=  0.00054437 RMS(Int)=  0.00004932
 Iteration  3 RMS(Cart)=  0.00000008 RMS(Int)=  0.00004932
 Variable       Old X    -DE/DX   Delta X   Delta X   Delta X     New X
                                 (Linear)    (Quad)   (Total)
    R1        2.42166  -0.00328  -0.00079  -0.00545  -0.00624   2.41542
    R2        2.04915   0.00008  -0.00139  -0.00071  -0.00210   2.04705
    R3        2.05790   0.00148  -0.00081   0.00400   0.00319   2.06109
    R4        2.53815  -0.00586  -0.00096  -0.01194  -0.01289   2.52526
    R5        2.74902  -0.00419  -0.00012  -0.01174  -0.01186   2.73716
    R6        2.77608  -0.00535  -0.00100  -0.01683  -0.01783   2.75824
    R7        2.05809   0.00049   0.00001   0.00147   0.00148   2.05957
    R8        2.07053   0.00086   0.00010   0.00266   0.00276   2.07328
    R9        2.07117   0.00093   0.00013   0.00292   0.00305   2.07423
   R10        2.89260  -0.00133  -0.00126  -0.00579  -0.00705   2.88555
   R11        2.07893  -0.00006   0.00016  -0.00007   0.00009   2.07902
   R12        2.07441  -0.00074  -0.00005  -0.00231  -0.00236   2.07205
   R13        2.76217  -0.00096  -0.00043  -0.00306  -0.00348   2.75868
   R14        2.06744   0.00167  -0.00018   0.00499   0.00481   2.07225
   R15        2.08608   0.00101   0.00066   0.00354   0.00420   2.09028
   R16        2.76133  -0.00101   0.00008  -0.00281  -0.00272   2.75861
   R17        1.91880   0.00068  -0.00040   0.00133   0.00093   1.91973
   R18        2.06751   0.00088  -0.00015   0.00259   0.00243   2.06994
   R19        2.08694   0.00015   0.00075   0.00097   0.00172   2.08866
   R20        2.06782  -0.00009   0.00014  -0.00018  -0.00004   2.06778
    A1        2.04097  -0.00097  -0.00170  -0.00743  -0.00913   2.03184
    A2        2.20657  -0.00113   0.00013  -0.00721  -0.00708   2.19949
    A3        2.03564   0.00210   0.00157   0.01465   0.01621   2.05185
    A4        2.17301  -0.00417   0.00401  -0.01464  -0.01063   2.16238
    A5        2.19873  -0.00435  -0.00081  -0.01868  -0.01949   2.17924
    A6        1.95462   0.00393  -0.00410   0.01356   0.00946   1.96408
    A7        2.12964   0.00042   0.00490   0.00501   0.00990   2.13954
    A8        1.93613  -0.00395  -0.00353  -0.02624  -0.02976   1.90637
    A9        1.95392   0.00006   0.00118   0.00023   0.00140   1.95532
   A10        1.95408   0.00018   0.00096   0.00098   0.00194   1.95601
   A11        1.85696   0.00229   0.00111   0.01706   0.01817   1.87513
   A12        1.85572   0.00227   0.00096   0.01708   0.01804   1.87376
   A13        1.90189  -0.00062  -0.00067  -0.00744  -0.00813   1.89376
   A14        2.02848  -0.00662   0.00061  -0.03379  -0.03322   1.99526
   A15        1.89175   0.00168  -0.00006   0.00409   0.00396   1.89571
   A16        1.90359   0.00244   0.00019   0.01187   0.01201   1.91559
   A17        1.89054   0.00213  -0.00016   0.00875   0.00851   1.89905
   A18        1.88829   0.00151  -0.00032   0.00513   0.00482   1.89311
   A19        1.85355  -0.00071  -0.00034   0.00728   0.00684   1.86038
   A20        1.90503  -0.00218  -0.00424  -0.01097  -0.01516   1.88987
   A21        1.92435   0.00072   0.00129   0.00444   0.00567   1.93002
   A22        1.92645   0.00074   0.00128   0.00423   0.00561   1.93205
   A23        1.87104   0.00092  -0.00066   0.00638   0.00570   1.87674
   A24        1.96062   0.00099   0.00338   0.00935   0.01279   1.97341
   A25        1.87543  -0.00113  -0.00100  -0.01322  -0.01425   1.86118
   A26        1.94967   0.00356   0.00210   0.02051   0.02246   1.97214
   A27        1.89487  -0.00089  -0.00053   0.00369   0.00294   1.89781
   A28        1.89663  -0.00063  -0.00063   0.00616   0.00533   1.90195
   A29        1.90286   0.00072  -0.00157   0.00365   0.00208   1.90494
   A30        1.99428  -0.00001   0.00232   0.00096   0.00328   1.99756
   A31        1.91501  -0.00030  -0.00011  -0.00161  -0.00174   1.91326
   A32        1.88157  -0.00055  -0.00068  -0.00487  -0.00553   1.87604
   A33        1.87849  -0.00003  -0.00005   0.00078   0.00071   1.87921
   A34        1.88810   0.00017   0.00002   0.00103   0.00103   1.88912
    D1        3.13904   0.00002  -0.00009   0.00101   0.00091   3.13995
    D2       -0.00179  -0.00001  -0.00009  -0.00073  -0.00081  -0.00260
    D3       -3.14091  -0.00002   0.00000  -0.00156  -0.00156   3.14071
    D4        0.00802   0.00000   0.00007   0.00172   0.00176   0.00978
    D5        3.12860  -0.00005   0.00001  -0.00409  -0.00405   3.12455
    D6       -0.01235  -0.00005  -0.00005  -0.00540  -0.00543  -0.01778
    D7       -2.08381  -0.00034   0.00010  -0.00954  -0.00941  -2.09322
    D8        2.05765   0.00029  -0.00055  -0.00072  -0.00126   2.05639
    D9       -3.13097  -0.00003   0.00012   0.00090   0.00099  -3.12997
   D10        1.08076  -0.00032   0.00026  -0.00324  -0.00299   1.07777
   D11       -1.06097   0.00032  -0.00039   0.00558   0.00517  -1.05581
   D12        3.13875   0.00004  -0.00026  -0.01388  -0.01405   3.12470
   D13        1.00581   0.00056  -0.00043  -0.00488  -0.00528   1.00053
   D14       -1.00504  -0.00079  -0.00009  -0.02200  -0.02210  -1.02714
   D15       -0.02289  -0.00008  -0.00038  -0.01976  -0.02012  -0.04301
   D16       -2.15583   0.00045  -0.00055  -0.01076  -0.01135  -2.16718
   D17        2.11651  -0.00091  -0.00021  -0.02788  -0.02817   2.08834
   D18        3.11454   0.00017  -0.00171   0.00732   0.00562   3.12016
   D19        1.06363  -0.00006   0.00093   0.00352   0.00448   1.06811
   D20       -1.00572   0.00042   0.00061   0.01444   0.01506  -0.99065
   D21       -1.03508  -0.00059  -0.00150  -0.00410  -0.00562  -1.04070
   D22       -3.08599  -0.00082   0.00114  -0.00790  -0.00676  -3.09275
   D23        1.12785  -0.00033   0.00083   0.00302   0.00383   1.13168
   D24        0.96714   0.00045  -0.00215   0.01158   0.00942   0.97656
   D25       -1.08377   0.00022   0.00049   0.00779   0.00829  -1.07549
   D26        3.13007   0.00071   0.00018   0.01871   0.01887  -3.13424
   D27       -3.13640   0.00026   0.00042  -0.00074  -0.00036  -3.13676
   D28        1.05565  -0.00057   0.00024  -0.02340  -0.02326   1.03239
   D29       -1.05213   0.00045  -0.00097   0.00217   0.00126  -1.05087
   D30        3.13991  -0.00039  -0.00114  -0.02048  -0.02163   3.11828
   D31        1.00417   0.00021  -0.00068  -0.00466  -0.00527   0.99890
   D32       -1.08697  -0.00063  -0.00086  -0.02732  -0.02816  -1.11513
   D33        1.08312  -0.00019   0.00105   0.01730   0.01830   1.10141
   D34       -1.02315   0.00001   0.00147   0.02025   0.02169  -1.00146
   D35        3.13635   0.00002  -0.00003   0.01945   0.01937  -3.12746
   D36       -3.10996   0.00050   0.00129   0.03855   0.03987  -3.07009
   D37        1.06696   0.00070   0.00171   0.04149   0.04326   1.11023
   D38       -1.05672   0.00071   0.00021   0.04069   0.04094  -1.01578
         Item               Value     Threshold  Converged?
 Maximum Force            0.006622     0.000450     NO 
 RMS     Force            0.001746     0.000300     NO 
 Maximum Displacement     0.125162     0.001800     NO 
 RMS     Displacement     0.031869     0.001200     NO 
 Predicted change in Energy=-6.756562D-04
 GradGradGradGradGradGradGradGradGradGradGradGradGradGradGradGradGradGrad

                          Input orientation:                          
 ---------------------------------------------------------------------
 Center     Atomic      Atomic             Coordinates (Angstroms)
 Number     Number       Type             X           Y           Z
 ---------------------------------------------------------------------
      1          6           0        1.259289   -0.030184    0.145389
      2          7           0        2.509700   -0.014189   -0.119141
      3          7           0        3.008965    0.107487   -1.352693
      4          6           0        2.216054    0.249216   -2.556518
      5          6           0        4.468450    0.119130   -1.366782
      6          6           0        5.082989    0.233293   -2.759958
      7          7           0        6.535677    0.262455   -2.618688
      8          6           0        7.230781    0.377262   -3.897219
      9          1           0        0.988792   -0.136062    1.188967
     10          1           0        0.449095    0.053422   -0.579995
     11          1           0        1.158390    0.222103   -2.294906
     12          1           0        2.399608   -0.565112   -3.268475
     13          1           0        2.403547    1.204356   -3.063818
     14          1           0        4.831629   -0.805295   -0.893583
     15          1           0        4.838373    0.950352   -0.754818
     16          1           0        4.778906    1.171289   -3.239751
     17          1           0        4.727357   -0.586014   -3.412474
     18          1           0        6.835629   -0.590234   -2.155056
     19          1           0        6.965267    1.330927   -4.366107
     20          1           0        6.995021   -0.425173   -4.619814
     21          1           0        8.311951    0.379611   -3.728750
 ---------------------------------------------------------------------
                    Distance matrix (angstroms):
                    1          2          3          4          5
     1  C    0.000000
     2  N    1.278185   0.000000
     3  N    2.307502   1.336309   0.000000
     4  C    2.879890   2.469093   1.448444   0.000000
     5  C    3.550728   2.326174   1.459600   2.550623   0.000000
     6  C    4.809484   3.695535   2.509541   2.874188   1.526967
     7  N    5.963726   4.746869   3.750261   4.320091   2.420999
     8  C    7.222701   6.059350   4.936712   5.192433   3.755025
     9  H    1.083252   2.009766   3.255833   3.960211   4.324928
    10  H    1.090681   2.112593   2.674494   2.658407   4.096165
    11  H    2.455375   2.572125   2.079790   1.089876   3.439260
    12  H    3.638810   3.199053   2.119888   1.097134   2.892184
    13  H    3.623868   3.188611   2.120755   1.097633   2.884696
    14  H    3.800245   2.572346   2.089511   3.273923   1.100172
    15  H    3.818594   2.599450   2.101097   3.257955   1.096482
    16  H    5.028958   4.036442   2.797384   2.808066   2.170584
    17  H    4.999482   4.011362   2.770652   2.781530   2.179246
    18  H    6.058157   4.815645   3.971644   4.712358   2.593860
    19  H    7.400297   6.300646   5.121503   5.196126   4.086379
    20  H    7.467382   6.367345   5.181356   5.248858   4.154761
    21  H    8.057104   6.844741   5.817333   6.208952   4.518766
                    6          7          8          9         10
     6  C    0.000000
     7  N    1.459833   0.000000
     8  C    2.434564   1.459792   0.000000
     9  H    5.700253   6.739806   8.068161   0.000000
    10  H    5.124213   6.422340   7.556462   1.859141   0.000000
    11  H    3.952072   5.387177   6.282150   3.506340   1.863457
    12  H    2.845448   4.267805   4.962219   4.695026   3.378610
    13  H    2.866131   4.261435   4.967981   4.678080   3.363615
    14  H    2.150628   2.649501   4.021965   4.421796   4.476866
    15  H    2.143501   2.613055   3.990832   4.447231   4.483392
    16  H    1.096588   2.073148   2.659780   5.973917   5.202999
    17  H    1.106126   2.149423   2.725805   5.945804   5.170622
    18  H    2.028756   1.015876   2.031583   6.750871   6.609306
    19  H    2.706933   2.092762   1.095368   8.290305   7.643766
    20  H    2.747455   2.165257   1.105273   8.360641   7.707032
    21  H    3.374339   2.097883   1.094220   8.836205   8.476176
                   11         12         13         14         15
    11  H    0.000000
    12  H    1.762999   0.000000
    13  H    1.762515   1.781269   0.000000
    14  H    4.063487   3.407715   3.826774   0.000000
    15  H    4.055180   3.816107   3.365171   1.761135   0.000000
    16  H    3.860288   2.945671   2.382096   3.068251   2.495445
    17  H    3.826164   2.332292   2.954163   2.530566   3.071788
    18  H    5.736766   4.573687   4.867212   2.377726   2.884979
    19  H    6.264118   5.064090   4.745658   4.601552   4.208316
    20  H    6.315886   4.792027   5.114502   4.325455   4.634803
    21  H    7.297544   6.005011   6.002631   4.642717   4.608228
                   16         17         18         19         20
    16  H    0.000000
    17  H    1.766523   0.000000
    18  H    2.917128   2.454777   0.000000
    19  H    2.464616   3.097148   2.931965   0.000000
    20  H    3.060135   2.574071   2.475416   1.774581   0.000000
    21  H    3.653530   3.725826   2.365723   1.767706   1.782127
                   21
    21  H    0.000000
 Stoichiometry    C5H13N3
 Framework group  C1[X(C5H13N3)]
 Deg. of freedom    57
 Full point group                 C1      NOp   1
 Largest Abelian subgroup         C1      NOp   1
 Largest concise Abelian subgroup C1      NOp   1
                         Standard orientation:                         
 ---------------------------------------------------------------------
 Center     Atomic      Atomic             Coordinates (Angstroms)
 Number     Number       Type             X           Y           Z
 ---------------------------------------------------------------------
      1          6           0        3.483392   -0.373593   -0.008444
      2          7           0        2.268352   -0.770344   -0.013544
      3          7           0        1.215618    0.052529    0.005269
      4          6           0        1.295372    1.498675    0.022263
      5          6           0       -0.055353   -0.664329   -0.029054
      6          6           0       -1.287113    0.237062    0.014432
      7          7           0       -2.475545   -0.607809   -0.055801
      8          6           0       -3.719920    0.154920   -0.028056
      9          1           0        4.242659   -1.146062   -0.023986
     10          1           0        3.819287    0.663928    0.009147
     11          1           0        2.342612    1.800241    0.035519
     12          1           0        0.818688    1.926707    0.912917
     13          1           0        0.836570    1.947543   -0.868140
     14          1           0       -0.091646   -1.356006    0.825723
     15          1           0       -0.108413   -1.281556   -0.933758
     16          1           0       -1.305884    0.906354   -0.854015
     17          1           0       -1.267184    0.883289    0.911934
     18          1           0       -2.465148   -1.251589    0.729975
     19          1           0       -3.767355    0.797309   -0.914011
     20          1           0       -3.839467    0.803225    0.859094
     21          1           0       -4.571960   -0.530420   -0.068711
 ---------------------------------------------------------------------
 Rotational constants (GHZ):           6.6444166           0.7940787           0.7233829
 Standard basis: 6-31G(2df,p) (6D, 7F)
 There are   313 symmetry adapted cartesian basis functions of A   symmetry.
 There are   289 symmetry adapted basis functions of A   symmetry.
   289 basis functions,   443 primitive gaussians,   313 cartesian basis functions
    32 alpha electrons       32 beta electrons
       nuclear repulsion energy       385.8406740537 Hartrees.
 NAtoms=   21 NActive=   21 NUniq=   21 SFac= 1.00D+00 NAtFMM=   60 NAOKFM=F Big=F
 Integral buffers will be    131072 words long.
 Raffenetti 2 integral format.
 Two-electron integral symmetry is turned on.
 One-electron integrals computed using PRISM.
 PrsmSu:  requested number of processors reduced to:  13 ShMem   1 Linda.
 NBasis=   289 RedAO= T EigKep=  2.28D-04  NBF=   289
 NBsUse=   289 1.00D-06 EigRej= -1.00D+00 NBFU=   289
 Initial guess from the checkpoint file:  "CdNNpCpCCNC.chk"
 B after Tr=     0.000000   -0.000000   -0.000000
         Rot=    1.000000   -0.000734   -0.000092   -0.000192 Ang=  -0.09 deg.
 ExpMin= 1.61D-01 ExpMax= 4.17D+03 ExpMxC= 6.27D+02 IAcc=2 IRadAn=         4 AccDes= 0.00D+00
 Harris functional with IExCor=  402 and IRadAn=       4 diagonalized for initial guess.
 HarFok:  IExCor=  402 AccDes= 0.00D+00 IRadAn=         4 IDoV= 1 UseB2=F ITyADJ=14
 ICtDFT=  3500011 ScaDFX=  1.000000  1.000000  1.000000  1.000000
 FoFCou: FMM=F IPFlag=           0 FMFlag=      100000 FMFlg1=           0
         NFxFlg=           0 DoJE=T BraDBF=F KetDBF=T FulRan=T
         wScrn=  0.000000 ICntrl=       500 IOpCl=  0 I1Cent=   200000004 NGrid=           0
         NMat0=    1 NMatS0=      1 NMatT0=    0 NMatD0=    1 NMtDS0=    0 NMtDT0=    0
 Petite list used in FoFCou.
 Requested convergence on RMS density matrix=1.00D-08 within 128 cycles.
 Requested convergence on MAX density matrix=1.00D-06.
 Requested convergence on             energy=1.00D-06.
 No special actions if energy rises.
 Integral accuracy reduced to 1.0D-05 until final iterations.
 Initial convergence to 1.0D-05 achieved.  Increase integral accuracy.
 SCF Done:  E(RB3LYP) =  -362.562880920     A.U. after   10 cycles
            NFock= 10  Conv=0.98D-08     -V/T= 2.0080
 PrsmSu:  requested number of processors reduced to:  13 ShMem   1 Linda.
[...]
 0.00000508,0.00001155,0.00001841,0.00000018,-0.01692180,0.00620085,-0.
 00870053,0.12023745,-0.07292929,0.13490515,0.00078984,0.00100224,-0.00
 047040,-0.00043642,-0.00135762,0.00279651,-0.02493604,-0.00582452,-0.0
 1308670,-0.14877626,-0.10290832,-0.06661717,0.00073333,0.00086962,-0.0
 0478424,0.00017085,-0.00036046,-0.00050206,-0.00010948,0.00016984,0.00
 036271,0.00001771,-0.00006127,-0.00016494,0.00024347,-0.00036682,-0.00
 008417,0.00048802,0.00006995,0.00056813,0.17221719,-0.00314871,0.00023
 604,-0.00024782,0.00163893,0.00050042,-0.00203745,0.01555762,0.0167150
 3,0.00965797,-0.10547964,-0.15406967,-0.06869987,0.00145439,-0.0006951
 9,0.00219279,-0.00007853,0.00004117,-0.00010405,-0.00006298,0.00000401
 ,-0.00001832,0.00000956,-0.00000955,-0.00003527,0.00035964,-0.00093336
 ,-0.00025035,0.00043458,0.00060277,0.00193384,0.10981776,0.16078525,0.
 00148214,-0.00031983,-0.00092053,-0.00260168,-0.00200288,0.00415664,-0
 .01798655,-0.00340208,-0.01010183,-0.06651654,-0.06702259,-0.09188615,
 0.00078802,0.00021118,-0.00269351,0.00017999,0.00000790,0.00015219,-0.
 00000316,-0.00000960,0.00006103,0.00001490,-0.00000007,-0.00002508,0.0
 0038310,0.00051362,0.00060427,0.00088761,-0.00056307,-0.00208012,0.080
 50779,0.07282054,0.09978094,-0.00209652,-0.00028343,0.00029052,-0.0034
 7211,0.00269728,-0.00347854,0.01254874,0.01463160,-0.02076725,-0.11818
 633,-0.07040603,0.10261438,-0.00023795,0.00041731,-0.00108242,-0.00060
 284,0.00040817,-0.00030289,0.00010233,-0.00004954,-0.00014267,-0.00002
 325,0.00003604,0.00013447,0.00061881,-0.00010537,0.00016385,0.00095059
 ,-0.00055045,0.00076008,-0.00932063,-0.00819608,0.01515206,0.12676671,
 0.00161838,0.00052370,-0.00011996,0.00247304,-0.00103189,0.00198182,-0
 .00973024,-0.01188952,0.01403138,-0.06257740,-0.11123690,0.09428281,-0
 .00137022,0.00083712,0.00016198,0.00051802,-0.00026732,0.00084102,-0.0
 0021200,-0.00001109,-0.00037084,0.00006540,-0.00006234,-0.00007641,-0.
 00020494,0.00011178,0.00006273,-0.00016667,-0.00007991,-0.00075506,-0.
 01000400,-0.00942954,0.01464074,0.06925032,0.12008414,-0.00208887,-0.0
 0008290,0.00071246,-0.00265440,0.00239373,-0.00174259,0.00924476,0.010
 54787,-0.01678645,0.09322916,0.09483401,-0.18359506,0.00175170,0.00088
 974,0.00007044,-0.00021537,-0.00005068,0.00035794,0.00008049,-0.000067
 75,0.00005351,-0.00005958,0.00003664,0.00010033,0.00026525,0.00007353,
 0.00007185,0.00019313,-0.00064425,0.00018929,-0.00644208,-0.00714676,0
 .01129856,-0.10223907,-0.10825271,0.20111726,0.00165040,0.00068194,-0.
 00158091,-0.00078837,-0.00490221,0.00332665,-0.02253623,0.02369594,0.0
 0276601,-0.10287433,0.07238409,0.06883505,0.00233118,0.00362748,0.0002
 5969,-0.00022797,-0.00037145,-0.00007600,-0.00028450,-0.00005483,0.000
 40642,-0.00001495,-0.00009053,-0.00015479,0.00014459,0.00024864,0.0002
 2482,0.00022156,-0.00028892,-0.00005380,0.01030614,-0.01357737,-0.0113
 2574,-0.00681649,0.01030224,0.00902160,0.11959984,-0.00233141,-0.00064
 793,0.00044730,0.00355714,0.00450889,-0.00560411,0.01728713,-0.0145613
 6,0.00496874,0.07251118,-0.14691516,-0.09128168,-0.00110252,-0.0022041
 1,-0.00045544,0.00051522,0.00011648,0.00044788,0.00012619,0.00003041,-
 0.00035305,0.00005017,0.00001613,0.00006192,-0.00040469,0.00051409,-0.
 00001047,-0.00078881,-0.00155977,-0.00037706,0.00915211,-0.01378573,-0
 .01441632,-0.00816890,0.01183787,0.00887104,-0.09055026,0.16237432,0.0
 0403170,-0.00128362,0.00081997,-0.00419515,-0.00253089,0.00415619,-0.0
 1266001,0.01712615,0.01205032,0.06800523,-0.09093884,-0.13345156,0.000
 58681,0.00202285,-0.00021633,-0.00044109,-0.00008409,-0.00057289,0.000
 04734,0.00003992,0.00021935,-0.00005389,0.00001792,0.00003946,-0.00023
 603,-0.00087329,-0.00071895,-0.00019544,0.00240031,0.00005846,0.007316
 94,-0.00824294,-0.00837048,0.00871454,-0.01521736,-0.01184025,-0.07154
 305,0.09840043,0.13736704,-0.00097521,-0.00060890,0.00089993,0.0029776
 0,0.00386837,-0.00301301,-0.02554981,0.01359084,-0.02876005,-0.0039392
 4,-0.00455372,0.00027396,-0.08891276,0.03513652,-0.08272415,0.00611726
 ,-0.00541837,0.01287315,0.00187887,0.00000514,0.00010500,0.00010889,-0
 .00006952,0.00018098,0.00006161,0.00002232,-0.00002426,0.00052995,-0.0
 0013909,-0.00013337,-0.00146689,0.00085156,-0.00071367,0.00021164,-0.0
 0019519,0.00016902,-0.00024998,0.00007251,-0.00004434,0.10833775,-0.00
 029075,-0.00014639,-0.00008364,-0.00170279,0.00042155,-0.00031769,-0.0
 0516537,0.00216112,-0.00588922,-0.00029776,0.00001231,0.00115623,0.043
 25493,-0.08696033,0.08337185,-0.00549712,0.00558056,-0.01437401,-0.001
 09886,0.00000454,0.00058443,-0.00023184,-0.00001063,-0.00010672,0.0000
 7835,-0.00004817,-0.00008261,0.00002240,0.00002608,0.00002579,0.000035
 22,0.00011829,-0.00026204,0.00002407,0.00010333,-0.00043700,-0.0001336
 5,-0.00002583,-0.00008902,-0.04326310,0.08778663,0.00025197,-0.0002122
 4,0.00046704,0.00411565,0.00096723,-0.00020089,-0.00128269,0.00062566,
 -0.00008021,0.00061203,-0.00036738,0.00016269,-0.09518390,0.08037528,-
 0.23146098,-0.01018201,0.00940544,-0.02467212,-0.00117451,0.00004358,0
 .00154731,0.00038685,-0.00017722,0.00007161,-0.00010209,-0.00017295,-0
 .00009415,0.00019358,0.00016011,0.00010217,0.00005390,0.00010973,0.000
 06321,0.00023228,-0.00012873,0.00008176,-0.00007182,-0.00005723,-0.000
 01262,0.09694180,-0.08725760,0.25344892,-0.00209143,-0.00026569,0.0022
 1461,-0.00036886,-0.00192949,-0.00644767,-0.01555472,-0.03664892,0.006
 29046,0.00267266,-0.00165705,0.00151250,-0.04922257,-0.01557063,-0.003
 64028,0.00195440,0.01434414,0.00016982,0.00140372,-0.00012206,-0.00049
 982,-0.00006693,0.00000137,0.00013959,-0.00024266,0.00062011,0.0003514
 8,0.00000946,-0.00025332,-0.00014698,0.00008052,0.00036630,-0.00021522
 ,-0.00020773,0.00018283,-0.00060041,-0.00037915,0.00024269,0.00048493,
 0.00224370,0.01351279,0.00112449,0.06094665,-0.00072030,-0.00007746,0.
 00025593,-0.00030570,-0.00080928,-0.00245554,-0.00759055,-0.00383382,0
 .00295728,0.00064859,0.00081901,0.00229259,-0.01782638,-0.29156910,0.0
 0194157,-0.00073712,-0.01681943,-0.00031627,-0.00019357,0.00171332,0.0
 0111455,0.00035039,0.00044240,-0.00013161,-0.00006665,-0.00003706,-0.0
 0004107,-0.00010974,0.00016865,0.00011571,-0.00021665,-0.00001318,-0.0
 0026221,0.00010471,0.00030384,-0.00078973,-0.00093405,0.00019959,-0.00
 056427,-0.00041067,-0.01010390,-0.00072290,0.02735859,0.31877223,0.000
 06755,-0.00052833,0.00001460,0.00166661,0.00121248,-0.00046593,-0.0015
 0717,0.00325739,0.00203131,-0.00057403,-0.00031541,0.00002189,-0.00008
 824,0.00291504,-0.05099857,0.00035202,-0.03089088,-0.00177998,-0.00166
 286,0.00109758,0.00123279,0.00002712,0.00007787,-0.00019658,0.00003056
 ,0.00015621,0.00003321,0.00014345,-0.00024005,-0.00014369,0.00026814,0
 .00014693,-0.00020365,-0.00035871,-0.00020710,-0.00022245,0.00005159,-
 0.00026456,0.00009417,0.00274371,0.02566210,0.00163584,-0.00317632,-0.
 00057074,0.05143460,0.00009751,0.00012039,-0.00012030,-0.00019214,-0.0
 0039648,-0.00002911,0.00128423,-0.00020469,-0.00104740,-0.00049014,0.0
 0012547,0.00051887,0.00708258,-0.00563073,0.01409835,-0.08939648,0.035
 02963,-0.08226209,-0.02448888,0.00714798,-0.03129126,0.00151439,0.0004
 5458,-0.00288214,0.00001273,0.00001189,0.00001054,-0.00004052,0.000000
 60,0.00002976,0.00000621,0.00009786,-0.00008549,-0.00041660,0.00033696
 ,0.00015889,-0.00003421,-0.00001096,0.00005255,-0.00145940,0.00157227,
 0.00283335,0.00038719,-0.00028142,-0.00101047,0.11073093,0.00004131,-0
 .00005545,0.00007904,0.00000312,0.00026226,0.00002903,-0.00041662,-0.0
 0027054,0.00080629,0.00015877,0.00010311,-0.00024607,-0.00606348,0.004
 38727,-0.01220682,0.03819199,-0.08212895,0.07505852,-0.00586192,0.0047
 6229,-0.01066956,0.00015445,0.00026882,0.00013652,-0.00001720,-0.00001
 148,-0.00001244,-0.00000391,0.00001201,-0.00002829,-0.00017967,-0.0000
 7749,0.00014754,0.00037283,0.00001594,-0.00003178,-0.00002237,0.000018
 69,-0.00011503,0.00116733,-0.00010152,-0.00242653,-0.00071793,0.001028
 23,0.00042795,-0.03795667,0.08399739,-0.00012446,-0.00008138,0.0001117
 3,0.00061122,0.00029106,0.00028862,-0.00059249,-0.00011818,0.00148288,
 0.00025388,0.00100291,-0.00065102,-0.01169778,0.00951733,-0.02410422,-
 0.08807871,0.07233786,-0.22021339,-0.00234556,-0.00187523,-0.00000710,
 0.00117718,-0.00077363,0.00102720,0.00003057,-0.00005725,-0.00002190,0
 .00014137,0.00000499,0.00004256,0.00020030,-0.00011338,0.00014391,0.00
 027102,-0.00076921,0.00025356,-0.00000264,-0.00030750,0.00030511,0.002
 63026,-0.00292770,-0.00278493,-0.00009139,-0.00006133,0.00131496,0.097
 96119,-0.07741746,0.24125490,0.00004065,0.00004823,0.00000217,-0.00021
 543,-0.00017086,0.00023467,0.00182751,-0.00015068,-0.00127402,-0.00014
 525,0.00033242,-0.00013304,0.00082220,0.01540166,0.00051438,-0.0501490
 2,-0.01317019,-0.00133741,-0.01853963,-0.03898138,0.00309328,0.0035843
 7,-0.00377367,-0.00497856,-0.00000410,0.00000417,0.00002315,0.00000011
 ,-0.00000178,-0.00000441,-0.00005790,-0.00000429,0.00002320,0.00013995
 ,-0.00011498,0.00013233,-0.00003721,-0.00011017,0.00004128,0.00051861,
 -0.00083228,-0.00024610,-0.00146972,0.00110090,0.00301688,0.00207064,0
 .01334385,-0.00045344,0.05977856,0.00019573,0.00006063,-0.00013160,0.0
 0038730,0.00025868,-0.00018733,0.00011682,0.00208049,0.00096011,0.0001
 1237,-0.00030071,0.00014208,-0.00119874,-0.01519612,0.00045791,-0.0099
 1165,-0.27386829,0.00468251,-0.01319905,-0.00905207,-0.00150048,0.0011
 7096,0.00188931,-0.00138822,0.00002223,0.00003851,0.00000681,-0.000012
 76,-0.00008571,-0.00006845,0.00015459,0.00000129,-0.00006833,-0.000114
 46,0.00009307,-0.00013048,-0.00010228,0.00008948,-0.00001897,-0.000311
 16,0.00092049,-0.00004381,0.00054255,0.00013473,-0.00240959,0.00049372
 ,-0.01255126,0.00064914,0.02371938,0.30375545,0.00006156,0.00001523,-0
 .00014610,0.00003544,0.00030761,0.00015910,-0.00165311,0.00110233,0.00
 114684,0.00001917,0.00030325,-0.00006618,0.00010354,-0.02927298,-0.001
 53471,-0.00005658,0.00690244,-0.05257819,0.00098584,-0.00135109,0.0023
 1311,-0.00042785,0.00238731,0.00092362,0.00001775,-0.00000644,0.000001
 19,-0.00002337,-0.00003332,-0.00001839,0.00000020,0.00000444,0.0000263
 9,0.00007487,-0.00015027,-0.00004400,-0.00019711,-0.00001925,0.0000667
 0,-0.00082543,0.00038060,0.00144322,0.00263931,-0.00285270,-0.00391346
 ,0.00051903,0.02721380,-0.00079719,-0.00066660,-0.00314936,0.05255658,
 0.00001215,-0.00001137,0.00000099,0.00005471,-0.00005167,0.00019165,0.
 00039343,-0.00040004,0.00045450,0.00017153,0.00030012,-0.00023388,0.00
 035974,0.00059861,-0.00195583,-0.02147622,0.01408294,-0.03318470,-0.13
 166818,0.04812790,-0.13367207,0.00923056,-0.00538098,0.02016217,0.0000
 1519,-0.00000791,-0.00000829,0.00004266,-0.00000508,0.00001016,0.00010
 607,-0.00004355,0.00003881,0.00001482,-0.00016589,0.00004022,0.0000397
 3,-0.00007653,0.00008412,-0.00028332,-0.00006045,0.00158152,0.00001463
 ,0.00000816,0.00009378,-0.00698400,-0.00252731,0.00085939,0.00149812,-
 0.00051668,0.00014861,0.14937793,-0.00003097,-0.00001388,0.00002363,-0
 .00002067,-0.00012257,-0.00013632,-0.00003247,-0.00025752,-0.00031359,
 -0.00001767,-0.00010994,0.00005730,0.00091731,0.00082998,0.00072586,-0
 .01329426,-0.00186297,-0.01119226,0.07124610,-0.05657549,0.12829390,-0
 .00271009,-0.00175392,-0.01805714,-0.00000761,0.00001649,0.00000967,-0
 .00000382,0.00001758,0.00001233,-0.00005214,0.00000444,-0.00002360,-0.
 00002527,0.00005143,0.00001862,0.00003326,0.00000158,-0.00003306,0.000
 19708,0.00037788,-0.00014623,0.00027884,-0.00047948,0.00011282,-0.0006
 3914,0.00056679,0.00019921,-0.00003168,0.00119140,-0.00113586,-0.05515
 921,0.05645096,0.00000778,0.00000359,-0.00000614,-0.00005423,-0.000015
 72,-0.00003148,-0.00017995,-0.00016274,-0.00015884,0.00003373,-0.00012
 041,-0.00000633,0.00093577,-0.00016652,0.00206101,-0.00024433,0.002061
 73,0.00042759,-0.13343234,0.08690915,-0.30282094,-0.01300136,0.0127627
 6,-0.02853641,-0.00000228,0.00000315,0.00000442,-0.00001130,0.00000624
 ,0.00000137,-0.00001804,0.00002948,-0.00002704,0.00001363,0.00004052,-
 0.00004389,0.00002919,0.00000186,-0.00000098,-0.00038739,0.00054316,-0
 .00009896,-0.00000473,-0.00010730,-0.00002220,0.00074446,-0.00074988,0
 .00148374,0.00101865,0.00002973,0.00021524,0.14106835,-0.09836491,0.32
 858324,0.00003802,0.00001549,-0.00002262,0.00000129,-0.00005284,0.0000
 5278,0.00006470,0.00007851,-0.00018335,-0.00004017,-0.00000478,-0.0000
 0227,0.00012928,0.00002499,0.00046778,0.00205454,-0.00109268,0.0015111
 6,0.00716884,-0.00654306,0.01748445,-0.09110545,0.04367507,-0.08724621
 ,0.00000500,0.00000597,-0.00000060,0.00000044,-0.00000017,0.00000071,-
 0.00000100,0.00000505,-0.00000099,-0.00001402,0.00002717,-0.00000594,0
 .00001087,0.00000197,-0.00001580,-0.00014719,0.00004344,-0.00011076,-0
 .00000724,-0.00000584,-0.00000502,0.00015204,0.00030593,-0.00075067,-0
 .00027057,0.00020015,-0.00016975,-0.00126340,0.00041846,0.00414110,0.0
 9278095,0.00002258,-0.00000250,-0.00000024,-0.00004385,-0.00001387,0.0
 0004117,0.00000060,-0.00003344,0.00005184,0.00001179,0.00000957,0.0000
 1227,-0.00031813,0.00009181,-0.00023571,-0.00010270,0.00012628,0.00016
 868,-0.00634412,0.00662261,-0.01315193,0.04439105,-0.09466248,0.090659
 45,0.00000114,0.00000156,-0.00000177,-0.00000158,0.00000118,-0.0000012
 1,-0.00000679,-0.00000691,0.00000622,0.00000260,0.00002469,0.00000104,
 0.00000232,0.00000118,-0.00001298,0.00006846,-0.00007360,-0.00001209,0
 .00000864,-0.00002728,-0.00003013,-0.00022654,0.00014831,0.00031562,0.
 00029601,-0.00021804,0.00010216,0.00141525,0.00031983,-0.00288988,-0.0
 4904120,0.09797799,0.00003067,0.00001503,-0.00002636,0.00000577,-0.000
 07991,0.00011936,0.00015748,-0.00005653,-0.00006979,0.00000323,0.00008
 489,-0.00009024,0.00014146,-0.00014646,0.00035343,-0.00279198,0.000158
 69,0.00022502,-0.00871166,0.00521722,-0.03164515,-0.08130885,0.0857567
 8,-0.21441032,0.00000755,0.00000258,-0.00000063,0.00001337,-0.00000419
 ,0.00000310,0.00003161,-0.00000484,0.00001034,-0.00000667,-0.00000774,
 -0.00000870,0.00002437,-0.00001608,0.00000840,-0.00010684,0.00004720,0
 .00031633,-0.00003151,0.00001074,-0.00001347,0.00119202,0.00001059,0.0
 0050591,0.00040547,0.00025912,0.00000664,0.00455015,-0.00014279,-0.003
 51726,0.08772260,-0.09216545,0.24657388,-0.00001815,-0.00001000,0.0000
 2121,-0.00004017,-0.00001146,-0.00003343,-0.00009573,-0.00012170,0.000
 09399,0.00000889,-0.00001441,0.00001474,-0.00008834,-0.00002217,0.0000
 8417,0.00424323,0.00433734,-0.00047810,-0.00226023,0.01950780,0.008356
 78,-0.05280885,-0.01226325,-0.00150376,-0.00000531,0.00000084,0.000003
 94,-0.00000278,0.00000395,0.00000024,-0.00001762,-0.00000012,-0.000000
 43,0.00000989,0.00000253,0.00000591,-0.00000377,-0.00000067,-0.0000013
 0,0.00002390,0.00000748,-0.00005895,-0.00004225,-0.00026502,-0.0001318
 9,-0.00024728,0.00000311,-0.00002724,0.00058661,-0.00156970,-0.0005649
 2,-0.00011584,-0.00073367,-0.00093191,0.00104344,0.01387671,-0.0001571
 7,0.05015451,0.00016278,0.00005586,-0.00006632,-0.00003845,-0.00014114
 ,0.00029640,0.00028113,0.00005262,-0.00043161,-0.00005951,0.00005962,-
 0.00006494,-0.00008100,0.00050010,0.00025042,-0.00258259,0.00204327,0.
 00017263,0.00670730,-0.01101731,-0.01340799,-0.01274300,-0.27591405,-0
 .01186848,0.00002330,0.00000949,-0.00001187,0.00001199,-0.00001360,-0.
 00000573,0.00005433,0.00001184,0.00000443,-0.00003741,0.00001697,-0.00
 003197,0.00003532,-0.00000446,-0.00000510,-0.00001790,-0.00002795,0.00
 006136,-0.00025051,0.00016738,0.00027044,0.00019511,-0.00028639,0.0003
 2575,0.00252898,0.00032399,-0.00047542,0.00042007,0.00098572,-0.000282
 57,-0.00183824,-0.01422458,0.00033955,0.00788059,0.30647162,0.00011346
 ,0.00003270,-0.00006276,0.00000655,-0.00009190,0.00023101,0.00019890,0
 .00017664,-0.00032630,-0.00005489,0.00009392,-0.00006842,-0.00016401,0
 .00005724,0.00016324,-0.00515764,-0.00180713,0.00074974,0.00836074,-0.
 03408591,-0.01082632,-0.00157195,-0.01270192,-0.05153239,0.00001939,0.
 00000488,-0.00000916,0.00000978,-0.00000358,-0.00000034,0.00003359,0.0
 0000263,0.00000994,-0.00002617,0.00001347,-0.00001968,0.00002339,-0.00
 001131,-0.00000887,-0.00001871,-0.00004154,0.00002941,-0.00009191,0.00
 026648,0.00016125,0.00042348,0.00030412,-0.00008067,0.00061057,0.00185
 026,0.00024574,0.00004036,-0.00077086,0.00137413,0.00171330,0.02616342
 ,0.00253257,-0.00334332,0.02417429,0.05726232,-0.00018644,-0.00005960,
 0.00008482,0.00003003,0.00028967,-0.00028211,-0.00049923,-0.00006664,0
 .00056407,0.00008455,-0.00009928,0.00009864,-0.00012563,-0.00084320,-0
 .00082648,0.00066131,0.00184191,0.00413680,-0.01840140,-0.00217685,0.0
 0040633,-0.28382062,-0.07270716,-0.02015319,-0.00002579,-0.00002484,0.
 00000074,-0.00001374,0.00000236,-0.00000131,-0.00003711,-0.00000196,-0
 .00000813,0.00003099,-0.00003535,0.00001326,-0.00005715,0.00002860,0.0
 0002066,-0.00002599,0.00002301,0.00008541,-0.00005968,0.00009230,0.000
 05331,0.00041120,0.00002439,0.00002799,0.00002149,-0.00017932,-0.00002
 056,0.00045970,-0.00033235,0.00027521,-0.01060038,-0.00401225,-0.00117
 108,-0.00032415,-0.00065229,-0.00112489,0.31247805,0.00003794,0.000027
 47,-0.00002077,0.00002654,-0.00005891,0.00002438,0.00017263,-0.0000636
 5,-0.00023198,-0.00001662,0.00001071,-0.00003018,0.00040173,0.00072214
 ,-0.00000540,0.00067354,-0.00026377,-0.00171106,0.01429635,0.00307860,
 0.00144662,-0.07742449,-0.07218510,-0.00733614,0.00000669,0.00000722,0
 .00000167,0.00000271,-0.00000450,-0.00000128,0.00001259,0.00000006,0.0
 0000046,-0.00000800,0.00000465,-0.00000020,0.00001669,-0.00000435,0.00
 000188,0.00000750,-0.00001444,-0.00002349,-0.00004325,0.00002059,0.000
 11998,-0.00023983,-0.00008801,-0.00014162,0.00056637,0.00043468,-0.000
 27247,-0.00054639,0.00036171,0.00046857,0.01377660,0.00393771,0.000721
 62,-0.03060817,-0.00906900,-0.00362588,0.07888886,0.07314617,0.0001263
 2,0.00006668,-0.00007059,0.00002043,-0.00022889,0.00013712,0.00050598,
 -0.00004806,-0.00063451,-0.00004956,0.00007278,-0.00010693,0.00111916,
 0.00061831,0.00096677,0.00133508,-0.00192235,-0.00524377,0.03307468,0.
 00655500,0.00004364,-0.02794763,-0.00808797,-0.05087928,0.00002073,0.0
 0002391,0.00000792,0.00000718,-0.00000844,-0.00000397,0.00003000,0.000
 00269,0.00000097,-0.00001733,-0.00000107,-0.00000388,0.00003709,-0.000
 02511,0.00000778,-0.00006660,0.00009744,0.00003535,0.00001906,-0.00007
 916,-0.00001465,0.00018577,-0.00030953,0.00044535,-0.00002244,0.000058
 94,-0.00000616,-0.00026999,0.00086329,0.00111975,-0.02457991,-0.009020
 48,-0.00087307,-0.00134855,0.00075673,0.00017556,0.01782054,0.01061530
 ,0.05489661\\0.00000264,-0.00000275,-0.00000054,0.00000479,0.00000984,
 -0.00000820,-0.00000911,-0.00000664,0.00000416,0.00000156,0.00000103,0
 .00000683,0.00000207,-0.00000138,0.00000433,0.00000228,-0.00000291,-0.
 00000245,-0.00000011,0.00000519,0.00000046,-0.00000177,-0.00000048,0.0
 0000147,-0.00000020,-0.00000158,-0.00000169,-0.00000101,0.00000126,0.0
 0000039,-0.00000082,0.00000276,-0.00000176,-0.00000184,-0.00000184,-0.
 00000215,-0.00000022,-0.00000216,0.00000079,0.00000021,-0.00000056,0.0
 0000015,0.00000009,-0.00000076,-0.00000133,0.00000115,0.00000114,0.000
 00071,0.00000122,0.00000055,-0.00000066,-0.00000079,-0.00000223,-0.000
 00049,-0.00000049,0.00000080,0.00000073,0.00000044,-0.00000015,-0.0000
 0073,-0.00000012,0.00000087,0.\\\@


 IT WAS A GAME, A VERY INTERESTING GAME ONE COULD
 PLAY.  WHENEVER ONE SOLVED ONE OF THE LITTLE PROBLEMS,
 ONE COULD WRITE A PAPER ABOUT IT.  IT WAS VERY EASY IN
 THOSE DAYS FOR ANY SECOND-RATE PHYSICIST TO DO
 FIRST-RATE WORK.  THERE HAS NOT BEEN SUCH A GLORIOUS
 TIME SINCE.  IT IS VERY DIFFICULT NOW FOR A FIRST-RATE
 PHYSICIST TO DO SECOND-RATE WORK.
     P.A.M. DIRAC, ON THE EARLY DAYS OF QUANTUM MECHANICS
                   DIRECTIONS IN PHYSICS, 1978, P. 7
 Job cpu time:       0 days  1 hours 31 minutes  4.1 seconds.
 Elapsed time:       0 days  0 hours 22 minutes 46.1 seconds.
 File lengths (MBytes):  RWF=    135 Int=      0 D2E=      0 Chk=      8 Scr=      1
 Normal termination of Gaussian 16 at Tue Jun  1 08:24:42 2021.
### All Done ###
