### Starting Gaussian ###
 Entering Gaussian System, Link 0=g16
 Initial command:
 /cluster/software/gaussian/gaussian-16-A.03/avx2/g16/l1.exe "/local/scratch/cz9n3/Gau-22506.inp" -scrdir="/local/scratch/cz9n3/"
 Entering Link 1 = /cluster/software/gaussian/gaussian-16-A.03/avx2/g16/l1.exe PID=     22507.
  
 Copyright (c) 1988,1990,1992,1993,1995,1998,2003,2009,2016,
            Gaussian, Inc.  All Rights Reserved.
  
 This is part of the Gaussian(R) 16 program.  It is based on
 the Gaussian(R) 09 system (copyright 2009, Gaussian, Inc.),
 the Gaussian(R) 03 system (copyright 2003, Gaussian, Inc.),
 the Gaussian(R) 98 system (copyright 1998, Gaussian, Inc.),
 the Gaussian(R) 94 system (copyright 1995, Gaussian, Inc.),
 the Gaussian 92(TM) system (copyright 1992, Gaussian, Inc.),
 the Gaussian 90(TM) system (copyright 1990, Gaussian, Inc.),
 the Gaussian 88(TM) system (copyright 1988, Gaussian, Inc.),
 the Gaussian 86(TM) system (copyright 1986, Carnegie Mellon
 University), and the Gaussian 82(TM) system (copyright 1983,
 Carnegie Mellon University). Gaussian is a federally registered
 trademark of Gaussian, Inc.
  
 This software contains proprietary and confidential information,
 including trade secrets, belonging to Gaussian, Inc.
  
 This software is provided under written license and may be
 used, copied, transmitted, or stored only in accord with that
 written license.
  
 The following legend is applicable only to US Government
 contracts under FAR:
  
                    RESTRICTED RIGHTS LEGEND
  
 Use, reproduction and disclosure by the US Government is
 subject to restrictions as set forth in subparagraphs (a)
 and (c) of the Commercial Computer Software - Restricted
 Rights clause in FAR 52.227-19.
  
 Gaussian, Inc.
 340 Quinnipiac St., Bldg. 40, Wallingford CT 06492
  
  
 ---------------------------------------------------------------
 Warning -- This program may not be used in any manner that
 competes with the business of Gaussian, Inc. or will provide
 assistance to any competitor of Gaussian, Inc.  The licensee
 of this program is prohibited from giving any competitor of
 Gaussian, Inc. access to this program.  By using this program,
 the user acknowledges that Gaussian, Inc. is engaged in the
 business of creating and licensing software in the field of
 computational chemistry and represents and warrants to the
 licensee that it is not a competitor of Gaussian, Inc. and that
 it will not use this program in any manner prohibited above.
 ---------------------------------------------------------------
  

 Cite this work as:
 Gaussian 16, Revision A.03,
 M. J. Frisch, G. W. Trucks, H. B. Schlegel, G. E. Scuseria, 
 M. A. Robb, J. R. Cheeseman, G. Scalmani, V. Barone, 
 G. A. Petersson, H. Nakatsuji, X. Li, M. Caricato, A. V. Marenich, 
 J. Bloino, B. G. Janesko, R. Gomperts, B. Mennucci, H. P. Hratchian, 
 J. V. Ortiz, A. F. Izmaylov, J. L. Sonnenberg, D. Williams-Young, 
 F. Ding, F. Lipparini, F. Egidi, J. Goings, B. Peng, A. Petrone, 
 T. Henderson, D. Ranasinghe, V. G. Zakrzewski, J. Gao, N. Rega, 
 G. Zheng, W. Liang, M. Hada, M. Ehara, K. Toyota, R. Fukuda, 
 J. Hasegawa, M. Ishida, T. Nakajima, Y. Honda, O. Kitao, H. Nakai, 
 T. Vreven, K. Throssell, J. A. Montgomery, Jr., J. E. Peralta, 
 F. Ogliaro, M. J. Bearpark, J. J. Heyd, E. N. Brothers, K. N. Kudin, 
 V. N. Staroverov, T. A. Keith, R. Kobayashi, J. Normand, 
 K. Raghavachari, A. P. Rendell, J. C. Burant, S. S. Iyengar, 
 J. Tomasi, M. Cossi, J. M. Millam, M. Klene, C. Adamo, R. Cammi, 
 J. W. Ochterski, R. L. Martin, K. Morokuma, O. Farkas, 
 J. B. Foresman, and D. J. Fox, Gaussian, Inc., Wallingford CT, 2016.
 
 ******************************************
 Gaussian 16:  ES64L-G16RevA.03 25-Dec-2016
                 1-Jun-2021 
 ******************************************
 %chk=CdNNpCpCNdN.chk
 %NProcShared=20
 Will use up to   20 processors via shared memory.
 -----------------------------
 # opt freq b3lyp/6-31g(2df,p)
 -----------------------------
 1/18=20,19=15,26=3,38=1/1,3;
 2/9=110,12=2,17=6,18=5,40=1/2;
 3/5=1,6=6,7=104,11=2,25=1,30=1,71=1,74=-5/1,2,3;
 4//1;
 5/5=2,38=5/2;
 6/7=2,8=2,9=2,10=2,28=1/1;
 7//1,2,3,16;
 1/18=20,19=15,26=3/3(2);
 2/9=110/2;
 99//99;
 2/9=110/2;
 3/5=1,6=6,7=104,11=2,25=1,30=1,71=1,74=-5/1,2,3;
 4/5=5,16=3,69=1/1;
 5/5=2,38=5/2;
 7//1,2,3,16;
 1/18=20,19=15,26=3/3(-5);
 2/9=110/2;
 6/7=2,8=2,9=2,10=2,19=2,28=1/1;
 99/9=1/99;
 -------------------
 Title Card Required
 -------------------
 Symbolic Z-matrix:
 Charge =  0 Multiplicity = 1
 C                     0.99984   0.04315  -0.00235 
 N                     2.28941   0.04486  -0.07253 
 N                     2.88794   0.07443  -1.28919 
 C                     2.24622   0.10615  -2.59383 
 C                     4.3655    0.07593  -1.351 
 N                     4.92438   0.10935  -2.72545 
 N                     6.16908   0.11051  -2.77332 
 H                     0.51736   0.0191    0.9868 
 H                     0.30305   0.06379  -0.85132 
 H                     1.15681   0.10559  -2.57094 
 H                     2.52852  -0.7747   -3.18043 
 H                     2.52852   1.01445  -3.13694 
 H                     4.74054  -0.82169  -0.84209 
 H                     4.74054   0.94777  -0.79907 
 H                     6.49942   0.13421  -3.7483 
 

 GradGradGradGradGradGradGradGradGradGradGradGradGradGradGradGradGradGrad
 Berny optimization.
 Initialization pass.
                           ----------------------------
                           !    Initial Parameters    !
                           ! (Angstroms and Degrees)  !
 --------------------------                            --------------------------
 ! Name  Definition              Value          Derivative Info.                !
 --------------------------------------------------------------------------------
 ! R1    R(1,2)                  1.2915         estimate D2E/DX2                !
 ! R2    R(1,8)                  1.1008         estimate D2E/DX2                !
 ! R3    R(1,9)                  1.0985         estimate D2E/DX2                !
 ! R4    R(2,3)                  1.3562         estimate D2E/DX2                !
 ! R5    R(3,4)                  1.4543         estimate D2E/DX2                !
 ! R6    R(3,5)                  1.4789         estimate D2E/DX2                !
 ! R7    R(4,10)                 1.0897         estimate D2E/DX2                !
 ! R8    R(4,11)                 1.0953         estimate D2E/DX2                !
 ! R9    R(4,12)                 1.0953         estimate D2E/DX2                !
 ! R10   R(5,6)                  1.4841         estimate D2E/DX2                !
 ! R11   R(5,13)                 1.0979         estimate D2E/DX2                !
 ! R12   R(5,14)                 1.0979         estimate D2E/DX2                !
 ! R13   R(6,7)                  1.2456         estimate D2E/DX2                !
 ! R14   R(7,15)                 1.0297         estimate D2E/DX2                !
 ! A1    A(2,1,8)              119.1111         estimate D2E/DX2                !
 ! A2    A(2,1,9)              126.2531         estimate D2E/DX2                !
 ! A3    A(8,1,9)              114.6358         estimate D2E/DX2                !
 ! A4    A(1,2,3)              119.3039         estimate D2E/DX2                !
 ! A5    A(2,3,4)              127.6273         estimate D2E/DX2                !
 ! A6    A(2,3,5)              118.5841         estimate D2E/DX2                !
 ! A7    A(4,3,5)              113.7886         estimate D2E/DX2                !
 ! A8    A(3,4,10)             114.9807         estimate D2E/DX2                !
 ! A9    A(3,4,11)             110.4374         estimate D2E/DX2                !
 ! A10   A(3,4,12)             110.4381         estimate D2E/DX2                !
 ! A11   A(10,4,11)            105.576          estimate D2E/DX2                !
 ! A12   A(10,4,12)            105.5765         estimate D2E/DX2                !
 ! A13   A(11,4,12)            109.5676         estimate D2E/DX2                !
 ! A14   A(3,5,6)              114.5179         estimate D2E/DX2                !
 ! A15   A(3,5,13)             108.7294         estimate D2E/DX2                !
 ! A16   A(3,5,14)             108.729          estimate D2E/DX2                !
 ! A17   A(6,5,13)             108.6059         estimate D2E/DX2                !
 ! A18   A(6,5,14)             108.6055         estimate D2E/DX2                !
 ! A19   A(13,5,14)            107.4292         estimate D2E/DX2                !
 ! A20   A(5,6,7)              114.3249         estimate D2E/DX2                !
 ! A21   A(6,7,15)             110.9152         estimate D2E/DX2                !
 ! D1    D(8,1,2,3)            179.9994         estimate D2E/DX2                !
 ! D2    D(9,1,2,3)             -0.0007         estimate D2E/DX2                !
 ! D3    D(2,1,8,9)            179.9999         estimate D2E/DX2                !
 ! D4    D(1,2,3,4)              0.0008         estimate D2E/DX2                !
 ! D5    D(1,2,3,5)           -179.9997         estimate D2E/DX2                !
 ! D6    D(2,3,4,10)            -0.0008         estimate D2E/DX2                !
 ! D7    D(2,3,4,11)          -119.3243         estimate D2E/DX2                !
 ! D8    D(2,3,4,12)           119.3238         estimate D2E/DX2                !
 ! D9    D(5,3,4,10)           179.9997         estimate D2E/DX2                !
 ! D10   D(5,3,4,11)            60.6762         estimate D2E/DX2                !
 ! D11   D(5,3,4,12)           -60.6757         estimate D2E/DX2                !
 ! D12   D(2,3,5,6)           -179.9994         estimate D2E/DX2                !
 ! D13   D(2,3,5,13)            58.3372         estimate D2E/DX2                !
 ! D14   D(2,3,5,14)           -58.3368         estimate D2E/DX2                !
 ! D15   D(4,3,5,6)              0.0002         estimate D2E/DX2                !
 ! D16   D(4,3,5,13)          -121.6632         estimate D2E/DX2                !
 ! D17   D(4,3,5,14)           121.6628         estimate D2E/DX2                !
 ! D18   D(3,5,6,7)           -179.9999         estimate D2E/DX2                !
 ! D19   D(13,5,6,7)           -58.269          estimate D2E/DX2                !
 ! D20   D(14,5,6,7)            58.2699         estimate D2E/DX2                !
 ! D21   D(5,6,7,15)           179.9996         estimate D2E/DX2                !
 --------------------------------------------------------------------------------
 Trust Radius=3.00D-01 FncErr=1.00D-07 GrdErr=1.00D-06 EigMax=2.50D+02 EigMin=1.00D-04
 Number of steps in this run=     66 maximum allowed number of steps=    100.
 GradGradGradGradGradGradGradGradGradGradGradGradGradGradGradGradGradGrad

                          Input orientation:                          
 ---------------------------------------------------------------------
 Center     Atomic      Atomic             Coordinates (Angstroms)
 Number     Number       Type             X           Y           Z
 ---------------------------------------------------------------------
      1          6           0        0.999840    0.043150   -0.002350
      2          7           0        2.289410    0.044860   -0.072530
      3          7           0        2.887940    0.074430   -1.289190
      4          6           0        2.246220    0.106150   -2.593830
      5          6           0        4.365500    0.075930   -1.351000
      6          7           0        4.924380    0.109350   -2.725450
      7          7           0        6.169080    0.110510   -2.773320
      8          1           0        0.517360    0.019100    0.986800
      9          1           0        0.303050    0.063790   -0.851320
     10          1           0        1.156810    0.105590   -2.570940
     11          1           0        2.528520   -0.774700   -3.180430
     12          1           0        2.528520    1.014450   -3.136940
     13          1           0        4.740540   -0.821690   -0.842090
     14          1           0        4.740540    0.947770   -0.799070
     15          1           0        6.499420    0.134210   -3.748300
 ---------------------------------------------------------------------
                    Distance matrix (angstroms):
                    1          2          3          4          5
     1  C    0.000000
     2  N    1.291479   0.000000
     3  N    2.285138   1.356235   0.000000
     4  C    2.876317   2.522415   1.454268   0.000000
     5  C    3.625962   2.438360   1.478853   2.457008   0.000000
     6  N    4.777203   3.739681   2.492218   2.681394   1.484108
     7  N    5.865480   4.727623   3.601364   3.926967   2.297192
     8  H    1.100810   2.064705   3.286768   3.977115   4.502968
     9  H    1.098496   2.133658   2.621736   2.610373   4.093083
    10  H    2.574139   2.743815   2.154220   1.089651   3.432903
    11  H    3.620212   3.223026   2.104042   1.095303   2.728531
    12  H    3.620213   3.223025   2.104044   1.095295   2.728534
    13  H    3.930133   2.711304   2.105957   3.186081   1.097892
    14  H    3.930132   2.711300   2.105960   3.186082   1.097901
    15  H    6.654759   5.589584   4.369621   4.407187   3.209994
                    6          7          8          9         10
     6  N    0.000000
     7  N    1.245621   0.000000
     8  H    5.762879   6.788873   0.000000
     9  H    4.987096   6.173052   1.851111   0.000000
    10  H    3.770739   5.016356   3.615784   1.920351   0.000000
    11  H    2.593973   3.768688   4.694751   3.328744   1.740108
    12  H    2.593969   3.768687   4.694754   3.328743   1.740107
    13  H    2.108952   2.576698   4.678356   4.524984   4.085571
    14  H    2.108954   2.576702   4.678355   4.524983   4.085574
    15  H    1.878188   1.029695   7.630168   6.840501   5.470875
                   11         12         13         14         15
    11  H    0.000000
    12  H    1.789678   0.000000
    13  H    3.219173   3.678421   0.000000
    14  H    3.678425   3.219179   1.769983   0.000000
    15  H    4.112984   4.112983   3.528946   3.528951   0.000000
 Stoichiometry    C3H8N4
 Framework group  C1[X(C3H8N4)]
 Deg. of freedom    39
 Full point group                 C1      NOp   1
 Largest Abelian subgroup         C1      NOp   1
 Largest concise Abelian subgroup C1      NOp   1
                         Standard orientation:                         
 ---------------------------------------------------------------------
 Center     Atomic      Atomic             Coordinates (Angstroms)
 Number     Number       Type             X           Y           Z
 ---------------------------------------------------------------------
      1          6           0        2.852361   -0.236497    0.000000
      2          7           0        1.690022   -0.799422   -0.000004
      3          7           0        0.577094   -0.024331    0.000002
      4          6           0        0.506755    1.428235   -0.000002
      5          6           0       -0.745681   -0.685599    0.000004
      6          7           0       -1.900333    0.246794   -0.000003
      7          7           0       -3.012607   -0.313934   -0.000000
      8          1           0        3.753565   -0.868648    0.000005
      9          1           0        3.050888    0.843910   -0.000001
     10          1           0        1.471056    1.935642    0.000002
     11          1           0       -0.013809    1.785941    0.894844
     12          1           0       -0.013810    1.785945   -0.894835
     13          1           0       -0.816955   -1.331419    0.884991
     14          1           0       -0.816952   -1.331423   -0.884992
     15          1           0       -3.773829    0.379473    0.000001
 ---------------------------------------------------------------------
 Rotational constants (GHZ):           8.3607842           1.3501885           1.1797899
 Standard basis: 6-31G(2df,p) (6D, 7F)
 There are   257 symmetry adapted cartesian basis functions of A   symmetry.
 There are   236 symmetry adapted basis functions of A   symmetry.
   236 basis functions,   364 primitive gaussians,   257 cartesian basis functions
    27 alpha electrons       27 beta electrons
       nuclear repulsion energy       295.9453518275 Hartrees.
 NAtoms=   15 NActive=   15 NUniq=   15 SFac= 1.00D+00 NAtFMM=   60 NAOKFM=F Big=F
 Integral buffers will be    131072 words long.
 Raffenetti 2 integral format.
 Two-electron integral symmetry is turned on.
 One-electron integrals computed using PRISM.
 PrsmSu:  requested number of processors reduced to:  13 ShMem   1 Linda.
 NBasis=   236 RedAO= T EigKep=  2.42D-04  NBF=   236
 NBsUse=   236 1.00D-06 EigRej= -1.00D+00 NBFU=   236
 ExpMin= 1.61D-01 ExpMax= 4.17D+03 ExpMxC= 6.27D+02 IAcc=3 IRadAn=         5 AccDes= 0.00D+00
 Harris functional with IExCor=  402 and IRadAn=       5 diagonalized for initial guess.
 HarFok:  IExCor=  402 AccDes= 0.00D+00 IRadAn=         5 IDoV= 1 UseB2=F ITyADJ=14
 ICtDFT=  3500011 ScaDFX=  1.000000  1.000000  1.000000  1.000000
 FoFCou: FMM=F IPFlag=           0 FMFlag=      100000 FMFlg1=           0
         NFxFlg=           0 DoJE=T BraDBF=F KetDBF=T FulRan=T
         wScrn=  0.000000 ICntrl=       500 IOpCl=  0 I1Cent=   200000004 NGrid=           0
         NMat0=    1 NMatS0=      1 NMatT0=    0 NMatD0=    1 NMtDS0=    0 NMtDT0=    0
 Petite list used in FoFCou.
 Requested convergence on RMS density matrix=1.00D-08 within 128 cycles.
 Requested convergence on MAX density matrix=1.00D-06.
 Requested convergence on             energy=1.00D-06.
 No special actions if energy rises.
 Integral accuracy reduced to 1.0D-05 until final iterations.
 Initial convergence to 1.0D-05 achieved.  Increase integral accuracy.
 SCF Done:  E(RB3LYP) =  -338.026771365     A.U. after   14 cycles
            NFock= 14  Conv=0.82D-08     -V/T= 2.0083

 **********************************************************************

            Population analysis using the SCF density.

 **********************************************************************

 Orbital symmetries:
       Occupied  (A) (A) (A) (A) (A) (A) (A) (A) (A) (A) (A) (A)
                 (A) (A) (A) (A) (A) (A) (A) (A) (A) (A) (A) (A)
                 (A) (A) (A)
       Virtual   (A) (A) (A) (A) (A) (A) (A) (A) (A) (A) (A) (A)
                 (A) (A) (A) (A) (A) (A) (A) (A) (A) (A) (A) (A)
                 (A) (A) (A) (A) (A) (A) (A) (A) (A) (A) (A) (A)
                 (A) (A) (A) (A) (A) (A) (A) (A) (A) (A) (A) (A)
                 (A) (A) (A) (A) (A) (A) (A) (A) (A) (A) (A) (A)
                 (A) (A) (A) (A) (A) (A) (A) (A) (A) (A) (A) (A)
                 (A) (A) (A) (A) (A) (A) (A) (A) (A) (A) (A) (A)
                 (A) (A) (A) (A) (A) (A) (A) (A) (A) (A) (A) (A)
                 (A) (A) (A) (A) (A) (A) (A) (A) (A) (A) (A) (A)
                 (A) (A) (A) (A) (A) (A) (A) (A) (A) (A) (A) (A)
                 (A) (A) (A) (A) (A) (A) (A) (A) (A) (A) (A) (A)
                 (A) (A) (A) (A) (A) (A) (A) (A) (A) (A) (A) (A)
                 (A) (A) (A) (A) (A) (A) (A) (A) (A) (A) (A) (A)
                 (A) (A) (A) (A) (A) (A) (A) (A) (A) (A) (A) (A)
                 (A) (A) (A) (A) (A) (A) (A) (A) (A) (A) (A) (A)
                 (A) (A) (A) (A) (A) (A) (A) (A) (A) (A) (A) (A)
                 (A) (A) (A) (A) (A) (A) (A) (A) (A) (A) (A) (A)
                 (A) (A) (A) (A) (A)
 The electronic state is 1-A.
 Alpha  occ. eigenvalues --  -14.40030 -14.38403 -14.36768 -14.36422 -10.24973
 Alpha  occ. eigenvalues --  -10.20975 -10.19476  -1.03658  -0.99555  -0.84131
 Alpha  occ. eigenvalues --   -0.75088  -0.70415  -0.62031  -0.55900  -0.52168
 Alpha  occ. eigenvalues --   -0.48820  -0.48520  -0.47810  -0.42707  -0.41833
 Alpha  occ. eigenvalues --   -0.39183  -0.38210  -0.37465  -0.34275  -0.27097
 Alpha  occ. eigenvalues --   -0.23518  -0.19781
 Alpha virt. eigenvalues --   -0.05994   0.01486   0.09219   0.10005   0.12077
 Alpha virt. eigenvalues --    0.13294   0.14182   0.16870   0.17220   0.19124
 Alpha virt. eigenvalues --    0.19556   0.21633   0.23138   0.26308   0.33394
 Alpha virt. eigenvalues --    0.36949   0.43369   0.44885   0.47380   0.49131
 Alpha virt. eigenvalues --    0.51861   0.53572   0.54629   0.54963   0.56313
 Alpha virt. eigenvalues --    0.56812   0.59047   0.63571   0.63839   0.65766
 Alpha virt. eigenvalues --    0.66495   0.67462   0.68112   0.71148   0.72666
 Alpha virt. eigenvalues --    0.74532   0.74886   0.77415   0.78220   0.80064
 Alpha virt. eigenvalues --    0.80100   0.81336   0.82824   0.83499   0.86718
 Alpha virt. eigenvalues --    0.90300   0.93525   0.94052   0.94863   0.96445
 Alpha virt. eigenvalues --    0.96951   0.99677   1.00407   1.08191   1.11539
 Alpha virt. eigenvalues --    1.15438   1.19907   1.23675   1.27097   1.27129
 Alpha virt. eigenvalues --    1.32500   1.32925   1.35981   1.39225   1.41940
 Alpha virt. eigenvalues --    1.43028   1.46762   1.48285   1.52106   1.54305
 Alpha virt. eigenvalues --    1.55780   1.63366   1.64058   1.68838   1.71976
 Alpha virt. eigenvalues --    1.74366   1.77208   1.82083   1.82873   1.88638
 Alpha virt. eigenvalues --    1.92274   1.93119   1.95728   1.95757   1.96330
 Alpha virt. eigenvalues --    1.99149   2.04848   2.17261   2.20591   2.22752
 Alpha virt. eigenvalues --    2.27017   2.36813   2.39801   2.39866   2.46545
 Alpha virt. eigenvalues --    2.48262   2.49489   2.51847   2.61080   2.61485
 Alpha virt. eigenvalues --    2.71991   2.75243   2.77653   2.81050   2.84181
 Alpha virt. eigenvalues --    2.87262   2.88032   2.89444   2.94009   2.94164
 Alpha virt. eigenvalues --    2.97890   3.02822   3.05542   3.07237   3.16072
 Alpha virt. eigenvalues --    3.16463   3.19191   3.20103   3.24898   3.29895
 Alpha virt. eigenvalues --    3.30572   3.31545   3.36745   3.38894   3.44098
 Alpha virt. eigenvalues --    3.44729   3.47118   3.50624   3.53530   3.56291
 Alpha virt. eigenvalues --    3.59861   3.61313   3.62256   3.63960   3.65406
 Alpha virt. eigenvalues --    3.68119   3.70677   3.79684   3.84033   3.87478
 Alpha virt. eigenvalues --    3.91078   3.94042   3.95346   3.98648   4.01709
 Alpha virt. eigenvalues --    4.04674   4.08152   4.11271   4.12848   4.12870
 Alpha virt. eigenvalues --    4.15118   4.22988   4.23152   4.23674   4.29013
 Alpha virt. eigenvalues --    4.31342   4.34955   4.35003   4.37056   4.40336
 Alpha virt. eigenvalues --    4.40810   4.45720   4.47723   4.48281   4.53447
 Alpha virt. eigenvalues --    4.55116   4.55854   4.56563   4.56841   4.59794
 Alpha virt. eigenvalues --    4.67136   4.67363   4.72685   4.73445   4.74632
 Alpha virt. eigenvalues --    4.77616   4.78047   4.84764   4.86824   4.90599
 Alpha virt. eigenvalues --    4.94408   4.99018   5.04839   5.06469   5.08008
 Alpha virt. eigenvalues --    5.12136   5.17483   5.20017   5.23397   5.27714
 Alpha virt. eigenvalues --    5.37188   5.41103   5.48539   5.59109   5.60115
 Alpha virt. eigenvalues --    5.71422   5.82521   6.04445   6.43889   8.00449
 Alpha virt. eigenvalues --   10.09717  10.76332  11.17683  11.24585  11.44578
 Alpha virt. eigenvalues --   11.52193  11.58659  11.95212  19.28057
          Condensed to atoms (all electrons):
               1          2          3          4          5          6
     1  C    4.985026   0.632385  -0.102728  -0.004544   0.003354  -0.000093
     2  N    0.632385   6.213620   0.406494  -0.052514  -0.047808   0.001271
     3  N   -0.102728   0.406494   6.145268   0.381043   0.400425  -0.030058
     4  C   -0.004544  -0.052514   0.381043   4.944833  -0.085761   0.001381
     5  C    0.003354  -0.047808   0.400425  -0.085761   4.784506   0.337132
     6  N   -0.000093   0.001271  -0.030058   0.001381   0.337132   6.484010
     7  N   -0.000000  -0.000000   0.001568  -0.000064  -0.069891   0.472805
     8  H    0.378650  -0.019722   0.003447  -0.000034  -0.000166   0.000000
     9  H    0.363940  -0.037528  -0.007832   0.002918   0.000258   0.000015
    10  H    0.001538  -0.007938  -0.015258   0.365427   0.003723   0.000794
    11  H    0.000779   0.002716  -0.031541   0.377790  -0.002098   0.004079
    12  H    0.000779   0.002716  -0.031540   0.377792  -0.002098   0.004080
    13  H    0.000554   0.001964  -0.038995   0.005796   0.345826  -0.020876
    14  H    0.000554   0.001964  -0.038995   0.005796   0.345824  -0.020876
    15  H   -0.000000   0.000001  -0.000114  -0.000063   0.006906  -0.090894
               7          8          9         10         11         12
     1  C   -0.000000   0.378650   0.363940   0.001538   0.000779   0.000779
     2  N   -0.000000  -0.019722  -0.037528  -0.007938   0.002716   0.002716
     3  N    0.001568   0.003447  -0.007832  -0.015258  -0.031541  -0.031540
     4  C   -0.000064  -0.000034   0.002918   0.365427   0.377790   0.377792
     5  C   -0.069891  -0.000166   0.000258   0.003723  -0.002098  -0.002098
     6  N    0.472805   0.000000   0.000015   0.000794   0.004079   0.004080
     7  N    6.538747  -0.000000   0.000000  -0.000034   0.000028   0.000028
     8  H   -0.000000   0.573327  -0.053416  -0.000046   0.000000   0.000000
     9  H    0.000000  -0.053416   0.626419   0.006118  -0.000368  -0.000368
    10  H   -0.000034  -0.000046   0.006118   0.583008  -0.033685  -0.033686
    11  H    0.000028   0.000000  -0.000368  -0.033685   0.590817  -0.041533
    12  H    0.000028   0.000000  -0.000368  -0.033686  -0.041533   0.590814
    13  H    0.001423  -0.000001   0.000022  -0.000059   0.001564  -0.000424
    14  H    0.001423  -0.000001   0.000022  -0.000059  -0.000424   0.001564
    15  H    0.322897   0.000000   0.000000  -0.000003  -0.000037  -0.000037
              13         14         15
     1  C    0.000554   0.000554  -0.000000
     2  N    0.001964   0.001964   0.000001
     3  N   -0.038995  -0.038995  -0.000114
     4  C    0.005796   0.005796  -0.000063
     5  C    0.345826   0.345824   0.006906
     6  N   -0.020876  -0.020876  -0.090894
     7  N    0.001423   0.001423   0.322897
     8  H   -0.000001  -0.000001   0.000000
     9  H    0.000022   0.000022   0.000000
    10  H   -0.000059  -0.000059  -0.000003
    11  H    0.001564  -0.000424  -0.000037
    12  H   -0.000424   0.001564  -0.000037
    13  H    0.598871  -0.035992  -0.000672
    14  H   -0.035992   0.598874  -0.000672
    15  H   -0.000672  -0.000672   0.505805
 Mulliken charges:
               1
     1  C   -0.260194
     2  N   -0.097621
     3  N   -0.041184
     4  C   -0.319797
     5  C   -0.020131
     6  N   -0.142770
     7  N   -0.268929
     8  H    0.117961
     9  H    0.099797
    10  H    0.130160
    11  H    0.131913
    12  H    0.131914
    13  H    0.140999
    14  H    0.140998
    15  H    0.256885
 Sum of Mulliken charges =  -0.00000
 Mulliken charges with hydrogens summed into heavy atoms:
               1
     1  C   -0.042436
     2  N   -0.097621
     3  N   -0.041184
     4  C    0.074190
     5  C    0.261865
     6  N   -0.142770
     7  N   -0.012044
 Electronic spatial extent (au):  <R**2>=            968.1944
 Charge=             -0.0000 electrons
 Dipole moment (field-independent basis, Debye):
    X=             -0.7794    Y=              1.8303    Z=              0.0000  Tot=              1.9894
 Quadrupole moment (field-independent basis, Debye-Ang):
   XX=            -38.0847   YY=            -43.1023   ZZ=            -42.3434
   XY=              0.0236   XZ=              0.0000   YZ=             -0.0000
 Traceless Quadrupole moment (field-independent basis, Debye-Ang):
   XX=              3.0921   YY=             -1.9255   ZZ=             -1.1666
   XY=              0.0236   XZ=              0.0000   YZ=             -0.0000
 Octapole moment (field-independent basis, Debye-Ang**2):
  XXX=            -15.9113  YYY=              4.0029  ZZZ=              0.0000  XYY=              0.9630
  XXY=             16.0217  XXZ=              0.0001  XZZ=             -6.0727  YZZ=             -0.2048
  YYZ=              0.0000  XYZ=             -0.0000
 Hexadecapole moment (field-independent basis, Debye-Ang**3):
 XXXX=           -838.2738 YYYY=           -216.5335 ZZZZ=            -52.2718 XXXY=            -58.3152
 XXXZ=              0.0002 YYYX=              4.0871 YYYZ=             -0.0001 ZZZX=             -0.0000
 ZZZY=             -0.0000 XXYY=           -210.0860 XXZZ=           -182.7845 YYZZ=            -42.4516
 XXYZ=             -0.0000 YYXZ=              0.0000 ZZXY=              0.4752
 N-N= 2.959453518275D+02 E-N=-1.378590889894D+03  KE= 3.352517988093D+02
 PrsmSu:  requested number of processors reduced to:  13 ShMem   1 Linda.
 Calling FoFJK, ICntrl=      2127 FMM=F ISym2X=0 I1Cent= 0 IOpClX= 0 NMat=1 NMatS=1 NMatT=0.
 ***** Axes restored to original set *****
 -------------------------------------------------------------------
 Center     Atomic                   Forces (Hartrees/Bohr)
 Number     Number              X              Y              Z
 -------------------------------------------------------------------
      1        6          -0.002465278   -0.000211471    0.008715882
      2        7          -0.004199906    0.000422706   -0.017430211
      3        7           0.006963668    0.000442405   -0.018173201
      4        6          -0.009704400    0.000076620   -0.003376103
      5        6           0.001237752   -0.000534352    0.022222381
      6        7           0.000183217    0.000264371   -0.010897584
      7        7          -0.008896482   -0.000613207    0.025201182
      8        1           0.010695076    0.000172733   -0.007091177
      9        1           0.006558758   -0.000080673    0.003308923
     10        1           0.000297449   -0.000214652    0.008841438
     11        1           0.002317873    0.002291410   -0.002458127
     12        1           0.002319349   -0.002164712   -0.002568348
     13        1           0.002627175    0.000398232   -0.000649190
     14        1           0.002625516   -0.000370874   -0.000670176
     15        1          -0.010559767    0.000121465   -0.004975687
 -------------------------------------------------------------------
 Cartesian Forces:  Max     0.025201182 RMS     0.007744439

 GradGradGradGradGradGradGradGradGradGradGradGradGradGradGradGradGradGrad
 Berny optimization.
 FormGI is forming the generalized inverse of G from B-inverse, IUseBI=4.
 Internal  Forces:  Max     0.030449794 RMS     0.009866708
 Search for a local minimum.
 Step number   1 out of a maximum of   66
 All quantities printed in internal units (Hartrees-Bohrs-Radians)
 Mixed Optimization -- RFO/linear search
 Second derivative matrix not updated -- first step.
 ITU=  0
     Eigenvalues ---    0.00579   0.00649   0.00974   0.01002   0.01356
     Eigenvalues ---    0.01874   0.03127   0.03337   0.05599   0.06992
     Eigenvalues ---    0.07285   0.07336   0.11795   0.14206   0.16000
     Eigenvalues ---    0.16000   0.16000   0.16000   0.16000   0.16000
     Eigenvalues ---    0.22121   0.25000   0.25000   0.25000   0.25000
     Eigenvalues ---    0.33593   0.33849   0.33915   0.33916   0.34103
     Eigenvalues ---    0.34207   0.34208   0.34701   0.34853   0.37691
     Eigenvalues ---    0.42827   0.53716   0.69616   0.84876
 RFO step:  Lambda=-1.94817648D-02 EMin= 5.79192804D-03
 Linear search not attempted -- first point.
 Iteration  1 RMS(Cart)=  0.11666939 RMS(Int)=  0.00484460
 Iteration  2 RMS(Cart)=  0.00761871 RMS(Int)=  0.00021819
 Iteration  3 RMS(Cart)=  0.00000649 RMS(Int)=  0.00021816
 Iteration  4 RMS(Cart)=  0.00000000 RMS(Int)=  0.00021816
 Variable       Old X    -DE/DX   Delta X   Delta X   Delta X     New X
                                 (Linear)    (Quad)   (Total)
    R1        2.44054  -0.01450   0.00000  -0.02026  -0.02026   2.42028
    R2        2.08023  -0.01106   0.00000  -0.03113  -0.03113   2.04910
    R3        2.07586  -0.00672   0.00000  -0.01877  -0.01877   2.05709
    R4        2.56291  -0.01589   0.00000  -0.02855  -0.02855   2.53437
    R5        2.74817   0.00171   0.00000   0.00432   0.00432   2.75249
    R6        2.79463  -0.01404   0.00000  -0.03830  -0.03830   2.75633
    R7        2.05914  -0.00011   0.00000  -0.00030  -0.00030   2.05884
    R8        2.06982   0.00007   0.00000   0.00020   0.00020   2.07002
    R9        2.06981   0.00008   0.00000   0.00021   0.00021   2.07002
   R10        2.80456  -0.01590   0.00000  -0.04411  -0.04411   2.76045
   R11        2.07471   0.00027   0.00000   0.00076   0.00076   2.07547
   R12        2.07473   0.00027   0.00000   0.00074   0.00074   2.07547
   R13        2.35388  -0.02022   0.00000  -0.02329  -0.02329   2.33059
   R14        1.94584   0.00133   0.00000   0.00296   0.00296   1.94880
    A1        2.07888  -0.00696   0.00000  -0.03880  -0.03880   2.04009
    A2        2.20353   0.00040   0.00000   0.00222   0.00222   2.20575
    A3        2.00077   0.00657   0.00000   0.03658   0.03658   2.03735
    A4        2.08225   0.02135   0.00000   0.07921   0.07921   2.16146
    A5        2.22752   0.00110   0.00000   0.00410   0.00410   2.23161
    A6        2.06968  -0.03045   0.00000  -0.11299  -0.11299   1.95669
    A7        1.98599   0.02935   0.00000   0.10890   0.10890   2.09488
    A8        2.00679  -0.01288   0.00000  -0.07100  -0.07077   1.93602
    A9        1.92750   0.00344   0.00000   0.01878   0.01883   1.94632
   A10        1.92751   0.00344   0.00000   0.01877   0.01882   1.94632
   A11        1.84265   0.00504   0.00000   0.02879   0.02901   1.87166
   A12        1.84266   0.00504   0.00000   0.02879   0.02901   1.87167
   A13        1.91231  -0.00400   0.00000  -0.02376  -0.02388   1.88843
   A14        1.99871  -0.01436   0.00000  -0.06194  -0.06176   1.93695
   A15        1.89769   0.00609   0.00000   0.03163   0.03116   1.92885
   A16        1.89768   0.00609   0.00000   0.03163   0.03117   1.92884
   A17        1.89553   0.00243   0.00000   0.00137   0.00169   1.89722
   A18        1.89552   0.00243   0.00000   0.00138   0.00169   1.89722
   A19        1.87499  -0.00213   0.00000  -0.00106  -0.00182   1.87317
   A20        1.99535  -0.02326   0.00000  -0.08632  -0.08632   1.90902
   A21        1.93584  -0.02257   0.00000  -0.12574  -0.12574   1.81010
    D1        3.14158   0.00000   0.00000   0.00001   0.00001  -3.14159
    D2       -0.00001   0.00000   0.00000   0.00001   0.00001  -0.00000
    D3        3.14159  -0.00000   0.00000  -0.00000  -0.00000   3.14159
    D4        0.00001  -0.00000   0.00000  -0.00000  -0.00000   0.00001
    D5       -3.14159  -0.00000   0.00000  -0.00001  -0.00001   3.14159
    D6       -0.00001   0.00000   0.00000   0.00000   0.00000  -0.00001
    D7       -2.08260  -0.00023   0.00000  -0.00248  -0.00235  -2.08495
    D8        2.08259   0.00023   0.00000   0.00247   0.00234   2.08493
    D9        3.14159   0.00000   0.00000   0.00000   0.00000   3.14159
   D10        1.05900  -0.00023   0.00000  -0.00248  -0.00235   1.05665
   D11       -1.05899   0.00023   0.00000   0.00248   0.00234  -1.05665
   D12       -3.14158  -0.00000   0.00000  -0.00000  -0.00000  -3.14158
   D13        1.01818   0.00208   0.00000   0.01676   0.01727   1.03544
   D14       -1.01817  -0.00208   0.00000  -0.01675  -0.01726  -1.03543
   D15        0.00000  -0.00000   0.00000  -0.00000  -0.00000   0.00000
   D16       -2.12342   0.00208   0.00000   0.01676   0.01727  -2.10616
   D17        2.12342  -0.00208   0.00000  -0.01676  -0.01726   2.10616
   D18       -3.14159   0.00000   0.00000   0.00001   0.00001  -3.14159
   D19       -1.01699  -0.00006   0.00000  -0.00012   0.00016  -1.01683
   D20        1.01700   0.00006   0.00000   0.00012  -0.00016   1.01684
   D21        3.14159   0.00000   0.00000   0.00002   0.00002  -3.14158
         Item               Value     Threshold  Converged?
 Maximum Force            0.030450     0.000450     NO 
 RMS     Force            0.009867     0.000300     NO 
 Maximum Displacement     0.422028     0.001800     NO 
 RMS     Displacement     0.117261     0.001200     NO 
 Predicted change in Energy=-1.051145D-02
 GradGradGradGradGradGradGradGradGradGradGradGradGradGradGradGradGradGrad

                          Input orientation:                          
 ---------------------------------------------------------------------
 Center     Atomic      Atomic             Coordinates (Angstroms)
 Number     Number       Type             X           Y           Z
 ---------------------------------------------------------------------
      1          6           0        1.067443    0.042623    0.019382
      2          7           0        2.331186    0.047679   -0.188637
      3          7           0        2.887176    0.077333   -1.408728
      4          6           0        2.211330    0.108692   -2.698609
      5          6           0        4.344503    0.075861   -1.348121
      6          7           0        4.923736    0.108457   -2.688741
      7          7           0        6.154056    0.106368   -2.603116
      8          1           0        0.740688    0.017502    1.053011
      9          1           0        0.287966    0.061088   -0.740252
     10          1           0        1.129325    0.105591   -2.571160
     11          1           0        2.468868   -0.764065   -3.308434
     12          1           0        2.468868    1.010051   -3.265303
     13          1           0        4.707254   -0.821727   -0.829477
     14          1           0        4.707252    0.947187   -0.786471
     15          1           0        6.467480    0.130259   -3.585305
 ---------------------------------------------------------------------
                    Distance matrix (angstroms):
                    1          2          3          4          5
     1  C    0.000000
     2  N    1.280759   0.000000
     3  N    2.313467   1.341128   0.000000
     4  C    2.949631   2.513573   1.456553   0.000000
     5  C    3.551097   2.323498   1.458588   2.524940   0.000000
     6  N    4.712670   3.602156   2.405614   2.712424   1.460765
     7  N    5.723215   4.521889   3.478492   3.943883   2.202368
     8  H    1.084337   2.017991   3.266672   4.030602   4.330857
     9  H    1.088564   2.116414   2.683844   2.745316   4.101855
    10  H    2.592046   2.669127   2.107626   1.089490   3.440070
    11  H    3.699878   3.226611   2.119391   1.095408   2.840126
    12  H    3.699874   3.226607   2.119391   1.095406   2.840124
    13  H    3.836129   2.610027   2.111048   3.254070   1.098292
    14  H    3.836123   2.610020   2.111049   3.254070   1.098293
    15  H    6.493216   5.352859   4.190330   4.347586   3.084637
                    6          7          8          9         10
     6  N    0.000000
     7  N    1.233298   0.000000
     8  H    5.613098   6.532971   0.000000
     9  H    5.028838   6.154943   1.850040   0.000000
    10  H    3.796233   5.024833   3.646013   2.015462   0.000000
    11  H    2.678002   3.851719   4.756013   3.468828   1.759048
    12  H    2.677997   3.851719   4.756006   3.468825   1.759050
    13  H    2.090208   2.469897   4.470091   4.507486   4.085946
    14  H    2.090207   2.469903   4.470082   4.507482   4.085947
    15  H    1.785343   1.031262   7.370403   6.803345   5.433691
                   11         12         13         14         15
    11  H    0.000000
    12  H    1.774640   0.000000
    13  H    3.340498   3.781406   0.000000
    14  H    3.781408   3.340498   1.769437   0.000000
    15  H    4.106747   4.106742   3.405769   3.405767   0.000000
 Stoichiometry    C3H8N4
 Framework group  C1[X(C3H8N4)]
 Deg. of freedom    39
 Full point group                 C1      NOp   1
 Largest Abelian subgroup         C1      NOp   1
 Largest concise Abelian subgroup C1      NOp   1
                         Standard orientation:                         
 ---------------------------------------------------------------------
 Center     Atomic      Atomic             Coordinates (Angstroms)
 Number     Number       Type             X           Y           Z
 ---------------------------------------------------------------------
      1          6           0        2.803942   -0.366450   -0.000002
      2          7           0        1.586995   -0.765678   -0.000001
      3          7           0        0.530104    0.059917    0.000004
      4          6           0        0.533490    1.516465    0.000000
      5          6           0       -0.734409   -0.667054    0.000002
      6          7           0       -1.867609    0.254734   -0.000005
      7          7           0       -2.919226   -0.389567    0.000002
      8          1           0        3.571363   -1.132513   -0.000007
      9          1           0        3.144257    0.667551   -0.000000
     10          1           0        1.552023    1.903220    0.000004
     11          1           0        0.033254    1.919387    0.887320
     12          1           0        0.033256    1.919383   -0.887320
     13          1           0       -0.806547   -1.313825    0.884722
     14          1           0       -0.806542   -1.313829   -0.884716
     15          1           0       -3.651054    0.337020   -0.000013
 ---------------------------------------------------------------------
 Rotational constants (GHZ):           7.7376957           1.4248456           1.2216817
 Standard basis: 6-31G(2df,p) (6D, 7F)
 There are   257 symmetry adapted cartesian basis functions of A   symmetry.
 There are   236 symmetry adapted basis functions of A   symmetry.
   236 basis functions,   364 primitive gaussians,   257 cartesian basis functions
    27 alpha electrons       27 beta electrons
       nuclear repulsion energy       298.9402907614 Hartrees.
 NAtoms=   15 NActive=   15 NUniq=   15 SFac= 1.00D+00 NAtFMM=   60 NAOKFM=F Big=F
 Integral buffers will be    131072 words long.
 Raffenetti 2 integral format.
 Two-electron integral symmetry is turned on.
 One-electron integrals computed using PRISM.
 PrsmSu:  requested number of processors reduced to:  13 ShMem   1 Linda.
 NBasis=   236 RedAO= T EigKep=  2.23D-04  NBF=   236
 NBsUse=   236 1.00D-06 EigRej= -1.00D+00 NBFU=   236
 Initial guess from the checkpoint file:  "CdNNpCpCNdN.chk"
 B after Tr=     0.000000    0.000000   -0.000000
         Rot=    0.999986    0.000000    0.000000    0.005304 Ang=   0.61 deg.
 ExpMin= 1.61D-01 ExpMax= 4.17D+03 ExpMxC= 6.27D+02 IAcc=2 IRadAn=         4 AccDes= 0.00D+00
 Harris functional with IExCor=  402 and IRadAn=       4 diagonalized for initial guess.
 HarFok:  IExCor=  402 AccDes= 0.00D+00 IRadAn=         4 IDoV= 1 UseB2=F ITyADJ=14
 ICtDFT=  3500011 ScaDFX=  1.000000  1.000000  1.000000  1.000000
 FoFCou: FMM=F IPFlag=           0 FMFlag=      100000 FMFlg1=           0
         NFxFlg=           0 DoJE=T BraDBF=F KetDBF=T FulRan=T
         wScrn=  0.000000 ICntrl=       500 IOpCl=  0 I1Cent=   200000004 NGrid=           0
         NMat0=    1 NMatS0=      1 NMatT0=    0 NMatD0=    1 NMtDS0=    0 NMtDT0=    0
 Petite list used in FoFCou.
 Requested convergence on RMS density matrix=1.00D-08 within 128 cycles.
 Requested convergence on MAX density matrix=1.00D-06.
 Requested convergence on             energy=1.00D-06.
 No special actions if energy rises.
 Integral accuracy reduced to 1.0D-05 until final iterations.
 Initial convergence to 1.0D-05 achieved.  Increase integral accuracy.
 SCF Done:  E(RB3LYP) =  -338.035128670     A.U. after   13 cycles
            NFock= 13  Conv=0.49D-08     -V/T= 2.0074
 PrsmSu:  requested number of processors reduced to:  13 ShMem   1 Linda.
 Calling FoFJK, ICntrl=      2127 FMM=F ISym2X=0 I1Cent= 0 IOpClX= 0 NMat=1 NMatS=1 NMatT=0.
 ***** Axes restored to original set *****
 -------------------------------------------------------------------
 Center     Atomic                   Forces (Hartrees/Bohr)
 Number     Number              X              Y              Z
 -------------------------------------------------------------------
      1        6           0.000117155   -0.000023965    0.000996100
      2        7          -0.002033204    0.000118600   -0.004884652
      3        7           0.003872845    0.000005662   -0.000230745
      4        6          -0.003550326   -0.000031344    0.001253824
      5        6          -0.011721183   -0.000166395    0.006856927
      6        7          -0.008201842   -0.000221769    0.009140267
      7        7           0.009989119    0.000334871   -0.013757602
      8        1           0.001370045   -0.000011251    0.000460491
      9        1           0.000444306    0.000056061   -0.002309137
     10        1           0.000063540   -0.000090527    0.003731791
     11        1           0.000998213    0.000398255   -0.000279103
     12        1           0.000998120   -0.000383579   -0.000298431
     13        1          -0.000530879    0.000184776   -0.000103964
     14        1          -0.000531229   -0.000180135   -0.000113287
     15        1           0.008715320    0.000010741   -0.000462479
 -------------------------------------------------------------------
 Cartesian Forces:  Max     0.013757602 RMS     0.004172813

 GradGradGradGradGradGradGradGradGradGradGradGradGradGradGradGradGradGrad
 Berny optimization.
 Using GEDIIS/GDIIS optimizer.
 FormGI is forming the generalized inverse of G from B-inverse, IUseBI=4.
 Internal  Forces:  Max     0.020191549 RMS     0.004774085
 Search for a local minimum.
 Step number   2 out of a maximum of   66
 All quantities printed in internal units (Hartrees-Bohrs-Radians)
 Mixed Optimization -- RFO/linear search
 Update second derivatives using D2CorX and points    1    2
 DE= -8.36D-03 DEPred=-1.05D-02 R= 7.95D-01
 TightC=F SS=  1.41D+00  RLast= 2.80D-01 DXNew= 5.0454D-01 8.4057D-01
 Trust test= 7.95D-01 RLast= 2.80D-01 DXMaxT set to 5.05D-01
 ITU=  1  0
 Use linear search instead of GDIIS.
     Eigenvalues ---    0.00579   0.00649   0.00974   0.00987   0.01334
     Eigenvalues ---    0.01874   0.03127   0.03337   0.05993   0.07204
     Eigenvalues ---    0.07231   0.07356   0.11490   0.13975   0.14377
     Eigenvalues ---    0.16000   0.16000   0.16000   0.16000   0.17738
     Eigenvalues ---    0.21135   0.22577   0.25000   0.25000   0.31012
     Eigenvalues ---    0.33501   0.33846   0.33915   0.33917   0.34207
     Eigenvalues ---    0.34208   0.34454   0.34852   0.37250   0.39438
     Eigenvalues ---    0.43001   0.53034   0.69250   0.90187
 RFO step:  Lambda=-3.00776974D-03 EMin= 5.79192804D-03
 Quartic linear search produced a step of -0.13660.
 Iteration  1 RMS(Cart)=  0.03481278 RMS(Int)=  0.00059323
 Iteration  2 RMS(Cart)=  0.00074581 RMS(Int)=  0.00002835
 Iteration  3 RMS(Cart)=  0.00000010 RMS(Int)=  0.00002835
 Variable       Old X    -DE/DX   Delta X   Delta X   Delta X     New X
                                 (Linear)    (Quad)   (Total)
    R1        2.42028  -0.00204   0.00277  -0.00852  -0.00575   2.41453
    R2        2.04910   0.00003   0.00425  -0.00935  -0.00510   2.04400
    R3        2.05709   0.00129   0.00256  -0.00241   0.00015   2.05724
    R4        2.53437  -0.00518   0.00390  -0.01677  -0.01287   2.52149
    R5        2.75249  -0.00321  -0.00059  -0.00599  -0.00658   2.74590
    R6        2.75633  -0.00221   0.00523  -0.01703  -0.01180   2.74454
    R7        2.05884   0.00037   0.00004   0.00082   0.00087   2.05970
    R8        2.07002   0.00007  -0.00003   0.00024   0.00021   2.07023
    R9        2.07002   0.00007  -0.00003   0.00025   0.00022   2.07024
   R10        2.76045   0.00883   0.00603   0.00878   0.01480   2.77525
   R11        2.07547  -0.00038  -0.00010  -0.00072  -0.00082   2.07465
   R12        2.07547  -0.00038  -0.00010  -0.00072  -0.00083   2.07465
   R13        2.33059   0.01767   0.00318   0.01101   0.01419   2.34479
   R14        1.94880   0.00309  -0.00040   0.00706   0.00666   1.95546
    A1        2.04009  -0.00063   0.00530  -0.01559  -0.01029   2.02980
    A2        2.20575  -0.00171  -0.00030  -0.00832  -0.00862   2.19712
    A3        2.03735   0.00233  -0.00500   0.02391   0.01891   2.05626
    A4        2.16146  -0.00236  -0.01082   0.01628   0.00546   2.16692
    A5        2.23161  -0.00786  -0.00056  -0.02554  -0.02610   2.20552
    A6        1.95669   0.00075   0.01543  -0.03211  -0.01667   1.94002
    A7        2.09488   0.00711  -0.01488   0.05764   0.04277   2.13765
    A8        1.93602  -0.00512   0.00967  -0.04965  -0.04002   1.89600
    A9        1.94632   0.00050  -0.00257   0.00875   0.00616   1.95249
   A10        1.94632   0.00050  -0.00257   0.00875   0.00616   1.95249
   A11        1.87166   0.00239  -0.00396   0.02160   0.01760   1.88927
   A12        1.87167   0.00239  -0.00396   0.02160   0.01760   1.88927
   A13        1.88843  -0.00043   0.00326  -0.00930  -0.00604   1.88239
   A14        1.93695   0.00094   0.00844  -0.01563  -0.00722   1.92973
   A15        1.92885  -0.00060  -0.00426   0.00646   0.00227   1.93111
   A16        1.92884  -0.00060  -0.00426   0.00646   0.00227   1.93111
   A17        1.89722  -0.00002  -0.00023   0.00107   0.00079   1.89801
   A18        1.89722  -0.00002  -0.00023   0.00107   0.00079   1.89801
   A19        1.87317   0.00030   0.00025   0.00099   0.00134   1.87451
   A20        1.90902   0.02019   0.01179   0.04229   0.05408   1.96311
   A21        1.81010   0.01591   0.01718   0.04435   0.06153   1.87163
    D1       -3.14159  -0.00000  -0.00000   0.00000   0.00000  -3.14159
    D2       -0.00000   0.00000  -0.00000   0.00001   0.00000   0.00000
    D3        3.14159   0.00000   0.00000   0.00000   0.00000   3.14159
    D4        0.00001  -0.00000   0.00000  -0.00001  -0.00000   0.00000
    D5        3.14159  -0.00000   0.00000  -0.00001  -0.00001   3.14159
    D6       -0.00001   0.00000  -0.00000   0.00000  -0.00000  -0.00001
    D7       -2.08495   0.00007   0.00032   0.00015   0.00045  -2.08449
    D8        2.08493  -0.00007  -0.00032  -0.00015  -0.00046   2.08447
    D9        3.14159   0.00000  -0.00000   0.00000   0.00000   3.14159
   D10        1.05665   0.00007   0.00032   0.00015   0.00046   1.05711
   D11       -1.05665  -0.00007  -0.00032  -0.00015  -0.00046  -1.05711
   D12       -3.14158   0.00000   0.00000   0.00000   0.00000  -3.14158
   D13        1.03544  -0.00019  -0.00236   0.00469   0.00227   1.03771
   D14       -1.03543   0.00019   0.00236  -0.00469  -0.00227  -1.03769
   D15        0.00000  -0.00000   0.00000  -0.00000  -0.00000   0.00000
   D16       -2.10616  -0.00019  -0.00236   0.00469   0.00227  -2.10389
   D17        2.10616   0.00019   0.00236  -0.00469  -0.00227   2.10389
   D18       -3.14159   0.00000  -0.00000   0.00001   0.00001  -3.14158
   D19       -1.01683  -0.00017  -0.00002  -0.00117  -0.00122  -1.01805
   D20        1.01684   0.00017   0.00002   0.00118   0.00124   1.01808
   D21       -3.14158  -0.00000  -0.00000  -0.00001  -0.00002   3.14159
         Item               Value     Threshold  Converged?
 Maximum Force            0.020192     0.000450     NO 
 RMS     Force            0.004774     0.000300     NO 
 Maximum Displacement     0.133203     0.001800     NO 
 RMS     Displacement     0.034593     0.001200     NO 
 Predicted change in Energy=-1.737482D-03
 GradGradGradGradGradGradGradGradGradGradGradGradGradGradGradGradGradGrad

                          Input orientation:                          
 ---------------------------------------------------------------------
 Center     Atomic      Atomic             Coordinates (Angstroms)
 Number     Number       Type             X           Y           Z
 ---------------------------------------------------------------------
      1          6           0        1.071152    0.043156   -0.002535
      2          7           0        2.331878    0.048200   -0.210140
      3          7           0        2.891594    0.077631   -1.421029
      4          6           0        2.190873    0.108570   -2.693602
      5          6           0        4.340999    0.075391   -1.328677
      6          7           0        4.943303    0.107952   -2.667690
      7          7           0        6.183542    0.107026   -2.630140
      8          1           0        0.755901    0.018016    1.031837
      9          1           0        0.298152    0.061783   -0.768870
     10          1           0        1.118146    0.103875   -2.500672
     11          1           0        2.431752   -0.762091   -3.313356
     12          1           0        2.431747    1.008324   -3.270310
     13          1           0        4.694079   -0.822412   -0.804679
     14          1           0        4.694072    0.946670   -0.761666
     15          1           0        6.519938    0.130809   -3.608431
 ---------------------------------------------------------------------
                    Distance matrix (angstroms):
                    1          2          3          4          5
     1  C    0.000000
     2  N    1.277715   0.000000
     3  N    2.308099   1.334317   0.000000
     4  C    2.915458   2.488195   1.453070   0.000000
     5  C    3.528681   2.299659   1.452346   2.546991   0.000000
     6  N    4.701149   3.586455   2.400956   2.752552   1.468599
     7  N    5.748471   4.549195   3.507098   3.993174   2.256052
     8  H    1.081638   2.006769   3.252889   3.993275   4.292813
     9  H    1.088644   2.109125   2.674230   2.699847   4.081444
    10  H    2.499317   2.592833   2.076400   1.089948   3.429456
    11  H    3.668949   3.208815   2.120728   1.095521   2.878463
    12  H    3.668940   3.208809   2.120728   1.095522   2.878462
    13  H    3.810282   2.586781   2.106874   3.271208   1.097857
    14  H    3.810272   2.586772   2.106873   3.271207   1.097856
    15  H    6.534481   5.393983   4.237032   4.424727   3.154065
                    6          7          8          9         10
     6  N    0.000000
     7  N    1.240808   0.000000
     8  H    5.588284   6.548075   0.000000
     9  H    5.018473   6.172859   1.858493   0.000000
    10  H    3.828803   5.067051   3.552071   1.916585   0.000000
    11  H    2.735278   3.911275   4.722048   3.421319   1.770850
    12  H    2.735276   3.911281   4.722037   3.421310   1.770852
    13  H    2.097260   2.532718   4.425874   4.484112   4.064689
    14  H    2.097258   2.532730   4.425861   4.484104   4.064689
    15  H    1.836109   1.034786   7.400604   6.839481   5.514274
                   11         12         13         14         15
    11  H    0.000000
    12  H    1.770938   0.000000
    13  H    3.378642   3.814325   0.000000
    14  H    3.814325   3.378640   1.769605   0.000000
    15  H    4.194950   4.194957   3.478997   3.479007   0.000000
 Stoichiometry    C3H8N4
 Framework group  C1[X(C3H8N4)]
 Deg. of freedom    39
 Full point group                 C1      NOp   1
 Largest Abelian subgroup         C1      NOp   1
 Largest concise Abelian subgroup C1      NOp   1
                         Standard orientation:                         
 ---------------------------------------------------------------------
 Center     Atomic      Atomic             Coordinates (Angstroms)
 Number     Number       Type             X           Y           Z
 ---------------------------------------------------------------------
      1          6           0        2.793224   -0.372994   -0.000002
      2          7           0        1.575981   -0.761420    0.000001
      3          7           0        0.526631    0.062756    0.000005
      4          6           0        0.571760    1.515125    0.000001
      5          6           0       -0.722190   -0.678698    0.000000
      6          7           0       -1.867756    0.240249   -0.000010
      7          7           0       -2.955225   -0.357256    0.000004
      8          1           0        3.544551   -1.151099   -0.000007
      9          1           0        3.133027    0.661259   -0.000001
     10          1           0        1.614896    1.831122    0.000006
     11          1           0        0.085080    1.938517    0.885466
     12          1           0        0.085088    1.938512   -0.885472
     13          1           0       -0.788478   -1.325241    0.884805
     14          1           0       -0.788468   -1.325245   -0.884800
     15          1           0       -3.699872    0.361272    0.000003
 ---------------------------------------------------------------------
 Rotational constants (GHZ):           7.7782512           1.4158890           1.2160500
 Standard basis: 6-31G(2df,p) (6D, 7F)
 There are   257 symmetry adapted cartesian basis functions of A   symmetry.
 There are   236 symmetry adapted basis functions of A   symmetry.
   236 basis functions,   364 primitive gaussians,   257 cartesian basis functions
    27 alpha electrons       27 beta electrons
       nuclear repulsion energy       298.6614670673 Hartrees.
 NAtoms=   15 NActive=   15 NUniq=   15 SFac= 1.00D+00 NAtFMM=   60 NAOKFM=F Big=F
 Integral buffers will be    131072 words long.
 Raffenetti 2 integral format.
 Two-electron integral symmetry is turned on.
 One-electron integrals computed using PRISM.
 PrsmSu:  requested number of processors reduced to:  13 ShMem   1 Linda.
 NBasis=   236 RedAO= T EigKep=  2.20D-04  NBF=   236
 NBsUse=   236 1.00D-06 EigRej= -1.00D+00 NBFU=   236
 Initial guess from the checkpoint file:  "CdNNpCpCNdN.chk"
 B after Tr=     0.000000    0.000000    0.000000
         Rot=    0.999995    0.000000    0.000000    0.003187 Ang=   0.37 deg.
 ExpMin= 1.61D-01 ExpMax= 4.17D+03 ExpMxC= 6.27D+02 IAcc=2 IRadAn=         4 AccDes= 0.00D+00
 Harris functional with IExCor=  402 and IRadAn=       4 diagonalized for initial guess.
 HarFok:  IExCor=  402 AccDes= 0.00D+00 IRadAn=         4 IDoV= 1 UseB2=F ITyADJ=14
 ICtDFT=  3500011 ScaDFX=  1.000000  1.000000  1.000000  1.000000
 FoFCou: FMM=F IPFlag=           0 FMFlag=      100000 FMFlg1=           0
         NFxFlg=           0 DoJE=T BraDBF=F KetDBF=T FulRan=T
         wScrn=  0.000000 ICntrl=       500 IOpCl=  0 I1Cent=   200000004 NGrid=           0
         NMat0=    1 NMatS0=      1 NMatT0=    0 NMatD0=    1 NMtDS0=    0 NMtDT0=    0
 Petite list used in FoFCou.
 Requested convergence on RMS density matrix=1.00D-08 within 128 cycles.
 Requested convergence on MAX density matrix=1.00D-06.
 Requested convergence on             energy=1.00D-06.
 No special actions if energy rises.
 Integral accuracy reduced to 1.0D-05 until final iterations.
 Initial convergence to 1.0D-05 achieved.  Increase integral accuracy.
 SCF Done:  E(RB3LYP) =  -338.036424882     A.U. after   12 cycles
            NFock= 12  Conv=0.34D-08     -V/T= 2.0075
 PrsmSu:  requested number of processors reduced to:  13 ShMem   1 Linda.
 Calling FoFJK, ICntrl=      2127 FMM=F ISym2X=0 I1Cent= 0 IOpClX= 0 NMat=1 NMatS=1 NMatT=0.
 ***** Axes restored to original set *****
 -------------------------------------------------------------------
 Center     Atomic                   Forces (Hartrees/Bohr)
 Number     Number              X              Y              Z
 -------------------------------------------------------------------
      1        6          -0.001423168   -0.000017385    0.000714170
      2        7          -0.000913829   -0.000014685    0.000612417
      3        7           0.003712140    0.000023373   -0.000965819
      4        6          -0.000728798   -0.000021636    0.000912026
      5        6           0.002249222    0.000052530   -0.002178241
      6        7           0.001956687    0.000061233   -0.002539165
      7        7          -0.002028619   -0.000060618    0.002473710
      8        1          -0.000964224   -0.000037732    0.001549141
      9        1          -0.000794020    0.000008735   -0.000357737
     10        1           0.000795569    0.000025311   -0.001039830
     11        1           0.000217024   -0.000102946    0.000201437
     12        1           0.000216681    0.000092606    0.000206349
     13        1          -0.000118865   -0.000181738    0.000118264
     14        1          -0.000118806    0.000176430    0.000127403
     15        1          -0.002056995   -0.000003477    0.000165876
 -------------------------------------------------------------------
 Cartesian Forces:  Max     0.003712140 RMS     0.001159783

 GradGradGradGradGradGradGradGradGradGradGradGradGradGradGradGradGradGrad
 Berny optimization.
 Using GEDIIS/GDIIS optimizer.
 FormGI is forming the generalized inverse of G from B-inverse, IUseBI=4.
 Internal  Forces:  Max     0.004004122 RMS     0.001426051
 Search for a local minimum.
 Step number   3 out of a maximum of   66
 All quantities printed in internal units (Hartrees-Bohrs-Radians)
 Mixed Optimization -- RFO/linear search
 Update second derivatives using D2CorX and points    1    2    3
 DE= -1.30D-03 DEPred=-1.74D-03 R= 7.46D-01
 TightC=F SS=  1.41D+00  RLast= 1.16D-01 DXNew= 8.4853D-01 3.4681D-01
 Trust test= 7.46D-01 RLast= 1.16D-01 DXMaxT set to 5.05D-01
 ITU=  1  1  0
 Use linear search instead of GDIIS.
     Eigenvalues ---    0.00579   0.00649   0.00974   0.00975   0.01312
     Eigenvalues ---    0.01874   0.03127   0.03337   0.06044   0.07166
     Eigenvalues ---    0.07211   0.07576   0.11473   0.13945   0.14642
     Eigenvalues ---    0.16000   0.16000   0.16000   0.16047   0.18259
     Eigenvalues ---    0.20435   0.23253   0.25000   0.26621   0.31640
     Eigenvalues ---    0.33709   0.33913   0.33916   0.33959   0.34207
     Eigenvalues ---    0.34208   0.34296   0.34900   0.37473   0.40073
     Eigenvalues ---    0.43284   0.54702   0.70200   0.93188
 RFO step:  Lambda=-1.22855212D-04 EMin= 5.79192804D-03
 Quartic linear search produced a step of -0.19356.
 Iteration  1 RMS(Cart)=  0.01585214 RMS(Int)=  0.00006816
 Iteration  2 RMS(Cart)=  0.00008865 RMS(Int)=  0.00000337
 Iteration  3 RMS(Cart)=  0.00000000 RMS(Int)=  0.00000337
 Variable       Old X    -DE/DX   Delta X   Delta X   Delta X     New X
                                 (Linear)    (Quad)   (Total)
    R1        2.41453   0.00345   0.00111   0.00312   0.00423   2.41877
    R2        2.04400   0.00176   0.00099   0.00382   0.00481   2.04881
    R3        2.05724   0.00082  -0.00003   0.00243   0.00240   2.05964
    R4        2.52149   0.00400   0.00249   0.00371   0.00620   2.52770
    R5        2.74590  -0.00049   0.00127  -0.00258  -0.00131   2.74460
    R6        2.74454  -0.00023   0.00228  -0.00204   0.00024   2.74478
    R7        2.05970  -0.00097  -0.00017  -0.00195  -0.00212   2.05759
    R8        2.07023   0.00002  -0.00004   0.00008   0.00004   2.07027
    R9        2.07024   0.00002  -0.00004   0.00008   0.00003   2.07027
   R10        2.77525  -0.00096  -0.00287   0.00234  -0.00053   2.77472
   R11        2.07465   0.00017   0.00016   0.00018   0.00034   2.07499
   R12        2.07465   0.00017   0.00016   0.00018   0.00034   2.07499
   R13        2.34479  -0.00400  -0.00275   0.00015  -0.00259   2.34219
   R14        1.95546  -0.00083  -0.00129  -0.00010  -0.00139   1.95407
    A1        2.02980   0.00043   0.00199   0.00100   0.00300   2.03279
    A2        2.19712   0.00010   0.00167  -0.00148   0.00019   2.19732
    A3        2.05626  -0.00053  -0.00366   0.00047  -0.00319   2.05307
    A4        2.16692   0.00296  -0.00106   0.00807   0.00701   2.17393
    A5        2.20552  -0.00014   0.00505  -0.00630  -0.00125   2.20427
    A6        1.94002   0.00361   0.00323   0.01078   0.01400   1.95402
    A7        2.13765  -0.00347  -0.00828  -0.00448  -0.01275   2.12490
    A8        1.89600   0.00152   0.00775   0.00173   0.00948   1.90548
    A9        1.95249  -0.00062  -0.00119  -0.00276  -0.00395   1.94853
   A10        1.95249  -0.00062  -0.00119  -0.00275  -0.00395   1.94853
   A11        1.88927  -0.00028  -0.00341   0.00255  -0.00085   1.88842
   A12        1.88927  -0.00028  -0.00341   0.00255  -0.00085   1.88842
   A13        1.88239   0.00029   0.00117  -0.00099   0.00017   1.88256
   A14        1.92973  -0.00165   0.00140  -0.00600  -0.00460   1.92513
   A15        1.93111   0.00024  -0.00044  -0.00017  -0.00061   1.93050
   A16        1.93111   0.00024  -0.00044  -0.00018  -0.00061   1.93050
   A17        1.89801   0.00062  -0.00015   0.00235   0.00219   1.90020
   A18        1.89801   0.00062  -0.00015   0.00235   0.00219   1.90020
   A19        1.87451  -0.00001  -0.00026   0.00197   0.00171   1.87622
   A20        1.96311  -0.00278  -0.01047   0.00579  -0.00468   1.95843
   A21        1.87163  -0.00370  -0.01191  -0.00073  -0.01264   1.85899
    D1       -3.14159  -0.00000  -0.00000  -0.00000  -0.00000   3.14159
    D2        0.00000  -0.00000  -0.00000  -0.00000  -0.00000  -0.00000
    D3        3.14159   0.00000  -0.00000   0.00000   0.00000  -3.14159
    D4        0.00000   0.00000   0.00000   0.00000   0.00000   0.00001
    D5        3.14159   0.00000   0.00000   0.00000   0.00000   3.14159
    D6       -0.00001  -0.00000   0.00000  -0.00000  -0.00000  -0.00001
    D7       -2.08449  -0.00026  -0.00009  -0.00260  -0.00268  -2.08718
    D8        2.08447   0.00026   0.00009   0.00260   0.00268   2.08715
    D9        3.14159  -0.00000  -0.00000  -0.00000  -0.00000   3.14159
   D10        1.05711  -0.00026  -0.00009  -0.00260  -0.00268   1.05443
   D11       -1.05711   0.00026   0.00009   0.00259   0.00268  -1.05443
   D12       -3.14158  -0.00000  -0.00000  -0.00000  -0.00000  -3.14158
   D13        1.03771   0.00015  -0.00044   0.00112   0.00067   1.03839
   D14       -1.03769  -0.00015   0.00044  -0.00112  -0.00068  -1.03837
   D15        0.00000  -0.00000   0.00000  -0.00000  -0.00000   0.00000
   D16       -2.10389   0.00015  -0.00044   0.00112   0.00067  -2.10321
   D17        2.10389  -0.00015   0.00044  -0.00112  -0.00068   2.10321
   D18       -3.14158  -0.00000  -0.00000  -0.00000  -0.00000  -3.14158
   D19       -1.01805  -0.00033   0.00024  -0.00247  -0.00224  -1.02029
   D20        1.01808   0.00033  -0.00024   0.00247   0.00223   1.02032
   D21        3.14159   0.00000   0.00000   0.00002   0.00002  -3.14158
         Item               Value     Threshold  Converged?
 Maximum Force            0.004004     0.000450     NO 
 RMS     Force            0.001426     0.000300     NO 
 Maximum Displacement     0.051301     0.001800     NO 
 RMS     Displacement     0.015858     0.001200     NO 
 Predicted change in Energy=-1.369605D-04
 GradGradGradGradGradGradGradGradGradGradGradGradGradGradGradGradGradGrad

                          Input orientation:                          
 ---------------------------------------------------------------------
 Center     Atomic      Atomic             Coordinates (Angstroms)
 Number     Number       Type             X           Y           Z
 ---------------------------------------------------------------------
      1          6           0        1.059802    0.043060    0.001507
      2          7           0        2.323173    0.048048   -0.203816
      3          7           0        2.895304    0.077424   -1.412525
      4          6           0        2.204937    0.108481   -2.689957
      5          6           0        4.345271    0.075354   -1.327259
      6          7           0        4.934717    0.108043   -2.671673
      7          7           0        6.173752    0.107263   -2.640131
      8          1           0        0.738534    0.017898    1.036692
      9          1           0        0.287359    0.061746   -0.767193
     10          1           0        1.130130    0.104242   -2.515831
     11          1           0        2.455211   -0.762345   -3.305776
     12          1           0        2.455203    1.008208   -3.262728
     13          1           0        4.700476   -0.823095   -0.805436
     14          1           0        4.700471    0.947387   -0.762392
     15          1           0        6.492791    0.131187   -3.623443
 ---------------------------------------------------------------------
                    Distance matrix (angstroms):
                    1          2          3          4          5
     1  C    0.000000
     2  N    1.279956   0.000000
     3  N    2.317268   1.337600   0.000000
     4  C    2.925678   2.489684   1.452379   0.000000
     5  C    3.544146   2.313386   1.452474   2.537533   0.000000
     6  N    4.707981   3.593617   2.396998   2.729842   1.468320
     7  N    5.756288   4.556983   3.500875   3.969128   2.251220
     8  H    1.084183   2.012671   3.264025   4.005802   4.312785
     9  H    1.089917   2.112373   2.686648   2.715936   4.096403
    10  H    2.519063   2.602291   2.081788   1.088828   3.427925
    11  H    3.678853   3.208788   2.117379   1.095540   2.861573
    12  H    3.678843   3.208782   2.117380   1.095540   2.861575
    13  H    3.828301   2.602385   2.106689   3.262970   1.098036
    14  H    3.828291   2.602377   2.106688   3.262968   1.098036
    15  H    6.531875   5.393188   4.222909   4.388349   3.144426
                    6          7          8          9         10
     6  N    0.000000
     7  N    1.239436   0.000000
     8  H    5.600719   6.562667   0.000000
     9  H    5.022662   6.177345   1.859968   0.000000
    10  H    3.807780   5.045154   3.575083   1.941598   0.000000
    11  H    2.703260   3.876448   4.734213   3.438475   1.769414
    12  H    2.703264   3.876459   4.734203   3.438464   1.769415
    13  H    2.098745   2.530260   4.449459   4.501112   4.066052
    14  H    2.098744   2.530271   4.449448   4.501104   4.066051
    15  H    1.825923   1.034050   7.405481   6.831572   5.475917
                   11         12         13         14         15
    11  H    0.000000
    12  H    1.771076   0.000000
    13  H    3.361043   3.799106   0.000000
    14  H    3.799102   3.361043   1.771005   0.000000
    15  H    4.147453   4.147456   3.473357   3.473356   0.000000
 Stoichiometry    C3H8N4
 Framework group  C1[X(C3H8N4)]
 Deg. of freedom    39
 Full point group                 C1      NOp   1
 Largest Abelian subgroup         C1      NOp   1
 Largest concise Abelian subgroup C1      NOp   1
                         Standard orientation:                         
 ---------------------------------------------------------------------
 Center     Atomic      Atomic             Coordinates (Angstroms)
 Number     Number       Type             X           Y           Z
 ---------------------------------------------------------------------
      1          6           0        2.804705   -0.358446   -0.000003
      2          7           0        1.587979   -0.755769   -0.000000
      3          7           0        0.524778    0.055883    0.000005
      4          6           0        0.551723    1.508012    0.000002
      5          6           0       -0.724334   -0.685331    0.000001
      6          7           0       -1.865217    0.238981   -0.000007
      7          7           0       -2.951583   -0.357684    0.000005
      8          1           0        3.565361   -1.131010   -0.000004
      9          1           0        3.138114    0.679223   -0.000002
     10          1           0        1.586594    1.846522    0.000008
     11          1           0        0.056538    1.921326    0.885536
     12          1           0        0.056550    1.921324   -0.885540
     13          1           0       -0.790494   -1.331233    0.885504
     14          1           0       -0.790485   -1.331235   -0.885502
     15          1           0       -3.686447    0.369802   -0.000017
 ---------------------------------------------------------------------
 Rotational constants (GHZ):           7.8349944           1.4135047           1.2156813
 Standard basis: 6-31G(2df,p) (6D, 7F)
 There are   257 symmetry adapted cartesian basis functions of A   symmetry.
 There are   236 symmetry adapted basis functions of A   symmetry.
   236 basis functions,   364 primitive gaussians,   257 cartesian basis functions
    27 alpha electrons       27 beta electrons
       nuclear repulsion energy       298.6231719212 Hartrees.
 NAtoms=   15 NActive=   15 NUniq=   15 SFac= 1.00D+00 NAtFMM=   60 NAOKFM=F Big=F
 Integral buffers will be    131072 words long.
 Raffenetti 2 integral format.
 Two-electron integral symmetry is turned on.
 One-electron integrals computed using PRISM.
 PrsmSu:  requested number of processors reduced to:  13 ShMem   1 Linda.
 NBasis=   236 RedAO= T EigKep=  2.21D-04  NBF=   236
 NBsUse=   236 1.00D-06 EigRej= -1.00D+00 NBFU=   236
 Initial guess from the checkpoint file:  "CdNNpCpCNdN.chk"
 B after Tr=    -0.000000   -0.000000   -0.000000
         Rot=    0.999998   -0.000000    0.000000   -0.001865 Ang=  -0.21 deg.
 ExpMin= 1.61D-01 ExpMax= 4.17D+03 ExpMxC= 6.27D+02 IAcc=2 IRadAn=         4 AccDes= 0.00D+00
 Harris functional with IExCor=  402 and IRadAn=       4 diagonalized for initial guess.
 HarFok:  IExCor=  402 AccDes= 0.00D+00 IRadAn=         4 IDoV= 1 UseB2=F ITyADJ=14
 ICtDFT=  3500011 ScaDFX=  1.000000  1.000000  1.000000  1.000000
 FoFCou: FMM=F IPFlag=           0 FMFlag=      100000 FMFlg1=           0
         NFxFlg=           0 DoJE=T BraDBF=F KetDBF=T FulRan=T
         wScrn=  0.000000 ICntrl=       500 IOpCl=  0 I1Cent=   200000004 NGrid=           0
         NMat0=    1 NMatS0=      1 NMatT0=    0 NMatD0=    1 NMtDS0=    0 NMtDT0=    0
 Petite list used in FoFCou.
 Requested convergence on RMS density matrix=1.00D-08 within 128 cycles.
 Requested convergence on MAX density matrix=1.00D-06.
 Requested convergence on             energy=1.00D-06.
 No special actions if energy rises.
 Integral accuracy reduced to 1.0D-05 until final iterations.
 Initial convergence to 1.0D-05 achieved.  Increase integral accuracy.
 SCF Done:  E(RB3LYP) =  -338.036550135     A.U. after    9 cycles
            NFock=  9  Conv=0.96D-08     -V/T= 2.0076
 PrsmSu:  requested number of processors reduced to:  13 ShMem   1 Linda.
 Calling FoFJK, ICntrl=      2127 FMM=F ISym2X=0 I1Cent= 0 IOpClX= 0 NMat=1 NMatS=1 NMatT=0.
 ***** Axes restored to original set *****
 -------------------------------------------------------------------
 Center     Atomic                   Forces (Hartrees/Bohr)
 Number     Number              X              Y              Z
 -------------------------------------------------------------------
      1        6           0.000599672    0.000016263   -0.000670519
      2        7           0.000183139    0.000000417   -0.000017819
      3        7          -0.000292804   -0.000025002    0.001026004
      4        6          -0.000494898    0.000001621   -0.000064761
      5        6          -0.000033944    0.000002106   -0.000121171
      6        7           0.000324861    0.000004232   -0.000134308
      7        7          -0.000467571   -0.000005207    0.000239413
      8        1           0.000101153    0.000000067   -0.000000606
      9        1          -0.000131571    0.000004177   -0.000171433
     10        1           0.000071818   -0.000002315    0.000094010
     11        1          -0.000030095    0.000066296   -0.000123026
     12        1          -0.000030190   -0.000060227   -0.000126084
     13        1           0.000112535   -0.000019582    0.000001707
     14        1           0.000112640    0.000019547    0.000002360
     15        1          -0.000024746   -0.000002393    0.000066231
 -------------------------------------------------------------------
 Cartesian Forces:  Max     0.001026004 RMS     0.000248991

 GradGradGradGradGradGradGradGradGradGradGradGradGradGradGradGradGradGrad
 Berny optimization.
 Using GEDIIS/GDIIS optimizer.
 FormGI is forming the generalized inverse of G from B-inverse, IUseBI=4.
 Internal  Forces:  Max     0.001651934 RMS     0.000344767
 Search for a local minimum.
 Step number   4 out of a maximum of   66
 All quantities printed in internal units (Hartrees-Bohrs-Radians)
 Mixed Optimization -- En-DIIS/RFO-DIIS
 Update second derivatives using D2CorX and points    1    2    3    4
 DE= -1.25D-04 DEPred=-1.37D-04 R= 9.15D-01
 TightC=F SS=  1.41D+00  RLast= 3.01D-02 DXNew= 8.4853D-01 9.0434D-02
 Trust test= 9.15D-01 RLast= 3.01D-02 DXMaxT set to 5.05D-01
 ITU=  1  1  1  0
 Use linear search instead of GDIIS.
     Eigenvalues ---    0.00579   0.00649   0.00974   0.00977   0.01314
     Eigenvalues ---    0.01874   0.03127   0.03337   0.06081   0.07201
     Eigenvalues ---    0.07238   0.07528   0.11479   0.13925   0.14752
     Eigenvalues ---    0.15997   0.16000   0.16000   0.16125   0.17860
     Eigenvalues ---    0.20894   0.22404   0.23757   0.29754   0.32348
     Eigenvalues ---    0.33716   0.33913   0.33916   0.33973   0.34206
     Eigenvalues ---    0.34208   0.34375   0.34880   0.38000   0.39843
     Eigenvalues ---    0.43159   0.58092   0.72992   0.91537
 RFO step:  Lambda=-1.52641622D-05 EMin= 5.79192805D-03
 Quartic linear search produced a step of -0.08948.
 Iteration  1 RMS(Cart)=  0.00476663 RMS(Int)=  0.00000670
 Iteration  2 RMS(Cart)=  0.00001089 RMS(Int)=  0.00000028
 Iteration  3 RMS(Cart)=  0.00000000 RMS(Int)=  0.00000028
 Variable       Old X    -DE/DX   Delta X   Delta X   Delta X     New X
                                 (Linear)    (Quad)   (Total)
    R1        2.41877  -0.00070  -0.00038  -0.00018  -0.00056   2.41820
    R2        2.04881  -0.00003  -0.00043   0.00072   0.00029   2.04910
    R3        2.05964   0.00021  -0.00022   0.00097   0.00075   2.06040
    R4        2.52770  -0.00110  -0.00056  -0.00079  -0.00135   2.52635
    R5        2.74460   0.00042   0.00012   0.00076   0.00087   2.74547
    R6        2.74478   0.00003  -0.00002   0.00008   0.00005   2.74483
    R7        2.05759  -0.00006   0.00019  -0.00050  -0.00031   2.05728
    R8        2.07027   0.00001  -0.00000   0.00003   0.00003   2.07030
    R9        2.07027   0.00001  -0.00000   0.00003   0.00003   2.07030
   R10        2.77472  -0.00022   0.00005  -0.00064  -0.00059   2.77413
   R11        2.07499   0.00005  -0.00003   0.00019   0.00016   2.07515
   R12        2.07499   0.00005  -0.00003   0.00019   0.00016   2.07515
   R13        2.34219  -0.00048   0.00023  -0.00092  -0.00069   2.34151
   R14        1.95407  -0.00007   0.00012  -0.00037  -0.00024   1.95383
    A1        2.03279  -0.00011  -0.00027  -0.00014  -0.00041   2.03238
    A2        2.19732   0.00003  -0.00002   0.00015   0.00013   2.19745
    A3        2.05307   0.00009   0.00029  -0.00001   0.00027   2.05335
    A4        2.17393  -0.00165  -0.00063  -0.00465  -0.00528   2.16866
    A5        2.20427  -0.00071   0.00011  -0.00282  -0.00271   2.20156
    A6        1.95402   0.00015  -0.00125   0.00286   0.00161   1.95563
    A7        2.12490   0.00057   0.00114  -0.00004   0.00110   2.12600
    A8        1.90548  -0.00021  -0.00085   0.00029  -0.00056   1.90492
    A9        1.94853   0.00018   0.00035   0.00036   0.00072   1.94925
   A10        1.94853   0.00018   0.00035   0.00036   0.00072   1.94925
   A11        1.88842   0.00001   0.00008  -0.00010  -0.00003   1.88839
   A12        1.88842   0.00001   0.00008  -0.00010  -0.00003   1.88839
   A13        1.88256  -0.00017  -0.00002  -0.00084  -0.00086   1.88170
   A14        1.92513   0.00028   0.00041   0.00044   0.00085   1.92598
   A15        1.93050   0.00002   0.00005   0.00031   0.00037   1.93087
   A16        1.93050   0.00002   0.00005   0.00031   0.00037   1.93087
   A17        1.90020  -0.00015  -0.00020  -0.00041  -0.00061   1.89960
   A18        1.90020  -0.00015  -0.00020  -0.00042  -0.00061   1.89959
   A19        1.87622  -0.00003  -0.00015  -0.00028  -0.00043   1.87579
   A20        1.95843  -0.00074   0.00042  -0.00327  -0.00285   1.95558
   A21        1.85899  -0.00001   0.00113  -0.00198  -0.00085   1.85814
    D1        3.14159   0.00000   0.00000   0.00000   0.00000   3.14159
    D2       -0.00000   0.00000   0.00000  -0.00000  -0.00000  -0.00000
    D3       -3.14159  -0.00000  -0.00000  -0.00000  -0.00000   3.14159
    D4        0.00001  -0.00000  -0.00000  -0.00000  -0.00000   0.00000
[...]
 ! D16   D(4,3,5,13)          -120.5103         -DE/DX =    0.0                 !
 ! D17   D(4,3,5,14)           120.5101         -DE/DX =    0.0                 !
 ! D18   D(3,5,6,7)           -179.9987         -DE/DX =    0.0                 !
 ! D19   D(13,5,6,7)           -58.4114         -DE/DX =    0.0                 !
 ! D20   D(14,5,6,7)            58.4142         -DE/DX =    0.0                 !
 ! D21   D(5,6,7,15)          -179.9987         -DE/DX =    0.0                 !
 --------------------------------------------------------------------------------
 GradGradGradGradGradGradGradGradGradGradGradGradGradGradGradGradGradGrad


 ----------------------------------------------------------------------

 Electric dipole moment (input orientation):
 (Debye = 10**-18 statcoulomb cm , SI units = C m)
                  (au)            (Debye)         (10**-30 SI)
   Tot        0.743734D+00      0.189038D+01      0.630564D+01
   x         -0.114489D+00     -0.291002D+00     -0.970678D+00
   y          0.178729D-01      0.454284D-01      0.151533D+00
   z         -0.734652D+00     -0.186730D+01     -0.622864D+01

 Dipole polarizability, Alpha (input orientation).
 (esu units = cm**3 , SI units = C**2 m**2 J**-1)
 Alpha(0;0):
               (au)            (10**-24 esu)      (10**-40 SI)
   iso        0.654428D+02      0.969762D+01      0.107901D+02
   aniso      0.562117D+02      0.832972D+01      0.926807D+01
   xx         0.877881D+02      0.130089D+02      0.144743D+02
   yx         0.503836D+00      0.746607D-01      0.830713D-01
   yy         0.385217D+02      0.570832D+01      0.635136D+01
   zx        -0.207344D+02     -0.307252D+01     -0.341863D+01
   zy        -0.766129D+00     -0.113529D+00     -0.126318D+00
   zz         0.700186D+02      0.103757D+02      0.115445D+02

 ----------------------------------------------------------------------

 Dipole orientation:
     6          1.98187233         -0.08515124         -0.30517796
     7          4.40006042         -0.08968759         -0.29472580
     7          5.81798060         -0.09230369          1.79644251
     6          4.89466424         -0.09052563          4.38239836
     6          8.50097361         -0.09736788          1.21853419
     7          9.99275463         -0.10014427          3.55774247
     7         12.29564229         -0.10444040          3.13314106
     1          1.07805542         -0.08349118         -2.14381931
     1          0.76564494         -0.08283737          1.35746055
     1          2.83768857         -0.08663219          4.36475448
     1          5.53535942          1.58102148          5.42241436
     1          5.52902860         -1.76445825          5.42245892
     1          9.01144972          1.57478406          0.10066670
     1          9.00514229         -1.77147049          0.10072299
     1         13.18228660         -0.10613314          4.87430404

 Electric dipole moment (dipole orientation):
 (Debye = 10**-18 statcoulomb cm , SI units = C m)
                  (au)            (Debye)         (10**-30 SI)
   Tot        0.743734D+00      0.189038D+01      0.630564D+01
   x          0.000000D+00      0.000000D+00      0.000000D+00
   y          0.000000D+00      0.000000D+00      0.000000D+00
   z          0.743734D+00      0.189038D+01      0.630564D+01

 Dipole polarizability, Alpha (dipole orientation).
 (esu units = cm**3 , SI units = C**2 m**2 J**-1)
 Alpha(0;0):
               (au)            (10**-24 esu)      (10**-40 SI)
   iso        0.654428D+02      0.969762D+01      0.107901D+02
   aniso      0.562117D+02      0.832972D+01      0.926807D+01
   xx         0.936767D+02      0.138814D+02      0.154452D+02
   yx        -0.103237D+00     -0.152981D-01     -0.170214D-01
   yy         0.385032D+02      0.570559D+01      0.634832D+01
   zx         0.170575D+02      0.252766D+01      0.281240D+01
   zy        -0.316337D-01     -0.468764D-02     -0.521570D-02
   zz         0.641484D+02      0.950582D+01      0.105766D+02

 ----------------------------------------------------------------------
 1\1\GINC-LEWIS4-R630-HPC4-NODE224\Freq\RB3LYP\6-31G(2df,p)\C3H8N4\CZ9N
 3\01-Jun-2021\0\\#N Geom=AllCheck Guess=TCheck SCRF=Check GenChk RB3LY
 P/6-31G(2df,p) Freq\\Title Card Required\\0,1\C,1.061202929,0.04311788
 87,-0.0008402871\N,2.3247509749,0.0480321072,-0.203232832\N,2.89579217
 47,0.0774054638,-1.4117890948\C,2.2023639708,0.108440652,-2.688315894\
 C,4.3457270789,0.0753776369,-1.3282011945\N,4.9351825137,0.1080628068,
 -2.6724263759\N,6.173882994,0.1072038987,-2.6380205129\H,0.7384002465,
 0.0179679285,1.0338494073\H,0.2898340347,0.0618395023,-0.7708813892\H,
 1.1282690943,0.1041308155,-2.5115804876\H,2.4509971168,-0.7619903505,-
 3.3053959601\H,2.4509779732,1.0078412815,-3.2623597078\H,4.7020543417,
 -0.822942976,-0.8067231267\H,4.7020472328,0.9472987255,-0.7636850553\H
 ,6.4956473239,0.1311146191,-3.6203574893\\Version=ES64L-G16RevA.03\Sta
 te=1-A\HF=-338.0365563\RMSD=1.938e-09\RMSF=2.576e-05\ZeroPoint=0.12175
 9\Thermal=0.1279808\Dipole=-0.1144889,0.0178729,-0.7346519\DipoleDeriv
 =-0.2704923,-0.0125482,0.5161883,-0.0046591,-0.2568844,-0.0121309,0.19
 16711,-0.0121295,0.2417829,0.1996421,0.0171925,-0.707397,0.026918,-0.1
 40832,-0.0146878,-1.1075242,-0.0146877,0.4632464,-0.5881062,-0.0018111
 ,0.0745943,-0.020503,-0.1928069,0.0162581,0.8436739,0.0162651,-0.86156
 89,-0.0113232,-0.0058769,0.2417328,-0.0023609,0.2591936,-0.0041215,0.0
 969931,-0.004125,0.4286195,1.2205973,0.0041316,-0.170089,-0.0036926,0.
 393823,0.0093672,0.1520176,0.0093639,0.0086618,-0.1295319,0.0026438,-0
 .1088054,0.0057368,-0.0734338,-0.0030503,-0.2361719,-0.003045,0.052113
 9,-0.3652154,-0.0033834,0.1392668,0.0028558,-0.2648702,-0.0074389,-0.1
 169815,-0.0074341,0.040347,0.0147202,-0.000288,0.011861,-0.0013044,0.1
 174868,0.0047451,0.0536409,0.004745,-0.0776095,-0.0626809,0.0011479,-0
 .0471881,0.0026377,0.1467073,0.0061785,-0.1084461,0.0061785,-0.107293,
 -0.0993607,0.0005928,-0.0244715,-0.0012357,0.0762613,0.0003816,0.05075
 83,0.0003822,0.0606012,0.0915662,0.0460741,-0.0037155,0.0463713,-0.077
 7746,-0.1101047,0.0238771,-0.0510647,-0.106716,0.0915663,-0.0458366,-0
 .0059549,-0.0474724,-0.0856698,0.1111313,0.0215936,0.052088,-0.0988269
 ,-0.1299813,0.0368373,0.023809,0.0900852,-0.060339,0.0509121,-0.023393
 3,0.032596,0.0234842,-0.1299809,-0.0379477,0.0219939,-0.0888465,-0.056
 0872,-0.0547793,-0.0277421,-0.0364674,0.019234,0.1685808,-0.0009281,0.
 0381753,-0.0045302,0.2152258,0.0073396,0.1860336,0.0073347,-0.0860767\
 Polar=87.7881049,0.5038355,38.5216571,-20.734359,-0.7661289,70.0185535
 \Quadrupole=1.0246831,-0.7873297,-0.2373534,0.0339481,-1.391961,-0.013
 369\PG=C01 [X(C3H8N4)]\NImag=3\\0.83607955,0.00137974,0.09322547,-0.05
 689526,-0.01409316,0.67266847,-0.54995929,-0.00086584,0.03570387,0.792
 88747,-0.00200614,-0.04899230,0.00163888,0.00425511,0.07755652,0.08261
 931,0.00163863,-0.11637975,-0.17516150,-0.00817875,0.41385753,-0.04832
 089,-0.00176780,0.07274150,-0.16302644,-0.00143144,0.05890373,0.655004
 33,-0.00078093,0.01202607,0.00113952,-0.00219524,-0.03112326,0.0055291
 2,0.00041615,0.07192570,0.03214978,0.00113982,-0.03484230,0.09030699,0
 .00552808,-0.25844230,-0.01714260,-0.01340654,0.62310359,-0.00063750,-
 0.00009732,0.00400050,0.02204653,-0.00003737,0.00153370,-0.13912707,0.
 00085939,-0.03534012,0.58024124,0.00009210,-0.00260171,-0.00018474,0.0
 0011095,0.00043832,0.00109978,0.00104402,-0.04194862,0.00319829,0.0015
 3911,0.54608388,-0.00379533,-0.00018470,0.00499110,-0.00455496,0.00110
 030,-0.04479754,-0.04293118,0.00319770,-0.17339972,-0.06330536,0.00135
 499,0.49038692,0.00734270,0.00011940,-0.00491451,-0.03355569,-0.000629
 92,0.02591352,-0.22178498,0.00098995,-0.04072522,-0.01385147,0.0001727
 9,-0.00711215,0.52104937,-0.00003167,0.00414817,0.00022978,-0.00124372
 ,-0.01082879,-0.00001207,0.00096899,-0.05103596,0.00115173,0.00063583,
 -0.00564035,-0.00028860,-0.00090113,0.56411920,0.00130262,0.00022980,-
 0.00530098,0.05117088,-0.00001179,-0.01033827,-0.03988323,0.00115160,-
 0.09837950,-0.02614997,-0.00028876,0.00622833,0.03700785,0.00181220,0.
 48960044,-0.00029705,-0.00004426,0.00182125,-0.00745317,-0.00001413,0.
 00057692,-0.01854984,-0.00097370,0.04004801,-0.00491807,0.00001179,-0.
 00048817,-0.08663540,-0.00036707,0.01511938,0.83368692,0.00003338,0.00
 044479,-0.00001601,0.00003812,0.00022079,0.00002017,-0.00017820,-0.001
 93528,-0.00014705,0.00005937,-0.00403037,-0.00015194,0.00019303,-0.055
 25761,0.00272518,0.00079654,0.05363719,-0.00137526,-0.00001600,0.00110
 315,-0.00156030,0.00002030,-0.00061336,0.00732652,-0.00014698,0.004104
 54,-0.00244453,-0.00015198,0.00221049,-0.00790371,0.00272613,-0.167219
 02,-0.03330307,-0.00652946,0.32184875,-0.00101141,-0.00001231,0.000506
 22,-0.00060727,0.00004059,-0.00167094,0.00063850,-0.00009634,0.0039667
 1,-0.00024897,0.00000396,-0.00016135,-0.04146566,-0.00075620,0.0310844
 7,-0.67157488,0.00092281,-0.03740833,0.76412637,-0.00000321,-0.0000157
 1,0.00001633,-0.00007313,0.00055630,0.00001403,-0.00003377,0.00102760,
 0.00021216,0.00001401,0.00239855,0.00009593,-0.00153909,-0.03451518,-0
 .00057145,0.00073996,0.03374333,0.00360939,0.00187737,0.02133918,0.000
 13432,0.00001632,-0.00068665,0.00300302,0.00001398,-0.00001694,0.00138
 769,0.00021189,-0.00768365,-0.00057351,0.00009594,-0.00154154,0.063258
 22,-0.00057280,-0.01107152,-0.02994736,0.00361032,-0.11447623,-0.07761
 911,-0.01139424,0.48924121,-0.06661102,-0.00156351,0.06432848,-0.02310
 209,-0.00088534,0.03642324,-0.00345798,-0.00004520,0.00186115,-0.00159
 472,0.00002333,-0.00095992,0.00086930,-0.00002848,0.00117229,-0.000409
 20,0.00000420,-0.00017242,-0.00013598,-0.00000464,0.00019080,0.0865356
 4,-0.00173372,-0.02209472,0.00727019,-0.00024730,-0.01522972,-0.000334
 18,0.00007180,0.01099738,0.00017875,0.00001375,0.00291607,0.00007330,0
 .00000234,0.00132319,0.00003388,-0.00000330,0.00000605,0.00000189,-0.0
 0000098,0.00002129,-0.00000069,0.00206988,0.02063550,0.07132870,0.0072
 7015,-0.32101486,0.01017699,-0.00033415,-0.00149363,-0.00295262,0.0001
 7885,0.00364606,-0.00056320,0.00007327,-0.00009732,-0.00009555,0.00003
 390,-0.00007100,0.00013682,0.00000190,-0.00007173,0.00004085,-0.000000
 69,0.00004959,-0.08516396,-0.00759932,0.33309105,-0.17600587,0.0029770
 7,-0.12244535,-0.03474339,0.00059331,-0.02439782,0.00669661,0.00012283
 ,-0.00505610,-0.00118935,-0.00001303,0.00053351,0.00001861,-0.00000684
 ,0.00028146,0.00009300,-0.00000024,0.00001039,-0.00008378,-0.00000307,
 0.00012605,0.00696250,-0.00015554,0.00639758,0.19633672,0.00307878,-0.
 03440723,0.00393874,0.00005661,0.02475381,0.00033770,-0.00005238,-0.00
 793556,-0.00018089,-0.00003455,-0.00454577,-0.00007791,0.00000055,0.00
 088866,0.00002187,-0.00000187,-0.00000158,0.00000243,0.00000035,-0.000
 09058,-0.00000548,0.00045014,0.00212809,0.00040226,-0.00344650,0.01753
 988,-0.12662859,0.00393876,-0.19632080,-0.00232094,0.00033764,0.010871
 12,0.00215474,-0.00018096,-0.00049606,0.00142081,-0.00007791,-0.001343
 37,-0.00002344,0.00002187,-0.00001072,0.00007648,0.00000244,-0.0001013
 6,-0.00001489,-0.00000548,0.00013445,-0.01851889,0.00040234,-0.0144114
 9,0.14175033,-0.00453823,0.20410140,0.00173370,-0.00006058,0.00249406,
 -0.00363125,-0.00010180,0.00419029,-0.01911830,0.00010099,-0.00415788,
 -0.31141773,-0.00106706,0.04375573,0.00125897,0.00003745,-0.00154413,-
 0.00002390,0.00000910,-0.00037511,-0.00033568,0.00000131,-0.00005326,0
 .00053044,-0.00000866,0.00035490,0.00046383,-0.00005251,0.00216181,0.3
 4332922,-0.00001342,-0.00025227,0.00008138,-0.00002181,0.00180821,-0.0
 0006361,0.00092920,-0.00191120,-0.00011274,-0.00133611,-0.04670097,0.0
 0028351,0.00000395,-0.00055084,0.00010984,-0.00004364,0.00145604,0.000
 05105,-0.00000255,-0.00066696,-0.00003582,-0.00000703,-0.00026792,-0.0
 0001320,-0.00005416,0.00121250,0.00011391,0.00124552,0.04341006,0.0005
 4830,0.00008141,-0.00360062,0.00089785,-0.00006361,0.00442346,-0.03821
 751,-0.00011291,0.00271722,0.05482243,0.00028354,-0.05832643,-0.000161
 11,0.00010975,-0.00506499,0.00179471,0.00005111,-0.00064194,0.00010407
 ,-0.00003585,0.00080467,0.00028988,-0.00001317,0.00027543,0.00223031,0
 .00011384,-0.00347214,-0.05108668,-0.00058945,0.06761470,0.00086128,-0
 .00094583,-0.00012292,-0.00342520,-0.00050573,0.00130229,0.00495898,-0
 .01169626,-0.01778393,-0.06300847,0.05396204,0.03677324,0.00139908,-0.
 00088664,0.00068047,-0.00136833,-0.00027058,-0.00040230,-0.00046083,0.
 00002817,0.00033851,0.00031993,0.00095195,0.00022854,0.00054112,-0.001
 03653,-0.00006561,-0.00600415,0.02667694,0.01597588,0.06400168,0.00042
 887,-0.00042163,-0.00010134,-0.00070461,-0.00080189,0.00266657,-0.0050
 4263,0.01023641,-0.00280354,0.05343345,-0.21664070,-0.10984271,0.00089
 156,0.00003483,-0.00094298,0.00110832,0.00148237,-0.00023631,0.0003999
 0,-0.00068192,0.00072902,0.00002343,-0.00003615,0.00001776,-0.00001954
 ,0.00013596,-0.00003817,-0.00054579,0.00124356,0.00199586,-0.05772001,
 0.22881819,0.00026620,-0.00040643,-0.00047087,-0.00450876,-0.00213292,
 0.00055875,0.00298345,-0.01778860,-0.03094731,0.03479582,-0.10919433,-
 0.11738017,0.00198899,-0.00058603,-0.00016511,-0.00019549,0.00088185,0
 .00002201,-0.00001962,-0.00036489,0.00023684,0.00026128,0.00046849,0.0
 0008213,0.00024170,-0.00078475,0.00049937,0.00203520,-0.00427827,-0.00
 242081,-0.03362559,0.12215925,0.14095278,0.00086136,0.00095071,-0.0000
 7689,-0.00342514,0.00044186,0.00132548,0.00495848,0.01254672,-0.017194
 54,-0.06300618,-0.05568206,0.03410474,0.00139912,0.00085255,0.00072267
 ,-0.00136826,0.00028974,-0.00038862,-0.00046075,-0.00004455,0.00033674
 ,0.00031991,-0.00096193,0.00018202,0.00054111,0.00103848,-0.00001520,-
 0.00600367,-0.02742210,0.01466043,0.00198687,0.00858500,-0.00295704,0.
 06399918,-0.00044129,-0.00044640,0.00010261,0.00092278,-0.00077280,-0.
 00273127,0.00489178,0.00913991,0.00475408,-0.05505805,-0.22704188,0.10
 450668,-0.00098718,-0.00003985,0.00094904,-0.00109751,0.00151010,0.000
 30877,-0.00039850,-0.00066196,-0.00077280,-0.00003610,-0.00001229,-0.0
 0002236,0.00000778,0.00009691,0.00001858,0.00044608,0.00112348,-0.0018
 2303,-0.00843059,-0.02317346,0.01209189,0.05928229,0.24047383,0.000245
 23,0.00040760,-0.00044612,-0.00446926,0.00206806,0.00052994,0.00322413
 ,0.01973933,-0.02985053,0.03215551,0.10385850,-0.10698082,0.00194335,0
 .00059221,-0.00009044,-0.00024914,-0.00080945,-0.00000590,-0.00003901,
 0.00032115,0.00021701,0.00025982,-0.00047309,0.00005826,0.00024237,0.0
 0076521,0.00053843,0.00205927,0.00445086,-0.00230134,-0.00337053,-0.01
 367263,0.00930861,-0.03077779,-0.11731692,0.12929914,-0.00202532,-0.00
 045863,0.00136566,0.00461669,-0.00056826,-0.00591227,-0.02977617,0.023
 62827,-0.01596761,-0.00172316,0.00351900,0.00391208,-0.06456847,0.0614
 8696,-0.03304302,0.00237900,-0.01167813,0.00848521,0.00100321,-0.00089
 058,0.00241710,-0.00008781,-0.00035263,-0.00004004,0.00021834,0.000376
 35,0.00002904,-0.00041003,0.00004719,-0.00086884,0.00041184,-0.0005054
 0,-0.00042236,-0.00014241,0.00021884,-0.00075173,0.08530782,0.00066788
 ,-0.00023133,-0.00066172,-0.00068431,0.00119424,0.00049298,0.00355338,
 0.00989065,-0.00208503,-0.00072655,-0.00094088,-0.00066859,0.06137345,
 -0.22488620,0.09772164,-0.00098379,0.00073989,0.00064954,0.00011531,0.
 00166422,-0.00098501,0.00002684,-0.00018342,0.00004587,-0.00015081,0.0
 0009910,-0.00006729,-0.00012969,-0.00007887,-0.00009421,-0.00001490,-0
 .00018620,0.00004772,0.00009538,-0.00024577,0.00023796,-0.06906426,0.2
 3552742,-0.00003032,-0.00031962,0.00018234,0.00048228,0.00038818,0.000
 80850,-0.00363435,0.00300920,0.00082540,-0.00030836,0.00018663,0.00018
 476,-0.03398377,0.09533668,-0.09725387,-0.00146057,0.02154307,-0.02585
 798,-0.00330992,0.00663375,0.00207549,-0.00000556,0.00029760,-0.000007
 93,0.00002052,-0.00042975,-0.00000779,0.00003740,0.00003352,-0.0000169
 5,0.00009714,0.00000690,-0.00022606,0.00007361,-0.00011239,-0.00009721
 ,0.03885245,-0.10744845,0.10956199,-0.00202534,0.00039176,0.00138632,0
 .00461675,0.00085489,-0.00587776,-0.02977612,-0.02282481,-0.01709694,-
 0.00172318,-0.00370493,0.00373650,-0.06456725,-0.05980743,-0.03599128,
 0.00237857,0.01125210,0.00904255,0.00100320,0.00077227,0.00245789,-0.0
 0008780,0.00035414,-0.00002286,0.00021834,-0.00037732,0.00001072,-0.00
 041007,-0.00000490,-0.00087014,-0.00014236,-0.00018205,-0.00076144,0.0
 0041182,0.00052533,-0.00039730,0.00477864,0.00626930,0.00303398,0.0853
 0702,-0.00066566,-0.00027797,0.00063936,0.00066012,0.00123614,-0.00047
 225,-0.00337291,0.00991382,0.00252704,0.00074063,-0.00096164,0.0006128
 6,-0.05964835,-0.21521476,-0.10346078,0.00105388,0.00175414,0.00069402
 ,0.00004559,0.00193964,0.00097831,-0.00002654,-0.00016634,-0.00005358,
 0.00014964,0.00007473,0.00007131,0.00012772,-0.00008168,0.00009105,-0.
 00009883,-0.00023933,-0.00024489,0.00001016,-0.00018364,-0.00004566,-0
 .00640917,-0.02277833,-0.01442589,0.06709351,0.22480014,-0.00006273,0.
 00029724,0.00022899,0.00051502,-0.00036733,0.00076664,-0.00380282,-0.0
 0256719,0.00080194,-0.00027268,-0.00024240,0.00020557,-0.03692570,-0.1
 0107615,-0.10692610,-0.00141044,-0.02019933,-0.02687119,-0.00331183,-0
 .00664050,0.00179947,-0.00000686,-0.00030532,-0.00002502,0.00002782,0.
 00043378,0.00001659,0.00004366,-0.00003667,-0.00001417,0.00006892,0.00
 010546,-0.00010366,0.00009776,-0.00000482,-0.00022862,0.00272570,0.012
 86153,0.00937692,0.04216184,0.11305522,0.12028970,0.00001509,-0.000002
 60,0.00010708,-0.00123854,-0.00000563,0.00023180,0.00068088,-0.0000518
 3,0.00213230,0.00015811,-0.00001199,0.00049263,-0.00690824,0.00004741,
 -0.00193047,-0.04593939,-0.00147122,0.06046898,-0.05038608,-0.00084105
 ,0.03454289,-0.00005114,0.00000020,-0.00000816,-0.00006779,0.00000040,
 -0.00001636,0.00003861,0.00000291,-0.00011958,-0.00007144,-0.00015050,
 -0.00008232,-0.00007144,0.00015433,-0.00007492,0.00001782,-0.00034723,
 0.00013545,0.00001779,0.00034022,0.00015232,0.10380576,-0.00000470,-0.
 00010323,0.00000018,-0.00000772,-0.00001557,-0.00000686,0.00000382,0.0
 0073235,0.00004585,-0.00000560,-0.00078393,-0.00001081,-0.00004135,0.0
 2745548,0.00052072,-0.00018121,-0.03376984,-0.00098280,-0.00213901,-0.
 02605781,0.00811106,-0.00000099,-0.00003702,-0.00000067,-0.00000091,0.
 00005108,0.00000119,-0.00000207,0.00025685,0.00000568,-0.00001319,0.00
 022996,0.00013190,0.00001775,0.00023382,-0.00012313,0.00065045,0.00041
 549,-0.00469943,-0.00061186,0.00018509,0.00468647,0.00233659,0.0312072
 8,0.00019304,0.00000019,-0.00011109,0.00031881,-0.00000686,0.00026583,
 -0.00015746,0.00004596,-0.00115737,0.00022898,-0.00001082,-0.00034026,
 0.00173322,0.00052139,0.00606275,0.00748066,-0.00098280,0.00656979,0.0
 8785268,0.00811035,-0.35908220,0.00004066,-0.00000067,-0.00000953,0.00
 003722,0.00000119,0.00000236,0.00008475,0.00000568,0.00002392,-0.00009
 411,-0.00004315,0.00005350,-0.00009336,0.00005194,0.00004961,-0.000781
 37,-0.00004694,0.00045240,-0.00081209,0.00003391,0.00068292,-0.0960316
 4,-0.00767935,0.34653737\\-0.00001745,-0.00000018,0.00000622,0.0000038
 1,-0.00000144,0.00005532,-0.00003926,0.00000143,-0.00005140,0.00002163
 ,-0.00000083,0.00003068,0.00011219,0.00000238,-0.00004602,-0.00004402,
 -0.00000241,0.00003736,-0.00001248,-0.00000097,0.00000154,0.00000482,-
 0.00000016,0.00000693,-0.00001162,0.00000014,-0.00000605,0.00001222,0.
 00000081,-0.00002958,-0.00001893,0.00000390,-0.00000681,-0.00001883,-0
 .00000365,-0.00000696,-0.00000581,-0.00000134,-0.00000026,-0.00000587,
 0.00000133,0.00000038,0.00001959,0.00000098,0.00000865\\\@


 I CLAIM NOT TO HAVE CONTROLLED EVENTS,
 BUT CONFESS PLAINLY THAT EVENTS HAVE CONTROLLED ME.

                                         A. LINCOLN
 Job cpu time:       0 days  0 hours 54 minutes 38.4 seconds.
 Elapsed time:       0 days  0 hours 13 minutes 40.2 seconds.
 File lengths (MBytes):  RWF=     73 Int=      0 D2E=      0 Chk=      6 Scr=      1
 Normal termination of Gaussian 16 at Tue Jun  1 03:05:21 2021.
### All Done ###
