### Starting Gaussian ###
 Entering Gaussian System, Link 0=g16
 Initial command:
 /cluster/software/gaussian/gaussian-16-A.03/avx2/g16/l1.exe "/local/scratch/cz9n3/Gau-9013.inp" -scrdir="/local/scratch/cz9n3/"
 Entering Link 1 = /cluster/software/gaussian/gaussian-16-A.03/avx2/g16/l1.exe PID=      9014.
  
 Copyright (c) 1988,1990,1992,1993,1995,1998,2003,2009,2016,
            Gaussian, Inc.  All Rights Reserved.
  
 This is part of the Gaussian(R) 16 program.  It is based on
 the Gaussian(R) 09 system (copyright 2009, Gaussian, Inc.),
 the Gaussian(R) 03 system (copyright 2003, Gaussian, Inc.),
 the Gaussian(R) 98 system (copyright 1998, Gaussian, Inc.),
 the Gaussian(R) 94 system (copyright 1995, Gaussian, Inc.),
 the Gaussian 92(TM) system (copyright 1992, Gaussian, Inc.),
 the Gaussian 90(TM) system (copyright 1990, Gaussian, Inc.),
 the Gaussian 88(TM) system (copyright 1988, Gaussian, Inc.),
 the Gaussian 86(TM) system (copyright 1986, Carnegie Mellon
 University), and the Gaussian 82(TM) system (copyright 1983,
 Carnegie Mellon University). Gaussian is a federally registered
 trademark of Gaussian, Inc.
  
 This software contains proprietary and confidential information,
 including trade secrets, belonging to Gaussian, Inc.
  
 This software is provided under written license and may be
 used, copied, transmitted, or stored only in accord with that
 written license.
  
 The following legend is applicable only to US Government
 contracts under FAR:
  
                    RESTRICTED RIGHTS LEGEND
  
 Use, reproduction and disclosure by the US Government is
 subject to restrictions as set forth in subparagraphs (a)
 and (c) of the Commercial Computer Software - Restricted
 Rights clause in FAR 52.227-19.
  
 Gaussian, Inc.
 340 Quinnipiac St., Bldg. 40, Wallingford CT 06492
  
  
 ---------------------------------------------------------------
 Warning -- This program may not be used in any manner that
 competes with the business of Gaussian, Inc. or will provide
 assistance to any competitor of Gaussian, Inc.  The licensee
 of this program is prohibited from giving any competitor of
 Gaussian, Inc. access to this program.  By using this program,
 the user acknowledges that Gaussian, Inc. is engaged in the
 business of creating and licensing software in the field of
 computational chemistry and represents and warrants to the
 licensee that it is not a competitor of Gaussian, Inc. and that
 it will not use this program in any manner prohibited above.
 ---------------------------------------------------------------
  

 Cite this work as:
 Gaussian 16, Revision A.03,
 M. J. Frisch, G. W. Trucks, H. B. Schlegel, G. E. Scuseria, 
 M. A. Robb, J. R. Cheeseman, G. Scalmani, V. Barone, 
 G. A. Petersson, H. Nakatsuji, X. Li, M. Caricato, A. V. Marenich, 
 J. Bloino, B. G. Janesko, R. Gomperts, B. Mennucci, H. P. Hratchian, 
 J. V. Ortiz, A. F. Izmaylov, J. L. Sonnenberg, D. Williams-Young, 
 F. Ding, F. Lipparini, F. Egidi, J. Goings, B. Peng, A. Petrone, 
 T. Henderson, D. Ranasinghe, V. G. Zakrzewski, J. Gao, N. Rega, 
 G. Zheng, W. Liang, M. Hada, M. Ehara, K. Toyota, R. Fukuda, 
 J. Hasegawa, M. Ishida, T. Nakajima, Y. Honda, O. Kitao, H. Nakai, 
 T. Vreven, K. Throssell, J. A. Montgomery, Jr., J. E. Peralta, 
 F. Ogliaro, M. J. Bearpark, J. J. Heyd, E. N. Brothers, K. N. Kudin, 
 V. N. Staroverov, T. A. Keith, R. Kobayashi, J. Normand, 
 K. Raghavachari, A. P. Rendell, J. C. Burant, S. S. Iyengar, 
 J. Tomasi, M. Cossi, J. M. Millam, M. Klene, C. Adamo, R. Cammi, 
 J. W. Ochterski, R. L. Martin, K. Morokuma, O. Farkas, 
 J. B. Foresman, and D. J. Fox, Gaussian, Inc., Wallingford CT, 2016.
 
 ******************************************
 Gaussian 16:  ES64L-G16RevA.03 25-Dec-2016
                 1-Jun-2021 
 ******************************************
 %chk=CNCCNpCpNCtN.chk
 %NProcShared=20
 Will use up to   20 processors via shared memory.
 -----------------------------
 # opt freq b3lyp/6-31g(2df,p)
 -----------------------------
 1/18=20,19=15,26=3,38=1/1,3;
 2/9=110,12=2,17=6,18=5,40=1/2;
 3/5=1,6=6,7=104,11=2,25=1,30=1,71=1,74=-5/1,2,3;
 4//1;
 5/5=2,38=5/2;
 6/7=2,8=2,9=2,10=2,28=1/1;
 7//1,2,3,16;
 1/18=20,19=15,26=3/3(2);
 2/9=110/2;
 99//99;
 2/9=110/2;
 3/5=1,6=6,7=104,11=2,25=1,30=1,71=1,74=-5/1,2,3;
 4/5=5,16=3,69=1/1;
 5/5=2,38=5/2;
 7//1,2,3,16;
 1/18=20,19=15,26=3/3(-5);
 2/9=110/2;
 6/7=2,8=2,9=2,10=2,19=2,28=1/1;
 99/9=1/99;
 -------------------
 Title Card Required
 -------------------
 Symbolic Z-matrix:
 Charge =  0 Multiplicity = 1
 C                     0.9172    0.03495  -0.0313 
 N                     2.3761    0.02698  -0.04539 
 C                     2.87064   1.35779   0.31804 
 C                     4.41223   1.41307   0.36022 
 N                     4.9349    2.74927   0.74984 
 C                     4.42725   3.10919   2.08673 
 N                     6.34608   2.76915   0.73193 
 C                     7.00287   3.91049   0.9943 
 N                     7.58841   4.87328   1.27101 
 H                     0.54169  -0.95683  -0.29401 
 H                     0.52064   0.7568   -0.75272 
 H                     0.53278   0.28293   0.96475 
 H                     2.70516  -0.2158   -0.97876 
 H                     2.46065   1.58608   1.30607 
 H                     2.50076   2.1123   -0.38738 
 H                     4.79258   1.15307  -0.63761 
 H                     4.78581   0.64801   1.05444 
 H                     3.33685   3.18003   2.10332 
 H                     4.76918   4.10411   2.3839 
 H                     4.74863   2.37825   2.83629 
 H                     6.8256    1.8997    0.4734 
 

 GradGradGradGradGradGradGradGradGradGradGradGradGradGradGradGradGradGrad
 Berny optimization.
 Initialization pass.
                           ----------------------------
                           !    Initial Parameters    !
                           ! (Angstroms and Degrees)  !
 --------------------------                            --------------------------
 ! Name  Definition              Value          Derivative Info.                !
 --------------------------------------------------------------------------------
 ! R1    R(1,2)                  1.459          estimate D2E/DX2                !
 ! R2    R(1,10)                 1.0925         estimate D2E/DX2                !
 ! R3    R(1,11)                 1.0949         estimate D2E/DX2                !
 ! R4    R(1,12)                 1.0961         estimate D2E/DX2                !
 ! R5    R(2,3)                  1.4655         estimate D2E/DX2                !
 ! R6    R(2,13)                 1.019          estimate D2E/DX2                !
 ! R7    R(3,4)                  1.5432         estimate D2E/DX2                !
 ! R8    R(3,14)                 1.0938         estimate D2E/DX2                !
 ! R9    R(3,15)                 1.0971         estimate D2E/DX2                !
 ! R10   R(4,5)                  1.4867         estimate D2E/DX2                !
 ! R11   R(4,16)                 1.0991         estimate D2E/DX2                !
 ! R12   R(4,17)                 1.0986         estimate D2E/DX2                !
 ! R13   R(5,6)                  1.4746         estimate D2E/DX2                !
 ! R14   R(5,7)                  1.4114         estimate D2E/DX2                !
 ! R15   R(6,18)                 1.0928         estimate D2E/DX2                !
 ! R16   R(6,19)                 1.0932         estimate D2E/DX2                !
 ! R17   R(6,20)                 1.0952         estimate D2E/DX2                !
 ! R18   R(7,8)                  1.3427         estimate D2E/DX2                !
 ! R19   R(7,21)                 1.026          estimate D2E/DX2                !
 ! R20   R(8,9)                  1.1603         estimate D2E/DX2                !
 ! A1    A(2,1,10)             109.6577         estimate D2E/DX2                !
 ! A2    A(2,1,11)             111.0639         estimate D2E/DX2                !
 ! A3    A(2,1,12)             111.144          estimate D2E/DX2                !
 ! A4    A(10,1,11)            108.3948         estimate D2E/DX2                !
 ! A5    A(10,1,12)            107.6586         estimate D2E/DX2                !
 ! A6    A(11,1,12)            108.8189         estimate D2E/DX2                !
 ! A7    A(1,2,3)              109.2735         estimate D2E/DX2                !
 ! A8    A(1,2,13)             109.4537         estimate D2E/DX2                !
 ! A9    A(3,2,13)             109.5438         estimate D2E/DX2                !
 ! A10   A(2,3,4)              112.1121         estimate D2E/DX2                !
 ! A11   A(2,3,14)             106.6814         estimate D2E/DX2                !
 ! A12   A(2,3,15)             110.5659         estimate D2E/DX2                !
 ! A13   A(4,3,14)             110.0159         estimate D2E/DX2                !
 ! A14   A(4,3,15)             109.2523         estimate D2E/DX2                !
 ! A15   A(14,3,15)            108.1127         estimate D2E/DX2                !
 ! A16   A(3,4,5)              112.989          estimate D2E/DX2                !
 ! A17   A(3,4,16)             108.2055         estimate D2E/DX2                !
 ! A18   A(3,4,17)             109.393          estimate D2E/DX2                !
 ! A19   A(5,4,16)             109.2005         estimate D2E/DX2                !
 ! A20   A(5,4,17)             109.9224         estimate D2E/DX2                !
 ! A21   A(16,4,17)            106.9357         estimate D2E/DX2                !
 ! A22   A(4,5,6)              109.6285         estimate D2E/DX2                !
 ! A23   A(4,5,7)              111.1507         estimate D2E/DX2                !
 ! A24   A(6,5,7)              110.6257         estimate D2E/DX2                !
 ! A25   A(5,6,18)             111.9055         estimate D2E/DX2                !
 ! A26   A(5,6,19)             111.1555         estimate D2E/DX2                !
 ! A27   A(5,6,20)             110.8898         estimate D2E/DX2                !
 ! A28   A(18,6,19)            104.4161         estimate D2E/DX2                !
 ! A29   A(18,6,20)            109.0065         estimate D2E/DX2                !
 ! A30   A(19,6,20)            109.2434         estimate D2E/DX2                !
 ! A31   A(5,7,8)              119.9046         estimate D2E/DX2                !
 ! A32   A(5,7,21)             117.2927         estimate D2E/DX2                !
 ! A33   A(8,7,21)             122.7476         estimate D2E/DX2                !
 ! A34   L(7,8,9,19,-1)        179.5215         estimate D2E/DX2                !
 ! A35   L(7,8,9,19,-2)        177.083          estimate D2E/DX2                !
 ! D1    D(10,1,2,3)          -179.5664         estimate D2E/DX2                !
 ! D2    D(10,1,2,13)           60.4763         estimate D2E/DX2                !
 ! D3    D(11,1,2,3)            60.6538         estimate D2E/DX2                !
 ! D4    D(11,1,2,13)          -59.3035         estimate D2E/DX2                !
 ! D5    D(12,1,2,3)           -60.6505         estimate D2E/DX2                !
 ! D6    D(12,1,2,13)          179.3922         estimate D2E/DX2                !
 ! D7    D(1,2,3,4)            178.4747         estimate D2E/DX2                !
 ! D8    D(1,2,3,14)            57.9813         estimate D2E/DX2                !
 ! D9    D(1,2,3,15)           -59.3457         estimate D2E/DX2                !
 ! D10   D(13,2,3,4)           -61.6234         estimate D2E/DX2                !
 ! D11   D(13,2,3,14)          177.8832         estimate D2E/DX2                !
 ! D12   D(13,2,3,15)           60.5562         estimate D2E/DX2                !
 ! D13   D(2,3,4,5)           -179.019          estimate D2E/DX2                !
 ! D14   D(2,3,4,16)            59.9431         estimate D2E/DX2                !
 ! D15   D(2,3,4,17)           -56.2162         estimate D2E/DX2                !
 ! D16   D(14,3,4,5)           -60.4794         estimate D2E/DX2                !
 ! D17   D(14,3,4,16)          178.4827         estimate D2E/DX2                !
 ! D18   D(14,3,4,17)           62.3234         estimate D2E/DX2                !
 ! D19   D(15,3,4,5)            58.056          estimate D2E/DX2                !
 ! D20   D(15,3,4,16)          -62.9818         estimate D2E/DX2                !
 ! D21   D(15,3,4,17)         -179.1411         estimate D2E/DX2                !
 ! D22   D(3,4,5,6)             59.385          estimate D2E/DX2                !
 ! D23   D(3,4,5,7)           -178.0002         estimate D2E/DX2                !
 ! D24   D(16,4,5,6)           179.8568         estimate D2E/DX2                !
 ! D25   D(16,4,5,7)           -57.5285         estimate D2E/DX2                !
 ! D26   D(17,4,5,6)           -63.1228         estimate D2E/DX2                !
 ! D27   D(17,4,5,7)            59.492          estimate D2E/DX2                !
 ! D28   D(4,5,6,18)           -61.7327         estimate D2E/DX2                !
 ! D29   D(4,5,6,19)          -178.0497         estimate D2E/DX2                !
 ! D30   D(4,5,6,20)            60.2175         estimate D2E/DX2                !
 ! D31   D(7,5,6,18)           175.3412         estimate D2E/DX2                !
 ! D32   D(7,5,6,19)            59.0242         estimate D2E/DX2                !
 ! D33   D(7,5,6,20)           -62.7085         estimate D2E/DX2                !
 ! D34   D(4,5,7,8)            176.844          estimate D2E/DX2                !
 ! D35   D(4,5,7,21)            -0.5321         estimate D2E/DX2                !
 ! D36   D(6,5,7,8)            -61.1187         estimate D2E/DX2                !
 ! D37   D(6,5,7,21)           121.5052         estimate D2E/DX2                !
 --------------------------------------------------------------------------------
 Trust Radius=3.00D-01 FncErr=1.00D-07 GrdErr=1.00D-06 EigMax=2.50D+02 EigMin=1.00D-04
 Number of steps in this run=    102 maximum allowed number of steps=    126.
 GradGradGradGradGradGradGradGradGradGradGradGradGradGradGradGradGradGrad

                          Input orientation:                          
 ---------------------------------------------------------------------
 Center     Atomic      Atomic             Coordinates (Angstroms)
 Number     Number       Type             X           Y           Z
 ---------------------------------------------------------------------
      1          6           0        0.917200    0.034950   -0.031300
      2          7           0        2.376100    0.026980   -0.045390
      3          6           0        2.870640    1.357790    0.318040
      4          6           0        4.412230    1.413070    0.360220
      5          7           0        4.934900    2.749270    0.749840
      6          6           0        4.427250    3.109190    2.086730
      7          7           0        6.346080    2.769150    0.731930
      8          6           0        7.002870    3.910490    0.994300
      9          7           0        7.588410    4.873280    1.271010
     10          1           0        0.541690   -0.956830   -0.294010
     11          1           0        0.520640    0.756800   -0.752720
     12          1           0        0.532780    0.282930    0.964750
     13          1           0        2.705160   -0.215800   -0.978760
     14          1           0        2.460650    1.586080    1.306070
     15          1           0        2.500760    2.112300   -0.387380
     16          1           0        4.792580    1.153070   -0.637610
     17          1           0        4.785810    0.648010    1.054440
     18          1           0        3.336850    3.180030    2.103320
     19          1           0        4.769180    4.104110    2.383900
     20          1           0        4.748630    2.378250    2.836290
     21          1           0        6.825600    1.899700    0.473400
 ---------------------------------------------------------------------
                    Distance matrix (angstroms):
                    1          2          3          4          5
     1  C    0.000000
     2  N    1.458990   0.000000
     3  C    2.384926   1.465506   0.000000
     4  C    3.777266   2.496315   1.543157   0.000000
     5  N    4.911174   3.819779   2.526626   1.486747   0.000000
     6  C    5.124203   4.272373   2.935762   2.420307   1.474627
     7  N    6.126264   4.887173   3.773848   2.391003   1.411434
     8  C    7.287458   6.129405   4.903971   3.653845   2.384259
     9  N    8.343290   7.237935   5.960216   4.784424   3.438626
    10  H    1.092544   2.096367   3.340072   4.585360   5.841669
    11  H    1.094885   2.115581   2.651455   4.100463   5.070830
    12  H    1.096079   2.117480   2.653139   4.085683   5.050513
    13  H    2.038960   1.019020   2.045791   2.712964   4.092852
    14  H    2.564527   2.065039   1.093806   2.175599   2.790039
    15  H    2.636255   2.116851   1.097139   2.168305   2.761166
    16  H    4.078771   2.730967   2.156161   1.099059   2.119700
    17  H    4.064581   2.720663   2.171163   1.098554   2.128451
    18  H    4.505867   3.934682   2.593287   2.704993   2.138043
    19  H    6.101558   5.315192   3.926131   3.385911   2.129133
    20  H    5.328600   4.411513   3.302994   2.678742   2.127352
    21  H    6.216205   4.855335   3.994936   2.464543   2.091156
                    6          7          8          9         10
     6  C    0.000000
     7  N    2.373398   0.000000
     8  C    2.910207   1.342709   0.000000
     9  N    3.710842   2.502270   1.160341   0.000000
    10  H    6.107210   6.973265   8.191300   9.278779   0.000000
    11  H    5.371947   6.339518   7.417354   8.425809   1.774087
    12  H    4.941000   6.326923   7.417690   8.423006   1.766794
    13  H    4.839254   5.009260   6.276109   7.403130   2.387176
    14  H    2.607069   4.101933   5.111932   6.091046   3.564976
    15  H    3.290346   4.058422   5.040984   6.021416   3.642284
    16  H    3.373707   2.626922   3.892541   5.029857   4.758130
    17  H    2.692879   2.652865   3.944965   5.074877   4.733538
    18  H    1.092825   3.332416   3.899128   4.651408   5.538386
    19  H    1.093203   2.645324   2.637773   3.127012   7.117302
    20  H    1.095171   2.670764   3.289724   4.091409   6.214490
    21  H    3.133334   1.026022   2.084715   3.171788   6.945229
                   11         12         13         14         15
    11  H    0.000000
    12  H    1.781686   0.000000
    13  H    2.401910   2.957228   0.000000
    14  H    2.947874   2.351889   2.920104   0.000000
    15  H    2.427288   3.007955   2.410718   1.773778   0.000000
    16  H    4.291824   4.633638   2.519427   3.066478   2.497033
    17  H    4.633502   4.269613   3.034662   2.519854   3.073181
    18  H    4.686155   4.189551   4.629245   1.985953   2.835962
    19  H    6.252436   5.878987   5.850580   3.582109   4.097930
    20  H    5.778061   5.066204   5.045738   2.864255   3.938997
    21  H    6.523964   6.515747   4.854084   4.454715   4.414791
                   16         17         18         19         20
    16  H    0.000000
    17  H    1.765833   0.000000
    18  H    3.706806   3.100123   0.000000
    19  H    4.223589   3.703021   1.727489   0.000000
    20  H    3.683881   2.483969   1.781353   1.784285   0.000000
    21  H    2.434126   2.462738   4.057987   3.569075   3.182148
                   21
    21  H    0.000000
 Stoichiometry    C5H12N4
 Framework group  C1[X(C5H12N4)]
 Deg. of freedom    57
 Full point group                 C1      NOp   1
 Largest Abelian subgroup         C1      NOp   1
 Largest concise Abelian subgroup C1      NOp   1
                         Standard orientation:                         
 ---------------------------------------------------------------------
 Center     Atomic      Atomic             Coordinates (Angstroms)
 Number     Number       Type             X           Y           Z
 ---------------------------------------------------------------------
      1          6           0       -4.079774    0.243546   -0.215244
      2          7           0       -2.925769   -0.533635    0.223975
      3          6           0       -1.697800    0.125706   -0.228871
      4          6           0       -0.431120   -0.624255    0.234178
      5          7           0        0.827184    0.041106   -0.195221
      6          6           0        0.877593    1.408090    0.355542
      7          7           0        1.958557   -0.699756    0.208839
      8          6           0        3.187769   -0.290007   -0.143312
      9          7           0        4.259987    0.077300   -0.391956
     10          1           0       -4.998946   -0.238582    0.125824
     11          1           0       -4.112549    0.316499   -1.307204
     12          1           0       -4.058781    1.255133    0.206229
     13          1           0       -2.976249   -1.470474   -0.173750
     14          1           0       -1.709992    1.135270    0.191894
     15          1           0       -1.687555    0.212106   -1.322555
     16          1           0       -0.462611   -1.640970   -0.182030
     17          1           0       -0.446571   -0.725599    1.327938
     18          1           0        0.053599    2.025699   -0.010326
     19          1           0        1.778214    1.933099    0.026391
     20          1           0        0.850487    1.389298    1.450216
     21          1           0        1.791235   -1.565072    0.734150
 ---------------------------------------------------------------------
 Rotational constants (GHZ):           6.5033641           0.5616034           0.5340054
 Standard basis: 6-31G(2df,p) (6D, 7F)
 There are   339 symmetry adapted cartesian basis functions of A   symmetry.
 There are   312 symmetry adapted basis functions of A   symmetry.
   312 basis functions,   480 primitive gaussians,   339 cartesian basis functions
    35 alpha electrons       35 beta electrons
       nuclear repulsion energy       440.2722711718 Hartrees.
 NAtoms=   21 NActive=   21 NUniq=   21 SFac= 1.00D+00 NAtFMM=   60 NAOKFM=F Big=F
 Integral buffers will be    131072 words long.
 Raffenetti 2 integral format.
 Two-electron integral symmetry is turned on.
 One-electron integrals computed using PRISM.
 PrsmSu:  requested number of processors reduced to:  13 ShMem   1 Linda.
 NBasis=   312 RedAO= T EigKep=  1.30D-04  NBF=   312
 NBsUse=   312 1.00D-06 EigRej= -1.00D+00 NBFU=   312
 ExpMin= 1.61D-01 ExpMax= 4.17D+03 ExpMxC= 6.27D+02 IAcc=3 IRadAn=         5 AccDes= 0.00D+00
 Harris functional with IExCor=  402 and IRadAn=       5 diagonalized for initial guess.
 HarFok:  IExCor=  402 AccDes= 0.00D+00 IRadAn=         5 IDoV= 1 UseB2=F ITyADJ=14
 ICtDFT=  3500011 ScaDFX=  1.000000  1.000000  1.000000  1.000000
 FoFCou: FMM=F IPFlag=           0 FMFlag=      100000 FMFlg1=           0
         NFxFlg=           0 DoJE=T BraDBF=F KetDBF=T FulRan=T
         wScrn=  0.000000 ICntrl=       500 IOpCl=  0 I1Cent=   200000004 NGrid=           0
         NMat0=    1 NMatS0=      1 NMatT0=    0 NMatD0=    1 NMtDS0=    0 NMtDT0=    0
 Petite list used in FoFCou.
 Requested convergence on RMS density matrix=1.00D-08 within 128 cycles.
 Requested convergence on MAX density matrix=1.00D-06.
 Requested convergence on             energy=1.00D-06.
 No special actions if energy rises.
 Integral accuracy reduced to 1.0D-05 until final iterations.
 Initial convergence to 1.0D-05 achieved.  Increase integral accuracy.
 SCF Done:  E(RB3LYP) =  -416.692385050     A.U. after   13 cycles
            NFock= 13  Conv=0.95D-08     -V/T= 2.0078

 **********************************************************************

            Population analysis using the SCF density.

 **********************************************************************

 Orbital symmetries:
       Occupied  (A) (A) (A) (A) (A) (A) (A) (A) (A) (A) (A) (A)
                 (A) (A) (A) (A) (A) (A) (A) (A) (A) (A) (A) (A)
                 (A) (A) (A) (A) (A) (A) (A) (A) (A) (A) (A)
       Virtual   (A) (A) (A) (A) (A) (A) (A) (A) (A) (A) (A) (A)
                 (A) (A) (A) (A) (A) (A) (A) (A) (A) (A) (A) (A)
                 (A) (A) (A) (A) (A) (A) (A) (A) (A) (A) (A) (A)
                 (A) (A) (A) (A) (A) (A) (A) (A) (A) (A) (A) (A)
                 (A) (A) (A) (A) (A) (A) (A) (A) (A) (A) (A) (A)
                 (A) (A) (A) (A) (A) (A) (A) (A) (A) (A) (A) (A)
                 (A) (A) (A) (A) (A) (A) (A) (A) (A) (A) (A) (A)
                 (A) (A) (A) (A) (A) (A) (A) (A) (A) (A) (A) (A)
                 (A) (A) (A) (A) (A) (A) (A) (A) (A) (A) (A) (A)
                 (A) (A) (A) (A) (A) (A) (A) (A) (A) (A) (A) (A)
                 (A) (A) (A) (A) (A) (A) (A) (A) (A) (A) (A) (A)
                 (A) (A) (A) (A) (A) (A) (A) (A) (A) (A) (A) (A)
                 (A) (A) (A) (A) (A) (A) (A) (A) (A) (A) (A) (A)
                 (A) (A) (A) (A) (A) (A) (A) (A) (A) (A) (A) (A)
                 (A) (A) (A) (A) (A) (A) (A) (A) (A) (A) (A) (A)
                 (A) (A) (A) (A) (A) (A) (A) (A) (A) (A) (A) (A)
                 (A) (A) (A) (A) (A) (A) (A) (A) (A) (A) (A) (A)
                 (A) (A) (A) (A) (A) (A) (A) (A) (A) (A) (A) (A)
                 (A) (A) (A) (A) (A) (A) (A) (A) (A) (A) (A) (A)
                 (A) (A) (A) (A) (A) (A) (A) (A) (A) (A) (A) (A)
                 (A) (A) (A) (A) (A) (A) (A) (A) (A) (A) (A) (A)
                 (A) (A) (A) (A) (A) (A) (A) (A) (A) (A) (A) (A)
                 (A) (A) (A) (A) (A) (A) (A) (A) (A) (A) (A) (A)
                 (A)
 The electronic state is 1-A.
 Alpha  occ. eigenvalues --  -14.40586 -14.37848 -14.32660 -14.31072 -10.23710
 Alpha  occ. eigenvalues --  -10.23261 -10.22175 -10.21279 -10.20904  -1.02089
 Alpha  occ. eigenvalues --   -0.91503  -0.89389  -0.84321  -0.74985  -0.69986
 Alpha  occ. eigenvalues --   -0.65720  -0.61729  -0.59716  -0.53212  -0.50712
 Alpha  occ. eigenvalues --   -0.47762  -0.45631  -0.45157  -0.42942  -0.42136
 Alpha  occ. eigenvalues --   -0.38779  -0.38581  -0.37812  -0.36829  -0.36368
 Alpha  occ. eigenvalues --   -0.34803  -0.32562  -0.28939  -0.23559  -0.20951
 Alpha virt. eigenvalues --    0.02006   0.06123   0.06809   0.09143   0.09887
 Alpha virt. eigenvalues --    0.10196   0.12875   0.13754   0.14403   0.14748
 Alpha virt. eigenvalues --    0.15174   0.16246   0.17692   0.17996   0.19892
 Alpha virt. eigenvalues --    0.20211   0.21207   0.23265   0.24328   0.24881
 Alpha virt. eigenvalues --    0.27558   0.39055   0.42592   0.43896   0.44426
 Alpha virt. eigenvalues --    0.45273   0.46050   0.48505   0.49565   0.50940
 Alpha virt. eigenvalues --    0.52910   0.54252   0.56931   0.57484   0.59114
 Alpha virt. eigenvalues --    0.61100   0.63399   0.64019   0.64402   0.65606
 Alpha virt. eigenvalues --    0.67888   0.68538   0.69880   0.70649   0.71370
 Alpha virt. eigenvalues --    0.71918   0.72271   0.72825   0.73802   0.75045
 Alpha virt. eigenvalues --    0.75928   0.76301   0.76621   0.79658   0.80556
 Alpha virt. eigenvalues --    0.82714   0.83309   0.83671   0.84045   0.84562
 Alpha virt. eigenvalues --    0.87058   0.87517   0.88233   0.91412   0.93384
 Alpha virt. eigenvalues --    0.93542   0.94533   0.99218   1.03594   1.09179
 Alpha virt. eigenvalues --    1.09808   1.14573   1.16373   1.17847   1.19447
 Alpha virt. eigenvalues --    1.21323   1.24227   1.26308   1.27603   1.29300
 Alpha virt. eigenvalues --    1.32107   1.33165   1.34367   1.38099   1.39817
 Alpha virt. eigenvalues --    1.43355   1.44529   1.47978   1.50479   1.51354
 Alpha virt. eigenvalues --    1.52374   1.53729   1.55632   1.59559   1.62571
 Alpha virt. eigenvalues --    1.63771   1.64003   1.67428   1.70398   1.74064
 Alpha virt. eigenvalues --    1.74803   1.79143   1.80667   1.81285   1.82665
 Alpha virt. eigenvalues --    1.84974   1.86044   1.90975   1.93691   1.97404
 Alpha virt. eigenvalues --    1.97604   1.99855   2.00796   2.04309   2.05381
 Alpha virt. eigenvalues --    2.14586   2.23362   2.25472   2.26707   2.27403
 Alpha virt. eigenvalues --    2.28656   2.31246   2.33561   2.40018   2.42027
 Alpha virt. eigenvalues --    2.43507   2.47200   2.50394   2.52215   2.53252
 Alpha virt. eigenvalues --    2.58866   2.66662   2.70443   2.71720   2.72833
 Alpha virt. eigenvalues --    2.75805   2.76757   2.77909   2.79851   2.81693
 Alpha virt. eigenvalues --    2.82857   2.83898   2.84856   2.86791   2.88521
 Alpha virt. eigenvalues --    2.90002   2.92588   2.92763   2.94292   2.95161
 Alpha virt. eigenvalues --    2.97678   2.99253   3.00701   3.03285   3.05115
 Alpha virt. eigenvalues --    3.07708   3.09559   3.11277   3.17198   3.18043
 Alpha virt. eigenvalues --    3.19993   3.25120   3.26846   3.27525   3.30082
 Alpha virt. eigenvalues --    3.31641   3.37654   3.39035   3.43517   3.45178
 Alpha virt. eigenvalues --    3.47104   3.50394   3.50989   3.54725   3.58411
 Alpha virt. eigenvalues --    3.62683   3.62932   3.65501   3.65915   3.67219
 Alpha virt. eigenvalues --    3.67798   3.68287   3.69124   3.71343   3.72873
 Alpha virt. eigenvalues --    3.74946   3.76833   3.78140   3.79564   3.87823
 Alpha virt. eigenvalues --    3.88880   3.89546   3.92598   3.97644   4.01343
 Alpha virt. eigenvalues --    4.05817   4.08673   4.11076   4.13417   4.14074
 Alpha virt. eigenvalues --    4.18666   4.20546   4.21816   4.22205   4.25560
 Alpha virt. eigenvalues --    4.29775   4.33760   4.34950   4.35817   4.37282
 Alpha virt. eigenvalues --    4.38557   4.41373   4.42576   4.44432   4.45388
 Alpha virt. eigenvalues --    4.46962   4.48157   4.49355   4.51739   4.53058
 Alpha virt. eigenvalues --    4.53403   4.55130   4.56973   4.58155   4.59841
 Alpha virt. eigenvalues --    4.62392   4.63802   4.65041   4.66636   4.68012
 Alpha virt. eigenvalues --    4.69003   4.70591   4.76265   4.78519   4.79699
 Alpha virt. eigenvalues --    4.81446   4.83893   4.86227   4.87026   4.91037
 Alpha virt. eigenvalues --    4.94336   4.95739   4.96932   5.00214   5.07434
 Alpha virt. eigenvalues --    5.09345   5.11581   5.12654   5.16460   5.22967
 Alpha virt. eigenvalues --    5.24576   5.25769   5.32589   5.34018   5.36258
 Alpha virt. eigenvalues --    5.42210   5.43058   5.45498   5.52405   5.53724
 Alpha virt. eigenvalues --    5.59660   5.68086   5.88509   6.46387   9.82413
 Alpha virt. eigenvalues --   10.40412  11.03415  11.21454  11.42077  11.44053
 Alpha virt. eigenvalues --   11.51298  11.62506  11.91467  12.09601  12.97007
 Alpha virt. eigenvalues --   16.46308  24.70148
          Condensed to atoms (all electrons):
               1          2          3          4          5          6
     1  C    4.906800   0.389589  -0.071105   0.003147  -0.000088   0.000018
     2  N    0.389589   6.361380   0.382563  -0.029960   0.001084   0.000142
     3  C   -0.071105   0.382563   4.849673   0.419448  -0.034937  -0.002755
     4  C    0.003147  -0.029960   0.419448   4.915423   0.355000  -0.074648
     5  N   -0.000088   0.001084  -0.034937   0.355000   6.331146   0.374255
     6  C    0.000018   0.000142  -0.002755  -0.074648   0.374255   4.994011
     7  N    0.000000  -0.000007   0.001109  -0.043042   0.286109  -0.073895
     8  C   -0.000000   0.000001  -0.000177   0.003120  -0.041046  -0.003726
     9  N    0.000000  -0.000000   0.000000   0.000101  -0.004279  -0.000811
    10  H    0.380545  -0.023280   0.004416  -0.000226   0.000000  -0.000000
    11  H    0.370547  -0.045800  -0.002683   0.000066   0.000020   0.000002
    12  H    0.380896  -0.024220  -0.005385   0.000341  -0.000001  -0.000015
    13  H   -0.044932   0.344033  -0.052154  -0.000338  -0.000089  -0.000012
    14  H   -0.004179  -0.022482   0.356725  -0.023934  -0.003609  -0.000674
    15  H   -0.002144  -0.046923   0.357124  -0.040629   0.007816  -0.000233
    16  H   -0.000007  -0.002402  -0.020828   0.351186  -0.022219   0.005922
    17  H    0.000104   0.007033  -0.036987   0.336869  -0.043650  -0.010212
    18  H    0.000009   0.000193  -0.001379  -0.005183  -0.018359   0.379120
    19  H   -0.000000  -0.000005   0.000215   0.005036  -0.022516   0.381993
    20  H    0.000002   0.000048  -0.001627  -0.005432  -0.044478   0.348053
    21  H    0.000000   0.000010  -0.000233  -0.004727  -0.039569   0.004239
               7          8          9         10         11         12
     1  C    0.000000  -0.000000   0.000000   0.380545   0.370547   0.380896
     2  N   -0.000007   0.000001  -0.000000  -0.023280  -0.045800  -0.024220
     3  C    0.001109  -0.000177   0.000000   0.004416  -0.002683  -0.005385
     4  C   -0.043042   0.003120   0.000101  -0.000226   0.000066   0.000341
     5  N    0.286109  -0.041046  -0.004279   0.000000   0.000020  -0.000001
     6  C   -0.073895  -0.003726  -0.000811  -0.000000   0.000002  -0.000015
     7  N    6.444478   0.373004   0.028088  -0.000000   0.000000   0.000000
     8  C    0.373004   4.356888   0.958049   0.000000   0.000000   0.000000
     9  N    0.028088   0.958049   6.369900  -0.000000   0.000000  -0.000000
    10  H   -0.000000   0.000000  -0.000000   0.587269  -0.039092  -0.028555
    11  H    0.000000   0.000000   0.000000  -0.039092   0.654697  -0.043104
    12  H    0.000000   0.000000  -0.000000  -0.028555  -0.043104   0.581648
    13  H   -0.000000   0.000000  -0.000000  -0.001536  -0.006101   0.005861
    14  H    0.000024   0.000003  -0.000000   0.000154  -0.002146   0.007302
    15  H    0.000230   0.000023   0.000000  -0.000229   0.013945  -0.001695
    16  H    0.001582   0.000117  -0.000002   0.000009  -0.000016   0.000008
    17  H    0.002958   0.000742  -0.000006   0.000005   0.000034  -0.000019
    18  H    0.003254  -0.000261   0.000012  -0.000000   0.000009  -0.000020
    19  H   -0.005150   0.007034   0.001827  -0.000000  -0.000000   0.000000
    20  H    0.008501   0.003243  -0.000227   0.000000  -0.000000   0.000001
    21  H    0.352047  -0.035492   0.000672   0.000000  -0.000000   0.000000
              13         14         15         16         17         18
     1  C   -0.044932  -0.004179  -0.002144  -0.000007   0.000104   0.000009
     2  N    0.344033  -0.022482  -0.046923  -0.002402   0.007033   0.000193
     3  C   -0.052154   0.356725   0.357124  -0.020828  -0.036987  -0.001379
     4  C   -0.000338  -0.023934  -0.040629   0.351186   0.336869  -0.005183
     5  N   -0.000089  -0.003609   0.007816  -0.022219  -0.043650  -0.018359
     6  C   -0.000012  -0.000674  -0.000233   0.005922  -0.010212   0.379120
     7  N   -0.000000   0.000024   0.000230   0.001582   0.002958   0.003254
     8  C    0.000000   0.000003   0.000023   0.000117   0.000742  -0.000261
     9  N   -0.000000  -0.000000   0.000000  -0.000002  -0.000006   0.000012
    10  H   -0.001536   0.000154  -0.000229   0.000009   0.000005  -0.000000
    11  H   -0.006101  -0.002146   0.013945  -0.000016   0.000034   0.000009
    12  H    0.005861   0.007302  -0.001695   0.000008  -0.000019  -0.000020
    13  H    0.533125   0.007100  -0.006917   0.004422  -0.000581  -0.000003
    14  H    0.007100   0.621020  -0.051890   0.005586  -0.005811   0.001641
    15  H   -0.006917  -0.051890   0.671542  -0.006829   0.007357   0.001224
    16  H    0.004422   0.005586  -0.006829   0.628878  -0.053768  -0.000012
    17  H   -0.000581  -0.005811   0.007357  -0.053768   0.670856   0.000006
    18  H   -0.000003   0.001641   0.001224  -0.000012   0.000006   0.564196
    19  H    0.000000  -0.000203  -0.000092  -0.000165  -0.000380  -0.028115
    20  H    0.000002   0.000983   0.000264  -0.000372   0.015026  -0.035823
    21  H    0.000004   0.000022   0.000050   0.001726   0.008200  -0.000187
              19         20         21
     1  C   -0.000000   0.000002   0.000000
     2  N   -0.000005   0.000048   0.000010
     3  C    0.000215  -0.001627  -0.000233
     4  C    0.005036  -0.005432  -0.004727
     5  N   -0.022516  -0.044478  -0.039569
     6  C    0.381993   0.348053   0.004239
     7  N   -0.005150   0.008501   0.352047
     8  C    0.007034   0.003243  -0.035492
     9  N    0.001827  -0.000227   0.000672
    10  H   -0.000000   0.000000   0.000000
    11  H   -0.000000  -0.000000  -0.000000
    12  H    0.000000   0.000001   0.000000
    13  H    0.000000   0.000002   0.000004
    14  H   -0.000203   0.000983   0.000022
    15  H   -0.000092   0.000264   0.000050
    16  H   -0.000165  -0.000372   0.001726
    17  H   -0.000380   0.015026   0.008200
    18  H   -0.028115  -0.035823  -0.000187
    19  H    0.547790  -0.038783  -0.000114
    20  H   -0.038783   0.644374   0.001811
    21  H   -0.000114   0.001811   0.435941
 Mulliken charges:
               1
     1  C   -0.309203
     2  N   -0.290995
     3  C   -0.141024
     4  C   -0.161617
     5  N   -0.080589
     6  C   -0.320773
     7  N   -0.379289
     8  C    0.378478
     9  N   -0.353325
    10  H    0.120520
    11  H    0.099623
    12  H    0.126958
    13  H    0.218116
    14  H    0.114368
    15  H    0.098007
    16  H    0.107183
    17  H    0.102224
    18  H    0.139675
    19  H    0.151627
    20  H    0.104435
    21  H    0.275601
 Sum of Mulliken charges =  -0.00000
 Mulliken charges with hydrogens summed into heavy atoms:
               1
     1  C    0.037898
     2  N   -0.072880
     3  C    0.071351
     4  C    0.047790
     5  N   -0.080589
     6  C    0.074965
     7  N   -0.103689
     8  C    0.378478
     9  N   -0.353325
 Electronic spatial extent (au):  <R**2>=           2051.0083
 Charge=             -0.0000 electrons
 Dipole moment (field-independent basis, Debye):
    X=             -5.0673    Y=             -1.2147    Z=              0.9199  Tot=              5.2915
 Quadrupole moment (field-independent basis, Debye-Ang):
   XX=            -76.9446   YY=            -48.8831   ZZ=            -57.6706
   XY=             -2.7949   XZ=              7.6700   YZ=             -0.1026
 Traceless Quadrupole moment (field-independent basis, Debye-Ang):
   XX=            -15.7785   YY=             12.2830   ZZ=              3.4955
   XY=             -2.7949   XZ=              7.6700   YZ=             -0.1026
 Octapole moment (field-independent basis, Debye-Ang**2):
  XXX=           -142.9318  YYY=             -7.8200  ZZZ=              0.9041  XYY=              0.4948
  XXY=            -13.2838  XXZ=              8.4103  XZZ=              0.9075  YZZ=             -1.6876
  YYZ=              1.8573  XYZ=             -6.3640
 Hexadecapole moment (field-independent basis, Debye-Ang**3):
 XXXX=          -2899.9340 YYYY=           -220.9861 ZZZZ=           -110.3458 XXXY=            -26.8194
 XXXZ=             86.0354 YYYX=              0.8673 YYYZ=             -3.9258 ZZZX=              7.8269
 ZZZY=             -0.6320 XXYY=           -408.7527 XXZZ=           -436.6720 YYZZ=            -58.4797
 XXYZ=              5.6129 YYXZ=              6.4354 ZZXY=             -3.6814
 N-N= 4.402722711718D+02 E-N=-1.848720257246D+03  KE= 4.134504964055D+02
 PrsmSu:  requested number of processors reduced to:  13 ShMem   1 Linda.
 Calling FoFJK, ICntrl=      2127 FMM=F ISym2X=0 I1Cent= 0 IOpClX= 0 NMat=1 NMatS=1 NMatT=0.
 ***** Axes restored to original set *****
 -------------------------------------------------------------------
 Center     Atomic                   Forces (Hartrees/Bohr)
 Number     Number              X              Y              Z
 -------------------------------------------------------------------
      1        6           0.002602290   -0.006419622   -0.005702555
      2        7           0.006597630    0.002547200    0.008364372
      3        6           0.006442706   -0.004031211   -0.003405740
      4        6           0.005789028    0.005567649   -0.001845513
      5        7          -0.039190555    0.000990737   -0.000572496
      6        6           0.003969538    0.003534488    0.002654453
      7        7           0.020928122   -0.002471608   -0.000468692
      8        6          -0.009734623   -0.027751439   -0.007978518
      9        7           0.003230470    0.007760578    0.000682945
     10        1          -0.000755894   -0.000879638   -0.000350483
     11        1          -0.007431158    0.003786709   -0.001026123
     12        1           0.002704299    0.000353672   -0.000530635
     13        1          -0.001995295    0.000763262    0.002475470
     14        1          -0.000419344   -0.000298076   -0.001545286
     15        1           0.000393189    0.007534285    0.000600148
     16        1           0.001639563    0.003494302    0.000658319
     17        1          -0.000419217   -0.004367783    0.002841440
     18        1           0.002399484   -0.002555035   -0.005429242
     19        1           0.005840604   -0.001220645   -0.002465106
     20        1           0.000643267   -0.001599013    0.005515910
     21        1          -0.003234103    0.015261190    0.007527332
 -------------------------------------------------------------------
 Cartesian Forces:  Max     0.039190555 RMS     0.007932469

 GradGradGradGradGradGradGradGradGradGradGradGradGradGradGradGradGradGrad
 Berny optimization.
 FormGI is forming the generalized inverse of G from B-inverse, IUseBI=4.
 Internal  Forces:  Max     0.021590178 RMS     0.005745587
 Search for a local minimum.
 Step number   1 out of a maximum of  102
 All quantities printed in internal units (Hartrees-Bohrs-Radians)
 Mixed Optimization -- RFO/linear search
 Second derivative matrix not updated -- first step.
 ITU=  0
     Eigenvalues ---    0.00230   0.00544   0.00705   0.00825   0.00911
     Eigenvalues ---    0.01144   0.01154   0.03130   0.03134   0.03977
     Eigenvalues ---    0.04178   0.04862   0.04862   0.05373   0.05393
     Eigenvalues ---    0.07036   0.07232   0.07282   0.07501   0.09344
     Eigenvalues ---    0.09345   0.10522   0.12779   0.12855   0.16000
     Eigenvalues ---    0.16000   0.16000   0.16000   0.16000   0.16000
     Eigenvalues ---    0.16000   0.16585   0.18449   0.21963   0.21984
     Eigenvalues ---    0.22003   0.23447   0.28241   0.33786   0.33808
     Eigenvalues ---    0.33843   0.34000   0.34120   0.34222   0.34254
     Eigenvalues ---    0.34376   0.34445   0.34488   0.34520   0.35192
     Eigenvalues ---    0.36284   0.37091   0.43391   0.43777   0.44495
     Eigenvalues ---    0.56602   1.27571
 RFO step:  Lambda=-1.51006739D-02 EMin= 2.30000000D-03
 Linear search not attempted -- first point.
 Iteration  1 RMS(Cart)=  0.17258091 RMS(Int)=  0.00828976
 Iteration  2 RMS(Cart)=  0.01494973 RMS(Int)=  0.00054447
 Iteration  3 RMS(Cart)=  0.00006979 RMS(Int)=  0.00054358
 Iteration  4 RMS(Cart)=  0.00000002 RMS(Int)=  0.00054358
 Variable       Old X    -DE/DX   Delta X   Delta X   Delta X     New X
                                 (Linear)    (Quad)   (Total)
    R1        2.75709   0.00279   0.00000   0.00723   0.00723   2.76432
    R2        2.06461   0.00114   0.00000   0.00317   0.00317   2.06778
    R3        2.06903   0.00586   0.00000   0.01640   0.01640   2.08543
    R4        2.07129  -0.00135   0.00000  -0.00379  -0.00379   2.06750
    R5        2.76940  -0.00152   0.00000  -0.00402  -0.00402   2.76538
    R6        1.92567  -0.00309   0.00000  -0.00672  -0.00672   1.91895
    R7        2.91614  -0.00822   0.00000  -0.02763  -0.02763   2.88851
    R8        2.06699  -0.00130   0.00000  -0.00363  -0.00363   2.06337
    R9        2.07329   0.00466   0.00000   0.01313   0.01313   2.08642
   R10        2.80955  -0.01270   0.00000  -0.03596  -0.03596   2.77358
   R11        2.07692  -0.00086   0.00000  -0.00243  -0.00243   2.07449
   R12        2.07597   0.00469   0.00000   0.01328   0.01328   2.08925
   R13        2.78664  -0.00463   0.00000  -0.01262  -0.01262   2.77402
   R14        2.66722   0.01110   0.00000   0.02450   0.02450   2.69173
   R15        2.06514  -0.00264   0.00000  -0.00734  -0.00734   2.05780
   R16        2.06585   0.00004   0.00000   0.00010   0.00010   2.06595
   R17        2.06957   0.00503   0.00000   0.01408   0.01408   2.08365
   R18        2.53735  -0.02159   0.00000  -0.03715  -0.03715   2.50020
   R19        1.93890  -0.01634   0.00000  -0.03639  -0.03639   1.90251
   R20        2.19273   0.00823   0.00000   0.00638   0.00638   2.19910
    A1        1.91389   0.00012   0.00000   0.00220   0.00167   1.91556
    A2        1.93843   0.00927   0.00000   0.05673   0.05662   1.99505
    A3        1.93983  -0.00577   0.00000  -0.03827  -0.03811   1.90172
    A4        1.89185  -0.00234   0.00000  -0.00292  -0.00361   1.88823
    A5        1.87900   0.00105   0.00000  -0.00160  -0.00186   1.87713
    A6        1.89925  -0.00253   0.00000  -0.01728  -0.01677   1.88248
    A7        1.90718   0.01226   0.00000   0.04913   0.04919   1.95638
    A8        1.91033  -0.00416   0.00000  -0.01805  -0.01800   1.89233
    A9        1.91190  -0.00351   0.00000  -0.01269  -0.01254   1.89936
   A10        1.95672  -0.01122   0.00000  -0.04729  -0.04713   1.90959
   A11        1.86194   0.00255   0.00000   0.00622   0.00599   1.86793
   A12        1.92974   0.00727   0.00000   0.04790   0.04773   1.97747
   A13        1.92014   0.00374   0.00000   0.01128   0.01121   1.93135
   A14        1.90681   0.00049   0.00000  -0.00524  -0.00470   1.90211
   A15        1.88692  -0.00251   0.00000  -0.01146  -0.01176   1.87516
   A16        1.97203   0.00439   0.00000   0.01860   0.01801   1.99004
   A17        1.88854  -0.00009   0.00000  -0.01177  -0.01190   1.87665
   A18        1.90927  -0.00207   0.00000   0.00557   0.00472   1.91399
   A19        1.90591  -0.00543   0.00000  -0.05332  -0.05315   1.85276
   A20        1.91851   0.00182   0.00000   0.03324   0.03282   1.95133
   A21        1.86638   0.00118   0.00000   0.00607   0.00651   1.87289
   A22        1.91338   0.01792   0.00000   0.07878   0.07729   1.99067
   A23        1.93995  -0.01366   0.00000  -0.08322  -0.08211   1.85784
   A24        1.93078  -0.00498   0.00000  -0.03513  -0.03324   1.89754
   A25        1.95312  -0.00759   0.00000  -0.04169  -0.04188   1.91124
   A26        1.94003  -0.00673   0.00000  -0.04056  -0.04077   1.89926
   A27        1.93539   0.00632   0.00000   0.03656   0.03689   1.97229
   A28        1.82241   0.00709   0.00000   0.03963   0.03882   1.86123
   A29        1.90252   0.00149   0.00000   0.01240   0.01272   1.91524
   A30        1.90666  -0.00046   0.00000  -0.00577  -0.00547   1.90119
   A31        2.09273   0.00320   0.00000   0.01315   0.01277   2.10550
   A32        2.04714   0.00315   0.00000   0.01963   0.01925   2.06640
   A33        2.14235  -0.00641   0.00000  -0.03496  -0.03535   2.10700
   A34        3.13324  -0.00040   0.00000  -0.00627  -0.00627   3.12697
   A35        3.09068   0.00388   0.00000   0.06087   0.06087   3.15155
    D1       -3.13402   0.00158   0.00000   0.00080   0.00091  -3.13311
    D2        1.05551   0.00092   0.00000  -0.00265  -0.00245   1.05306
    D3        1.05861  -0.00144   0.00000  -0.03285  -0.03336   1.02525
    D4       -1.03504  -0.00210   0.00000  -0.03630  -0.03672  -1.07176
    D5       -1.05855  -0.00063   0.00000  -0.02357  -0.02331  -1.08186
    D6        3.13098  -0.00128   0.00000  -0.02703  -0.02667   3.10431
    D7        3.11497   0.00043   0.00000  -0.00121  -0.00090   3.11407
    D8        1.01197   0.00077   0.00000   0.00865   0.00875   1.02071
    D9       -1.03578  -0.00157   0.00000  -0.00671  -0.00715  -1.04293
   D10       -1.07553   0.00070   0.00000  -0.00100  -0.00067  -1.07620
   D11        3.10465   0.00103   0.00000   0.00886   0.00898   3.11362
   D12        1.05691  -0.00131   0.00000  -0.00650  -0.00692   1.04999
   D13       -3.12447  -0.00219   0.00000  -0.06715  -0.06709   3.09162
   D14        1.04620   0.00191   0.00000  -0.00367  -0.00357   1.04264
   D15       -0.98116   0.00168   0.00000  -0.00738  -0.00723  -0.98839
   D16       -1.05557  -0.00365   0.00000  -0.08196  -0.08199  -1.13756
   D17        3.11511   0.00044   0.00000  -0.01849  -0.01847   3.09664
   D18        1.08775   0.00022   0.00000  -0.02219  -0.02213   1.06561
   D19        1.01327  -0.00418   0.00000  -0.09239  -0.09255   0.92072
   D20       -1.09924  -0.00009   0.00000  -0.02891  -0.02902  -1.12826
   D21       -3.12660  -0.00032   0.00000  -0.03261  -0.03269   3.12389
   D22        1.03646   0.00381   0.00000   0.11533   0.11632   1.15278
   D23       -3.10669   0.00066   0.00000   0.06922   0.06868  -3.03801
   D24        3.13909   0.00278   0.00000   0.07539   0.07639  -3.06770
   D25       -1.00406  -0.00036   0.00000   0.02928   0.02875  -0.97531
   D26       -1.10170   0.00208   0.00000   0.07070   0.07100  -1.03070
   D27        1.03833  -0.00107   0.00000   0.02459   0.02336   1.06169
   D28       -1.07744  -0.00545   0.00000  -0.07976  -0.07964  -1.15708
   D29       -3.10755  -0.00522   0.00000  -0.07700  -0.07780   3.09783
   D30        1.05099  -0.00436   0.00000  -0.06701  -0.06735   0.98364
   D31        3.06028   0.00292   0.00000  -0.00490  -0.00409   3.05619
   D32        1.03017   0.00316   0.00000  -0.00214  -0.00225   1.02791
   D33       -1.09447   0.00401   0.00000   0.00786   0.00820  -1.08627
   D34        3.08651  -0.00907   0.00000  -0.16314  -0.16458   2.92193
   D35       -0.00929  -0.00768   0.00000  -0.11023  -0.11171  -0.12099
   D36       -1.06672   0.00092   0.00000  -0.14426  -0.14279  -1.20951
   D37        2.12067   0.00231   0.00000  -0.09136  -0.08992   2.03075
         Item               Value     Threshold  Converged?
 Maximum Force            0.021590     0.000450     NO 
 RMS     Force            0.005746     0.000300     NO 
 Maximum Displacement     0.778258     0.001800     NO 
 RMS     Displacement     0.176877     0.001200     NO 
 Predicted change in Energy=-9.068633D-03
 GradGradGradGradGradGradGradGradGradGradGradGradGradGradGradGradGradGrad

                          Input orientation:                          
 ---------------------------------------------------------------------
 Center     Atomic      Atomic             Coordinates (Angstroms)
 Number     Number       Type             X           Y           Z
 ---------------------------------------------------------------------
      1          6           0        0.951676   -0.060143   -0.170709
      2          7           0        2.405903    0.075979   -0.089977
      3          6           0        2.809587    1.405612    0.368922
      4          6           0        4.333629    1.467745    0.468211
      5          7           0        4.853812    2.783666    0.858029
      6          6           0        4.494221    3.189099    2.222285
      7          7           0        6.272709    2.700148    0.764916
      8          6           0        7.017044    3.792876    0.813592
      9          7           0        7.654962    4.765098    0.859174
     10          1           0        0.692779   -1.068274   -0.508298
     11          1           0        0.464311    0.664740   -0.845150
     12          1           0        0.526197    0.072650    0.828454
     13          1           0        2.794970   -0.083784   -1.014243
     14          1           0        2.353180    1.557729    1.349111
     15          1           0        2.459067    2.219839   -0.289243
     16          1           0        4.738616    1.263091   -0.531394
     17          1           0        4.695607    0.667680    1.139908
     18          1           0        3.417759    3.341219    2.284579
     19          1           0        4.959812    4.154546    2.437572
     20          1           0        4.812098    2.460373    2.986281
     21          1           0        6.688071    1.802931    0.575050
 ---------------------------------------------------------------------
                    Distance matrix (angstroms):
                    1          2          3          4          5
     1  C    0.000000
     2  N    1.462813   0.000000
     3  C    2.427236   1.463377   0.000000
     4  C    3.765670   2.442277   1.528536   0.000000
     5  N    4.936822   3.771278   2.513386   1.467717   0.000000
     6  C    5.369695   4.404446   3.074699   2.462849   1.467950
     7  N    6.066959   4.750715   3.718313   2.316653   1.424400
     8  C    7.252813   5.991192   4.857927   3.567385   2.387478
     9  N    8.323320   7.102208   5.916431   4.696450   3.431111
    10  H    1.094222   2.102166   3.372018   4.543209   5.832536
    11  H    1.103563   2.164880   2.742842   4.164295   5.163176
    12  H    1.094072   2.092085   2.683623   4.070946   5.106734
    13  H    2.027274   1.015462   2.032648   2.640527   3.995810
    14  H    2.625181   2.066237   1.091887   2.169392   2.827940
    15  H    2.735800   2.153757   1.104088   2.157165   2.714578
    16  H    4.027649   2.654361   2.133549   1.097774   2.062987
    17  H    4.032922   2.665609   2.167034   1.105581   2.140533
    18  H    4.866135   4.162230   2.790375   2.765486   2.099562
    19  H    6.374314   5.435592   4.057020   3.389599   2.094159
    20  H    5.587704   4.575857   3.460222   2.748621   2.153070
    21  H    6.077288   4.664932   3.904227   2.380580   2.099149
                    6          7          8          9         10
     6  C    0.000000
     7  N    2.350749   0.000000
     8  C    2.951880   1.323049   0.000000
     9  N    3.785780   2.486670   1.163716   0.000000
    10  H    6.327106   6.852569   8.085450   9.185326   0.000000
    11  H    5.658774   6.361815   7.448152   8.451221   1.780169
    12  H    5.234524   6.319034   7.481403   8.534595   1.765322
    13  H    4.906560   4.796911   6.016260   7.116240   2.375796
    14  H    2.829817   4.124211   5.199451   6.215799   3.619777
    15  H    3.374772   3.985701   4.946295   5.898689   3.738910
    16  H    3.369271   2.469614   3.660606   4.764747   4.669539
    17  H    2.751300   2.599768   3.906712   5.062157   4.663985
    18  H    1.088941   3.297134   3.914416   4.691813   5.888065
    19  H    1.093256   2.576189   2.645812   3.182444   7.359590
    20  H    1.102622   2.669333   3.370152   4.232992   6.452303
    21  H    3.073732   1.006764   2.031012   3.128904   6.735057
                   11         12         13         14         15
    11  H    0.000000
    12  H    1.776331   0.000000
    13  H    2.453742   2.927001   0.000000
    14  H    3.029857   2.411308   2.911217   0.000000
    15  H    2.589676   3.097686   2.438265   1.770256   0.000000
    16  H    4.327372   4.583755   2.413499   3.051789   2.484018
    17  H    4.673792   4.223156   2.969425   2.514542   3.074700
    18  H    5.067702   4.600541   4.795908   2.277997   2.966672
    19  H    6.569972   6.237633   5.879200   3.837022   4.175204
    20  H    6.066911   5.359700   5.152254   3.088911   4.040255
    21  H    6.484415   6.405215   4.608881   4.410281   4.336507
                   16         17         18         19         20
    16  H    0.000000
    17  H    1.774716   0.000000
    18  H    3.740720   3.176630   0.000000
    19  H    4.150204   3.729875   1.750095   0.000000
    20  H    3.716574   2.576123   1.792332   1.786931   0.000000
    21  H    2.305650   2.361731   3.997970   3.462075   3.124986
                   21
    21  H    0.000000
 Stoichiometry    C5H12N4
 Framework group  C1[X(C5H12N4)]
 Deg. of freedom    57
 Full point group                 C1      NOp   1
 Largest Abelian subgroup         C1      NOp   1
 Largest concise Abelian subgroup C1      NOp   1
                         Standard orientation:                         
 ---------------------------------------------------------------------
 Center     Atomic      Atomic             Coordinates (Angstroms)
 Number     Number       Type             X           Y           Z
 ---------------------------------------------------------------------
      1          6           0       -4.116074    0.026167   -0.251440
      2          7           0       -2.859638   -0.547999    0.229732
      3          6           0       -1.694465    0.191242   -0.257473
      4          6           0       -0.421372   -0.434624    0.311691
      5          7           0        0.817299    0.190333   -0.167182
      6          6           0        0.997318    1.578248    0.275720
      7          7           0        1.889453   -0.595548    0.344475
      8          6           0        3.120712   -0.435241   -0.112428
      9          7           0        4.197099   -0.279249   -0.526303
     10          1           0       -4.959949   -0.549008    0.141458
     11          1           0       -4.206827    0.063777   -1.350622
     12          1           0       -4.208204    1.048196    0.127982
     13          1           0       -2.799214   -1.507447   -0.097334
     14          1           0       -1.803549    1.222092    0.085552
     15          1           0       -1.621582    0.214987   -1.358896
     16          1           0       -0.386950   -1.478702   -0.025688
     17          1           0       -0.474621   -0.447340    1.415916
     18          1           0        0.233394    2.207031   -0.179080
     19          1           0        1.961109    1.942808   -0.089534
     20          1           0        0.965604    1.688139    1.372394
     21          1           0        1.674578   -1.332044    0.996376
 ---------------------------------------------------------------------
 Rotational constants (GHZ):           5.8995067           0.5685471           0.5396930
 Standard basis: 6-31G(2df,p) (6D, 7F)
 There are   339 symmetry adapted cartesian basis functions of A   symmetry.
 There are   312 symmetry adapted basis functions of A   symmetry.
   312 basis functions,   480 primitive gaussians,   339 cartesian basis functions
    35 alpha electrons       35 beta electrons
       nuclear repulsion energy       440.8179592107 Hartrees.
 NAtoms=   21 NActive=   21 NUniq=   21 SFac= 1.00D+00 NAtFMM=   60 NAOKFM=F Big=F
 Integral buffers will be    131072 words long.
 Raffenetti 2 integral format.
 Two-electron integral symmetry is turned on.
 One-electron integrals computed using PRISM.
 PrsmSu:  requested number of processors reduced to:  13 ShMem   1 Linda.
 NBasis=   312 RedAO= T EigKep=  1.26D-04  NBF=   312
 NBsUse=   312 1.00D-06 EigRej= -1.00D+00 NBFU=   312
 Initial guess from the checkpoint file:  "CNCCNpCpNCtN.chk"
 B after Tr=     0.000000   -0.000000    0.000000
         Rot=    0.998101    0.061499   -0.001038    0.003216 Ang=   7.06 deg.
 ExpMin= 1.61D-01 ExpMax= 4.17D+03 ExpMxC= 6.27D+02 IAcc=2 IRadAn=         4 AccDes= 0.00D+00
 Harris functional with IExCor=  402 and IRadAn=       4 diagonalized for initial guess.
 HarFok:  IExCor=  402 AccDes= 0.00D+00 IRadAn=         4 IDoV= 1 UseB2=F ITyADJ=14
 ICtDFT=  3500011 ScaDFX=  1.000000  1.000000  1.000000  1.000000
 FoFCou: FMM=F IPFlag=           0 FMFlag=      100000 FMFlg1=           0
         NFxFlg=           0 DoJE=T BraDBF=F KetDBF=T FulRan=T
         wScrn=  0.000000 ICntrl=       500 IOpCl=  0 I1Cent=   200000004 NGrid=           0
         NMat0=    1 NMatS0=      1 NMatT0=    0 NMatD0=    1 NMtDS0=    0 NMtDT0=    0
 Petite list used in FoFCou.
 Requested convergence on RMS density matrix=1.00D-08 within 128 cycles.
 Requested convergence on MAX density matrix=1.00D-06.
 Requested convergence on             energy=1.00D-06.
 No special actions if energy rises.
 Integral accuracy reduced to 1.0D-05 until final iterations.
 Initial convergence to 1.0D-05 achieved.  Increase integral accuracy.
 SCF Done:  E(RB3LYP) =  -416.700420017     A.U. after   13 cycles
            NFock= 13  Conv=0.98D-08     -V/T= 2.0076
 PrsmSu:  requested number of processors reduced to:  13 ShMem   1 Linda.
 Calling FoFJK, ICntrl=      2127 FMM=F ISym2X=0 I1Cent= 0 IOpClX= 0 NMat=1 NMatS=1 NMatT=0.
 ***** Axes restored to original set *****
 -------------------------------------------------------------------
 Center     Atomic                   Forces (Hartrees/Bohr)
 Number     Number              X              Y              Z
 -------------------------------------------------------------------
      1        6           0.001944277   -0.001588231    0.000199691
      2        7          -0.002031808    0.003215982    0.000120534
      3        6           0.001336372   -0.001967141   -0.002281921
      4        6           0.000875674    0.001949012   -0.003380438
      5        7          -0.009371597   -0.001199806    0.002674360
      6        6           0.000432951   -0.000849674    0.001127386
      7        7           0.008631810    0.002108619   -0.000575076
      8        6          -0.002222272   -0.000856385   -0.006022984
      9        7           0.001269513    0.000569976    0.001703419
     10        1           0.000541710    0.000187220   -0.000277335
     11        1          -0.000034707    0.000561112    0.000380236
     12        1          -0.000852132    0.000144460    0.000566421
     13        1           0.000840806   -0.000515527   -0.000254712
     14        1          -0.000907772    0.001142161    0.002199780
     15        1          -0.000103736    0.001004257    0.001024151
     16        1           0.000953545   -0.000489368    0.000385807
     17        1          -0.001041828    0.000150497    0.000988059
     18        1          -0.002282577   -0.001404635   -0.001010031
     19        1           0.001427587   -0.001002258   -0.000441241
     20        1          -0.000353935   -0.000138533   -0.000364331
     21        1           0.000948119   -0.001021739    0.003238226
 -------------------------------------------------------------------
 Cartesian Forces:  Max     0.009371597 RMS     0.002225001

 GradGradGradGradGradGradGradGradGradGradGradGradGradGradGradGradGradGrad
 Berny optimization.
 Using GEDIIS/GDIIS optimizer.
 FormGI is forming the generalized inverse of G from B-inverse, IUseBI=4.
 Internal  Forces:  Max     0.008649005 RMS     0.001641211
 Search for a local minimum.
 Step number   2 out of a maximum of  102
 All quantities printed in internal units (Hartrees-Bohrs-Radians)
 Mixed Optimization -- RFO/linear search
 Update second derivatives using D2CorX and points    1    2
 DE= -8.03D-03 DEPred=-9.07D-03 R= 8.86D-01
 TightC=F SS=  1.41D+00  RLast= 4.38D-01 DXNew= 5.0454D-01 1.3134D+00
 Trust test= 8.86D-01 RLast= 4.38D-01 DXMaxT set to 5.05D-01
 ITU=  1  0
 Use linear search instead of GDIIS.
     Eigenvalues ---    0.00234   0.00566   0.00714   0.00825   0.00911
     Eigenvalues ---    0.01045   0.01192   0.02979   0.03383   0.04018
     Eigenvalues ---    0.04396   0.04856   0.05092   0.05399   0.05473
     Eigenvalues ---    0.06985   0.07033   0.07582   0.07651   0.08893
     Eigenvalues ---    0.09507   0.10894   0.12520   0.12851   0.15297
     Eigenvalues ---    0.16000   0.16000   0.16000   0.16000   0.16000
     Eigenvalues ---    0.16087   0.16985   0.19435   0.21319   0.22005
     Eigenvalues ---    0.23048   0.23632   0.28109   0.32947   0.33787
     Eigenvalues ---    0.33854   0.34002   0.34130   0.34221   0.34240
     Eigenvalues ---    0.34428   0.34447   0.34519   0.34782   0.35139
     Eigenvalues ---    0.36303   0.37200   0.42228   0.44296   0.44731
     Eigenvalues ---    0.56310   1.27388
 RFO step:  Lambda=-3.89721507D-03 EMin= 2.33953356D-03
 Quartic linear search produced a step of  0.09976.
 Iteration  1 RMS(Cart)=  0.09245918 RMS(Int)=  0.00713628
 Iteration  2 RMS(Cart)=  0.01535513 RMS(Int)=  0.00016051
 Iteration  3 RMS(Cart)=  0.00023416 RMS(Int)=  0.00007960
 Iteration  4 RMS(Cart)=  0.00000006 RMS(Int)=  0.00007960
 Variable       Old X    -DE/DX   Delta X   Delta X   Delta X     New X
                                 (Linear)    (Quad)   (Total)
    R1        2.76432  -0.00157   0.00072  -0.00402  -0.00330   2.76101
    R2        2.06778  -0.00022   0.00032  -0.00046  -0.00015   2.06763
    R3        2.08543   0.00015   0.00164   0.00146   0.00310   2.08853
    R4        2.06750   0.00087  -0.00038   0.00244   0.00206   2.06956
    R5        2.76538  -0.00216  -0.00040  -0.00653  -0.00693   2.75846
    R6        1.91895   0.00063  -0.00067   0.00109   0.00042   1.91937
    R7        2.88851  -0.00093  -0.00276  -0.00512  -0.00788   2.88063
    R8        2.06337   0.00251  -0.00036   0.00747   0.00711   2.07048
    R9        2.08642   0.00016   0.00131   0.00130   0.00261   2.08904
   R10        2.77358  -0.00385  -0.00359  -0.01418  -0.01776   2.75582
   R11        2.07449   0.00009  -0.00024   0.00014  -0.00010   2.07439
   R12        2.08925   0.00015   0.00132   0.00128   0.00260   2.09185
   R13        2.77402  -0.00138  -0.00126  -0.00490  -0.00616   2.76786
   R14        2.69173   0.00865   0.00244   0.02234   0.02479   2.71651
   R15        2.05780   0.00200  -0.00073   0.00566   0.00493   2.06273
   R16        2.06595  -0.00037   0.00001  -0.00111  -0.00110   2.06485
   R17        2.08365  -0.00026   0.00140   0.00005   0.00145   2.08511
   R18        2.50020  -0.00093  -0.00371  -0.00403  -0.00774   2.49246
   R19        1.90251   0.00069  -0.00363  -0.00055  -0.00418   1.89832
   R20        2.19910   0.00124   0.00064   0.00143   0.00206   2.20117
    A1        1.91556  -0.00072   0.00017  -0.00441  -0.00429   1.91127
    A2        1.99505  -0.00026   0.00565   0.00094   0.00658   2.00163
    A3        1.90172   0.00093  -0.00380   0.00423   0.00044   1.90216
    A4        1.88823   0.00043  -0.00036   0.00171   0.00128   1.88952
    A5        1.87713   0.00014  -0.00019   0.00225   0.00203   1.87917
    A6        1.88248  -0.00049  -0.00167  -0.00462  -0.00624   1.87624
    A7        1.95638   0.00208   0.00491   0.01432   0.01916   1.97554
    A8        1.89233   0.00001  -0.00180   0.00658   0.00472   1.89705
    A9        1.89936  -0.00084  -0.00125  -0.00124  -0.00261   1.89675
   A10        1.90959  -0.00116  -0.00470  -0.00662  -0.01128   1.89831
   A11        1.86793   0.00087   0.00060   0.00740   0.00793   1.87587
   A12        1.97747   0.00082   0.00476   0.01143   0.01616   1.99362
   A13        1.93135  -0.00015   0.00112  -0.00368  -0.00255   1.92880
   A14        1.90211   0.00029  -0.00047   0.00054   0.00016   1.90227
   A15        1.87516  -0.00066  -0.00117  -0.00922  -0.01049   1.86468
   A16        1.99004  -0.00460   0.00180  -0.02358  -0.02191   1.96813
   A17        1.87665   0.00222  -0.00119   0.01935   0.01821   1.89486
   A18        1.91399   0.00035   0.00047  -0.00868  -0.00840   1.90559
   A19        1.85276   0.00102  -0.00530   0.00701   0.00184   1.85460
   A20        1.95133   0.00178   0.00327   0.00253   0.00552   1.95685
   A21        1.87289  -0.00049   0.00065   0.00667   0.00736   1.88025
   A22        1.99067  -0.00302   0.00771  -0.00824  -0.00074   1.98993
   A23        1.85784   0.00231  -0.00819   0.01565   0.00755   1.86539
   A24        1.89754   0.00096  -0.00332   0.01088   0.00773   1.90527
   A25        1.91124  -0.00189  -0.00418  -0.01459  -0.01882   1.89242
   A26        1.89926  -0.00078  -0.00407  -0.00521  -0.00931   1.88995
   A27        1.97229  -0.00007   0.00368  -0.00089   0.00279   1.97508
   A28        1.86123   0.00223   0.00387   0.02230   0.02607   1.88729
   A29        1.91524   0.00037   0.00127  -0.00107   0.00019   1.91543
   A30        1.90119   0.00030  -0.00055   0.00097   0.00045   1.90165
   A31        2.10550   0.00018   0.00127   0.00148   0.00269   2.10819
   A32        2.06640   0.00041   0.00192   0.00372   0.00558   2.07198
   A33        2.10700  -0.00060  -0.00353  -0.00601  -0.00961   2.09740
   A34        3.12697  -0.00113  -0.00063  -0.02323  -0.02386   3.10311
   A35        3.15155  -0.00367   0.00607  -0.07133  -0.06526   3.08629
    D1       -3.13311  -0.00031   0.00009  -0.01794  -0.01780   3.13228
    D2        1.05306  -0.00056  -0.00024  -0.02965  -0.02991   1.02315
    D3        1.02525  -0.00014  -0.00333  -0.01751  -0.02085   1.00440
    D4       -1.07176  -0.00039  -0.00366  -0.02922  -0.03296  -1.10472
    D5       -1.08186  -0.00001  -0.00233  -0.01529  -0.01755  -1.09941
    D6        3.10431  -0.00026  -0.00266  -0.02700  -0.02967   3.07464
    D7        3.11407  -0.00063  -0.00009  -0.02081  -0.02086   3.09320
    D8        1.02071  -0.00031   0.00087  -0.01704  -0.01612   1.00459
    D9       -1.04293  -0.00054  -0.00071  -0.01712  -0.01792  -1.06084
   D10       -1.07620   0.00013  -0.00007  -0.00444  -0.00448  -1.08068
   D11        3.11362   0.00044   0.00090  -0.00067   0.00027   3.11389
   D12        1.04999   0.00021  -0.00069  -0.00076  -0.00153   1.04846
   D13        3.09162   0.00016  -0.00669  -0.02225  -0.02905   3.06257
   D14        1.04264   0.00011  -0.00036  -0.03001  -0.03033   1.01231
   D15       -0.98839  -0.00072  -0.00072  -0.04408  -0.04472  -1.03311
   D16       -1.13756   0.00042  -0.00818  -0.01943  -0.02771  -1.16527
   D17        3.09664   0.00038  -0.00184  -0.02719  -0.02899   3.06765
   D18        1.06561  -0.00046  -0.00221  -0.04126  -0.04338   1.02223
   D19        0.92072  -0.00029  -0.00923  -0.03252  -0.04187   0.87885
   D20       -1.12826  -0.00034  -0.00290  -0.04028  -0.04315  -1.17141
   D21        3.12389  -0.00117  -0.00326  -0.05434  -0.05754   3.06635
   D22        1.15278  -0.00122   0.01160  -0.01158   0.00010   1.15288
   D23       -3.03801  -0.00024   0.00685   0.00779   0.01456  -3.02345
   D24       -3.06770  -0.00042   0.00762   0.00354   0.01126  -3.05644
   D25       -0.97531   0.00055   0.00287   0.02290   0.02572  -0.94959
   D26       -1.03070   0.00053   0.00708   0.01702   0.02416  -1.00654
   D27        1.06169   0.00151   0.00233   0.03639   0.03861   1.10031
   D28       -1.15708   0.00138  -0.00795   0.00389  -0.00405  -1.16113
   D29        3.09783   0.00021  -0.00776  -0.01178  -0.01963   3.07820
   D30        0.98364   0.00042  -0.00672  -0.00877  -0.01551   0.96814
   D31        3.05619  -0.00030  -0.00041  -0.01824  -0.01857   3.03762
   D32        1.02791  -0.00148  -0.00022  -0.03391  -0.03415   0.99376
   D33       -1.08627  -0.00126   0.00082  -0.03089  -0.03002  -1.11630
   D34        2.92193  -0.00216  -0.01642  -0.21448  -0.23106   2.69087
   D35       -0.12099  -0.00204  -0.01114  -0.20487  -0.21619  -0.33718
   D36       -1.20951  -0.00386  -0.01424  -0.20875  -0.22282  -1.43233
   D37        2.03075  -0.00373  -0.00897  -0.19914  -0.20794   1.82281
         Item               Value     Threshold  Converged?
 Maximum Force            0.008649     0.000450     NO 
 RMS     Force            0.001641     0.000300     NO 
 Maximum Displacement     0.632162     0.001800     NO 
 RMS     Displacement     0.103545     0.001200     NO 
 Predicted change in Energy=-2.336019D-03
 GradGradGradGradGradGradGradGradGradGradGradGradGradGradGradGradGradGrad

                          Input orientation:                          
 ---------------------------------------------------------------------
 Center     Atomic      Atomic             Coordinates (Angstroms)
 Number     Number       Type             X           Y           Z
 ---------------------------------------------------------------------
      1          6           0        0.966882   -0.045010   -0.206351
      2          7           0        2.416436    0.116532   -0.120287
      3          6           0        2.819872    1.422935    0.390897
      4          6           0        4.339659    1.457330    0.503845
      5          7           0        4.846049    2.763704    0.908374
      6          6           0        4.465338    3.155902    2.267253
      7          7           0        6.279454    2.701599    0.819242
      8          6           0        6.991751    3.794329    0.623745
      9          7           0        7.632049    4.762304    0.524648
     10          1           0        0.732773   -1.037206   -0.603708
     11          1           0        0.454851    0.708362   -0.832233
     12          1           0        0.540866    0.018809    0.800536
     13          1           0        2.813314   -0.006797   -1.047052
     14          1           0        2.358695    1.547224    1.376958
     15          1           0        2.485773    2.275373   -0.228614
     16          1           0        4.768407    1.254565   -0.486129
     17          1           0        4.671969    0.651825    1.186552
     18          1           0        3.384068    3.302983    2.293779
     19          1           0        4.944198    4.111234    2.495222
     20          1           0        4.759768    2.416082    3.031092
     21          1           0        6.723837    1.800741    0.809302
 ---------------------------------------------------------------------
                    Distance matrix (angstroms):
                    1          2          3          4          5
     1  C    0.000000
     2  N    1.461065   0.000000
     3  C    2.438266   1.459712   0.000000
     4  C    3.759924   2.426121   1.524366   0.000000
     5  N    4.917258   3.737470   2.484116   1.458317   0.000000
     6  C    5.348247   4.374484   3.038329   2.451642   1.464688
     7  N    6.067877   4.742172   3.713108   2.326046   1.437516
     8  C    7.192262   5.917202   4.804404   3.536882   2.397340
     9  N    8.250399   7.014396   5.858867   4.665096   3.450137
    10  H    1.094145   2.097505   3.376021   4.523163   5.801064
    11  H    1.105203   2.169089   2.756807   4.175858   5.151384
    12  H    1.095163   2.091705   2.707996   4.072861   5.106924
    13  H    2.029175   1.015685   2.027777   2.622724   3.953654
    14  H    2.641821   2.071704   1.095650   2.166709   2.808260
    15  H    2.773392   2.162669   1.105471   2.154666   2.664979
    16  H    4.027253   2.638319   2.143434   1.097719   2.056250
    17  H    4.019132   2.661164   2.158226   1.106958   2.137222
    18  H    4.827266   4.113089   2.733835   2.742891   2.085079
    19  H    6.355462   5.402602   4.020932   3.372574   2.084120
    20  H    5.560935   4.550860   3.423473   2.735448   2.152723
    21  H    6.130325   4.717457   3.944457   2.428074   2.112629
                    6          7          8          9         10
     6  C    0.000000
     7  N    2.365195   0.000000
     8  C    3.080823   1.318956   0.000000
     9  N    3.955409   2.482499   1.164808   0.000000
    10  H    6.305284   6.838795   8.001573   9.083365   0.000000
    11  H    5.628611   6.373881   7.373881   8.353906   1.782266
    12  H    5.233936   6.334754   7.476612   8.535909   1.767455
    13  H    4.869956   4.778346   5.890625   6.959510   2.363672
    14  H    2.796143   4.125044   5.204039   6.234696   3.639497
    15  H    3.305051   3.958749   4.830899   5.765101   3.766548
    16  H    3.359768   2.466001   3.553235   4.639649   4.642454
    17  H    2.735144   2.630684   3.946324   5.108447   4.644902
    18  H    1.091549   3.304419   4.005721   4.827503   5.853378
    19  H    1.092674   2.564935   2.792011   3.395821   7.337976
    20  H    1.103391   2.698750   3.560426   4.476273   6.430681
    21  H    3.010465   1.004549   2.020050   3.110745   6.778155
                   11         12         13         14         15
    11  H    0.000000
    12  H    1.774490   0.000000
    13  H    2.473853   2.928867   0.000000
    14  H    3.034606   2.443935   2.915045   0.000000
    15  H    2.635246   3.151808   2.446513   1.767544   0.000000
    16  H    4.361753   4.588540   2.393336   3.059976   2.513719
    17  H    4.675764   4.197110   2.979491   2.487817   3.068885
    18  H    5.008425   4.593406   4.737253   2.230390   2.867993
    19  H    6.542609   6.245737   5.834943   3.809132   4.102868
    20  H    6.031078   5.340547   5.127406   3.042405   3.977002
    21  H    6.571766   6.434632   4.690995   4.409192   4.389047
                   16         17         18         19         20
    16  H    0.000000
    17  H    1.780577   0.000000
    18  H    3.720255   3.148536   0.000000
    19  H    4.132785   3.708670   1.768574   0.000000
    20  H    3.704057   2.553947   1.795209   1.787375   0.000000
    21  H    2.408351   2.381699   3.951513   3.368652   3.028624
                   21
    21  H    0.000000
 Stoichiometry    C5H12N4
 Framework group  C1[X(C5H12N4)]
 Deg. of freedom    57
 Full point group                 C1      NOp   1
 Largest Abelian subgroup         C1      NOp   1
 Largest concise Abelian subgroup C1      NOp   1
                         Standard orientation:                         
 ---------------------------------------------------------------------
 Center     Atomic      Atomic             Coordinates (Angstroms)
 Number     Number       Type             X           Y           Z
 ---------------------------------------------------------------------
      1          6           0       -4.090671   -0.087401   -0.298574
      2          7           0       -2.817719   -0.569580    0.232281
      3          6           0       -1.666746    0.175032   -0.269291
      4          6           0       -0.406084   -0.362960    0.397782
      5          7           0        0.811710    0.250268   -0.119534
      6          6           0        0.934767    1.678193    0.182460
      7          7           0        1.917026   -0.453947    0.471069
      8          6           0        3.087723   -0.502580   -0.134527
      9          7           0        4.143436   -0.488663   -0.626517
     10          1           0       -4.907973   -0.691060    0.107342
     11          1           0       -4.165387   -0.099949   -1.401177
     12          1           0       -4.245424    0.945701    0.030265
     13          1           0       -2.708478   -1.546964   -0.021498
     14          1           0       -1.818283    1.228810   -0.010373
     15          1           0       -1.540409    0.129869   -1.366591
     16          1           0       -0.326248   -1.435949    0.180280
     17          1           0       -0.497429   -0.247262    1.494881
     18          1           0        0.152323    2.213890   -0.358179
     19          1           0        1.902510    2.024816   -0.188030
     20          1           0        0.862805    1.901580    1.260602
     21          1           0        1.756883   -0.991737    1.304289
 ---------------------------------------------------------------------
 Rotational constants (GHZ):           5.3133686           0.5768909           0.5468941
 Standard basis: 6-31G(2df,p) (6D, 7F)
 There are   339 symmetry adapted cartesian basis functions of A   symmetry.
 There are   312 symmetry adapted basis functions of A   symmetry.
   312 basis functions,   480 primitive gaussians,   339 cartesian basis functions
    35 alpha electrons       35 beta electrons
       nuclear repulsion energy       440.8836481174 Hartrees.
 NAtoms=   21 NActive=   21 NUniq=   21 SFac= 1.00D+00 NAtFMM=   60 NAOKFM=F Big=F
 Integral buffers will be    131072 words long.
 Raffenetti 2 integral format.
 Two-electron integral symmetry is turned on.
 One-electron integrals computed using PRISM.
 PrsmSu:  requested number of processors reduced to:  13 ShMem   1 Linda.
 NBasis=   312 RedAO= T EigKep=  1.28D-04  NBF=   312
 NBsUse=   312 1.00D-06 EigRej= -1.00D+00 NBFU=   312
 Initial guess from the checkpoint file:  "CNCCNpCpNCtN.chk"
 B after Tr=     0.000000   -0.000000    0.000000
         Rot=    0.998750    0.049903   -0.000092   -0.002964 Ang=   5.73 deg.
 ExpMin= 1.61D-01 ExpMax= 4.17D+03 ExpMxC= 6.27D+02 IAcc=2 IRadAn=         4 AccDes= 0.00D+00
 Harris functional with IExCor=  402 and IRadAn=       4 diagonalized for initial guess.
 HarFok:  IExCor=  402 AccDes= 0.00D+00 IRadAn=         4 IDoV= 1 UseB2=F ITyADJ=14
 ICtDFT=  3500011 ScaDFX=  1.000000  1.000000  1.000000  1.000000
 FoFCou: FMM=F IPFlag=           0 FMFlag=      100000 FMFlg1=           0
         NFxFlg=           0 DoJE=T BraDBF=F KetDBF=T FulRan=T
         wScrn=  0.000000 ICntrl=       500 IOpCl=  0 I1Cent=   200000004 NGrid=           0
         NMat0=    1 NMatS0=      1 NMatT0=    0 NMatD0=    1 NMtDS0=    0 NMtDT0=    0
[...]
 002175,-0.00000049,-0.00000018,-0.00002093,0.00006094,-0.00007571,-0.0
 0010331,-0.00000729,0.00005548,0.00006375,-0.00011550,-0.00003218,-0.0
 0002306,0.00004998,0.03722640,0.24232509,-0.02249558,-0.11944604,-0.12
 865287,-0.00048435,-0.00106663,-0.00204666,-0.00045111,0.00065421,0.00
 076485,0.00025921,-0.00035983,0.00042046,-0.00008137,-0.00000285,0.000
 00722,0.00000495,-0.00002813,0.00004259,-0.00007045,-0.00008682,-0.000
 01952,0.00004145,0.00005571,-0.00008711,-0.00002648,-0.00002390,0.0000
 3386,0.02607955,0.13200131,0.13489154,-0.09212452,0.07787399,-0.042070
 24,-0.03441905,0.02253263,-0.01793593,0.00232496,0.00573587,0.00298039
 ,0.00030586,-0.00020205,0.00018797,-0.00009839,-0.00030203,-0.00004481
 ,-0.00010655,-0.00003978,0.00014306,-0.00009729,-0.00014547,0.00001870
 ,0.00008272,0.00011440,-0.00019879,-0.00003938,-0.00006500,0.00008348,
 0.00286566,-0.00246154,0.00235253,0.11292968,0.07712284,-0.19547924,0.
 07728544,0.00095841,0.00794851,-0.00374143,-0.00102180,0.00421003,-0.0
 0152822,-0.00018818,0.00018954,-0.00007830,0.00006472,0.00000344,0.000
 01631,0.00003662,0.00000178,-0.00003858,0.00009857,0.00006381,0.000011
 30,-0.00005306,-0.00006619,0.00011144,0.00001795,0.00003792,-0.0000479
 8,0.01049736,-0.02022532,0.01245758,-0.09141772,0.20663108,-0.04173494
 ,0.07742851,-0.09451956,-0.00607647,-0.00020702,0.00276172,0.00014375,
 0.00147120,0.00051193,0.00004279,-0.00019168,0.00003199,-0.00005708,-0
 .00008691,-0.00000165,-0.00005285,0.00000237,0.00000125,-0.00002966,-0
 .00002870,-0.00000522,0.00001114,0.00001941,-0.00002475,-0.00000409,-0
 .00001775,0.00000770,0.00827121,-0.01434642,0.00827068,0.05125039,-0.0
 8731806,0.09576440,-0.08172091,-0.01415031,0.08197465,-0.02395747,-0.0
 0309097,0.03336607,0.00100549,0.00148687,0.00256982,-0.00006278,0.0001
 7943,0.00005762,0.00005951,-0.00003548,-0.00020115,-0.00006997,-0.0000
 4331,0.00007001,0.00003471,-0.00000309,-0.00002013,0.00000715,0.000013
 31,0.00001644,-0.00001149,-0.00001382,-0.00001652,0.00220488,0.0017716
 5,-0.00446922,0.00645761,0.00162511,-0.01223867,0.10197115,-0.01413758
 ,-0.05454140,0.03517667,-0.00340674,0.00015485,0.00223905,-0.00022212,
 0.00038801,0.00195168,-0.00015618,0.00004443,-0.00012576,-0.00000763,-
 0.00001374,-0.00001803,-0.00006331,0.00003321,0.00000698,0.00004178,0.
 00002720,-0.00002330,-0.00001855,-0.00003060,0.00005477,0.00000895,0.0
 0001293,-0.00002663,0.01077766,0.00510905,-0.02424776,-0.00881941,-0.0
 0414502,0.02478334,0.01658534,0.05278645,0.08975756,0.03516843,-0.2645
 9417,0.00155722,-0.00191611,0.00595160,-0.00064323,-0.00061997,0.00088
 840,-0.00038281,0.00015906,0.00059359,0.00009038,0.00004815,0.00003413
 ,0.00003946,0.00000884,-0.00007262,0.00002791,0.00004913,0.00001899,-0
 .00000409,-0.00000757,0.00001495,0.00001715,0.00001123,0.00000217,0.00
 561051,0.00364530,-0.01477014,0.00427694,0.00159530,-0.01281642,-0.098
 91758,-0.03921810,0.28314643,-0.02200049,-0.00322030,0.03663180,-0.105
 13540,-0.01727104,0.12499366,0.00373054,0.00214441,-0.00739138,0.00222
 925,-0.00018559,-0.00248556,-0.00032564,0.00010625,0.00047243,0.000259
 95,-0.00002752,-0.00015505,-0.00006959,0.00006218,0.00005603,-0.000007
 79,-0.00003788,-0.00004643,-0.00000900,0.00004830,0.00004921,0.0014622
 6,-0.00038949,-0.00030839,0.00104927,0.00074214,0.00028354,-0.00646127
 ,-0.00085419,-0.00176419,0.12638115,0.00271410,-0.00154325,0.00734747,
 -0.03375530,-0.03059852,0.02353091,0.01348690,-0.00717677,-0.03605546,
 0.00099232,0.00090292,-0.00020258,0.00031232,-0.00012124,0.00032678,0.
 00016251,-0.00013442,-0.00018053,-0.00004839,0.00001058,0.00009183,-0.
 00001473,0.00001461,-0.00006855,0.00005400,-0.00002809,0.00004702,-0.0
 0031893,-0.00011304,0.00024754,-0.00000040,0.00048939,-0.00126824,-0.0
 0349377,0.00021696,0.00030660,0.02191702,0.04050630,-0.00774278,0.0027
 8943,0.00285314,0.15326554,-0.01146566,-0.35648738,0.00687547,0.005276
 99,-0.02004331,0.00087724,0.00022593,-0.00046501,-0.00028296,0.0000635
 7,0.00057694,0.00044116,0.00004504,-0.00013106,-0.00004396,0.00007322,
 0.00006686,-0.00004321,-0.00005198,0.00001367,0.00000568,0.00003140,0.
 00000855,0.00036468,0.00014584,0.00057607,-0.00091861,-0.00050483,0.00
 062488,-0.00049949,0.00001951,0.00180691,-0.14930355,0.00782560,0.3687
 6139,0.00120044,0.00023714,-0.00188586,0.00344953,-0.00049884,-0.00730
 143,-0.10123553,-0.00536257,0.10188841,-0.01621685,-0.00125326,0.03062
 976,0.00074341,0.00063854,0.00018186,-0.00095893,0.00010718,0.00053258
 ,-0.00018891,-0.00064820,-0.00075569,0.00014885,0.00014570,0.00000838,
 -0.00000057,-0.00002548,-0.00011147,0.00015802,0.00012986,-0.00012151,
 -0.00007341,-0.00012922,0.00005768,0.00038021,0.00002733,0.00054370,0.
 00006169,-0.00183737,-0.00159968,0.11062197,0.00163124,0.00129862,-0.0
 0071055,0.01420860,-0.00393020,-0.03217402,-0.00958535,-0.05082285,0.0
 2162415,0.00042811,-0.00042545,0.00135266,-0.00019327,0.00029665,0.000
 04901,-0.00094107,-0.00006987,-0.00009218,0.00010684,-0.00004398,-0.00
 026350,0.00002496,-0.00006964,0.00007285,-0.00001735,0.00002888,-0.000
 05811,0.00034090,0.00003588,0.00022988,-0.00041609,-0.00022302,0.00025
 760,-0.00046975,0.00008498,0.00065430,-0.00186293,-0.00417223,-0.00438
 196,0.00851353,0.05933349,0.00188858,0.00103155,0.00048358,0.00817025,
 -0.00686613,-0.01989368,0.10064859,0.01568448,-0.24463344,-0.00275997,
 0.00050142,0.00520874,0.00080579,-0.00002942,0.00009906,0.00037599,-0.
 00124657,-0.00086262,0.00019826,0.00029670,0.00018107,-0.00000903,0.00
 003281,0.00003505,0.00002445,-0.00001316,0.00001168,-0.00024364,0.0000
 2312,0.00058430,-0.00032279,0.00020577,-0.00033782,-0.00101674,-0.0004
 6672,0.00029917,-0.00208965,-0.00277347,-0.00081287,-0.11055139,-0.007
 74161,0.27226180,0.00368115,-0.00208937,0.00179895,0.00314469,-0.00811
 537,0.00320712,-0.07458813,0.05604400,-0.03325631,-0.01350186,0.027331
 96,-0.01905253,0.00222455,0.00074881,0.00072086,-0.00016699,-0.0000374
 5,-0.00025138,-0.00010561,-0.00060097,0.00052804,0.00006455,0.00006886
 ,-0.00031319,0.00001470,-0.00008013,0.00015362,-0.00007749,0.00027782,
 -0.00012854,0.00051383,0.00173963,-0.00012137,-0.00005152,0.00009227,-
 0.00004180,-0.00001151,0.00074465,0.00021971,0.00513495,-0.01147914,0.
 00770209,0.07806684,0.00498745,0.00147658,0.00054624,0.00328855,-0.038
 21312,0.00186411,0.05956077,-0.19562830,0.09223590,0.00018484,-0.00007
 140,0.00061812,-0.00052349,0.00118091,-0.00034873,0.00021354,0.0002441
 9,0.00014001,0.00004164,0.00045209,-0.00013212,0.00001336,-0.00007659,
 0.00016963,-0.00004850,0.00004917,-0.00006398,-0.00033750,0.00043056,-
 0.00042316,-0.00242881,0.00073417,-0.00046906,-0.00038003,-0.00002733,
 0.00021283,-0.00077288,0.00130433,0.00019632,0.00111525,-0.00098294,0.
 00250946,-0.06428589,0.22916484,0.00340816,-0.00050958,0.00111704,0.00
 286274,-0.02191522,0.01049393,-0.03392612,0.09070275,-0.10917420,-0.00
 089626,0.00409848,-0.00229739,0.00041659,0.00023318,0.00039390,-0.0002
 3658,0.00002781,-0.00022347,-0.00011348,-0.00041524,0.00007514,0.00002
 687,0.00007011,-0.00011120,-0.00001080,-0.00004865,0.00002933,0.000025
 08,0.00008580,0.00003568,0.00011392,0.00162854,-0.00026846,-0.00042272
 ,-0.00001245,-0.00035930,0.00024017,-0.00004778,0.00213813,-0.00914856
 ,0.02344529,-0.01444718,0.03870214,-0.09649533,0.11082990,-0.00008457,
 -0.00005377,-0.00007979,0.00252008,0.00145067,0.00091458,-0.01828425,0
 .00148556,0.03050450,-0.09617678,0.01227119,0.10342762,0.00230789,-0.0
 0402863,-0.00964092,-0.00078673,-0.00228119,-0.00144496,0.00132522,-0.
 00029686,-0.00232538,0.00020793,-0.00041689,-0.00018736,-0.00016462,0.
 00005891,0.00007015,0.00006203,-0.00002476,-0.00009308,0.00011341,-0.0
 0000491,0.00008153,0.00024519,0.00008332,-0.00020613,-0.00064789,-0.00
 078574,-0.00131444,-0.00592545,-0.00020423,-0.00170982,0.00145054,0.00
 011777,-0.00023665,0.10879068,0.00000633,-0.00018728,0.00006449,-0.000
 52694,0.00015334,0.00081764,-0.00014944,0.00009032,0.00047265,0.006234
 48,-0.04951027,-0.01010853,0.01361267,-0.01089388,-0.03370293,-0.00337
 443,-0.00441563,-0.00090554,0.00182572,0.00174813,-0.00007155,-0.00010
 449,0.00011606,-0.00065038,0.00004195,-0.00019320,0.00058220,-0.000025
 66,-0.00001087,-0.00001304,0.00006967,-0.00000866,0.00000593,0.0000010
 5,-0.00003852,-0.00006232,-0.00042500,0.00037698,-0.00034761,-0.000593
 39,0.00047910,-0.00048925,0.00000617,0.00012107,-0.00050418,-0.0069083
 1,0.05977487,-0.00007820,0.00014547,0.00051648,-0.00078406,0.00042072,
 0.00130026,-0.00129479,0.00035942,0.00327612,0.09787901,-0.01775556,-0
 .25401521,0.00526416,-0.00647422,-0.01424568,-0.00177027,-0.00263017,0
 .00073951,0.00116578,0.00198348,0.00156514,-0.00061864,-0.00064576,0.0
 0013925,-0.00004465,0.00000483,0.00018703,0.00009106,0.00002104,-0.000
 01898,-0.00005817,0.00000468,-0.00001461,-0.00018896,-0.00007644,-0.00
 013135,0.00075832,0.00033693,0.00038350,-0.00136445,-0.00070262,0.0010
 1370,0.00053488,-0.00011067,0.00071232,-0.10763260,0.02569178,0.276151
 29,-0.00011761,-0.00024820,0.00004232,0.00193526,0.00000589,0.00132564
 ,-0.01253170,0.02633542,-0.02088713,-0.07152997,0.04962098,-0.04070544
 ,0.00182576,-0.01112470,0.00437300,-0.00033227,0.00039557,0.00098112,0
 .00491326,-0.00158087,0.00118165,-0.00011600,0.00019466,0.00041969,-0.
 00000145,-0.00003444,-0.00015407,-0.00006269,-0.00015656,0.00002568,0.
 00034006,-0.00011306,0.00015346,-0.00003484,0.00001673,0.00001739,-0.0
 0019359,0.00009705,-0.00001070,0.00181468,0.00011538,0.00066715,-0.006
 40454,-0.00070145,-0.00118469,0.00460943,-0.00955476,0.00826253,0.0760
 3899,-0.00002486,0.00024448,0.00004589,-0.00017016,0.00120847,0.000055
 64,0.00019983,0.00009252,0.00037823,0.05293244,-0.17007919,0.10189172,
 0.00293141,-0.04143560,0.00915146,-0.00118776,0.00158731,0.00495198,0.
 00408444,0.00185709,-0.00089492,-0.00013059,0.00013089,-0.00031223,0.0
 0000229,0.00003855,0.00018964,0.00003808,0.00000216,0.00000680,-0.0001
 1465,-0.00013580,-0.00004831,0.00000672,-0.00002711,-0.00001158,-0.000
 02096,-0.00002828,0.00000820,0.00014135,0.00020452,-0.00020280,-0.0004
 0619,0.00011978,-0.00056202,-0.00005748,0.00263711,-0.00064113,-0.0558
 4485,0.20201047,-0.00006283,-0.00029814,0.00007100,0.00041011,-0.00038
 427,0.00025197,0.00056950,0.00349484,-0.00194031,-0.04258247,0.1004048
 6,-0.13615149,0.00267745,-0.01323145,0.00886224,0.00082207,-0.00207595
 ,0.00450910,0.00250218,-0.00096555,0.00055009,0.00009839,0.00014600,-0
 .00063486,0.00007911,0.00001694,0.00027467,-0.00008308,-0.00003807,-0.
 00003547,0.00015578,-0.00004091,0.00002370,-0.00003883,-0.00000103,-0.
 00002258,-0.00005409,0.00042876,0.00000426,-0.00023818,-0.00069973,0.0
 0097246,-0.00064116,-0.00075056,0.00112424,-0.00958926,0.02114975,-0.0
 1659478,0.04612096,-0.11101578,0.13845909,0.00011215,0.00001626,0.0000
 3131,0.00041951,-0.00001180,-0.00056480,-0.00090455,-0.00118934,-0.000
 04235,-0.00080487,-0.00036505,0.00013324,-0.00888533,-0.00136469,0.002
 10429,-0.31510119,0.00762696,0.00763154,-0.00018315,0.00031650,0.00304
 026,0.00016375,0.00107339,-0.00042941,-0.00017110,-0.00031327,0.000305
 75,-0.00001258,-0.00000836,-0.00001273,-0.00001451,0.00000936,-0.00000
 279,0.00001018,0.00002068,0.00000990,-0.00014456,-0.00014801,-0.000162
 58,0.00045743,-0.00056227,-0.00130877,0.00001475,0.00010006,0.00003919
 ,0.00005496,0.00006722,0.00000526,0.00000251,0.00017721,-0.00005099,0.
 34366065,-0.00015114,0.00003973,-0.00005797,-0.00010966,-0.00008311,0.
 00024202,0.00012755,-0.00015446,-0.00156379,0.00031614,-0.00002638,0.0
 0035404,0.00511126,-0.00072389,-0.00131003,0.00582309,-0.04801786,-0.0
 0051348,-0.00006953,0.00114672,-0.00013038,0.00040286,0.00022758,-0.00
 065294,-0.00007987,-0.00009056,0.00016347,0.00002597,0.00001429,0.0000
 3058,0.00003080,-0.00002834,0.00002011,-0.00001572,-0.00002691,0.00000
 167,0.00006317,0.00008016,0.00006829,-0.00090947,-0.00098681,-0.000543
 82,-0.00005107,-0.00006355,0.00028000,-0.00008414,0.00009830,0.0001144
 2,0.00003696,-0.00003314,-0.00003174,-0.00620813,0.04667858,-0.0001598
 2,-0.00003990,0.00000416,-0.00019369,0.00030037,0.00002073,-0.00010319
 ,-0.00122576,-0.00052444,0.00029120,-0.00033827,0.00122954,0.03307709,
 0.00266622,-0.00202697,-0.00302087,-0.00158262,-0.04983112,0.00573824,
 -0.00120111,-0.00564030,0.00155623,-0.00128451,0.00011876,-0.00008095,
 0.00050548,-0.00041153,0.00001936,0.00002194,0.00001229,0.00001749,-0.
 00002457,-0.00001190,0.00001100,-0.00000878,-0.00000655,0.00007486,0.0
 0003457,0.00001053,-0.00048119,-0.00086570,-0.00030303,-0.00006547,0.0
 0027733,-0.00022727,-0.00001247,0.00031533,0.00012555,-0.00021105,-0.0
 0028430,-0.00021647,-0.00952757,0.00140550,0.05692004,0.00011554,-0.00
 000408,0.00001256,0.00018658,-0.00004538,-0.00029676,-0.00036301,-0.00
 036846,0.00037918,-0.00110246,0.00066461,0.00231908,0.00229493,0.00976
 928,0.00586707,-0.08402706,-0.09182777,-0.03038115,0.00110644,0.001351
 83,-0.00020724,0.00013832,0.00001413,0.00072756,0.00006319,0.00013559,
 -0.00030700,-0.00001646,-0.00000998,-0.00001616,-0.00001688,0.00001693
 ,-0.00000438,0.00000696,0.00001987,0.00000752,-0.00010186,-0.00010038,
 -0.00008162,0.00039725,0.00019697,-0.00040203,0.00005352,0.00003154,-0
 .00002129,0.00046635,0.00042085,0.00043776,-0.00000265,-0.00024579,-0.
 00004996,-0.00914467,-0.02805374,-0.00863994,0.08604102,0.00007534,-0.
 00000589,0.00000116,-0.00014307,-0.00002045,-0.00001237,0.00031723,0.0
 0014561,0.00017796,0.00096259,0.00124729,-0.00084927,-0.00184429,-0.00
 441779,-0.00465642,-0.08773131,-0.26466397,-0.06698421,-0.00065207,0.0
 0114447,0.00208587,0.00041368,0.00046635,-0.00047860,-0.00010788,-0.00
 018242,0.00026003,-0.00001404,-0.00001010,-0.00001025,-0.00002412,0.00
 001487,-0.00000962,-0.00000369,0.00000095,0.00000428,0.00001194,0.0000
 1431,0.00003020,0.00001021,-0.00004584,0.00006172,-0.00005460,0.000002
 04,-0.00007577,-0.00024130,-0.00015556,-0.00026509,-0.00002511,0.00046
 977,0.00024713,0.00125141,0.00289698,0.00175744,0.09641371,0.28279637,
 0.00010514,-0.00000291,-0.00003183,-0.00035359,-0.00004966,0.00006658,
 0.00086169,0.00017144,0.00004669,0.00396768,0.00057555,-0.00472296,-0.
 01377695,-0.03325888,-0.01827319,-0.02347761,-0.05828421,-0.06543818,-
 0.00166737,0.00034686,0.00228701,-0.00008817,0.00015627,-0.00041389,-0
 .00005007,-0.00007116,0.00020156,-0.00002994,-0.00001505,-0.00001173,-
 0.00004301,0.00001701,-0.00000677,-0.00002993,-0.00000195,0.00001030,0
 .00007549,0.00002167,0.00012092,-0.00024187,0.00000252,0.00015365,-0.0
 0007795,0.00003251,0.00001301,-0.00048698,-0.00176818,-0.00069917,0.00
 013806,-0.00047256,-0.00004062,-0.00037808,0.00142950,0.00026059,0.027
 90961,0.07423090,0.08018726,-0.00000095,0.00002955,-0.00003102,0.00012
 344,-0.00012686,0.00001212,-0.00013006,0.00022669,-0.00002758,-0.00016
 388,-0.00073697,-0.00059728,0.00403786,-0.00745007,0.00980113,-0.07930
 669,0.05697092,-0.04685396,0.00403536,-0.00214051,0.00049180,-0.000008
 53,-0.00011446,-0.00003200,0.00002601,0.00009042,-0.00010471,-0.000000
 82,-0.00000825,-0.00000079,0.00000933,-0.00001172,0.00002254,-0.000013
 27,0.00000722,0.00000349,-0.00001191,-0.00000346,-0.00002198,-0.000105
 42,0.00013672,-0.00006242,0.00002027,-0.00007849,0.00018372,-0.0000069
 6,-0.00013552,-0.00001516,-0.00020311,-0.00009956,-0.00059029,-0.00954
 097,0.02401304,-0.01916401,0.00408244,-0.00866789,0.00725843,0.0767210
 8,-0.00008628,-0.00003079,0.00004470,0.00012054,0.00012796,0.00001814,
 -0.00018681,-0.00014456,0.00013977,-0.00109284,0.00381968,-0.00183143,
 -0.00305084,0.00738156,-0.00172187,0.05778041,-0.17214667,0.09725613,-
 0.00146815,0.00096838,-0.00066627,-0.00023622,-0.00008900,-0.00023358,
 0.00001857,0.00004408,0.00005780,0.00001957,0.00001668,0.00001196,0.00
 002607,-0.00000130,-0.00000590,0.00001677,-0.00000588,-0.00001426,0.00
 000692,-0.00000950,-0.00001302,0.00008953,-0.00003789,0.00006145,0.000
 00241,0.00000605,-0.00004206,0.00005030,-0.00000124,0.00016856,0.00060
 436,0.00083817,0.00184741,-0.00042589,-0.00092428,-0.00019849,0.011504
 83,-0.01913511,0.01697897,-0.06296788,0.17971282,0.00010601,-0.0000141
 8,-0.00008631,-0.00037318,-0.00016844,0.00008502,0.00028180,-0.0003589
 0,-0.00019725,0.00106798,0.00603233,0.00237572,-0.00472340,0.01958960,
 -0.04111599,-0.04710294,0.09809898,-0.12999588,-0.00421285,-0.00099633
 ,0.00209586,0.00000090,-0.00019523,0.00051413,0.00006405,0.00000373,-0
 .00010684,-0.00003977,-0.00001368,-0.00001079,-0.00002846,0.00000905,0
 .00000244,-0.00002498,-0.00000302,0.00002158,0.00003265,0.00004439,0.0
 0004661,-0.00026080,-0.00003969,0.00002560,0.00023076,-0.00002157,0.00
 010953,0.00022485,-0.00052016,0.00044903,0.00017226,-0.00217658,0.0008
 3568,-0.00063843,0.00007827,0.00130210,0.00278861,-0.00534129,0.006369
 58,0.05072097,-0.11333053,0.15756808,0.00004412,-0.00003417,0.00000592
 ,-0.00012450,-0.00022714,0.00005230,-0.00003085,-0.00052535,-0.0001105
 4,0.00256095,0.00520811,0.00111882,-0.03486909,0.02608302,-0.01003687,
 0.00041877,0.00037603,-0.00427124,-0.13246262,0.12811502,-0.05403550,0
 .01162343,-0.01183123,0.00320949,-0.00273550,0.00003914,0.00391524,-0.
 00001921,-0.00000309,-0.00000359,-0.00000242,0.00001002,0.00000427,0.0
 0000048,0.00000457,0.00000070,-0.00005361,0.00002561,-0.00002391,0.000
 13663,0.00002820,-0.00000490,0.00052333,-0.00009774,0.00017858,-0.0000
 7648,-0.00048818,-0.00054882,0.00005047,-0.00221092,0.00054560,0.00001
 159,-0.00021836,0.00087472,-0.00017748,0.00005326,0.00038543,0.0004367
 8,-0.00072535,0.00171397,0.15474522,-0.00012815,-0.00005005,0.00002173
 ,0.00014529,-0.00006187,0.00005680,-0.00066099,-0.00066347,-0.00010298
 ,-0.00206892,0.00694087,-0.00311444,-0.00158048,0.00536946,-0.00635719
 ,0.00060746,0.00004319,-0.00077350,0.14149182,-0.25788528,0.14183478,0
 .00140406,-0.01391843,-0.00166568,0.00113144,0.00275135,0.00037642,0.0
 0000960,0.00001847,0.00001284,0.00005364,-0.00001165,0.00000920,0.0000
 1369,-0.00000251,-0.00001521,-0.00003452,0.00000879,-0.00003447,0.0001
 0216,0.00004859,-0.00003554,0.00014359,-0.00022254,0.00005630,-0.00012
 950,-0.00018015,0.00005034,0.00196098,0.00029785,0.00179750,-0.0000622
 4,-0.00002304,-0.00023018,0.00011543,-0.00056187,-0.00003863,0.0010670
 8,-0.00038916,-0.00067675,-0.14358145,0.25849144,-0.00012626,-0.000015
 70,0.00004440,0.00019577,0.00001232,-0.00001496,-0.00016125,-0.0001554
 9,-0.00020317,0.00050476,-0.00000950,0.00008735,-0.00379924,-0.0042182
 0,0.00192143,0.00113011,-0.00280814,0.00461037,-0.04369293,0.10660521,
 -0.07000049,-0.00951122,0.03302618,-0.03092269,0.00025517,-0.00322020,
 0.00432205,0.00002180,0.00001420,0.00001374,0.00004017,-0.00001955,0.0
 0000647,0.00001931,-0.00000201,-0.00001507,-0.00006987,0.00000652,-0.0
 0005272,0.00021970,0.00004140,-0.00003921,0.00015150,0.00001272,0.0000
 3633,-0.00026340,0.00004391,-0.00083939,-0.00072782,-0.00005735,-0.000
 30195,-0.00018224,0.00061627,-0.00080472,-0.00004142,-0.00017380,-0.00
 007881,-0.00099299,0.00147252,-0.00028792,0.05703033,-0.13117133,0.092
 51894\\-0.00000120,0.00000124,-0.00000028,0.00000038,-0.00000276,-0.00
 000030,0.00000025,0.00000015,0.00000106,-0.00000354,-0.00000720,-0.000
 00356,0.00000544,0.00000618,-0.00000068,-0.00000035,-0.00000154,0.0000
 0237,-0.00000316,-0.00000275,-0.00000103,0.00000143,0.00000086,0.00000
 197,-0.00000125,-0.00000060,0.,0.00000041,-0.00000057,0.00000071,0.000
 00001,-0.00000044,-0.00000061,0.00000013,0.00000088,-0.00000001,0.0000
 0054,0.00000156,-0.00000027,0.00000027,-0.00000013,-0.00000007,0.00000
 020,0.00000026,-0.00000039,-0.00000035,0.00000046,0.00000078,0.0000009
 0,0.00000121,0.00000056,0.00000040,0.00000071,-0.00000057,-0.00000015,
 0.00000082,0.00000023,0.00000002,0.00000065,-0.00000061,-0.00000037,0.
 00000103,0.00000070\\\@


 VIRTUE IS LEARNED AT YOUR MOTHER'S KNEE,
 VICES ARE PICKED UP AT SOME OTHER JOINT.
 Job cpu time:       0 days  1 hours 48 minutes 50.0 seconds.
 Elapsed time:       0 days  0 hours 27 minutes 12.6 seconds.
 File lengths (MBytes):  RWF=    158 Int=      0 D2E=      0 Chk=      9 Scr=      1
 Normal termination of Gaussian 16 at Tue Jun  1 03:19:53 2021.
### All Done ###
