### Starting Gaussian ###
 Entering Gaussian System, Link 0=g16
 Initial command:
 /cluster/software/gaussian/gaussian-16-A.03/avx2/g16/l1.exe "/local/scratch/cz9n3/Gau-24294.inp" -scrdir="/local/scratch/cz9n3/"
 Entering Link 1 = /cluster/software/gaussian/gaussian-16-A.03/avx2/g16/l1.exe PID=     24295.
  
 Copyright (c) 1988,1990,1992,1993,1995,1998,2003,2009,2016,
            Gaussian, Inc.  All Rights Reserved.
  
 This is part of the Gaussian(R) 16 program.  It is based on
 the Gaussian(R) 09 system (copyright 2009, Gaussian, Inc.),
 the Gaussian(R) 03 system (copyright 2003, Gaussian, Inc.),
 the Gaussian(R) 98 system (copyright 1998, Gaussian, Inc.),
 the Gaussian(R) 94 system (copyright 1995, Gaussian, Inc.),
 the Gaussian 92(TM) system (copyright 1992, Gaussian, Inc.),
 the Gaussian 90(TM) system (copyright 1990, Gaussian, Inc.),
 the Gaussian 88(TM) system (copyright 1988, Gaussian, Inc.),
 the Gaussian 86(TM) system (copyright 1986, Carnegie Mellon
 University), and the Gaussian 82(TM) system (copyright 1983,
 Carnegie Mellon University). Gaussian is a federally registered
 trademark of Gaussian, Inc.
  
 This software contains proprietary and confidential information,
 including trade secrets, belonging to Gaussian, Inc.
  
 This software is provided under written license and may be
 used, copied, transmitted, or stored only in accord with that
 written license.
  
 The following legend is applicable only to US Government
 contracts under FAR:
  
                    RESTRICTED RIGHTS LEGEND
  
 Use, reproduction and disclosure by the US Government is
 subject to restrictions as set forth in subparagraphs (a)
 and (c) of the Commercial Computer Software - Restricted
 Rights clause in FAR 52.227-19.
  
 Gaussian, Inc.
 340 Quinnipiac St., Bldg. 40, Wallingford CT 06492
  
  
 ---------------------------------------------------------------
 Warning -- This program may not be used in any manner that
 competes with the business of Gaussian, Inc. or will provide
 assistance to any competitor of Gaussian, Inc.  The licensee
 of this program is prohibited from giving any competitor of
 Gaussian, Inc. access to this program.  By using this program,
 the user acknowledges that Gaussian, Inc. is engaged in the
 business of creating and licensing software in the field of
 computational chemistry and represents and warrants to the
 licensee that it is not a competitor of Gaussian, Inc. and that
 it will not use this program in any manner prohibited above.
 ---------------------------------------------------------------
  

 Cite this work as:
 Gaussian 16, Revision A.03,
 M. J. Frisch, G. W. Trucks, H. B. Schlegel, G. E. Scuseria, 
 M. A. Robb, J. R. Cheeseman, G. Scalmani, V. Barone, 
 G. A. Petersson, H. Nakatsuji, X. Li, M. Caricato, A. V. Marenich, 
 J. Bloino, B. G. Janesko, R. Gomperts, B. Mennucci, H. P. Hratchian, 
 J. V. Ortiz, A. F. Izmaylov, J. L. Sonnenberg, D. Williams-Young, 
 F. Ding, F. Lipparini, F. Egidi, J. Goings, B. Peng, A. Petrone, 
 T. Henderson, D. Ranasinghe, V. G. Zakrzewski, J. Gao, N. Rega, 
 G. Zheng, W. Liang, M. Hada, M. Ehara, K. Toyota, R. Fukuda, 
 J. Hasegawa, M. Ishida, T. Nakajima, Y. Honda, O. Kitao, H. Nakai, 
 T. Vreven, K. Throssell, J. A. Montgomery, Jr., J. E. Peralta, 
 F. Ogliaro, M. J. Bearpark, J. J. Heyd, E. N. Brothers, K. N. Kudin, 
 V. N. Staroverov, T. A. Keith, R. Kobayashi, J. Normand, 
 K. Raghavachari, A. P. Rendell, J. C. Burant, S. S. Iyengar, 
 J. Tomasi, M. Cossi, J. M. Millam, M. Klene, C. Adamo, R. Cammi, 
 J. W. Ochterski, R. L. Martin, K. Morokuma, O. Farkas, 
 J. B. Foresman, and D. J. Fox, Gaussian, Inc., Wallingford CT, 2016.
 
 ******************************************
 Gaussian 16:  ES64L-G16RevA.03 25-Dec-2016
                 1-Jun-2021 
 ******************************************
 %chk=CNCCNCCpCpN.chk
 %NProcShared=20
 Will use up to   20 processors via shared memory.
 -----------------------------
 # opt freq b3lyp/6-31g(2df,p)
 -----------------------------
 1/18=20,19=15,26=3,38=1/1,3;
 2/9=110,12=2,17=6,18=5,40=1/2;
 3/5=1,6=6,7=104,11=2,25=1,30=1,71=1,74=-5/1,2,3;
 4//1;
 5/5=2,38=5/2;
 6/7=2,8=2,9=2,10=2,28=1/1;
 7//1,2,3,16;
 1/18=20,19=15,26=3/3(2);
 2/9=110/2;
 99//99;
 2/9=110/2;
 3/5=1,6=6,7=104,11=2,25=1,30=1,71=1,74=-5/1,2,3;
 4/5=5,16=3,69=1/1;
 5/5=2,38=5/2;
 7//1,2,3,16;
 1/18=20,19=15,26=3/3(-5);
 2/9=110/2;
 6/7=2,8=2,9=2,10=2,19=2,28=1/1;
 99/9=1/99;
 -------------------
 Title Card Required
 -------------------
 Symbolic Z-matrix:
 Charge =  0 Multiplicity = 1
 C                     0.94462  -0.06061   0.06377 
 N                     2.40031  -0.05473   0.06016 
 C                     2.91197  -1.40744  -0.17229 
 C                     4.44873  -1.40881  -0.16687 
 N                     4.93376  -2.76931  -0.40302 
 C                     6.39945  -2.80362  -0.42137 
 C                     6.9337   -4.22967  -0.70074 
 C                     6.45706  -4.76449  -2.05403 
 N                     8.40248  -4.22881  -0.67096 
 H                     0.57825   0.95445   0.24049 
 H                     0.54998  -0.70763   0.85381 
 H                     0.551    -0.39301  -0.90214 
 H                     2.73739   0.2747    0.96461 
 H                     2.55439  -1.77773  -1.14174 
 H                     2.54546  -2.09115   0.60428 
 H                     4.81405  -1.0434    0.79985 
 H                     4.81774  -0.73571  -0.95084 
 H                     4.57348  -3.08302  -1.302 
 H                     6.78356  -2.46245   0.54832 
 H                     6.77769  -2.11574  -1.1888 
 H                     6.57912  -4.90069   0.09075 
 H                     6.77285  -4.10843  -2.87285 
 H                     5.3659   -4.84605  -2.09186 
 H                     6.85379  -5.76694  -2.24413 
 H                     8.76078  -3.63762  -1.41804 
 H                     8.74337  -5.17077  -0.86635 
 

 GradGradGradGradGradGradGradGradGradGradGradGradGradGradGradGradGradGrad
 Berny optimization.
 Initialization pass.
                           ----------------------------
                           !    Initial Parameters    !
                           ! (Angstroms and Degrees)  !
 --------------------------                            --------------------------
 ! Name  Definition              Value          Derivative Info.                !
 --------------------------------------------------------------------------------
 ! R1    R(1,2)                  1.4557         estimate D2E/DX2                !
 ! R2    R(1,10)                 1.0935         estimate D2E/DX2                !
 ! R3    R(1,11)                 1.0948         estimate D2E/DX2                !
 ! R4    R(1,12)                 1.0947         estimate D2E/DX2                !
 ! R5    R(2,3)                  1.4648         estimate D2E/DX2                !
 ! R6    R(2,13)                 1.0199         estimate D2E/DX2                !
 ! R7    R(3,4)                  1.5368         estimate D2E/DX2                !
 ! R8    R(3,14)                 1.0976         estimate D2E/DX2                !
 ! R9    R(3,15)                 1.0977         estimate D2E/DX2                !
 ! R10   R(4,5)                  1.4636         estimate D2E/DX2                !
 ! R11   R(4,16)                 1.0961         estimate D2E/DX2                !
 ! R12   R(4,17)                 1.0972         estimate D2E/DX2                !
 ! R13   R(5,6)                  1.4662         estimate D2E/DX2                !
 ! R14   R(5,18)                 1.018          estimate D2E/DX2                !
 ! R15   R(6,7)                  1.5483         estimate D2E/DX2                !
 ! R16   R(6,19)                 1.0974         estimate D2E/DX2                !
 ! R17   R(6,20)                 1.0978         estimate D2E/DX2                !
 ! R18   R(7,8)                  1.5312         estimate D2E/DX2                !
 ! R19   R(7,9)                  1.4691         estimate D2E/DX2                !
 ! R20   R(7,21)                 1.0966         estimate D2E/DX2                !
 ! R21   R(8,22)                 1.0957         estimate D2E/DX2                !
 ! R22   R(8,23)                 1.0949         estimate D2E/DX2                !
 ! R23   R(8,24)                 1.0947         estimate D2E/DX2                !
 ! R24   R(9,25)                 1.0178         estimate D2E/DX2                !
 ! R25   R(9,26)                 1.0206         estimate D2E/DX2                !
 ! A1    A(2,1,10)             109.3709         estimate D2E/DX2                !
 ! A2    A(2,1,11)             111.3859         estimate D2E/DX2                !
 ! A3    A(2,1,12)             111.0141         estimate D2E/DX2                !
 ! A4    A(10,1,11)            108.1318         estimate D2E/DX2                !
 ! A5    A(10,1,12)            107.6966         estimate D2E/DX2                !
 ! A6    A(11,1,12)            109.1272         estimate D2E/DX2                !
 ! A7    A(1,2,3)              110.2405         estimate D2E/DX2                !
 ! A8    A(1,2,13)             109.245          estimate D2E/DX2                !
 ! A9    A(3,2,13)             108.8789         estimate D2E/DX2                !
 ! A10   A(2,3,4)              110.4606         estimate D2E/DX2                !
 ! A11   A(2,3,14)             109.749          estimate D2E/DX2                !
 ! A12   A(2,3,15)             110.2619         estimate D2E/DX2                !
 ! A13   A(4,3,14)             109.1829         estimate D2E/DX2                !
 ! A14   A(4,3,15)             109.3203         estimate D2E/DX2                !
 ! A15   A(14,3,15)            107.8153         estimate D2E/DX2                !
 ! A16   A(3,4,5)              109.3698         estimate D2E/DX2                !
 ! A17   A(3,4,16)             109.6387         estimate D2E/DX2                !
 ! A18   A(3,4,17)             109.4662         estimate D2E/DX2                !
 ! A19   A(5,4,16)             109.9829         estimate D2E/DX2                !
 ! A20   A(5,4,17)             110.0919         estimate D2E/DX2                !
 ! A21   A(16,4,17)            108.274          estimate D2E/DX2                !
 ! A22   A(4,5,6)              110.7972         estimate D2E/DX2                !
 ! A23   A(4,5,18)             108.1592         estimate D2E/DX2                !
 ! A24   A(6,5,18)             109.6037         estimate D2E/DX2                !
 ! A25   A(5,6,7)              111.6389         estimate D2E/DX2                !
 ! A26   A(5,6,19)             109.364          estimate D2E/DX2                !
 ! A27   A(5,6,20)             109.7858         estimate D2E/DX2                !
 ! A28   A(7,6,19)             108.9669         estimate D2E/DX2                !
 ! A29   A(7,6,20)             109.3967         estimate D2E/DX2                !
 ! A30   A(19,6,20)            107.5965         estimate D2E/DX2                !
 ! A31   A(6,7,8)              111.9484         estimate D2E/DX2                !
 ! A32   A(6,7,9)              109.9255         estimate D2E/DX2                !
 ! A33   A(6,7,21)             108.7724         estimate D2E/DX2                !
 ! A34   A(8,7,9)              109.2287         estimate D2E/DX2                !
 ! A35   A(8,7,21)             108.8767         estimate D2E/DX2                !
 ! A36   A(9,7,21)             107.9999         estimate D2E/DX2                !
 ! A37   A(7,8,22)             111.1993         estimate D2E/DX2                !
 ! A38   A(7,8,23)             111.5177         estimate D2E/DX2                !
 ! A39   A(7,8,24)             111.1309         estimate D2E/DX2                !
 ! A40   A(22,8,23)            107.8191         estimate D2E/DX2                !
 ! A41   A(22,8,24)            108.3043         estimate D2E/DX2                !
 ! A42   A(23,8,24)            106.6761         estimate D2E/DX2                !
 ! A43   A(7,9,25)             109.7189         estimate D2E/DX2                !
 ! A44   A(7,9,26)             109.2392         estimate D2E/DX2                !
 ! A45   A(25,9,26)            106.139          estimate D2E/DX2                !
 ! D1    D(10,1,2,3)           179.8715         estimate D2E/DX2                !
 ! D2    D(10,1,2,13)           60.2672         estimate D2E/DX2                !
 ! D3    D(11,1,2,3)            60.4023         estimate D2E/DX2                !
 ! D4    D(11,1,2,13)          -59.2021         estimate D2E/DX2                !
 ! D5    D(12,1,2,3)           -61.4279         estimate D2E/DX2                !
 ! D6    D(12,1,2,13)          178.9677         estimate D2E/DX2                !
 ! D7    D(1,2,3,4)           -179.5872         estimate D2E/DX2                !
 ! D8    D(1,2,3,14)            59.9768         estimate D2E/DX2                !
 ! D9    D(1,2,3,15)           -58.6463         estimate D2E/DX2                !
 ! D10   D(13,2,3,4)           -59.7612         estimate D2E/DX2                !
 ! D11   D(13,2,3,14)          179.8028         estimate D2E/DX2                !
 ! D12   D(13,2,3,15)           61.1797         estimate D2E/DX2                !
 ! D13   D(2,3,4,5)           -179.9079         estimate D2E/DX2                !
 ! D14   D(2,3,4,16)            59.4236         estimate D2E/DX2                !
 ! D15   D(2,3,4,17)           -59.2123         estimate D2E/DX2                !
 ! D16   D(14,3,4,5)           -59.1336         estimate D2E/DX2                !
 ! D17   D(14,3,4,16)         -179.8021         estimate D2E/DX2                !
 ! D18   D(14,3,4,17)           61.562          estimate D2E/DX2                !
 ! D19   D(15,3,4,5)            58.5922         estimate D2E/DX2                !
 ! D20   D(15,3,4,16)          -62.0763         estimate D2E/DX2                !
 ! D21   D(15,3,4,17)          179.2878         estimate D2E/DX2                !
 ! D22   D(3,4,5,6)            179.2692         estimate D2E/DX2                !
 ! D23   D(3,4,5,18)            59.118          estimate D2E/DX2                !
 ! D24   D(16,4,5,6)           -60.2722         estimate D2E/DX2                !
 ! D25   D(16,4,5,18)          179.5766         estimate D2E/DX2                !
 ! D26   D(17,4,5,6)            58.9555         estimate D2E/DX2                !
 ! D27   D(17,4,5,18)          -61.1957         estimate D2E/DX2                !
 ! D28   D(4,5,6,7)           -178.7589         estimate D2E/DX2                !
 ! D29   D(4,5,6,19)            60.5736         estimate D2E/DX2                !
 ! D30   D(4,5,6,20)           -57.2644         estimate D2E/DX2                !
 ! D31   D(18,5,6,7)           -59.4732         estimate D2E/DX2                !
 ! D32   D(18,5,6,19)          179.8593         estimate D2E/DX2                !
 ! D33   D(18,5,6,20)           62.0213         estimate D2E/DX2                !
 ! D34   D(5,6,7,8)             60.1003         estimate D2E/DX2                !
 ! D35   D(5,6,7,9)           -178.3147         estimate D2E/DX2                !
 ! D36   D(5,6,7,21)           -60.2563         estimate D2E/DX2                !
 ! D37   D(19,6,7,8)          -179.0006         estimate D2E/DX2                !
 ! D38   D(19,6,7,9)           -57.4155         estimate D2E/DX2                !
 ! D39   D(19,6,7,21)           60.6428         estimate D2E/DX2                !
 ! D40   D(20,6,7,8)           -61.6193         estimate D2E/DX2                !
 ! D41   D(20,6,7,9)            59.9658         estimate D2E/DX2                !
 ! D42   D(20,6,7,21)          178.0241         estimate D2E/DX2                !
 ! D43   D(6,7,8,22)            58.4591         estimate D2E/DX2                !
 ! D44   D(6,7,8,23)           -61.9209         estimate D2E/DX2                !
 ! D45   D(6,7,8,24)           179.1927         estimate D2E/DX2                !
 ! D46   D(9,7,8,22)           -63.5258         estimate D2E/DX2                !
 ! D47   D(9,7,8,23)           176.0941         estimate D2E/DX2                !
 ! D48   D(9,7,8,24)            57.2077         estimate D2E/DX2                !
 ! D49   D(21,7,8,22)          178.755          estimate D2E/DX2                !
 ! D50   D(21,7,8,23)           58.375          estimate D2E/DX2                !
 ! D51   D(21,7,8,24)          -60.5114         estimate D2E/DX2                !
 ! D52   D(6,7,9,25)           -63.4154         estimate D2E/DX2                !
 ! D53   D(6,7,9,26)          -179.3817         estimate D2E/DX2                !
 ! D54   D(8,7,9,25)            59.7804         estimate D2E/DX2                !
 ! D55   D(8,7,9,26)           -56.1859         estimate D2E/DX2                !
 ! D56   D(21,7,9,25)          178.0494         estimate D2E/DX2                !
 ! D57   D(21,7,9,26)           62.0831         estimate D2E/DX2                !
 --------------------------------------------------------------------------------
 Trust Radius=3.00D-01 FncErr=1.00D-07 GrdErr=1.00D-06 EigMax=2.50D+02 EigMin=1.00D-04
 Number of steps in this run=    137 maximum allowed number of steps=    156.
 GradGradGradGradGradGradGradGradGradGradGradGradGradGradGradGradGradGrad

                          Input orientation:                          
 ---------------------------------------------------------------------
 Center     Atomic      Atomic             Coordinates (Angstroms)
 Number     Number       Type             X           Y           Z
 ---------------------------------------------------------------------
      1          6           0        0.944620   -0.060610    0.063770
      2          7           0        2.400310   -0.054730    0.060160
      3          6           0        2.911970   -1.407440   -0.172290
      4          6           0        4.448730   -1.408810   -0.166870
      5          7           0        4.933760   -2.769310   -0.403020
      6          6           0        6.399450   -2.803620   -0.421370
      7          6           0        6.933700   -4.229670   -0.700740
      8          6           0        6.457060   -4.764490   -2.054030
      9          7           0        8.402480   -4.228810   -0.670960
     10          1           0        0.578250    0.954450    0.240490
     11          1           0        0.549980   -0.707630    0.853810
     12          1           0        0.551000   -0.393010   -0.902140
     13          1           0        2.737390    0.274700    0.964610
     14          1           0        2.554390   -1.777730   -1.141740
     15          1           0        2.545460   -2.091150    0.604280
     16          1           0        4.814050   -1.043400    0.799850
     17          1           0        4.817740   -0.735710   -0.950840
     18          1           0        4.573480   -3.083020   -1.302000
     19          1           0        6.783560   -2.462450    0.548320
     20          1           0        6.777690   -2.115740   -1.188800
     21          1           0        6.579120   -4.900690    0.090750
     22          1           0        6.772850   -4.108430   -2.872850
     23          1           0        5.365900   -4.846050   -2.091860
     24          1           0        6.853790   -5.766940   -2.244130
     25          1           0        8.760780   -3.637620   -1.418040
     26          1           0        8.743370   -5.170770   -0.866350
 ---------------------------------------------------------------------
                    Distance matrix (angstroms):
                    1          2          3          4          5
     1  C    0.000000
     2  N    1.455706   0.000000
     3  C    2.395859   1.464805   0.000000
     4  C    3.761599   2.465989   1.536770   0.000000
     5  N    4.844397   3.741904   2.448583   1.463551   0.000000
     6  C    6.124919   4.876616   3.764821   2.411550   1.466206
     7  C    7.337208   6.209728   4.941513   3.797018   2.494203
     8  C    7.549739   6.565734   5.232437   4.342275   3.004500
     9  N    8.575162   7.347348   6.193101   4.882484   3.772791
    10  H    1.093528   2.090662   3.345917   4.553192   5.766365
    11  H    1.094778   2.116573   2.668635   4.090684   5.004765
    12  H    1.094718   2.111966   2.671316   4.094481   5.010440
    13  H    2.034200   1.019891   2.037797   2.653891   3.995053
    14  H    2.644450   2.106427   1.097639   2.162174   2.681481
    15  H    2.641578   2.112852   1.097657   2.163954   2.679278
    16  H    4.059579   2.711227   2.166908   1.096144   2.107129
    17  H    4.060327   2.707365   2.165484   1.097197   2.109288
    18  H    4.916189   3.968462   2.616186   2.026589   1.018028
    19  H    6.332207   5.024768   4.076952   2.659527   2.102610
    20  H    6.310087   4.996911   4.059405   2.639725   2.108241
    21  H    7.427967   6.398962   5.071486   4.098555   2.737480
    22  H    7.679639   6.644858   5.430908   4.473456   3.357909
    23  H    6.862572   6.031804   4.640103   4.044924   2.711416
    24  H    8.532696   7.600828   6.231830   5.393757   4.007741
    25  H    8.722564   7.448339   6.382333   5.012664   4.053432
    26  H    9.370131   8.201628   6.974926   5.752004   4.527120
                    6          7          8          9         10
     6  C    0.000000
     7  C    1.548254   0.000000
     8  C    2.552236   1.531213   0.000000
     9  N    2.470949   1.469082   2.446323   0.000000
    10  H    6.960425   8.255468   8.516543   9.429502   0.000000
    11  H    6.343150   7.454748   7.733514   8.739873   1.771855
    12  H    6.344017   7.449791   7.437623   8.741427   1.766917
    13  H    4.980731   6.377441   6.952810   7.419564   2.376614
    14  H    4.044239   5.038338   4.998384   6.358426   3.644242
    15  H    4.051273   5.053018   5.432676   6.364001   3.643890
    16  H    2.665192   4.110596   4.968966   5.018660   4.716597
    17  H    2.656764   4.092382   4.487256   5.013027   4.716904
    18  H    2.046397   2.692018   2.634533   4.046268   5.885771
    19  H    1.097377   2.169276   3.489730   2.688415   7.090546
    20  H    1.097813   2.175142   2.804871   2.715357   7.064134
    21  H    2.166160   1.096563   2.152564   2.087167   8.385435
    22  H    2.802090   2.181429   1.095721   2.741989   8.584795
    23  H    2.833775   2.184751   1.094858   3.408924   7.874468
    24  H    3.508582   2.179825   1.094732   2.690567   9.525378
    25  H    2.695327   2.050186   2.642242   1.017847   9.528464
    26  H    3.360858   2.046461   2.608229   1.020623  10.267064
                   11         12         13         14         15
    11  H    0.000000
    12  H    1.783913   0.000000
    13  H    2.400419   2.951422   0.000000
    14  H    3.024069   2.447127   2.946637   0.000000
    15  H    2.440970   3.021730   2.400817   1.773950   0.000000
    16  H    4.277610   4.636095   2.465167   3.068400   2.506497
    17  H    4.633716   4.280758   3.002954   2.499000   3.069018
    18  H    5.145731   4.855552   4.447812   2.409604   2.954755
    19  H    6.483073   6.725416   4.902732   4.605543   4.254702
    20  H    6.703686   6.466965   5.164824   4.237066   4.596467
    21  H    7.383396   7.592315   6.504397   5.241218   4.942433
    22  H    8.011089   7.509957   7.086809   5.120968   5.833582
    23  H    6.999756   6.665453   6.517143   4.268712   4.776351
    24  H    8.656320   8.390782   7.983870   5.967738   6.339289
    25  H    9.009072   8.842745   7.567331   6.484968   6.716513
    26  H    9.487371   9.483839   8.311279   7.063429   7.075373
                   16         17         18         19         20
    16  H    0.000000
    17  H    1.777527   0.000000
    18  H    2.938656   2.385967   0.000000
    19  H    2.440479   3.015553   2.948431   0.000000
    20  H    2.993413   2.408840   2.409769   1.771392   0.000000
    21  H    4.300812   4.640520   3.044055   2.489213   3.071258
    22  H    5.169142   4.346472   2.890720   3.796547   2.608996
    23  H    4.809020   4.300849   2.088081   3.829081   3.203632
    24  H    5.978142   5.579550   3.645662   4.326935   3.801417
    25  H    5.217824   4.918020   4.225462   3.026053   2.510242
    26  H    5.937252   5.923467   4.683639   3.630034   3.647065
                   21         22         23         24         25
    21  H    0.000000
    22  H    3.073781   0.000000
    23  H    2.497734   1.770180   0.000000
    24  H    2.505493   1.775527   1.756429   0.000000
    25  H    2.937930   2.507987   3.665999   2.975406   0.000000
    26  H    2.381798   3.006253   3.607578   2.413340   1.629483
                   26
    26  H    0.000000
 Stoichiometry    C6H17N3
 Framework group  C1[X(C6H17N3)]
 Deg. of freedom    72
 Full point group                 C1      NOp   1
 Largest Abelian subgroup         C1      NOp   1
 Largest concise Abelian subgroup C1      NOp   1
                         Standard orientation:                         
 ---------------------------------------------------------------------
 Center     Atomic      Atomic             Coordinates (Angstroms)
 Number     Number       Type             X           Y           Z
 ---------------------------------------------------------------------
      1          6           0       -4.584763    0.392893   -0.069737
      2          7           0       -3.420209   -0.402870    0.290341
      3          6           0       -2.195122    0.253824   -0.171793
      4          6           0       -0.962907   -0.587285    0.196775
      5          7           0        0.245912    0.090738   -0.273354
      6          6           0        1.444002   -0.678010    0.077885
      7          6           0        2.737110    0.037533   -0.383589
      8          6           0        2.887682    1.418789    0.259895
      9          7           0        3.909465   -0.782296   -0.049423
     10          1           0       -5.490346   -0.110840    0.279515
     11          1           0       -4.662008    0.519307   -1.154445
     12          1           0       -4.548426    1.378835    0.404612
     13          1           0       -3.489919   -1.319608   -0.151144
     14          1           0       -2.107557    1.244544    0.292554
     15          1           0       -2.226513    0.394538   -1.259940
     16          1           0       -1.041009   -1.577727   -0.266319
     17          1           0       -0.922189   -0.718702    1.285312
     18          1           0        0.287087    1.007612    0.167131
     19          1           0        1.394376   -1.666184   -0.396760
     20          1           0        1.480880   -0.833027    1.164072
     21          1           0        2.705515    0.155370   -1.473344
     22          1           0        2.901317    1.347215    1.353191
     23          1           0        2.065779    2.084903   -0.022029
     24          1           0        3.812611    1.906486   -0.064291
     25          1           0        3.982420   -0.881542    0.960944
     26          1           0        4.755800   -0.296638   -0.348630
 ---------------------------------------------------------------------
 Rotational constants (GHZ):           5.6939203           0.4565373           0.4353302
 Standard basis: 6-31G(2df,p) (6D, 7F)
 There are   364 symmetry adapted cartesian basis functions of A   symmetry.
 There are   337 symmetry adapted basis functions of A   symmetry.
   337 basis functions,   515 primitive gaussians,   364 cartesian basis functions
    37 alpha electrons       37 beta electrons
       nuclear repulsion energy       469.8088219976 Hartrees.
 NAtoms=   26 NActive=   26 NUniq=   26 SFac= 1.00D+00 NAtFMM=   60 NAOKFM=F Big=F
 Integral buffers will be    131072 words long.
 Raffenetti 2 integral format.
 Two-electron integral symmetry is turned on.
 One-electron integrals computed using PRISM.
 PrsmSu:  requested number of processors reduced to:  13 ShMem   1 Linda.
 NBasis=   337 RedAO= T EigKep=  3.18D-04  NBF=   337
 NBsUse=   337 1.00D-06 EigRej= -1.00D+00 NBFU=   337
 ExpMin= 1.61D-01 ExpMax= 4.17D+03 ExpMxC= 6.27D+02 IAcc=3 IRadAn=         5 AccDes= 0.00D+00
 Harris functional with IExCor=  402 and IRadAn=       5 diagonalized for initial guess.
 HarFok:  IExCor=  402 AccDes= 0.00D+00 IRadAn=         5 IDoV= 1 UseB2=F ITyADJ=14
 ICtDFT=  3500011 ScaDFX=  1.000000  1.000000  1.000000  1.000000
 FoFCou: FMM=F IPFlag=           0 FMFlag=      100000 FMFlg1=           0
         NFxFlg=           0 DoJE=T BraDBF=F KetDBF=T FulRan=T
         wScrn=  0.000000 ICntrl=       500 IOpCl=  0 I1Cent=   200000004 NGrid=           0
         NMat0=    1 NMatS0=      1 NMatT0=    0 NMatD0=    1 NMtDS0=    0 NMtDT0=    0
 Petite list used in FoFCou.
 Requested convergence on RMS density matrix=1.00D-08 within 128 cycles.
 Requested convergence on MAX density matrix=1.00D-06.
 Requested convergence on             energy=1.00D-06.
 No special actions if energy rises.
 Integral accuracy reduced to 1.0D-05 until final iterations.
 Initial convergence to 1.0D-05 achieved.  Increase integral accuracy.
 SCF Done:  E(RB3LYP) =  -403.134277811     A.U. after   12 cycles
            NFock= 12  Conv=0.28D-08     -V/T= 2.0082

 **********************************************************************

            Population analysis using the SCF density.

 **********************************************************************

 Orbital symmetries:
       Occupied  (A) (A) (A) (A) (A) (A) (A) (A) (A) (A) (A) (A)
                 (A) (A) (A) (A) (A) (A) (A) (A) (A) (A) (A) (A)
                 (A) (A) (A) (A) (A) (A) (A) (A) (A) (A) (A) (A)
                 (A)
       Virtual   (A) (A) (A) (A) (A) (A) (A) (A) (A) (A) (A) (A)
                 (A) (A) (A) (A) (A) (A) (A) (A) (A) (A) (A) (A)
                 (A) (A) (A) (A) (A) (A) (A) (A) (A) (A) (A) (A)
                 (A) (A) (A) (A) (A) (A) (A) (A) (A) (A) (A) (A)
                 (A) (A) (A) (A) (A) (A) (A) (A) (A) (A) (A) (A)
                 (A) (A) (A) (A) (A) (A) (A) (A) (A) (A) (A) (A)
                 (A) (A) (A) (A) (A) (A) (A) (A) (A) (A) (A) (A)
                 (A) (A) (A) (A) (A) (A) (A) (A) (A) (A) (A) (A)
                 (A) (A) (A) (A) (A) (A) (A) (A) (A) (A) (A) (A)
                 (A) (A) (A) (A) (A) (A) (A) (A) (A) (A) (A) (A)
                 (A) (A) (A) (A) (A) (A) (A) (A) (A) (A) (A) (A)
                 (A) (A) (A) (A) (A) (A) (A) (A) (A) (A) (A) (A)
                 (A) (A) (A) (A) (A) (A) (A) (A) (A) (A) (A) (A)
                 (A) (A) (A) (A) (A) (A) (A) (A) (A) (A) (A) (A)
                 (A) (A) (A) (A) (A) (A) (A) (A) (A) (A) (A) (A)
                 (A) (A) (A) (A) (A) (A) (A) (A) (A) (A) (A) (A)
                 (A) (A) (A) (A) (A) (A) (A) (A) (A) (A) (A) (A)
                 (A) (A) (A) (A) (A) (A) (A) (A) (A) (A) (A) (A)
                 (A) (A) (A) (A) (A) (A) (A) (A) (A) (A) (A) (A)
                 (A) (A) (A) (A) (A) (A) (A) (A) (A) (A) (A) (A)
                 (A) (A) (A) (A) (A) (A) (A) (A) (A) (A) (A) (A)
                 (A) (A) (A) (A) (A) (A) (A) (A) (A) (A) (A) (A)
                 (A) (A) (A) (A) (A) (A) (A) (A) (A) (A) (A) (A)
                 (A) (A) (A) (A) (A) (A) (A) (A) (A) (A) (A) (A)
                 (A) (A) (A) (A) (A) (A) (A) (A) (A) (A) (A) (A)
 The electronic state is 1-A.
 Alpha  occ. eigenvalues --  -14.30723 -14.30673 -14.30143 -10.20653 -10.19748
 Alpha  occ. eigenvalues --  -10.19728 -10.19725 -10.19381 -10.17223  -0.90661
 Alpha  occ. eigenvalues --   -0.89051  -0.87165  -0.74413  -0.71287  -0.66769
 Alpha  occ. eigenvalues --   -0.63243  -0.59929  -0.57230  -0.50044  -0.48375
 Alpha  occ. eigenvalues --   -0.46393  -0.45464  -0.43866  -0.42407  -0.41696
 Alpha  occ. eigenvalues --   -0.41113  -0.39769  -0.38630  -0.37646  -0.36302
 Alpha  occ. eigenvalues --   -0.35224  -0.34267  -0.33665  -0.31607  -0.22945
 Alpha  occ. eigenvalues --   -0.22112  -0.21303
 Alpha virt. eigenvalues --    0.07511   0.08519   0.09254   0.11019   0.12282
 Alpha virt. eigenvalues --    0.13659   0.13848   0.15541   0.15753   0.16207
 Alpha virt. eigenvalues --    0.17329   0.18015   0.18595   0.19903   0.20118
 Alpha virt. eigenvalues --    0.20893   0.21546   0.22181   0.23115   0.24166
 Alpha virt. eigenvalues --    0.24769   0.25550   0.26395   0.27880   0.32329
 Alpha virt. eigenvalues --    0.43561   0.45164   0.47506   0.48520   0.49605
 Alpha virt. eigenvalues --    0.50535   0.51095   0.52430   0.54017   0.56126
 Alpha virt. eigenvalues --    0.56751   0.57689   0.58423   0.59727   0.61562
 Alpha virt. eigenvalues --    0.63075   0.64730   0.66063   0.67193   0.68863
 Alpha virt. eigenvalues --    0.70138   0.71350   0.72081   0.72895   0.73227
 Alpha virt. eigenvalues --    0.74204   0.74368   0.74674   0.76161   0.76759
 Alpha virt. eigenvalues --    0.77709   0.79176   0.79748   0.80562   0.81542
 Alpha virt. eigenvalues --    0.81718   0.84664   0.85008   0.85060   0.85978
 Alpha virt. eigenvalues --    0.86508   0.87769   0.88561   0.88695   0.89876
 Alpha virt. eigenvalues --    0.90482   0.93300   0.97702   0.98729   1.05981
 Alpha virt. eigenvalues --    1.10044   1.10321   1.11837   1.16341   1.19848
 Alpha virt. eigenvalues --    1.20618   1.22675   1.24268   1.26868   1.30665
 Alpha virt. eigenvalues --    1.30738   1.32691   1.35036   1.36089   1.37729
 Alpha virt. eigenvalues --    1.40147   1.42930   1.44284   1.46393   1.47910
 Alpha virt. eigenvalues --    1.50153   1.51867   1.53247   1.54299   1.56743
 Alpha virt. eigenvalues --    1.59017   1.61496   1.62474   1.64109   1.64473
 Alpha virt. eigenvalues --    1.67768   1.71549   1.73596   1.75203   1.77416
 Alpha virt. eigenvalues --    1.81030   1.82772   1.83777   1.85819   1.88183
 Alpha virt. eigenvalues --    1.91609   1.93061   1.95052   1.96654   1.98590
 Alpha virt. eigenvalues --    2.00085   2.04887   2.06498   2.08412   2.09742
 Alpha virt. eigenvalues --    2.17391   2.20836   2.24245   2.25152   2.26386
 Alpha virt. eigenvalues --    2.27295   2.28046   2.30133   2.35217   2.36561
 Alpha virt. eigenvalues --    2.38949   2.42139   2.44188   2.44824   2.48427
 Alpha virt. eigenvalues --    2.51030   2.54105   2.56090   2.58484   2.60005
 Alpha virt. eigenvalues --    2.67732   2.70084   2.71970   2.74191   2.76200
 Alpha virt. eigenvalues --    2.76913   2.78344   2.80429   2.81152   2.82029
 Alpha virt. eigenvalues --    2.83356   2.83950   2.85138   2.86493   2.87132
 Alpha virt. eigenvalues --    2.88937   2.90347   2.91048   2.91460   2.93282
 Alpha virt. eigenvalues --    2.94682   2.95027   2.98160   2.98975   3.00036
 Alpha virt. eigenvalues --    3.02284   3.05103   3.05589   3.07057   3.07783
 Alpha virt. eigenvalues --    3.10947   3.13826   3.18825   3.19481   3.21696
 Alpha virt. eigenvalues --    3.23925   3.29347   3.29878   3.31470   3.32377
 Alpha virt. eigenvalues --    3.35453   3.36785   3.37472   3.44581   3.46183
 Alpha virt. eigenvalues --    3.47124   3.48764   3.49166   3.55939   3.56363
 Alpha virt. eigenvalues --    3.61049   3.62578   3.63575   3.63967   3.65475
 Alpha virt. eigenvalues --    3.67112   3.68613   3.70410   3.72570   3.73074
 Alpha virt. eigenvalues --    3.77785   3.81425   3.85763   3.88116   3.89683
 Alpha virt. eigenvalues --    3.92249   3.93528   3.96821   4.05251   4.05680
 Alpha virt. eigenvalues --    4.11674   4.13186   4.14970   4.17592   4.19832
 Alpha virt. eigenvalues --    4.22348   4.27334   4.30718   4.35104   4.35728
 Alpha virt. eigenvalues --    4.37050   4.38012   4.39992   4.42382   4.43406
 Alpha virt. eigenvalues --    4.45419   4.46178   4.47545   4.48668   4.50070
 Alpha virt. eigenvalues --    4.51434   4.52596   4.53304   4.54745   4.57646
 Alpha virt. eigenvalues --    4.58114   4.60133   4.61032   4.62440   4.64959
 Alpha virt. eigenvalues --    4.66613   4.67954   4.69404   4.70278   4.71878
 Alpha virt. eigenvalues --    4.72475   4.74782   4.76521   4.77494   4.78141
 Alpha virt. eigenvalues --    4.79348   4.80406   4.82535   4.83811   4.84427
 Alpha virt. eigenvalues --    4.85662   4.87892   4.88492   4.92018   4.92383
 Alpha virt. eigenvalues --    4.93740   4.95283   4.95851   5.01602   5.03136
 Alpha virt. eigenvalues --    5.08052   5.09692   5.13494   5.15977   5.18510
 Alpha virt. eigenvalues --    5.21687   5.28527   5.28773   5.30490   5.37343
 Alpha virt. eigenvalues --    5.43624   5.44905   5.49040   5.49460   5.54034
 Alpha virt. eigenvalues --    5.61241   5.73785   5.79656   9.50146  10.41498
 Alpha virt. eigenvalues --   11.10554  11.40294  11.45625  11.52067  11.72561
 Alpha virt. eigenvalues --   11.79956  11.98679  12.40747  12.93743  15.75647
          Condensed to atoms (all electrons):
               1          2          3          4          5          6
     1  C    4.911793   0.388707  -0.071531   0.003143  -0.000106   0.000000
     2  N    0.388707   6.365525   0.377631  -0.035066   0.001804  -0.000083
     3  C   -0.071531   0.377631   4.847696   0.426701  -0.038318   0.002201
     4  C    0.003143  -0.035066   0.426701   4.847078   0.363910  -0.059666
     5  N   -0.000106   0.001804  -0.038318   0.363910   6.434330   0.368748
     6  C    0.000000  -0.000083   0.002201  -0.059666   0.368748   4.848386
     7  C   -0.000000   0.000001  -0.000193   0.002266  -0.033756   0.419738
     8  C   -0.000000  -0.000000   0.000004   0.000599   0.000794  -0.043996
     9  N    0.000000   0.000000   0.000000  -0.000080   0.001193  -0.031673
    10  H    0.378443  -0.023819   0.004487  -0.000244   0.000001  -0.000000
    11  H    0.366897  -0.045705  -0.002628   0.000083   0.000023   0.000000
    12  H    0.380375  -0.024450  -0.004661   0.000306  -0.000003   0.000000
    13  H   -0.046185   0.345030  -0.052930  -0.000602  -0.000091   0.000007
    14  H   -0.004113  -0.021635   0.353399  -0.022511  -0.004116   0.000002
    15  H   -0.002761  -0.046614   0.354947  -0.039641   0.009464   0.000243
    16  H   -0.000052  -0.003657  -0.023227   0.355692  -0.021966  -0.003067
    17  H    0.000163   0.008018  -0.037148   0.351343  -0.041679  -0.003982
    18  H    0.000006  -0.000101  -0.000695  -0.050327   0.337397  -0.049007
    19  H    0.000000  -0.000002   0.000303  -0.004370  -0.020610   0.351333
    20  H    0.000000   0.000021   0.000162  -0.003081  -0.045561   0.342329
    21  H    0.000000   0.000000   0.000008  -0.000054   0.002375  -0.031426
    22  H    0.000000  -0.000000   0.000001  -0.000091  -0.000772  -0.005585
    23  H    0.000000   0.000000  -0.000002  -0.000229  -0.001512  -0.001168
    24  H   -0.000000   0.000000  -0.000000  -0.000005   0.000081   0.004016
    25  H    0.000000   0.000000   0.000000  -0.000008  -0.000173  -0.006482
    26  H   -0.000000   0.000000  -0.000000   0.000001  -0.000141   0.005105
               7          8          9         10         11         12
     1  C   -0.000000  -0.000000   0.000000   0.378443   0.366897   0.380375
     2  N    0.000001  -0.000000   0.000000  -0.023819  -0.045705  -0.024450
     3  C   -0.000193   0.000004   0.000000   0.004487  -0.002628  -0.004661
     4  C    0.002266   0.000599  -0.000080  -0.000244   0.000083   0.000306
     5  N   -0.033756   0.000794   0.001193   0.000001   0.000023  -0.000003
     6  C    0.419738  -0.043996  -0.031673  -0.000000   0.000000   0.000000
     7  C    4.683065   0.401545   0.384829   0.000000   0.000000   0.000000
     8  C    0.401545   5.095268  -0.071731  -0.000000   0.000000  -0.000000
     9  N    0.384829  -0.071731   6.562698  -0.000000   0.000000   0.000000
    10  H    0.000000  -0.000000  -0.000000   0.600076  -0.040491  -0.029218
    11  H    0.000000   0.000000   0.000000  -0.040491   0.667249  -0.044207
    12  H    0.000000  -0.000000   0.000000  -0.029218  -0.044207   0.590375
    13  H    0.000000  -0.000000   0.000000  -0.001846  -0.006303   0.006098
    14  H    0.000014  -0.000014  -0.000000   0.000103  -0.001892   0.006376
    15  H    0.000020  -0.000002   0.000000  -0.000213   0.014317  -0.001707
    16  H    0.000173   0.000003  -0.000007   0.000009  -0.000018   0.000009
    17  H    0.000236  -0.000121   0.000020   0.000009   0.000032  -0.000015
    18  H   -0.003674   0.005391  -0.000075   0.000000   0.000002  -0.000003
    19  H   -0.015470   0.005663   0.001188  -0.000000   0.000000  -0.000000
    20  H   -0.038084  -0.012003   0.000755   0.000000  -0.000000   0.000000
    21  H    0.353747  -0.057345  -0.022787   0.000000  -0.000000   0.000000
    22  H   -0.025620   0.363485  -0.001231  -0.000000  -0.000000   0.000000
    23  H   -0.018312   0.336612   0.006513   0.000000  -0.000000   0.000000
    24  H   -0.024379   0.369518  -0.001683   0.000000   0.000000  -0.000000
    25  H   -0.055894  -0.005357   0.340610   0.000000  -0.000000  -0.000000
    26  H   -0.050635  -0.002683   0.341690   0.000000   0.000000  -0.000000
              13         14         15         16         17         18
     1  C   -0.046185  -0.004113  -0.002761  -0.000052   0.000163   0.000006
     2  N    0.345030  -0.021635  -0.046614  -0.003657   0.008018  -0.000101
     3  C   -0.052930   0.353399   0.354947  -0.023227  -0.037148  -0.000695
     4  C   -0.000602  -0.022511  -0.039641   0.355692   0.351343  -0.050327
     5  N   -0.000091  -0.004116   0.009464  -0.021966  -0.041679   0.337397
     6  C    0.000007   0.000002   0.000243  -0.003067  -0.003982  -0.049007
     7  C    0.000000   0.000014   0.000020   0.000173   0.000236  -0.003674
     8  C   -0.000000  -0.000014  -0.000002   0.000003  -0.000121   0.005391
     9  N    0.000000  -0.000000   0.000000  -0.000007   0.000020  -0.000075
    10  H   -0.001846   0.000103  -0.000213   0.000009   0.000009   0.000000
    11  H   -0.006303  -0.001892   0.014317  -0.000018   0.000032   0.000002
    12  H    0.006098   0.006376  -0.001707   0.000009  -0.000015  -0.000003
    13  H    0.537186   0.006893  -0.006621   0.004885  -0.000520   0.000019
    14  H    0.006893   0.641523  -0.053695   0.005807  -0.007230   0.005427
    15  H   -0.006621  -0.053695   0.685147  -0.007129   0.007500  -0.000618
    16  H    0.004885   0.005807  -0.007129   0.637525  -0.053191   0.006775
    17  H   -0.000520  -0.007230   0.007500  -0.053191   0.682287  -0.006871
    18  H    0.000019   0.005427  -0.000618   0.006775  -0.006871   0.538170
    19  H   -0.000003   0.000005  -0.000011   0.005883  -0.001541   0.006563
    20  H    0.000002  -0.000017   0.000034  -0.002027   0.014474  -0.006123
    21  H    0.000000   0.000000   0.000002  -0.000026   0.000038  -0.000141
    22  H    0.000000   0.000000   0.000000  -0.000000   0.000027   0.000604
    23  H   -0.000000  -0.000005   0.000007  -0.000006   0.000071   0.003585
    24  H    0.000000   0.000000  -0.000000   0.000000  -0.000001  -0.000275
    25  H   -0.000000   0.000000   0.000000   0.000000   0.000005   0.000002
    26  H   -0.000000   0.000000   0.000000   0.000000   0.000000  -0.000002
              19         20         21         22         23         24
     1  C    0.000000   0.000000   0.000000   0.000000   0.000000  -0.000000
     2  N   -0.000002   0.000021   0.000000  -0.000000   0.000000   0.000000
     3  C    0.000303   0.000162   0.000008   0.000001  -0.000002  -0.000000
     4  C   -0.004370  -0.003081  -0.000054  -0.000091  -0.000229  -0.000005
     5  N   -0.020610  -0.045561   0.002375  -0.000772  -0.001512   0.000081
     6  C    0.351333   0.342329  -0.031426  -0.005585  -0.001168   0.004016
     7  C   -0.015470  -0.038084   0.353747  -0.025620  -0.018312  -0.024379
     8  C    0.005663  -0.012003  -0.057345   0.363485   0.336612   0.369518
     9  N    0.001188   0.000755  -0.022787  -0.001231   0.006513  -0.001683
    10  H   -0.000000   0.000000   0.000000  -0.000000   0.000000   0.000000
    11  H    0.000000  -0.000000  -0.000000  -0.000000  -0.000000   0.000000
    12  H   -0.000000   0.000000   0.000000   0.000000   0.000000  -0.000000
    13  H   -0.000003   0.000002   0.000000   0.000000  -0.000000   0.000000
    14  H    0.000005  -0.000017   0.000000   0.000000  -0.000005   0.000000
    15  H   -0.000011   0.000034   0.000002   0.000000   0.000007  -0.000000
    16  H    0.005883  -0.002027  -0.000026  -0.000000  -0.000006   0.000000
    17  H   -0.001541   0.014474   0.000038   0.000027   0.000071  -0.000001
    18  H    0.006563  -0.006123  -0.000141   0.000604   0.003585  -0.000275
    19  H    0.616426  -0.051159  -0.005633  -0.000085  -0.000257  -0.000164
    20  H   -0.051159   0.713144   0.007254   0.006086   0.000844  -0.000142
    21  H   -0.005633   0.007254   0.656331   0.006005   0.000074  -0.003038
    22  H   -0.000085   0.006086   0.006005   0.609494  -0.030626  -0.033046
    23  H   -0.000257   0.000844   0.000074  -0.030626   0.623511  -0.027665
    24  H   -0.000164  -0.000142  -0.003038  -0.033046  -0.027665   0.604618
    25  H   -0.000590   0.006085   0.007205   0.005802   0.000045   0.000051
    26  H   -0.000234  -0.000138  -0.003629   0.000002   0.000026   0.005402
              25         26
     1  C    0.000000  -0.000000
     2  N    0.000000   0.000000
     3  C    0.000000  -0.000000
     4  C   -0.000008   0.000001
     5  N   -0.000173  -0.000141
     6  C   -0.006482   0.005105
     7  C   -0.055894  -0.050635
     8  C   -0.005357  -0.002683
     9  N    0.340610   0.341690
    10  H    0.000000   0.000000
    11  H   -0.000000   0.000000
    12  H   -0.000000  -0.000000
    13  H   -0.000000  -0.000000
    14  H    0.000000   0.000000
    15  H    0.000000   0.000000
    16  H    0.000000   0.000000
    17  H    0.000005   0.000000
    18  H    0.000002  -0.000002
    19  H   -0.000590  -0.000234
    20  H    0.006085  -0.000138
    21  H    0.007205  -0.003629
    22  H    0.005802   0.000002
    23  H    0.000045   0.000026
    24  H    0.000051   0.005402
    25  H    0.523255  -0.032380
    26  H   -0.032380   0.516369
 Mulliken charges:
               1
     1  C   -0.304778
     2  N   -0.285604
     3  C   -0.136205
     4  C   -0.135149
     5  N   -0.311315
     6  C   -0.105972
     7  C    0.020385
     8  C   -0.385631
     9  N   -0.510229
    10  H    0.112705
    11  H    0.092642
    12  H    0.120725
    13  H    0.214982
    14  H    0.095679
    15  H    0.087331
    16  H    0.097611
    17  H    0.088076
    18  H    0.213973
    19  H    0.112766
    20  H    0.067143
    21  H    0.091039
    22  H    0.105552
    23  H    0.108492
    24  H    0.106712
    25  H    0.217825
    26  H    0.221247
 Sum of Mulliken charges =  -0.00000
 Mulliken charges with hydrogens summed into heavy atoms:
               1
     1  C    0.021293
     2  N   -0.070622
     3  C    0.046805
     4  C    0.050538
     5  N   -0.097342
     6  C    0.073937
     7  C    0.111424
     8  C   -0.064876
     9  N   -0.071157
 Electronic spatial extent (au):  <R**2>=           2602.0984
 Charge=             -0.0000 electrons
 Dipole moment (field-independent basis, Debye):
    X=              0.1897    Y=              1.0046    Z=              0.4164  Tot=              1.1039
 Quadrupole moment (field-independent basis, Debye-Ang):
   XX=            -53.8555   YY=            -58.7167   ZZ=            -60.2074
   XY=              5.0248   XZ=              5.3718   YZ=              0.7762
 Traceless Quadrupole moment (field-independent basis, Debye-Ang):
   XX=              3.7377   YY=             -1.1235   ZZ=             -2.6142
   XY=              5.0248   XZ=              5.3718   YZ=              0.7762
 Octapole moment (field-independent basis, Debye-Ang**2):
  XXX=             16.3115  YYY=             -0.9959  ZZZ=              0.4204  XYY=            -14.6458
  XXY=             14.4029  XXZ=             -3.7355  XZZ=              9.6676  YZZ=             -1.0326
  YYZ=              0.2900  XYZ=             -9.9687
 Hexadecapole moment (field-independent basis, Debye-Ang**3):
 XXXX=          -2807.7985 YYYY=           -288.0653 ZZZZ=           -124.8789 XXXY=             87.8196
 XXXZ=             46.8044 YYYX=             16.6665 YYYZ=              1.5773 ZZZX=              7.8772
 ZZZY=              0.4696 XXYY=           -576.8234 XXZZ=           -529.4240 YYZZ=            -69.9930
 XXYZ=             -7.9825 YYXZ=              4.0735 ZZXY=             -5.5020
 N-N= 4.698088219976D+02 E-N=-1.875369773245D+03  KE= 3.998550134886D+02
 PrsmSu:  requested number of processors reduced to:  13 ShMem   1 Linda.
 Calling FoFJK, ICntrl=      2127 FMM=F ISym2X=0 I1Cent= 0 IOpClX= 0 NMat=1 NMatS=1 NMatT=0.
 ***** Axes restored to original set *****
 -------------------------------------------------------------------
 Center     Atomic                   Forces (Hartrees/Bohr)
 Number     Number              X              Y              Z
 -------------------------------------------------------------------
      1        6           0.002772100    0.008821075    0.005413012
      2        7           0.000707281   -0.003262709   -0.010753507
      3        6           0.010353511    0.010752650    0.009017876
      4        6          -0.011042681   -0.010455673   -0.008043402
      5        7           0.005563062    0.000971004    0.010308301
      6        6          -0.004155889   -0.013757271   -0.001909634
      7        6           0.005002084    0.003122448   -0.010458611
      8        6          -0.012174584   -0.001452955    0.000132943
      9        7           0.004634198    0.001882963    0.010224631
     10        1          -0.001572718    0.000663364   -0.000039021
     11        1          -0.007486278   -0.004484515    0.001490334
     12        1           0.001820955   -0.000964052   -0.000020999
     13        1          -0.001583553   -0.001546419   -0.003556876
     14        1          -0.001833908    0.002251157    0.000143518
     15        1           0.000449405   -0.007563705   -0.000287151
     16        1           0.001731545   -0.001494429    0.000238230
     17        1          -0.000260679    0.008027789    0.000703722
     18        1           0.002154726    0.001494036    0.002165941
     19        1          -0.001381158   -0.000648078   -0.001358607
     20        1           0.007602681    0.003003927   -0.003079904
     21        1           0.000127551    0.001975297    0.000919987
     22        1           0.001249064    0.000512015   -0.000026051
     23        1          -0.001732395   -0.001516973   -0.002168503
     24        1           0.001061002    0.000335393    0.000344590
     25        1          -0.000898086   -0.000917972   -0.000013079
     26        1          -0.001107235    0.004251631    0.000612261
 -------------------------------------------------------------------
 Cartesian Forces:  Max     0.013757271 RMS     0.005044329

 GradGradGradGradGradGradGradGradGradGradGradGradGradGradGradGradGradGrad
 Berny optimization.
 FormGI is forming the generalized inverse of G from B-inverse, IUseBI=4.
 Internal  Forces:  Max     0.011326472 RMS     0.003319307
 Search for a local minimum.
 Step number   1 out of a maximum of  137
 All quantities printed in internal units (Hartrees-Bohrs-Radians)
 Mixed Optimization -- RFO/linear search
 Second derivative matrix not updated -- first step.
 ITU=  0
     Eigenvalues ---    0.00230   0.00280   0.00353   0.00778   0.00816
     Eigenvalues ---    0.00835   0.00851   0.00955   0.03040   0.03122
     Eigenvalues ---    0.04031   0.04217   0.04372   0.04466   0.04503
     Eigenvalues ---    0.04622   0.05433   0.05443   0.05492   0.05508
     Eigenvalues ---    0.05524   0.05948   0.07275   0.07567   0.08892
     Eigenvalues ---    0.09043   0.09226   0.10641   0.10690   0.12486
     Eigenvalues ---    0.12610   0.12735   0.16000   0.16000   0.16000
     Eigenvalues ---    0.16000   0.16000   0.16000   0.16000   0.16000
     Eigenvalues ---    0.16717   0.17700   0.21933   0.21941   0.21959
     Eigenvalues ---    0.23479   0.23487   0.27800   0.28807   0.29312
     Eigenvalues ---    0.33925   0.33943   0.33945   0.33974   0.33994
     Eigenvalues ---    0.34065   0.34112   0.34160   0.34257   0.34266
     Eigenvalues ---    0.34271   0.34273   0.34408   0.35850   0.36198
     Eigenvalues ---    0.36369   0.36523   0.37507   0.44239   0.44356
     Eigenvalues ---    0.44654   0.44683
 RFO step:  Lambda=-9.38809789D-03 EMin= 2.30000000D-03
 Linear search not attempted -- first point.
 Iteration  1 RMS(Cart)=  0.06963542 RMS(Int)=  0.00198583
 Iteration  2 RMS(Cart)=  0.00324377 RMS(Int)=  0.00046695
 Iteration  3 RMS(Cart)=  0.00000562 RMS(Int)=  0.00046693
 Iteration  4 RMS(Cart)=  0.00000001 RMS(Int)=  0.00046693
 Variable       Old X    -DE/DX   Delta X   Delta X   Delta X     New X
                                 (Linear)    (Quad)   (Total)
    R1        2.75089   0.00447   0.00000   0.01162   0.01162   2.76250
    R2        2.06647   0.00114   0.00000   0.00322   0.00322   2.06968
    R3        2.06883   0.00642   0.00000   0.01825   0.01825   2.08708
    R4        2.06872  -0.00034   0.00000  -0.00098  -0.00098   2.06774
    R5        2.76808  -0.00003   0.00000  -0.00009  -0.00009   2.76799
    R6        1.92731  -0.00418   0.00000  -0.00922  -0.00922   1.91809
    R7        2.90407  -0.00363   0.00000  -0.01220  -0.01220   2.89188
    R8        2.07424  -0.00029   0.00000  -0.00083  -0.00083   2.07341
    R9        2.07427   0.00436   0.00000   0.01249   0.01249   2.08676
   R10        2.76571   0.00174   0.00000   0.00465   0.00465   2.77036
   R11        2.07141   0.00029   0.00000   0.00083   0.00083   2.07224
   R12        2.07340   0.00433   0.00000   0.01241   0.01241   2.08581
   R13        2.77073  -0.00161   0.00000  -0.00434  -0.00434   2.76638
   R14        1.92379  -0.00314   0.00000  -0.00688  -0.00688   1.91692
   R15        2.92578  -0.00879   0.00000  -0.03059  -0.03059   2.89518
   R16        2.07374  -0.00189   0.00000  -0.00540  -0.00540   2.06834
   R17        2.07457   0.00665   0.00000   0.01909   0.01909   2.09365
   R18        2.89357   0.00587   0.00000   0.01941   0.01941   2.91298
   R19        2.77616   0.00285   0.00000   0.00775   0.00775   2.78391
   R20        2.07220  -0.00059   0.00000  -0.00167  -0.00167   2.07053
   R21        2.07061   0.00069   0.00000   0.00196   0.00196   2.07257
   R22        2.06898   0.00191   0.00000   0.00544   0.00544   2.07442
   R23        2.06874   0.00002   0.00000   0.00005   0.00005   2.06879
   R24        1.92345  -0.00084   0.00000  -0.00184  -0.00184   1.92161
   R25        1.92870  -0.00441   0.00000  -0.00976  -0.00976   1.91894
    A1        1.90888   0.00157   0.00000   0.01278   0.01214   1.92103
    A2        1.94405   0.00859   0.00000   0.05387   0.05356   1.99761
    A3        1.93756  -0.00526   0.00000  -0.03777  -0.03751   1.90005
    A4        1.88726  -0.00238   0.00000  -0.00091  -0.00196   1.88529
    A5        1.87966   0.00038   0.00000  -0.00425  -0.00429   1.87537
    A6        1.90463  -0.00311   0.00000  -0.02470  -0.02420   1.88043
    A7        1.92406   0.01099   0.00000   0.04493   0.04499   1.96905
    A8        1.90668  -0.00327   0.00000  -0.01305  -0.01293   1.89375
    A9        1.90029  -0.00355   0.00000  -0.01526  -0.01518   1.88511
   A10        1.92790   0.00235   0.00000   0.01440   0.01386   1.94176
   A11        1.91548  -0.00437   0.00000  -0.04303  -0.04271   1.87277
   A12        1.92443   0.00444   0.00000   0.05524   0.05514   1.97957
   A13        1.90560   0.00131   0.00000  -0.00289  -0.00301   1.90259
   A14        1.90800  -0.00319   0.00000  -0.00834  -0.00941   1.89859
   A15        1.88173  -0.00064   0.00000  -0.01651  -0.01605   1.86568
   A16        1.90886   0.00475   0.00000   0.02678   0.02611   1.93497
   A17        1.91356   0.00020   0.00000  -0.00953  -0.00948   1.90408
   A18        1.91055  -0.00363   0.00000  -0.00980  -0.01139   1.89916
   A19        1.91956  -0.00471   0.00000  -0.04213  -0.04165   1.87792
   A20        1.92147   0.00390   0.00000   0.05637   0.05609   1.97756
   A21        1.88974  -0.00059   0.00000  -0.02229  -0.02193   1.86781
   A22        1.93378   0.00877   0.00000   0.03606   0.03609   1.96986
   A23        1.88773  -0.00204   0.00000  -0.00475  -0.00462   1.88311
   A24        1.91295  -0.00333   0.00000  -0.01658  -0.01662   1.89633
   A25        1.94847   0.00281   0.00000   0.01600   0.01550   1.96396
   A26        1.90876  -0.00280   0.00000  -0.02882  -0.02858   1.88018
   A27        1.91612   0.00399   0.00000   0.05393   0.05379   1.96991
   A28        1.90183  -0.00075   0.00000  -0.01983  -0.01999   1.88184
   A29        1.90933  -0.00319   0.00000  -0.00986  -0.01099   1.89834
   A30        1.87791  -0.00019   0.00000  -0.01308  -0.01299   1.86492
   A31        1.95387  -0.00002   0.00000   0.01166   0.01204   1.96591
   A32        1.91856  -0.00870   0.00000  -0.04175  -0.04354   1.87503
   A33        1.89844   0.00130   0.00000  -0.02719  -0.02813   1.87031
   A34        1.90640   0.01133   0.00000   0.08445   0.08477   1.99117
   A35        1.90026  -0.00261   0.00000  -0.00704  -0.00679   1.89347
   A36        1.88495  -0.00136   0.00000  -0.02176  -0.02336   1.86159
   A37        1.94079  -0.00175   0.00000  -0.01227  -0.01243   1.92836
   A38        1.94635   0.00436   0.00000   0.03116   0.03119   1.97754
   A39        1.93960  -0.00181   0.00000  -0.01419  -0.01430   1.92530
   A40        1.88180  -0.00054   0.00000   0.00332   0.00331   1.88511
   A41        1.89027   0.00057   0.00000  -0.00683  -0.00713   1.88314
   A42        1.86185  -0.00083   0.00000  -0.00116  -0.00109   1.86076
   A43        1.91496  -0.00132   0.00000  -0.00958  -0.00959   1.90537
   A44        1.90658   0.00067   0.00000   0.00217   0.00217   1.90875
   A45        1.85248  -0.00014   0.00000  -0.00461  -0.00463   1.84785
    D1        3.13935   0.00143   0.00000  -0.00381  -0.00344   3.13591
    D2        1.05186   0.00110   0.00000  -0.00440  -0.00401   1.04785
    D3        1.05422  -0.00201   0.00000  -0.04464  -0.04524   1.00898
    D4       -1.03327  -0.00233   0.00000  -0.04523  -0.04581  -1.07909
    D5       -1.07212  -0.00033   0.00000  -0.02408  -0.02387  -1.09599
    D6        3.12358  -0.00065   0.00000  -0.02467  -0.02445   3.09913
    D7       -3.13439  -0.00011   0.00000  -0.01090  -0.01128   3.13752
    D8        1.04679  -0.00042   0.00000   0.01124   0.01100   1.05779
    D9       -1.02357   0.00035   0.00000   0.02433   0.02504  -0.99853
   D10       -1.04303   0.00033   0.00000  -0.00916  -0.00959  -1.05262
   D11        3.13815   0.00003   0.00000   0.01298   0.01268  -3.13235
   D12        1.06779   0.00080   0.00000   0.02607   0.02673   1.09452
   D13       -3.13999  -0.00004   0.00000  -0.00012  -0.00012  -3.14010
   D14        1.03714   0.00266   0.00000   0.04090   0.04094   1.07807
   D15       -1.03345   0.00545   0.00000   0.07963   0.07940  -0.95405
   D16       -1.03208  -0.00314   0.00000  -0.04622  -0.04620  -1.07828
   D17       -3.13814  -0.00043   0.00000  -0.00520  -0.00515   3.13990
   D18        1.07446   0.00235   0.00000   0.03353   0.03331   1.10777
   D19        1.02263  -0.00499   0.00000  -0.07264  -0.07246   0.95017
   D20       -1.08344  -0.00229   0.00000  -0.03161  -0.03140  -1.11484
   D21        3.12916   0.00050   0.00000   0.00711   0.00706   3.13622
   D22        3.12884   0.00004   0.00000   0.01298   0.01371  -3.14064
   D23        1.03180   0.00015   0.00000   0.01468   0.01533   1.04713
   D24       -1.05195   0.00034   0.00000  -0.00812  -0.00788  -1.05983
   D25        3.13420   0.00045   0.00000  -0.00642  -0.00626   3.12794
   D26        1.02897  -0.00090   0.00000  -0.02680  -0.02764   1.00132
   D27       -1.06807  -0.00079   0.00000  -0.02510  -0.02602  -1.09409
   D28       -3.11993  -0.00125   0.00000  -0.04430  -0.04467   3.11858
   D29        1.05721  -0.00024   0.00000  -0.01043  -0.01056   1.04664
   D30       -0.99945  -0.00069   0.00000  -0.00915  -0.00848  -1.00793
   D31       -1.03800  -0.00044   0.00000  -0.03830  -0.03879  -1.07679
   D32        3.13914   0.00057   0.00000  -0.00444  -0.00468   3.13445
   D33        1.08248   0.00012   0.00000  -0.00316  -0.00260   1.07988
   D34        1.04895  -0.00110   0.00000   0.01716   0.01736   1.06631
   D35       -3.11218   0.00723   0.00000   0.10330   0.10261  -3.00957
   D36       -1.05167   0.00132   0.00000   0.03672   0.03697  -1.01470
   D37       -3.12415  -0.00331   0.00000  -0.02193  -0.02176   3.13728
   D38       -1.00209   0.00502   0.00000   0.06421   0.06349  -0.93860
   D39        1.05842  -0.00090   0.00000  -0.00237  -0.00215   1.05627
   D40       -1.07546  -0.00579   0.00000  -0.05468  -0.05422  -1.12967
   D41        1.04660   0.00254   0.00000   0.03146   0.03103   1.07763
   D42        3.10711  -0.00338   0.00000  -0.03512  -0.03461   3.07250
   D43        1.02030  -0.00021   0.00000   0.01952   0.02006   1.04036
   D44       -1.08072  -0.00130   0.00000   0.00249   0.00309  -1.07763
   D45        3.12750  -0.00192   0.00000  -0.00717  -0.00645   3.12105
   D46       -1.10874   0.00296   0.00000   0.00611   0.00555  -1.10318
   D47        3.07342   0.00188   0.00000  -0.01092  -0.01142   3.06200
   D48        0.99846   0.00126   0.00000  -0.02058  -0.02096   0.97750
   D49        3.11986  -0.00035   0.00000  -0.01178  -0.01201   3.10785
   D50        1.01884  -0.00143   0.00000  -0.02881  -0.02898   0.98986
   D51       -1.05612  -0.00205   0.00000  -0.03847  -0.03852  -1.09464
   D52       -1.10681  -0.00238   0.00000  -0.05012  -0.04942  -1.15623
   D53       -3.13080  -0.00186   0.00000  -0.04043  -0.03974   3.11265
   D54        1.04336  -0.00060   0.00000  -0.00701  -0.00728   1.03609
   D55       -0.98063  -0.00008   0.00000   0.00268   0.00241  -0.97822
   D56        3.10755   0.00179   0.00000   0.01914   0.01872   3.12627
   D57        1.08355   0.00232   0.00000   0.02883   0.02840   1.11196
         Item               Value     Threshold  Converged?
 Maximum Force            0.011326     0.000450     NO 
 RMS     Force            0.003319     0.000300     NO 
 Maximum Displacement     0.302937     0.001800     NO 
 RMS     Displacement     0.069831     0.001200     NO 
 Predicted change in Energy=-5.149406D-03
 GradGradGradGradGradGradGradGradGradGradGradGradGradGradGradGradGradGrad

                          Input orientation:                          
 ---------------------------------------------------------------------
 Center     Atomic      Atomic             Coordinates (Angstroms)
 Number     Number       Type             X           Y           Z
 ---------------------------------------------------------------------
      1          6           0        0.919602   -0.021009    0.127022
      2          7           0        2.380329   -0.063524    0.088507
      3          6           0        2.902992   -1.408191   -0.164891
      4          6           0        4.432817   -1.410582   -0.203541
      5          7           0        4.946571   -2.759548   -0.459557
      6          6           0        6.408844   -2.812320   -0.504290
      7          6           0        6.938059   -4.230609   -0.740104
      8          6           0        6.467229   -4.824015   -2.082623
      9          7           0        8.402137   -4.187229   -0.582439
     10          1           0        0.578468    1.000862    0.324343
     11          1           0        0.462601   -0.685455    0.881635
     12          1           0        0.531181   -0.313060   -0.853341
     13          1           0        2.735444    0.246977    0.987245
     14          1           0        2.520284   -1.728247   -1.142105
     15          1           0        2.564832   -2.156832    0.573075
     16          1           0        4.816826   -1.089204    0.772032
     17          1           0        4.771314   -0.666354   -0.945050
     18          1           0        4.583308   -3.066583   -1.355522
     19          1           0        6.784438   -2.471590    0.465661
     20          1           0        6.840729   -2.138727   -1.270592
     21          1           0        6.553179   -4.858341    0.071270
     22          1           0        6.806508   -4.199894   -2.918229
     23          1           0        5.376410   -4.923798   -2.154614
     24          1           0        6.883147   -5.827129   -2.221439
     25          1           0        8.801747   -3.623418   -1.328401
     26          1           0        8.781885   -5.120860   -0.706043
 ---------------------------------------------------------------------
                    Distance matrix (angstroms):
                    1          2          3          4          5
     1  C    0.000000
     2  N    1.461853   0.000000
     3  C    2.437893   1.464759   0.000000
     4  C    3.792475   2.472360   1.530315   0.000000
     5  N    4.905115   3.762249   2.467632   1.466014   0.000000
     6  C    6.190456   4.912863   3.791802   2.441311   1.463908
     7  C    7.395571   6.230899   4.957689   3.810077   2.491736
     8  C    7.663391   6.639189   5.296162   4.395601   3.034595
     9  N    8.593548   7.329208   6.175597   4.858892   3.740897
    10  H    1.095230   2.106001   3.383238   4.577087   5.816830
    11  H    1.104435   2.166455   2.751921   4.179238   5.119243
    12  H    1.094202   2.090142   2.701622   4.104821   5.063204
    13  H    2.027088   1.015011   2.023628   2.654533   4.002688
    14  H    2.662242   2.074921   1.097201   2.153973   2.723293
    15  H    2.732670   2.156568   1.104268   2.156244   2.665010
    16  H    4.092119   2.730521   2.154608   1.096580   2.079349
    17  H    4.049876   2.673659   2.156293   1.103762   2.155894
    18  H    4.989609   3.994584   2.644112   2.022881   1.014389
    19  H    6.365244   5.033608   4.073578   2.665275   2.077668
    20  H    6.441879   5.103802   4.154761   2.732551   2.151983
    21  H    7.425637   6.356355   5.028238   4.056908   2.695904
    22  H    7.835325   6.763216   5.532804   4.558970   3.402798
    23  H    7.007592   6.134359   4.736696   4.127922   2.782438
    24  H    8.648132   7.670096   6.292697   5.438927   4.032941
    25  H    8.787709   7.477639   6.407519   5.024888   4.045187
    26  H    9.408399   8.196821   6.974105   5.738733   4.510674
                    6          7          8          9         10
     6  C    0.000000
     7  C    1.532064   0.000000
     8  C    2.557629   1.541483   0.000000
     9  N    2.422747   1.473182   2.529806   0.000000
    10  H    7.015716   8.303357   8.625554   9.431243   0.000000
    11  H    6.465457   7.558419   7.872106   8.800123   1.779793
    12  H    6.396487   7.510532   7.556223   8.776931   1.765097
    13  H    5.007777   6.379222   7.004660   7.364611   2.379145
    14  H    4.086921   5.093148   5.103599   6.399689   3.656386
    15  H    4.045591   5.014988   5.421743   6.287436   3.738789
    16  H    2.670702   4.081006   4.982138   4.928165   4.746839
    17  H    2.735131   4.176206   4.632099   5.070594   4.687315
    18  H    2.030228   2.697878   2.677014   4.054252   5.950193
    19  H    1.094519   2.138134   3.482568   2.580480   7.112803
    20  H    1.107913   2.160291   2.830136   2.666066   7.184480
    21  H    2.130330   1.095677   2.155881   2.072769   8.372065
    22  H    2.812580   2.182310   1.096757   2.828800   8.737885
    23  H    2.871903   2.218129   1.097736   3.488451   8.016675
    24  H    3.501805   2.178588   1.094758   2.771809   9.635946
    25  H    2.657635   2.046487   2.731348   1.016873   9.577987
    26  H    3.316834   2.047780   2.709377   1.015457  10.287527
                   11         12         13         14         15
    11  H    0.000000
    12  H    1.775816   0.000000
    13  H    2.458942   2.925778   0.000000
    14  H    3.068712   2.458184   2.912377   0.000000
    15  H    2.584480   3.093524   2.445188   1.768477   0.000000
    16  H    4.374277   4.648762   2.482709   3.057189   2.500178
    17  H    4.679973   4.255814   2.951729   2.496715   3.065092
    18  H    5.258789   4.924815   4.459017   2.468351   2.936218
    19  H    6.582472   6.745535   4.904794   4.617411   4.232693
    20  H    6.886552   6.581607   5.257640   4.341803   4.656472
    21  H    7.427302   7.601246   6.440371   5.247286   4.843230
    22  H    8.187515   7.664918   7.183381   5.256936   5.861325
    23  H    7.164348   6.813843   6.601734   4.403882   4.795973
    24  H    8.791433   8.521979   8.024578   6.082793   6.318879
    25  H    9.113574   8.921121   7.559246   6.563776   6.683232
    26  H    9.560545   9.550432   8.260771   7.134957   7.005237
                   16         17         18         19         20
    16  H    0.000000
    17  H    1.768967   0.000000
    18  H    2.913940   2.442321   0.000000
    19  H    2.424119   3.049861   2.918167   0.000000
    20  H    3.061045   2.560535   2.442147   1.768768   0.000000
    21  H    4.208608   4.666980   3.021014   2.430145   3.046240
    22  H    5.220466   4.530051   2.944328   3.799768   2.638994
    23  H    4.856182   4.467104   2.171821   3.855089   3.268386
    24  H    5.973147   5.720368   3.695902   4.299987   3.809228
    25  H    5.168525   5.013539   4.255118   2.935115   2.460333
    26  H    5.844711   5.998702   4.719102   3.518709   3.602765
                   21         22         23         24         25
    21  H    0.000000
    22  H    3.071618   0.000000
    23  H    2.518657   1.775479   0.000000
    24  H    2.510766   1.771802   1.758047   0.000000
    25  H    2.922357   2.615504   3.755869   3.055305   0.000000
    26  H    2.374923   3.105488   3.706002   2.529910   1.621745
                   26
    26  H    0.000000
 Stoichiometry    C6H17N3
 Framework group  C1[X(C6H17N3)]
 Deg. of freedom    72
 Full point group                 C1      NOp   1
 Largest Abelian subgroup         C1      NOp   1
 Largest concise Abelian subgroup C1      NOp   1
                         Standard orientation:                         
 ---------------------------------------------------------------------
 Center     Atomic      Atomic             Coordinates (Angstroms)
 Number     Number       Type             X           Y           Z
 ---------------------------------------------------------------------
      1          6           0       -4.635502    0.353052   -0.093131
      2          7           0       -3.433988   -0.399729    0.262818
      3          6           0       -2.200911    0.257520   -0.176571
      4          6           0       -0.967010   -0.556737    0.218828
      5          7           0        0.261838    0.109484   -0.223075
      6          6           0        1.471531   -0.634405    0.132310
      7          6           0        2.749086    0.052280   -0.361185
      8          6           0        2.940492    1.456224    0.245835
      9          7           0        3.870651   -0.869298   -0.110078
     10          1           0       -5.528454   -0.179967    0.250462
     11          1           0       -4.749082    0.548458   -1.174191
     12          1           0       -4.612490    1.319341    0.419736
     13          1           0       -3.480382   -1.310275   -0.183279
     14          1           0       -2.157797    1.235339    0.319271
     15          1           0       -2.168140    0.447339   -1.263909
     16          1           0       -1.009560   -1.535076   -0.274660
     17          1           0       -0.996377   -0.742036    1.306528
     18          1           0        0.299244    1.020807    0.220856
     19          1           0        1.412097   -1.616221   -0.347771
     20          1           0        1.561728   -0.814516    1.221757
     21          1           0        2.662590    0.152846   -1.448804
     22          1           0        2.996639    1.397145    1.339559
     23          1           0        2.135814    2.155710   -0.015390
     24          1           0        3.872663    1.902506   -0.115252
     25          1           0        3.994478   -0.978982    0.893249
     26          1           0        4.731402   -0.453210   -0.452323
 ---------------------------------------------------------------------
 Rotational constants (GHZ):           5.5701734           0.4518587           0.4301497
 Standard basis: 6-31G(2df,p) (6D, 7F)
 There are   364 symmetry adapted cartesian basis functions of A   symmetry.
 There are   337 symmetry adapted basis functions of A   symmetry.
   337 basis functions,   515 primitive gaussians,   364 cartesian basis functions
    37 alpha electrons       37 beta electrons
       nuclear repulsion energy       468.0589770594 Hartrees.
 NAtoms=   26 NActive=   26 NUniq=   26 SFac= 1.00D+00 NAtFMM=   60 NAOKFM=F Big=F
 Integral buffers will be    131072 words long.
 Raffenetti 2 integral format.
 Two-electron integral symmetry is turned on.
 One-electron integrals computed using PRISM.
 PrsmSu:  requested number of processors reduced to:  13 ShMem   1 Linda.
 NBasis=   337 RedAO= T EigKep=  3.20D-04  NBF=   337
 NBsUse=   337 1.00D-06 EigRej= -1.00D+00 NBFU=   337
 Initial guess from the checkpoint file:  "CNCCNCCpCpN.chk"
 B after Tr=    -0.000000   -0.000000    0.000000
         Rot=    0.999999   -0.000226   -0.000356    0.000946 Ang=  -0.12 deg.
 ExpMin= 1.61D-01 ExpMax= 4.17D+03 ExpMxC= 6.27D+02 IAcc=2 IRadAn=         4 AccDes= 0.00D+00
 Harris functional with IExCor=  402 and IRadAn=       4 diagonalized for initial guess.
 HarFok:  IExCor=  402 AccDes= 0.00D+00 IRadAn=         4 IDoV= 1 UseB2=F ITyADJ=14
 ICtDFT=  3500011 ScaDFX=  1.000000  1.000000  1.000000  1.000000
 FoFCou: FMM=F IPFlag=           0 FMFlag=      100000 FMFlg1=           0
         NFxFlg=           0 DoJE=T BraDBF=F KetDBF=T FulRan=T
         wScrn=  0.000000 ICntrl=       500 IOpCl=  0 I1Cent=   200000004 NGrid=           0
         NMat0=    1 NMatS0=      1 NMatT0=    0 NMatD0=    1 NMtDS0=    0 NMtDT0=    0
 Petite list used in FoFCou.
 Requested convergence on RMS density matrix=1.00D-08 within 128 cycles.
 Requested convergence on MAX density matrix=1.00D-06.
 Requested convergence on             energy=1.00D-06.
 No special actions if energy rises.
 Integral accuracy reduced to 1.0D-05 until final iterations.
 Initial convergence to 1.0D-05 achieved.  Increase integral accuracy.
 SCF Done:  E(RB3LYP) =  -403.138575044     A.U. after   10 cycles
            NFock= 10  Conv=0.55D-08     -V/T= 2.0083
 PrsmSu:  requested number of processors reduced to:  13 ShMem   1 Linda.
 Calling FoFJK, ICntrl=      2127 FMM=F ISym2X=0 I1Cent= 0 IOpClX= 0 NMat=1 NMatS=1 NMatT=0.
 ***** Axes restored to original set *****
 -------------------------------------------------------------------
 Center     Atomic                   Forces (Hartrees/Bohr)
 Number     Number              X              Y              Z
 -------------------------------------------------------------------
      1        6           0.002355361    0.000692369   -0.000429983
      2        7          -0.000528116   -0.003357884    0.000867118
      3        6           0.000380854    0.002548662    0.000529569
      4        6          -0.001337693   -0.003062900   -0.000592492
      5        7           0.001671713    0.003733880   -0.000702698
      6        6          -0.004047171   -0.000828023    0.001915960
      7        6          -0.000524902   -0.000423004   -0.000209881
      8        6           0.000888922    0.000220579    0.000919680
      9        7          -0.002899092   -0.000157511   -0.000338776
     10        1           0.001093068   -0.000311711    0.000210106
     11        1           0.000052500   -0.000671432   -0.000319947
     12        1          -0.001015000   -0.000478349   -0.000655444
     13        1           0.000639698    0.001592941    0.000423136
     14        1          -0.000916755   -0.001130805   -0.000852180
     15        1          -0.000442976   -0.000510811   -0.000323551
     16        1           0.001036804    0.000960929    0.000871320
     17        1           0.000483677    0.000587440    0.000408414
     18        1          -0.000984964   -0.000644690   -0.000963256
     19        1           0.001161297    0.000657559   -0.000176249
     20        1           0.000145463    0.000952376   -0.000441432
     21        1          -0.000715586   -0.000557882    0.000316585
     22        1           0.000219176    0.000010797   -0.000574701
     23        1           0.001147058    0.000828105    0.001655481
     24        1           0.000672370   -0.000215360   -0.000347699
     25        1           0.000752739    0.000109463   -0.000924878
     26        1           0.000711556   -0.000544735   -0.000264200
 -------------------------------------------------------------------
 Cartesian Forces:  Max     0.004047171 RMS     0.001206239

 GradGradGradGradGradGradGradGradGradGradGradGradGradGradGradGradGradGrad
 Berny optimization.
 Using GEDIIS/GDIIS optimizer.
 FormGI is forming the generalized inverse of G from B-inverse, IUseBI=4.
 Internal  Forces:  Max     0.003497133 RMS     0.000894446
 Search for a local minimum.
 Step number   2 out of a maximum of  137
 All quantities printed in internal units (Hartrees-Bohrs-Radians)
 Mixed Optimization -- En-DIIS/RFO-DIIS
 Update second derivatives using D2CorX and points    1    2
 DE= -4.30D-03 DEPred=-5.15D-03 R= 8.35D-01
 TightC=F SS=  1.41D+00  RLast= 3.19D-01 DXNew= 5.0454D-01 9.5562D-01
 Trust test= 8.35D-01 RLast= 3.19D-01 DXMaxT set to 5.05D-01
 ITU=  1  0
 Use linear search instead of GDIIS.
     Eigenvalues ---    0.00231   0.00280   0.00353   0.00778   0.00814
     Eigenvalues ---    0.00835   0.00852   0.00954   0.02917   0.02979
     Eigenvalues ---    0.03757   0.04109   0.04241   0.04447   0.04526
     Eigenvalues ---    0.04604   0.05288   0.05472   0.05527   0.05536
     Eigenvalues ---    0.05618   0.06195   0.07026   0.07642   0.09105
     Eigenvalues ---    0.09159   0.09303   0.10965   0.10977   0.12523
     Eigenvalues ---    0.12707   0.12931   0.15730   0.16000   0.16000
     Eigenvalues ---    0.16000   0.16000   0.16000   0.16000   0.16281
     Eigenvalues ---    0.17520   0.18276   0.21869   0.21939   0.22261
     Eigenvalues ---    0.23500   0.23795   0.27767   0.28736   0.29700
     Eigenvalues ---    0.33550   0.33938   0.33961   0.33982   0.33989
     Eigenvalues ---    0.34073   0.34132   0.34157   0.34219   0.34266
     Eigenvalues ---    0.34272   0.34369   0.34460   0.35886   0.36207
     Eigenvalues ---    0.36415   0.36925   0.38204   0.44265   0.44432
     Eigenvalues ---    0.44672   0.44933
 RFO step:  Lambda=-4.47380149D-04 EMin= 2.30854980D-03
 Quartic linear search produced a step of -0.07193.
 Iteration  1 RMS(Cart)=  0.02336092 RMS(Int)=  0.00025061
 Iteration  2 RMS(Cart)=  0.00041872 RMS(Int)=  0.00003558
 Iteration  3 RMS(Cart)=  0.00000008 RMS(Int)=  0.00003558
 Variable       Old X    -DE/DX   Delta X   Delta X   Delta X     New X
                                 (Linear)    (Quad)   (Total)
    R1        2.76250  -0.00254  -0.00084  -0.00500  -0.00583   2.75667
    R2        2.06968  -0.00059  -0.00023  -0.00124  -0.00148   2.06821
    R3        2.08708   0.00016  -0.00131   0.00245   0.00114   2.08821
    R4        2.06774   0.00107   0.00007   0.00280   0.00287   2.07061
    R5        2.76799  -0.00324   0.00001  -0.00825  -0.00825   2.75975
    R6        1.91809   0.00109   0.00066   0.00126   0.00192   1.92002
    R7        2.89188  -0.00164   0.00088  -0.00660  -0.00573   2.88615
    R8        2.07341   0.00141   0.00006   0.00375   0.00381   2.07722
    R9        2.08676   0.00027  -0.00090   0.00210   0.00120   2.08796
   R10        2.77036  -0.00350  -0.00033  -0.00836  -0.00869   2.76167
   R11        2.07224   0.00142  -0.00006   0.00395   0.00389   2.07612
   R12        2.08581   0.00027  -0.00089   0.00210   0.00121   2.08701
   R13        2.76638  -0.00254   0.00031  -0.00697  -0.00665   2.75973
   R14        1.91692   0.00140   0.00049   0.00215   0.00264   1.91956
[...]
 0.06672334,0.00292106,0.00260139,0.00882904,-0.00125440,0.00226840,0.0
 0012412,0.00049682,0.00047824,0.00055304,0.00000201,-0.00000023,-0.000
 00082,-0.00000536,-0.00000341,-0.00000107,0.00001050,-0.00000844,0.000
 00157,-0.00006100,0.00005902,0.00003382,0.00022110,0.00006457,0.000239
 66,0.00002116,-0.00001580,-0.00001524,0.00003834,0.00072576,0.00097800
 ,-0.00009445,0.00040950,0.00024980,-0.00693193,0.00132165,-0.00027511,
 0.09000832,0.00003032,0.00001151,-0.00000265,-0.00008137,0.00002548,-0
 .00000726,0.00019745,0.00005416,0.00029790,0.00077644,0.00070015,0.001
 42295,0.00053368,-0.00020365,0.00021256,-0.02843631,-0.07516464,-0.073
 34748,-0.00944014,-0.01350313,-0.02991139,0.00327441,-0.00510630,0.001
 00566,-0.00126156,0.00211296,0.00082753,-0.00000941,0.00000515,0.00000
 030,-0.00001175,-0.00000908,0.00000423,-0.00000880,-0.00000196,-0.0000
 0030,0.00001407,-0.00001184,-0.00002704,0.00009273,-0.00008499,-0.0000
 7031,-0.00004402,-0.00002131,-0.00000757,-0.00010140,0.00039214,-0.000
 16067,0.00001585,0.00000586,0.00000806,0.00074337,0.00050314,-0.000144
 27,0.03016100,0.08357127,-0.00001156,0.00002368,0.00000502,-0.00013206
 ,0.00006650,-0.00001437,0.00019113,0.00037010,0.00063431,0.00090407,-0
 .00061553,0.00059038,-0.00257851,0.00000014,0.00201662,-0.07276908,-0.
 07621090,-0.25350708,-0.00132136,-0.00053886,-0.00425891,0.00040667,-0
 .00096206,0.00115102,0.00017636,0.00115595,0.00066911,-0.00001034,-0.0
 0000116,-0.00000450,0.00000164,-0.00000083,0.00000015,0.00000280,0.000
 00143,0.00000088,-0.00003900,-0.00001982,0.00000693,0.00027587,-0.0000
 5664,-0.00005365,0.00004135,0.00000506,-0.00002268,-0.00052587,0.00059
 610,0.00041765,-0.00001477,0.00011525,-0.00040202,0.00079761,0.0004063
 1,0.00180546,0.08058666,0.08324352,0.27087902,0.00024289,0.00007630,0.
 00006075,-0.00046293,0.00039404,-0.00018895,0.00014520,0.00029261,-0.0
 0007350,0.00232277,-0.00678053,-0.00066181,-0.03462679,-0.01814773,0.0
 2642602,-0.07412406,-0.04482729,0.05449301,0.00306006,0.00581114,-0.00
 624588,-0.00021004,-0.00059013,-0.00007415,0.00149433,0.00008310,-0.00
 047645,-0.00007828,0.00003826,0.00002023,-0.00005129,-0.00004555,0.000
 01126,-0.00001900,-0.00002225,-0.00001819,-0.00002042,-0.00005412,0.00
 000447,0.00001905,-0.00003751,-0.00001220,0.00037743,0.00020395,-0.000
 16683,-0.00011878,0.00045331,0.00014725,0.00063429,0.00226296,-0.00088
 559,0.00172778,0.00103227,0.00053847,0.00467799,0.00494431,-0.00581688
 ,0.09497395,0.00005077,0.00000292,0.00004413,-0.00015200,0.00005726,-0
 .00000830,0.00025410,0.00012777,0.00001052,0.00044801,0.00276812,-0.00
 187029,-0.00337630,0.00207571,-0.00197215,-0.04298141,-0.12494549,0.08
 956814,-0.01127774,-0.02174302,0.02524921,-0.00024917,0.00163645,0.001
 83202,-0.00133405,0.00152038,-0.00017814,-0.00002048,0.00001480,0.0000
 0510,-0.00002209,-0.00000174,-0.00000277,-0.00000626,-0.00000842,-0.00
 000810,-0.00000399,-0.00001182,0.00000344,-0.00000642,-0.00001300,-0.0
 0000923,0.00012936,-0.00013772,-0.00001244,-0.00000426,0.00001054,0.00
 012939,-0.00139921,0.00069973,0.00095075,-0.00049502,0.00033532,-0.000
 09047,0.00359752,0.00611985,-0.00723180,0.05290305,0.13621901,-0.00007
 552,-0.00002074,-0.00004510,0.00021368,-0.00016406,0.00003956,-0.00009
 849,-0.00025421,0.00027022,-0.00047100,0.00059386,0.00072669,0.0059233
 7,-0.00022663,0.00496788,0.05302634,0.08957296,-0.16513955,0.00022380,
 -0.00229066,0.00053456,-0.00052005,-0.00036894,0.00130239,-0.00060429,
 -0.00043393,0.00035525,0.00003448,-0.00001933,-0.00001126,0.00001815,0
 .00000598,0.00000155,0.00000647,0.00001310,0.00000989,0.00001622,0.000
 03614,-0.00002626,0.00000843,-0.00001103,-0.00002638,-0.00022094,-0.00
 002463,0.00001936,-0.00022100,0.00019338,-0.00028062,0.00068054,-0.000
 98592,-0.00045421,0.00030186,-0.00118292,0.00174587,0.01017836,0.01763
 466,-0.02148490,-0.06726748,-0.10270763,0.17506545,-0.00001099,-0.0000
 0463,-0.00000753,0.00003424,-0.00002434,0.00000926,-0.00000915,-0.0000
 3838,0.00000845,0.00004964,0.00031010,0.00009056,0.00107839,-0.0005789
 0,-0.00036795,0.00377857,0.00683331,-0.00836028,-0.07373847,-0.0425430
 3,0.06194193,0.00413344,0.00482635,-0.00791203,-0.02185528,-0.02311803
 ,0.02511698,0.00000431,-0.00000178,-0.00000020,0.00000317,0.00000250,0
 .00000027,0.00000080,0.00000111,0.00000087,0.00000071,0.00000137,0.000
 00037,0.00000109,0.00000019,0.00000055,-0.00002309,-0.00000861,0.00001
 264,-0.00001986,-0.00001543,-0.00001282,-0.00012130,-0.00015602,0.0000
 9068,0.00003522,0.00014632,-0.00011207,0.00016597,-0.00072133,0.000090
 64,-0.00069283,0.00218171,0.00001283,0.09247533,-0.00001284,-0.0000181
 1,0.00000764,0.00001787,0.00005443,-0.00001278,0.00001775,-0.00002124,
 -0.00005646,0.00016831,-0.00006207,-0.00030909,-0.00098836,0.00270844,
 -0.00075050,-0.01077622,-0.02227233,0.02443843,-0.04630748,-0.12263031
 ,0.10438393,0.00377984,0.00722209,-0.01251513,-0.00047535,0.00053981,-
 0.00017803,0.00000342,-0.00000021,0.00000055,0.00000584,0.00000630,-0.
 00000522,-0.00000056,-0.00000013,-0.00000156,-0.00001130,-0.00001373,0
 .00001070,0.00000305,0.00000302,-0.00000296,0.00007859,0.00002249,-0.0
 0002269,-0.00001468,-0.00003263,0.00001621,-0.00009822,0.00041786,-0.0
 0007073,-0.00005012,-0.00016552,0.00004471,-0.00045505,0.00115168,-0.0
 0019883,0.00237540,-0.00555098,-0.00062124,0.05283066,0.13602485,-0.00
 000022,0.00001461,-0.00000862,-0.00002486,-0.00003829,0.00001457,0.000
 00476,0.00010460,-0.00005223,-0.00027894,-0.00011371,0.00020253,-0.000
 55479,-0.00040218,0.00022905,-0.00057547,-0.00178282,0.00184809,0.0662
 0296,0.10610517,-0.19785562,0.00774656,0.01498201,-0.02534785,-0.00013
 990,-0.00226021,0.00427560,-0.00000132,-0.00000209,-0.00000035,-0.0000
 0213,-0.00000306,0.00000516,0.00000198,0.00000103,0.00000248,0.0000042
 8,0.00000655,-0.00000313,0.00000309,-0.00000053,0.00000782,-0.00001808
 ,-0.00001024,0.00002906,-0.00000306,0.00000817,-0.00001833,0.00008699,
 -0.00011129,-0.00005168,0.00014999,0.00004770,-0.00010825,-0.00031089,
 0.00015576,0.00105760,0.00020441,-0.00095403,0.00130381,-0.06998090,-0
 .11148563,0.21553845,-0.00000646,-0.00000748,0.00001118,0.00000734,0.0
 0002671,-0.00001771,-0.00000242,-0.00002552,0.00004216,0.00004961,0.00
 000107,-0.00008316,-0.00005631,0.00036927,0.00012823,0.00016880,-0.000
 00079,0.00066961,0.00146818,0.00576638,-0.00795595,-0.06939888,-0.0412
 5259,0.05764058,0.00180199,0.00105080,0.00029345,0.00000072,0.00000073
 ,-0.00000044,0.00000313,0.00000373,-0.00000614,-0.00000308,-0.00000092
 ,-0.00000149,-0.00000202,-0.00000359,0.00000017,-0.00001522,-0.0000086
 4,-0.00000527,0.00001629,0.00000921,-0.00003023,0.00001227,-0.00001909
 ,-0.00001656,0.00000825,0.00009547,-0.00000404,-0.00032939,-0.00030870
 ,0.00033385,-0.00003689,0.00015053,-0.00000930,0.00004210,0.00012816,0
 .00016398,0.00020636,-0.00077574,-0.00198114,0.07042181,0.00002256,0.0
 0000081,0.00000921,-0.00003422,0.00002328,-0.00000566,0.00002509,-0.00
 001608,0.00000642,0.00006434,-0.00010761,-0.00000505,-0.00024164,0.000
 03970,0.00004681,0.00095394,0.00184175,-0.00058863,0.00404346,0.007553
 23,-0.01166548,-0.04170604,-0.12567974,0.11006454,0.00164190,0.0003871
 6,0.00027658,-0.00000604,0.00000558,0.00000264,-0.00000546,-0.00000265
 ,-0.00000030,-0.00000241,-0.00000272,-0.00000241,0.00000123,-0.0000034
 4,-0.00000126,-0.00000456,-0.00000188,-0.00000103,-0.00000323,0.000005
 37,-0.00000548,-0.00001010,0.00001954,0.00000377,0.00001391,0.00001916
 ,0.00000055,0.00002515,-0.00004894,0.00004372,-0.00009684,0.00010925,0
 .00021214,-0.00030448,0.00014213,0.00054613,-0.00085951,-0.00028636,-0
 .00300922,0.04630539,0.13393459,0.00000211,0.00000448,-0.00001009,0.00
 000585,-0.00002408,0.00001582,-0.00000470,0.00000858,-0.00003466,0.000
 05459,0.00002181,0.00005002,-0.00001587,-0.00051920,0.00011410,0.00016
 769,0.00218110,0.00089105,0.01063988,0.01711085,-0.02550259,0.05754926
 ,0.11052409,-0.20014421,0.00074883,-0.00035012,0.00267977,0.00000144,-
 0.00000138,-0.00000065,-0.00000201,-0.00000307,0.00000393,0.00000240,0
 .00000092,0.00000219,0.00000123,0.00000678,-0.00000191,0.00001196,0.00
 000200,0.00001142,-0.00001508,-0.00000947,0.00001801,-0.00001636,0.000
 02402,0.00001539,0.00000171,-0.00007710,0.00000326,0.00032591,0.000170
 96,-0.00026859,-0.00027008,-0.00011518,0.00051180,-0.00017627,-0.00133
 445,0.00053948,-0.00254119,-0.00326688,-0.00435226,-0.06347644,-0.1206
 5783,0.22194167,0.00002859,-0.00000096,0.00000208,-0.00002685,0.000046
 09,0.00000864,0.00005099,-0.00008581,-0.00006786,0.00050231,-0.0000540
 2,0.00042853,-0.00030305,0.00156599,0.00010117,-0.00127178,0.00006209,
 -0.00027975,-0.00907998,0.00021916,0.00242090,-0.30291753,-0.02464389,
 -0.00570288,-0.00115410,-0.00172188,-0.00408912,-0.00000778,0.00000980
 ,0.00000439,-0.00000825,-0.00000584,0.00000045,0.00000013,-0.00000584,
 0.00000150,-0.00000230,-0.00000608,0.00000365,0.00001500,-0.00000405,0
 .00002403,0.00000260,0.00000754,-0.00000378,-0.00008411,0.00023070,0.0
 0010742,-0.00003279,0.00007975,-0.00002141,0.00072898,-0.00009344,0.00
 079543,0.00006964,-0.00005246,0.00002599,0.00018050,0.00000361,-0.0001
 5203,0.00048770,0.00013033,-0.00046492,-0.00768802,0.00004673,-0.00044
 745,0.33199186,0.00007449,0.00001476,0.00000995,-0.00009753,0.00004535
 ,0.00001376,0.00008299,-0.00001291,-0.00007531,0.00047792,-0.00035064,
 -0.00007647,0.00029866,-0.00020296,-0.00027300,-0.00084206,0.00017985,
 0.00068348,-0.01240873,-0.00149434,0.00325412,-0.02431643,-0.04924156,
 -0.00063481,-0.00207213,-0.00019346,-0.00322592,-0.00001820,0.00001263
 ,0.00000679,-0.00002122,-0.00001484,0.00000850,-0.00000226,-0.00000704
 ,-0.00000379,0.00000360,-0.00000044,-0.00000201,0.00002581,-0.00000630
 ,0.00002158,-0.00000075,-0.00000248,0.00000971,-0.00003671,0.00014758,
 0.00006341,-0.00004038,0.00017116,-0.00002624,0.00068859,-0.00224208,-
 0.00032465,0.00007148,0.00021411,-0.00006133,0.00017378,0.00002719,-0.
 00021020,0.00041641,0.00044506,0.00014586,-0.01838255,-0.00206400,-0.0
 0133624,0.02562656,0.05079661,0.00004401,0.00000196,0.00002144,-0.0000
 6094,0.00005638,-0.00002087,0.00006713,-0.00005171,0.00004118,0.000413
 64,-0.00022539,-0.00027542,0.00047490,0.00017640,0.00040316,-0.0003263
 9,0.00042409,0.00079661,-0.02697230,0.00058706,0.00426899,-0.00432857,
 -0.00044845,-0.04810003,-0.00503936,-0.00372999,-0.00579943,-0.0000112
 2,0.00000875,0.00000270,-0.00001110,-0.00000639,-0.00000045,-0.0000050
 0,-0.00000389,-0.00000543,0.00000195,-0.00000857,-0.00000368,-0.000007
 72,-0.00000356,-0.00000664,0.00001606,0.00001216,-0.00002624,-0.000034
 81,0.00005252,0.00002545,-0.00003384,0.00023714,-0.00000938,0.00007611
 ,-0.00104991,0.00040150,-0.00005612,0.00021741,-0.00002912,0.00014398,
 -0.00000992,-0.00006349,0.00050857,0.00088991,0.00081090,0.02526604,0.
 00096772,0.00099545,0.00671748,0.00163782,0.04755585,0.00005557,0.0000
 0858,0.00000548,-0.00007101,0.00003555,0.00001091,0.00006494,-0.000029
 25,-0.00005312,0.00033637,-0.00020289,0.00019047,-0.00007942,0.0006521
 9,-0.00008474,-0.00143467,-0.00107926,-0.00225368,0.00190237,-0.010359
 94,-0.00154764,-0.08633021,0.09562978,0.01042090,0.00191269,-0.0007188
 7,0.00087457,-0.00001276,0.00001008,0.00000535,-0.00001534,-0.00001062
 ,0.00000559,-0.00000227,-0.00000539,-0.00000210,0.00000237,-0.00000060
 ,-0.00000237,0.00001548,-0.00000817,0.00001830,-0.00000165,0.00000287,
 0.00000186,-0.00005984,0.00017366,0.00007244,-0.00002517,0.00009362,-0
 .00001584,0.00048939,-0.00068282,0.00036967,0.00047707,-0.00055591,-0.
 00022616,0.00005504,0.00024364,-0.00007010,0.00007576,0.00044169,0.000
 53207,0.00339324,-0.00976663,-0.00120064,-0.01255760,0.03005347,0.0026
 0680,0.09189776,-0.00007483,-0.00001704,-0.00001311,0.00012075,-0.0000
 2879,-0.00000208,-0.00008649,-0.00002823,0.00004009,0.00001783,0.00019
 859,0.00006107,-0.00019593,0.00017924,0.00000581,-0.00149066,0.0008280
 8,-0.00327864,0.00623649,-0.01342521,-0.00039833,0.09483006,-0.2641937
 9,-0.02125608,-0.00006888,0.00196228,0.00154117,0.00001896,-0.00001341
 ,-0.00000672,0.00002110,0.00001449,-0.00000855,0.00000379,0.00000558,0
 .00000480,-0.00000947,0.00000451,0.00000795,0.00001010,-0.00000331,0.0
 0000328,0.00001548,-0.00000122,-0.00001274,0.00002098,-0.00000249,0.00
 002891,0.00000089,-0.00003182,0.00001725,-0.00014663,-0.00011785,0.000
 08649,0.00052357,-0.00090406,-0.00031114,0.00000685,0.00045090,0.00012
 784,-0.00016777,0.00078991,-0.00036107,0.00722157,-0.01582094,-0.00201
 676,-0.00162659,0.00346097,0.00054778,-0.10401929,0.28692811,-0.000036
 79,-0.00001268,-0.00001374,0.00007185,-0.00001066,0.00001178,-0.000053
 30,-0.00003602,0.00000930,0.00006977,0.00012849,0.00004765,-0.00042811
 ,0.00020077,0.00007950,-0.00292765,-0.00061449,-0.00520913,0.01193419,
 -0.02871951,-0.00351968,0.00947057,-0.02098813,-0.04760400,0.00223231,
 0.00145789,0.00178436,0.00001123,-0.00000569,-0.00000265,0.00001070,0.
 00000675,-0.00000309,0.00000441,0.00000276,0.00000400,-0.00001067,0.00
 000377,0.00000704,0.00003096,-0.00000053,0.00001190,0.00001107,0.00000
 088,-0.00000061,0.00001788,0.00002248,0.00007557,-0.00001751,-0.000050
 89,0.00000247,0.00022695,0.00006899,-0.00006072,0.00054593,-0.00176191
 ,-0.00010693,-0.00014425,-0.00034134,0.00014434,0.00044771,0.00071215,
 0.00106097,-0.01104310,0.02301698,0.00237584,0.00007835,0.00064790,-0.
 00082949,-0.00932381,0.02586608,0.05174895,-0.00004320,-0.00001290,-0.
 00000480,0.00007841,-0.00002161,0.00000121,-0.00004337,-0.00004465,0.0
 0001149,0.00001238,0.00033004,-0.00003446,0.00047502,0.00048083,-0.000
 76590,0.00045840,-0.00188794,0.00142658,-0.01948863,-0.02203982,0.0342
 3073,0.00184608,-0.00035860,0.00108986,-0.10103086,-0.05506921,0.10090
 307,0.00001325,-0.00000974,-0.00000468,0.00001189,0.00000848,-0.000004
 36,0.00000101,0.00000402,0.00000049,-0.00000205,0.00000351,0.00000132,
 -0.00000491,0.00000061,-0.00000595,0.00001029,-0.00000320,-0.00000682,
 0.00000491,-0.00002820,-0.00002076,-0.00004905,0.00001461,0.00002440,-
 0.00014023,-0.00006128,0.00005133,0.00000619,0.00008469,-0.00022394,0.
 00014932,0.00135131,-0.00070598,-0.00725104,0.00050172,-0.00123093,-0.
 00008051,0.00008913,-0.00128908,0.00054623,0.00058246,0.00000581,-0.00
 004188,-0.00007234,-0.00027378,0.11857477,0.00002920,0.00000967,0.0000
 0625,-0.00004585,-0.00001169,-0.00000164,0.00003070,0.00001180,0.00002
 045,0.00001958,-0.00003850,-0.00003599,-0.00035383,-0.00085449,0.00028
 308,0.00149769,0.00226821,-0.00186241,-0.00460572,-0.00144608,0.001230
 70,0.00114792,-0.00019696,0.00037168,-0.05018112,-0.12839152,0.1334209
 1,-0.00000423,0.00000159,0.00000088,-0.00000851,-0.00000688,0.00000511
 ,-0.00000284,-0.00000120,-0.00000522,0.00001068,0.00000432,-0.00001004
 ,-0.00001235,0.00000186,-0.00001361,-0.00001913,-0.00000491,0.00000809
 ,0.00000457,-0.00001101,-0.00002227,0.00002545,-0.00005332,0.00002231,
 -0.00007308,0.00018928,-0.00000310,0.00010623,-0.00011090,-0.00016186,
 -0.00010804,-0.00023498,0.00091897,0.00041151,0.00116430,-0.00092466,-
 0.00045843,0.00006515,-0.00037628,0.00059556,0.00033929,0.00002392,-0.
 00021029,-0.00033859,-0.00001565,0.06794608,0.14870788,0.00001175,0.00
 000562,-0.00000468,-0.00001395,-0.00003127,0.00000086,0.00001002,0.000
 02768,0.00001232,0.00002623,-0.00002987,0.00000245,-0.00039101,-0.0004
 7087,0.00027408,0.00041386,0.00043138,-0.00028634,-0.00660951,-0.00427
 534,-0.00213085,-0.00115704,-0.00123123,0.00261198,0.12832388,0.178465
 58,-0.25758364,-0.00000001,-0.00000204,-0.00000008,-0.00000385,-0.0000
 0230,0.00000338,-0.00000250,0.00000148,-0.00000088,0.00000911,0.000008
 08,-0.00000958,-0.00000939,-0.00000119,-0.00000853,-0.00001068,-0.0000
 0897,0.00000699,0.00000546,-0.00000091,-0.00002523,0.00002354,-0.00002
 058,0.00001813,-0.00005874,0.00013270,-0.00001140,0.00016734,0.0000602
 2,-0.00025356,0.00033483,-0.00065622,0.00036365,0.00046024,-0.00068071
 ,0.00152666,0.00022141,0.00068351,0.00024675,0.00004903,0.00006405,-0.
 00037269,-0.00001593,-0.00001635,-0.00000626,-0.12104960,-0.16538215,0
 .25843659,0.00003547,0.00003506,0.00002709,-0.00016343,-0.00000334,-0.
 00001506,0.00010357,0.00026282,0.00005735,-0.00070551,-0.00029177,-0.0
 0027709,-0.00039136,0.00255906,0.00068170,-0.00718496,-0.00368341,-0.0
 0065033,-0.01727832,0.04020256,0.00227499,0.00143648,0.00112144,0.0003
 4528,-0.09548774,0.11023116,0.01554622,-0.00001943,0.00000499,0.000002
 24,-0.00001370,-0.00000797,0.00000542,-0.00000302,-0.00000281,-0.00000
 623,0.00000711,-0.00000342,-0.00000540,-0.00000322,0.00000210,-0.00001
 834,-0.00001295,-0.00001112,0.00001605,0.00002496,-0.00001876,0.000025
 12,-0.00000637,0.00006457,-0.00001365,-0.00001438,0.00011867,-0.000061
 93,0.00005069,-0.00029439,0.00017803,0.00030171,0.00003716,-0.00040162
 ,0.00119130,-0.00038857,0.00063046,0.00001908,-0.00019166,-0.00005767,
 0.00052960,-0.00033726,0.00054491,-0.00004624,-0.00108954,-0.00090492,
 0.00598759,-0.01574173,-0.00073447,0.11164305,-0.00003556,-0.00001505,
 -0.00001546,0.00007628,-0.00001459,0.00000690,-0.00006082,-0.00005993,
 -0.00000017,0.00008007,0.00023842,0.00009804,-0.00026764,-0.00009168,0
 .00003018,0.00107452,0.00126334,-0.00049409,-0.00499317,0.00062625,-0.
 00431783,-0.00172530,0.00129811,0.00068441,0.13003187,-0.37289434,0.00
 607974,0.00001127,-0.00000618,-0.00000227,0.00001039,0.00000780,-0.000
 00345,0.00000182,0.00000388,0.00000461,-0.00000412,0.00000243,0.000002
 32,0.00000317,-0.00000061,0.00000335,0.00000534,0.00000036,-0.00000413
 ,-0.00001299,-0.00000139,-0.00000123,-0.00000342,-0.00002752,0.0000007
 3,0.00012863,-0.00011527,0.00002457,-0.00019781,0.00014514,0.00017457,
 -0.00013369,0.00043907,-0.00012094,0.00027622,0.00050340,-0.00011239,0
 .00011504,-0.00011234,0.00003244,-0.00032306,-0.00002151,-0.00030325,0
 .00030481,0.00010408,0.00042161,0.00821200,-0.02106233,-0.00707031,-0.
 13257385,0.38979048,-0.00006434,-0.00002058,-0.00001236,0.00012487,-0.
 00003589,-0.00001414,-0.00008014,-0.00005030,0.00003391,0.00006896,0.0
 0017261,0.00021158,0.00063823,-0.00065023,0.00056311,0.00057686,0.0004
 0650,-0.00045621,-0.00695536,0.00196785,-0.00401147,0.00028809,0.00194
 442,0.00045633,0.03422550,-0.03992140,-0.02332297,0.00001926,-0.000013
 54,-0.00000556,0.00002091,0.00001495,-0.00000740,0.00000158,0.00000672
 ,0.00000093,-0.00000523,0.00000145,0.00000417,-0.00000620,-0.00000113,
 -0.00001331,0.00001843,0.00000376,-0.00000936,-0.00002620,-0.00002020,
 -0.00002470,0.00001186,-0.00006256,0.,0.00014354,0.00005120,0.00003943
 ,-0.00001558,0.00046526,0.00039178,-0.00017625,-0.00040542,0.00014182,
 0.00050241,-0.00032581,-0.00011443,-0.00013969,0.00006163,-0.00010098,
 0.00046016,-0.00031696,0.00021912,-0.00031826,-0.00065696,-0.00000738,
 -0.01212522,0.03250254,-0.00281012,-0.01718816,0.00488207,0.02884821\\
 0.00001917,-0.00001229,-0.00001099,-0.00001202,-0.00001182,0.00001030,
 -0.00003455,0.00000472,-0.00000601,0.00004411,-0.00000977,0.00001198,0
 .00000708,0.00001134,-0.00001187,-0.00000897,0.00001717,-0.00000887,0.
 00000753,-0.00000642,0.00001386,0.00000496,0.00000198,-0.00000919,0.00
 000518,-0.00000046,-0.00000804,-0.00000748,0.00000183,0.00000316,0.000
 00093,0.00000472,0.00000420,0.00000055,0.00000699,0.00000251,-0.000000
 02,0.00000095,-0.00001053,0.00000806,0.00000330,0.00000403,0.00000378,
 0.00000402,0.00000464,-0.00000750,-0.00000303,-0.00000655,-0.00000621,
 -0.00000319,-0.00000577,0.00000437,0.00000069,0.00001389,-0.00000608,-
 0.00000090,0.00000177,0.00000016,-0.00001079,0.00000069,0.00000587,0.0
 0000287,-0.00000229,-0.00000287,-0.00000082,0.00000434,-0.00000628,-0.
 00000653,-0.00000626,-0.00000602,-0.00000138,0.00000233,-0.00000630,0.
 00000279,0.00000810,-0.00000746,0.00000405,0.00000058\\\@


 LEARN FROM YESTERDAY,
 LIVE FOR TODAY,
 LOOK TO TOMORROW,
 REST THIS AFTERNOON.

           -- SNOOPY
 Job cpu time:       0 days  2 hours 11 minutes  8.4 seconds.
 Elapsed time:       0 days  0 hours 32 minutes 47.8 seconds.
 File lengths (MBytes):  RWF=    218 Int=      0 D2E=      0 Chk=     11 Scr=      1
 Normal termination of Gaussian 16 at Tue Jun  1 18:32:05 2021.
### All Done ###
