### Starting Gaussian ###
 Entering Gaussian System, Link 0=g16
 Initial command:
 /cluster/software/gaussian/gaussian-16-A.03/avx2/g16/l1.exe "/local/scratch/cz9n3/Gau-13836.inp" -scrdir="/local/scratch/cz9n3/"
 Entering Link 1 = /cluster/software/gaussian/gaussian-16-A.03/avx2/g16/l1.exe PID=     13837.
  
 Copyright (c) 1988,1990,1992,1993,1995,1998,2003,2009,2016,
            Gaussian, Inc.  All Rights Reserved.
  
 This is part of the Gaussian(R) 16 program.  It is based on
 the Gaussian(R) 09 system (copyright 2009, Gaussian, Inc.),
 the Gaussian(R) 03 system (copyright 2003, Gaussian, Inc.),
 the Gaussian(R) 98 system (copyright 1998, Gaussian, Inc.),
 the Gaussian(R) 94 system (copyright 1995, Gaussian, Inc.),
 the Gaussian 92(TM) system (copyright 1992, Gaussian, Inc.),
 the Gaussian 90(TM) system (copyright 1990, Gaussian, Inc.),
 the Gaussian 88(TM) system (copyright 1988, Gaussian, Inc.),
 the Gaussian 86(TM) system (copyright 1986, Carnegie Mellon
 University), and the Gaussian 82(TM) system (copyright 1983,
 Carnegie Mellon University). Gaussian is a federally registered
 trademark of Gaussian, Inc.
  
 This software contains proprietary and confidential information,
 including trade secrets, belonging to Gaussian, Inc.
  
 This software is provided under written license and may be
 used, copied, transmitted, or stored only in accord with that
 written license.
  
 The following legend is applicable only to US Government
 contracts under FAR:
  
                    RESTRICTED RIGHTS LEGEND
  
 Use, reproduction and disclosure by the US Government is
 subject to restrictions as set forth in subparagraphs (a)
 and (c) of the Commercial Computer Software - Restricted
 Rights clause in FAR 52.227-19.
  
 Gaussian, Inc.
 340 Quinnipiac St., Bldg. 40, Wallingford CT 06492
  
  
 ---------------------------------------------------------------
 Warning -- This program may not be used in any manner that
 competes with the business of Gaussian, Inc. or will provide
 assistance to any competitor of Gaussian, Inc.  The licensee
 of this program is prohibited from giving any competitor of
 Gaussian, Inc. access to this program.  By using this program,
 the user acknowledges that Gaussian, Inc. is engaged in the
 business of creating and licensing software in the field of
 computational chemistry and represents and warrants to the
 licensee that it is not a competitor of Gaussian, Inc. and that
 it will not use this program in any manner prohibited above.
 ---------------------------------------------------------------
  

 Cite this work as:
 Gaussian 16, Revision A.03,
 M. J. Frisch, G. W. Trucks, H. B. Schlegel, G. E. Scuseria, 
 M. A. Robb, J. R. Cheeseman, G. Scalmani, V. Barone, 
 G. A. Petersson, H. Nakatsuji, X. Li, M. Caricato, A. V. Marenich, 
 J. Bloino, B. G. Janesko, R. Gomperts, B. Mennucci, H. P. Hratchian, 
 J. V. Ortiz, A. F. Izmaylov, J. L. Sonnenberg, D. Williams-Young, 
 F. Ding, F. Lipparini, F. Egidi, J. Goings, B. Peng, A. Petrone, 
 T. Henderson, D. Ranasinghe, V. G. Zakrzewski, J. Gao, N. Rega, 
 G. Zheng, W. Liang, M. Hada, M. Ehara, K. Toyota, R. Fukuda, 
 J. Hasegawa, M. Ishida, T. Nakajima, Y. Honda, O. Kitao, H. Nakai, 
 T. Vreven, K. Throssell, J. A. Montgomery, Jr., J. E. Peralta, 
 F. Ogliaro, M. J. Bearpark, J. J. Heyd, E. N. Brothers, K. N. Kudin, 
 V. N. Staroverov, T. A. Keith, R. Kobayashi, J. Normand, 
 K. Raghavachari, A. P. Rendell, J. C. Burant, S. S. Iyengar, 
 J. Tomasi, M. Cossi, J. M. Millam, M. Klene, C. Adamo, R. Cammi, 
 J. W. Ochterski, R. L. Martin, K. Morokuma, O. Farkas, 
 J. B. Foresman, and D. J. Fox, Gaussian, Inc., Wallingford CT, 2016.
 
 ******************************************
 Gaussian 16:  ES64L-G16RevA.03 25-Dec-2016
                 1-Jun-2021 
 ******************************************
 %chk=CNCCNpCpN.chk
 %NProcShared=20
 Will use up to   20 processors via shared memory.
 -----------------------------
 # opt freq b3lyp/6-31g(2df,p)
 -----------------------------
 1/18=20,19=15,26=3,38=1/1,3;
 2/9=110,12=2,17=6,18=5,40=1/2;
 3/5=1,6=6,7=104,11=2,25=1,30=1,71=1,74=-5/1,2,3;
 4//1;
 5/5=2,38=5/2;
 6/7=2,8=2,9=2,10=2,28=1/1;
 7//1,2,3,16;
 1/18=20,19=15,26=3/3(2);
 2/9=110/2;
 99//99;
 2/9=110/2;
 3/5=1,6=6,7=104,11=2,25=1,30=1,71=1,74=-5/1,2,3;
 4/5=5,16=3,69=1/1;
 5/5=2,38=5/2;
 7//1,2,3,16;
 1/18=20,19=15,26=3/3(-5);
 2/9=110/2;
 6/7=2,8=2,9=2,10=2,19=2,28=1/1;
 99/9=1/99;
 -------------------
 Title Card Required
 -------------------
 Symbolic Z-matrix:
 Charge =  0 Multiplicity = 1
 C                     0.93645  -0.05078   0.01679 
 N                     2.39548  -0.03723   0.01005 
 C                     2.88857   0.04932   1.3909 
 C                     4.42828   0.01484   1.45911 
 N                     4.93568   0.11767   2.84594 
 C                     4.50105  -1.01112   3.67812 
 N                     6.38534   0.14131   2.83685 
 H                     0.5644   -0.13494  -1.00772 
 H                     0.53378   0.86862   0.45427 
 H                     0.55347  -0.90868   0.57964 
 H                     2.72455   0.76825  -0.51828 
 H                     2.47816  -0.80012   1.94472 
 H                     2.52731   0.97177   1.8628 
 H                     4.81275   0.86651   0.88051 
 H                     4.80285  -0.89709   0.97501 
 H                     3.41447  -1.01693   3.8074 
 H                     4.91589  -0.92962   4.68888 
 H                     4.80506  -1.97481   3.2525 
 H                     6.73825   0.95333   2.32894 
 H                     6.78187  -0.68448   2.37993 
 

 GradGradGradGradGradGradGradGradGradGradGradGradGradGradGradGradGradGrad
 Berny optimization.
 Initialization pass.
                           ----------------------------
                           !    Initial Parameters    !
                           ! (Angstroms and Degrees)  !
 --------------------------                            --------------------------
 ! Name  Definition              Value          Derivative Info.                !
 --------------------------------------------------------------------------------
 ! R1    R(1,2)                  1.4591         estimate D2E/DX2                !
 ! R2    R(1,8)                  1.0932         estimate D2E/DX2                !
 ! R3    R(1,9)                  1.0949         estimate D2E/DX2                !
 ! R4    R(1,10)                 1.0952         estimate D2E/DX2                !
 ! R5    R(2,3)                  1.4688         estimate D2E/DX2                !
 ! R6    R(2,11)                 1.0179         estimate D2E/DX2                !
 ! R7    R(3,4)                  1.5416         estimate D2E/DX2                !
 ! R8    R(3,12)                 1.0939         estimate D2E/DX2                !
 ! R9    R(3,13)                 1.0973         estimate D2E/DX2                !
 ! R10   R(4,5)                  1.4803         estimate D2E/DX2                !
 ! R11   R(4,14)                 1.0991         estimate D2E/DX2                !
 ! R12   R(4,15)                 1.0983         estimate D2E/DX2                !
 ! R13   R(5,6)                  1.4682         estimate D2E/DX2                !
 ! R14   R(5,7)                  1.4499         estimate D2E/DX2                !
 ! R15   R(6,16)                 1.0943         estimate D2E/DX2                !
 ! R16   R(6,17)                 1.0956         estimate D2E/DX2                !
 ! R17   R(6,18)                 1.0965         estimate D2E/DX2                !
 ! R18   R(7,19)                 1.0207         estimate D2E/DX2                !
 ! R19   R(7,20)                 1.0237         estimate D2E/DX2                !
 ! A1    A(2,1,8)              109.6755         estimate D2E/DX2                !
 ! A2    A(2,1,9)              111.2104         estimate D2E/DX2                !
 ! A3    A(2,1,10)             111.0584         estimate D2E/DX2                !
 ! A4    A(8,1,9)              108.2962         estimate D2E/DX2                !
 ! A5    A(8,1,10)             107.5966         estimate D2E/DX2                !
 ! A6    A(9,1,10)             108.8939         estimate D2E/DX2                !
 ! A7    A(1,2,3)              109.3839         estimate D2E/DX2                !
 ! A8    A(1,2,11)             109.4507         estimate D2E/DX2                !
 ! A9    A(3,2,11)             109.438          estimate D2E/DX2                !
 ! A10   A(2,3,4)              112.0599         estimate D2E/DX2                !
 ! A11   A(2,3,12)             107.7128         estimate D2E/DX2                !
 ! A12   A(2,3,13)             110.0786         estimate D2E/DX2                !
 ! A13   A(4,3,12)             109.5688         estimate D2E/DX2                !
 ! A14   A(4,3,13)             109.1832         estimate D2E/DX2                !
 ! A15   A(12,3,13)            108.1511         estimate D2E/DX2                !
 ! A16   A(3,4,5)              112.4726         estimate D2E/DX2                !
 ! A17   A(3,4,14)             107.9846         estimate D2E/DX2                !
 ! A18   A(3,4,15)             109.8582         estimate D2E/DX2                !
 ! A19   A(5,4,14)             108.6308         estimate D2E/DX2                !
 ! A20   A(5,4,15)             110.7147         estimate D2E/DX2                !
 ! A21   A(14,4,15)            106.9816         estimate D2E/DX2                !
 ! A22   A(4,5,6)              112.0945         estimate D2E/DX2                !
 ! A23   A(4,5,7)              109.7534         estimate D2E/DX2                !
 ! A24   A(6,5,7)              108.1843         estimate D2E/DX2                !
 ! A25   A(5,6,16)             111.4076         estimate D2E/DX2                !
 ! A26   A(5,6,17)             110.7093         estimate D2E/DX2                !
 ! A27   A(5,6,18)             111.9393         estimate D2E/DX2                !
 ! A28   A(16,6,17)            105.5085         estimate D2E/DX2                !
 ! A29   A(16,6,18)            108.4518         estimate D2E/DX2                !
 ! A30   A(17,6,18)            108.5724         estimate D2E/DX2                !
 ! A31   A(5,7,19)             111.2095         estimate D2E/DX2                !
 ! A32   A(5,7,20)             112.1443         estimate D2E/DX2                !
 ! A33   A(19,7,20)            106.6014         estimate D2E/DX2                !
 ! D1    D(8,1,2,3)           -178.8951         estimate D2E/DX2                !
 ! D2    D(8,1,2,11)            61.2115         estimate D2E/DX2                !
 ! D3    D(9,1,2,3)             61.3436         estimate D2E/DX2                !
 ! D4    D(9,1,2,11)           -58.5498         estimate D2E/DX2                !
 ! D5    D(10,1,2,3)           -60.0979         estimate D2E/DX2                !
 ! D6    D(10,1,2,11)         -179.9913         estimate D2E/DX2                !
 ! D7    D(1,2,3,4)            177.8682         estimate D2E/DX2                !
 ! D8    D(1,2,3,12)            57.2836         estimate D2E/DX2                !
 ! D9    D(1,2,3,13)           -60.4222         estimate D2E/DX2                !
 ! D10   D(11,2,3,4)           -62.2305         estimate D2E/DX2                !
 ! D11   D(11,2,3,12)          177.1849         estimate D2E/DX2                !
 ! D12   D(11,2,3,13)           59.479          estimate D2E/DX2                !
 ! D13   D(2,3,4,5)            179.3227         estimate D2E/DX2                !
 ! D14   D(2,3,4,14)            59.4705         estimate D2E/DX2                !
 ! D15   D(2,3,4,15)           -56.8713         estimate D2E/DX2                !
 ! D16   D(12,3,4,5)           -61.1754         estimate D2E/DX2                !
 ! D17   D(12,3,4,14)          178.9725         estimate D2E/DX2                !
 ! D18   D(12,3,4,15)           62.6306         estimate D2E/DX2                !
 ! D19   D(13,3,4,5)            57.1013         estimate D2E/DX2                !
 ! D20   D(13,3,4,14)          -62.7509         estimate D2E/DX2                !
 ! D21   D(13,3,4,15)         -179.0927         estimate D2E/DX2                !
 ! D22   D(3,4,5,6)             62.3629         estimate D2E/DX2                !
 ! D23   D(3,4,5,7)           -177.3958         estimate D2E/DX2                !
 ! D24   D(14,4,5,6)          -178.1603         estimate D2E/DX2                !
 ! D25   D(14,4,5,7)           -57.919          estimate D2E/DX2                !
 ! D26   D(15,4,5,6)           -60.9659         estimate D2E/DX2                !
 ! D27   D(15,4,5,7)            59.2754         estimate D2E/DX2                !
 ! D28   D(4,5,6,16)           -64.797          estimate D2E/DX2                !
 ! D29   D(4,5,6,17)           178.122          estimate D2E/DX2                !
 ! D30   D(4,5,6,18)            56.8322         estimate D2E/DX2                !
 ! D31   D(7,5,6,16)           174.0532         estimate D2E/DX2                !
 ! D32   D(7,5,6,17)            56.9722         estimate D2E/DX2                !
 ! D33   D(7,5,6,18)           -64.3177         estimate D2E/DX2                !
 ! D34   D(4,5,7,19)            61.796          estimate D2E/DX2                !
 ! D35   D(4,5,7,20)           -57.466          estimate D2E/DX2                !
 ! D36   D(6,5,7,19)          -175.6143         estimate D2E/DX2                !
 ! D37   D(6,5,7,20)            65.1237         estimate D2E/DX2                !
 --------------------------------------------------------------------------------
 Trust Radius=3.00D-01 FncErr=1.00D-07 GrdErr=1.00D-06 EigMax=2.50D+02 EigMin=1.00D-04
 Number of steps in this run=     99 maximum allowed number of steps=    120.
 GradGradGradGradGradGradGradGradGradGradGradGradGradGradGradGradGradGrad

                          Input orientation:                          
 ---------------------------------------------------------------------
 Center     Atomic      Atomic             Coordinates (Angstroms)
 Number     Number       Type             X           Y           Z
 ---------------------------------------------------------------------
      1          6           0        0.936450   -0.050780    0.016790
      2          7           0        2.395480   -0.037230    0.010050
      3          6           0        2.888570    0.049320    1.390900
      4          6           0        4.428280    0.014840    1.459110
      5          7           0        4.935680    0.117670    2.845940
      6          6           0        4.501050   -1.011120    3.678120
      7          7           0        6.385340    0.141310    2.836850
      8          1           0        0.564400   -0.134940   -1.007720
      9          1           0        0.533780    0.868620    0.454270
     10          1           0        0.553470   -0.908680    0.579640
     11          1           0        2.724550    0.768250   -0.518280
     12          1           0        2.478160   -0.800120    1.944720
     13          1           0        2.527310    0.971770    1.862800
     14          1           0        4.812750    0.866510    0.880510
     15          1           0        4.802850   -0.897090    0.975010
     16          1           0        3.414470   -1.016930    3.807400
     17          1           0        4.915890   -0.929620    4.688880
     18          1           0        4.805060   -1.974810    3.252500
     19          1           0        6.738250    0.953330    2.328940
     20          1           0        6.781870   -0.684480    2.379930
 ---------------------------------------------------------------------
                    Distance matrix (angstroms):
                    1          2          3          4          5
     1  C    0.000000
     2  N    1.459108   0.000000
     3  C    2.389345   1.468801   0.000000
     4  C    3.778554   2.496951   1.541606   0.000000
     5  N    4.901664   3.810365   2.512463   1.480313   0.000000
     6  C    5.199420   4.340118   2.992658   2.445791   1.468194
     7  N    6.138407   4.893021   3.785054   2.396716   1.449881
     8  H    1.093218   2.097202   3.345011   4.586639   5.832889
     9  H    1.094910   2.117504   2.663375   4.111663   5.065643
    10  H    1.095201   2.115859   2.651150   4.079278   5.039174
    11  H    2.038237   1.017948   2.046639   2.716688   4.078030
    12  H    2.579786   2.081294   1.093938   2.168627   2.773795
    13  H    2.642763   2.113798   1.097321   2.166187   2.737937
    14  H    4.075921   2.723535   2.151921   1.099062   2.106843
    15  H    4.072281   2.732387   2.175574   1.098304   2.132548
    16  H    4.630632   4.051916   2.693127   2.758047   2.127393
    17  H    6.199736   5.388903   3.993122   3.400174   2.119820
    18  H    5.397949   4.480377   3.351953   2.704980   2.135609
    19  H    6.325754   5.021764   4.064134   2.640706   2.053016
    20  H    6.336793   5.027493   4.083433   2.622278   2.066162
                    6          7          8          9         10
     6  C    0.000000
     7  N    2.363552   0.000000
     8  H    6.182394   6.981431   0.000000
     9  H    5.446638   6.359750   1.773552   0.000000
    10  H    5.019408   6.340992   1.765929   1.781825   0.000000
    11  H    4.892022   5.005131   2.391977   2.399042   2.954845
    12  H    2.672317   4.116824   3.580760   2.964245   2.362130
    13  H    3.335100   4.064829   3.649343   2.443104   3.013078
    14  H    3.383677   2.612704   4.755712   4.300148   4.624207
    15  H    2.722295   2.654995   4.740944   4.649071   4.267749
    16  H    1.094259   3.333100   5.664467   4.805950   4.314565
    17  H    1.095614   2.595417   7.212367   6.353619   5.993079
    18  H    1.096482   2.673577   6.286318   5.844572   5.133890
    19  H    3.268702   1.020732   7.101694   6.482053   6.691684
    20  H    2.644642   1.023690   7.101767   6.720038   6.487239
                   11         12         13         14         15
    11  H    0.000000
    12  H    2.930335   0.000000
    13  H    2.397888   1.774464   0.000000
    14  H    2.515323   3.059495   2.489821   0.000000
    15  H    3.053294   2.520699   3.075531   1.766158   0.000000
    16  H    4.730155   2.096010   2.919495   3.750896   3.156643
    17  H    5.899089   3.672834   4.160208   4.211936   3.715732
    18  H    5.106044   2.916273   3.975141   3.701283   2.519612
    19  H    4.924500   4.622832   4.236702   2.411024   3.000492
    20  H    5.193447   4.327205   4.594765   2.920833   2.436293
                   16         17         18         19         20
    16  H    0.000000
    17  H    1.743242   0.000000
    18  H    1.777411   1.779858   0.000000
    19  H    4.137062   3.526445   3.628249   0.000000
    20  H    3.672544   2.978796   2.516765   1.639184   0.000000
 Stoichiometry    C4H13N3
 Framework group  C1[X(C4H13N3)]
 Deg. of freedom    54
 Full point group                 C1      NOp   1
 Largest Abelian subgroup         C1      NOp   1
 Largest concise Abelian subgroup C1      NOp   1
                         Standard orientation:                         
 ---------------------------------------------------------------------
 Center     Atomic      Atomic             Coordinates (Angstroms)
 Number     Number       Type             X           Y           Z
 ---------------------------------------------------------------------
      1          6           0       -3.297915    0.265689   -0.041917
      2          7           0       -2.119552   -0.521743    0.305082
      3          6           0       -0.918889    0.138644   -0.223757
      4          6           0        0.371020   -0.616374    0.153906
      5          7           0        1.585951    0.032779   -0.388192
      6          6           0        1.775827    1.385724    0.149470
      7          7           0        2.754837   -0.756142   -0.051347
      8          1           0       -4.192762   -0.211425    0.366416
      9          1           0       -3.415703    0.345034   -1.127578
     10          1           0       -3.236897    1.273351    0.382772
     11          1           0       -2.201504   -1.451513   -0.101157
     12          1           0       -0.885805    1.150542    0.190573
     13          1           0       -0.983184    0.218531   -1.316276
     14          1           0        0.302341   -1.632842   -0.258421
     15          1           0        0.438461   -0.716899    1.245518
     16          1           0        0.970513    2.056861   -0.164294
     17          1           0        2.697484    1.831746   -0.240380
     18          1           0        1.822773    1.388363    1.244944
     19          1           0        2.703793   -1.687470   -0.465977
     20          1           0        2.851584   -0.890630    0.958849
 ---------------------------------------------------------------------
 Rotational constants (GHZ):           6.7766148           1.0729666           0.9701188
 Standard basis: 6-31G(2df,p) (6D, 7F)
 There are   282 symmetry adapted cartesian basis functions of A   symmetry.
 There are   261 symmetry adapted basis functions of A   symmetry.
   261 basis functions,   399 primitive gaussians,   282 cartesian basis functions
    29 alpha electrons       29 beta electrons
       nuclear repulsion energy       327.6774873460 Hartrees.
 NAtoms=   20 NActive=   20 NUniq=   20 SFac= 1.00D+00 NAtFMM=   60 NAOKFM=F Big=F
 Integral buffers will be    131072 words long.
 Raffenetti 2 integral format.
 Two-electron integral symmetry is turned on.
 One-electron integrals computed using PRISM.
 PrsmSu:  requested number of processors reduced to:  13 ShMem   1 Linda.
 NBasis=   261 RedAO= T EigKep=  3.26D-04  NBF=   261
 NBsUse=   261 1.00D-06 EigRej= -1.00D+00 NBFU=   261
 ExpMin= 1.61D-01 ExpMax= 4.17D+03 ExpMxC= 6.27D+02 IAcc=3 IRadAn=         5 AccDes= 0.00D+00
 Harris functional with IExCor=  402 and IRadAn=       5 diagonalized for initial guess.
 HarFok:  IExCor=  402 AccDes= 0.00D+00 IRadAn=         5 IDoV= 1 UseB2=F ITyADJ=14
 ICtDFT=  3500011 ScaDFX=  1.000000  1.000000  1.000000  1.000000
 FoFCou: FMM=F IPFlag=           0 FMFlag=      100000 FMFlg1=           0
         NFxFlg=           0 DoJE=T BraDBF=F KetDBF=T FulRan=T
         wScrn=  0.000000 ICntrl=       500 IOpCl=  0 I1Cent=   200000004 NGrid=           0
         NMat0=    1 NMatS0=      1 NMatT0=    0 NMatD0=    1 NMtDS0=    0 NMtDT0=    0
 Petite list used in FoFCou.
 Requested convergence on RMS density matrix=1.00D-08 within 128 cycles.
 Requested convergence on MAX density matrix=1.00D-06.
 Requested convergence on             energy=1.00D-06.
 No special actions if energy rises.
 Integral accuracy reduced to 1.0D-05 until final iterations.
 Initial convergence to 1.0D-05 achieved.  Increase integral accuracy.
 SCF Done:  E(RB3LYP) =  -324.469641930     A.U. after   12 cycles
            NFock= 12  Conv=0.41D-08     -V/T= 2.0083

 **********************************************************************

            Population analysis using the SCF density.

 **********************************************************************

 Orbital symmetries:
       Occupied  (A) (A) (A) (A) (A) (A) (A) (A) (A) (A) (A) (A)
                 (A) (A) (A) (A) (A) (A) (A) (A) (A) (A) (A) (A)
                 (A) (A) (A) (A) (A)
       Virtual   (A) (A) (A) (A) (A) (A) (A) (A) (A) (A) (A) (A)
                 (A) (A) (A) (A) (A) (A) (A) (A) (A) (A) (A) (A)
                 (A) (A) (A) (A) (A) (A) (A) (A) (A) (A) (A) (A)
                 (A) (A) (A) (A) (A) (A) (A) (A) (A) (A) (A) (A)
                 (A) (A) (A) (A) (A) (A) (A) (A) (A) (A) (A) (A)
                 (A) (A) (A) (A) (A) (A) (A) (A) (A) (A) (A) (A)
                 (A) (A) (A) (A) (A) (A) (A) (A) (A) (A) (A) (A)
                 (A) (A) (A) (A) (A) (A) (A) (A) (A) (A) (A) (A)
                 (A) (A) (A) (A) (A) (A) (A) (A) (A) (A) (A) (A)
                 (A) (A) (A) (A) (A) (A) (A) (A) (A) (A) (A) (A)
                 (A) (A) (A) (A) (A) (A) (A) (A) (A) (A) (A) (A)
                 (A) (A) (A) (A) (A) (A) (A) (A) (A) (A) (A) (A)
                 (A) (A) (A) (A) (A) (A) (A) (A) (A) (A) (A) (A)
                 (A) (A) (A) (A) (A) (A) (A) (A) (A) (A) (A) (A)
                 (A) (A) (A) (A) (A) (A) (A) (A) (A) (A) (A) (A)
                 (A) (A) (A) (A) (A) (A) (A) (A) (A) (A) (A) (A)
                 (A) (A) (A) (A) (A) (A) (A) (A) (A) (A) (A) (A)
                 (A) (A) (A) (A) (A) (A) (A) (A) (A) (A) (A) (A)
                 (A) (A) (A) (A) (A) (A) (A) (A) (A) (A) (A) (A)
                 (A) (A) (A) (A)
 The electronic state is 1-A.
 Alpha  occ. eigenvalues --  -14.34505 -14.32798 -14.31122 -10.20154 -10.20094
 Alpha  occ. eigenvalues --  -10.19699 -10.19647  -0.95458  -0.89676  -0.78960
 Alpha  occ. eigenvalues --   -0.72806  -0.66772  -0.62891  -0.58586  -0.49773
 Alpha  occ. eigenvalues --   -0.48534  -0.47956  -0.44798  -0.42901  -0.42341
 Alpha  occ. eigenvalues --   -0.40599  -0.39273  -0.36738  -0.36483  -0.35356
 Alpha  occ. eigenvalues --   -0.34047  -0.25274  -0.22189  -0.20830
 Alpha virt. eigenvalues --    0.07910   0.08221   0.10970   0.11902   0.13678
 Alpha virt. eigenvalues --    0.14039   0.15741   0.16408   0.16640   0.17847
 Alpha virt. eigenvalues --    0.19162   0.19414   0.20013   0.21663   0.22015
 Alpha virt. eigenvalues --    0.23980   0.24905   0.27013   0.28555   0.44599
 Alpha virt. eigenvalues --    0.46226   0.46999   0.47804   0.49288   0.52334
 Alpha virt. eigenvalues --    0.52551   0.55302   0.56855   0.58009   0.60278
 Alpha virt. eigenvalues --    0.63367   0.65600   0.65725   0.68668   0.69880
 Alpha virt. eigenvalues --    0.70924   0.71554   0.72939   0.73322   0.74014
 Alpha virt. eigenvalues --    0.74719   0.75280   0.75414   0.76978   0.77572
 Alpha virt. eigenvalues --    0.81531   0.82357   0.83924   0.84769   0.84834
 Alpha virt. eigenvalues --    0.86336   0.88222   0.88465   0.88671   0.90943
 Alpha virt. eigenvalues --    0.92379   0.95782   1.01219   1.09779   1.12836
 Alpha virt. eigenvalues --    1.16985   1.17490   1.21914   1.22996   1.24490
 Alpha virt. eigenvalues --    1.29079   1.31183   1.34579   1.35118   1.41307
 Alpha virt. eigenvalues --    1.42633   1.46116   1.47187   1.49846   1.50336
 Alpha virt. eigenvalues --    1.54901   1.57302   1.58615   1.63352   1.63998
 Alpha virt. eigenvalues --    1.65842   1.68041   1.73901   1.75006   1.76890
 Alpha virt. eigenvalues --    1.79388   1.83139   1.85316   1.89288   1.93030
 Alpha virt. eigenvalues --    1.94967   1.97651   1.99065   1.99930   2.03745
 Alpha virt. eigenvalues --    2.05659   2.10090   2.16505   2.20371   2.26339
 Alpha virt. eigenvalues --    2.27525   2.29404   2.31081   2.36658   2.38952
 Alpha virt. eigenvalues --    2.42641   2.43488   2.48090   2.52839   2.54033
 Alpha virt. eigenvalues --    2.56030   2.59750   2.60897   2.71430   2.72933
 Alpha virt. eigenvalues --    2.75359   2.77083   2.78680   2.81871   2.82858
 Alpha virt. eigenvalues --    2.83919   2.85482   2.87193   2.88362   2.90148
 Alpha virt. eigenvalues --    2.92163   2.92728   2.94487   2.96310   2.98525
 Alpha virt. eigenvalues --    2.98998   3.03126   3.05400   3.06470   3.10841
 Alpha virt. eigenvalues --    3.13772   3.18454   3.21538   3.25125   3.28982
 Alpha virt. eigenvalues --    3.29810   3.32150   3.38440   3.40644   3.42821
 Alpha virt. eigenvalues --    3.44916   3.46805   3.51093   3.53096   3.60797
 Alpha virt. eigenvalues --    3.64130   3.65353   3.66555   3.67025   3.68442
 Alpha virt. eigenvalues --    3.71236   3.73025   3.75780   3.77632   3.81021
 Alpha virt. eigenvalues --    3.86765   3.90077   3.92875   3.98562   4.01103
 Alpha virt. eigenvalues --    4.07646   4.08552   4.11704   4.14530   4.23539
 Alpha virt. eigenvalues --    4.23988   4.28188   4.32480   4.35025   4.35801
 Alpha virt. eigenvalues --    4.37146   4.40617   4.42911   4.44120   4.46150
 Alpha virt. eigenvalues --    4.47584   4.48976   4.51071   4.53773   4.54533
 Alpha virt. eigenvalues --    4.55458   4.57431   4.59903   4.61592   4.63819
 Alpha virt. eigenvalues --    4.67705   4.68581   4.70253   4.71307   4.73488
 Alpha virt. eigenvalues --    4.74988   4.78567   4.80505   4.81620   4.85613
 Alpha virt. eigenvalues --    4.86843   4.89274   4.93093   4.95389   4.97095
 Alpha virt. eigenvalues --    5.00406   5.02033   5.05466   5.11416   5.13273
 Alpha virt. eigenvalues --    5.15485   5.16971   5.26329   5.27337   5.33665
 Alpha virt. eigenvalues --    5.40005   5.42499   5.44875   5.46988   5.51499
 Alpha virt. eigenvalues --    5.57818   5.82431   8.41795  10.45259  11.17263
 Alpha virt. eigenvalues --   11.45365  11.47517  11.56631  11.60278  12.02081
 Alpha virt. eigenvalues --   12.59457  15.45739
          Condensed to atoms (all electrons):
               1          2          3          4          5          6
     1  C    4.910370   0.388150  -0.071298   0.002711  -0.000082   0.000011
     2  N    0.388150   6.364066   0.381610  -0.029107   0.001158   0.000142
     3  C   -0.071298   0.381610   4.871686   0.393580  -0.036038  -0.003818
     4  C    0.002711  -0.029107   0.393580   4.926740   0.379002  -0.074077
     5  N   -0.000082   0.001158  -0.036038   0.379002   6.255215   0.396631
     6  C    0.000011   0.000142  -0.003818  -0.074077   0.396631   4.924221
     7  N    0.000001  -0.000036   0.005133  -0.075269   0.326049  -0.053332
     8  H    0.378637  -0.023645   0.004522  -0.000215   0.000000  -0.000000
     9  H    0.368245  -0.045929  -0.002431   0.000047   0.000018   0.000002
    10  H    0.380801  -0.024198  -0.005363   0.000311  -0.000001  -0.000011
    11  H   -0.045930   0.343629  -0.051668  -0.000433  -0.000100  -0.000004
    12  H   -0.004523  -0.021892   0.355956  -0.023941  -0.003847   0.000865
    13  H   -0.002100  -0.047715   0.355354  -0.040501   0.007687   0.000015
    14  H    0.000021  -0.002456  -0.024033   0.350431  -0.021044   0.005412
    15  H    0.000185   0.006048  -0.032794   0.328950  -0.044410  -0.007831
    16  H   -0.000007   0.000114  -0.002441   0.000025  -0.025318   0.379972
    17  H   -0.000000  -0.000003   0.000035   0.005474  -0.020459   0.376067
    18  H    0.000003   0.000031  -0.000878  -0.006876  -0.044679   0.353197
    19  H    0.000000  -0.000002   0.000115  -0.001959  -0.037929   0.005488
    20  H    0.000000   0.000011   0.000009  -0.006496  -0.057842  -0.007239
               7          8          9         10         11         12
     1  C    0.000001   0.378637   0.368245   0.380801  -0.045930  -0.004523
     2  N   -0.000036  -0.023645  -0.045929  -0.024198   0.343629  -0.021892
     3  C    0.005133   0.004522  -0.002431  -0.005363  -0.051668   0.355956
     4  C   -0.075269  -0.000215   0.000047   0.000311  -0.000433  -0.023941
     5  N    0.326049   0.000000   0.000018  -0.000001  -0.000100  -0.003847
     6  C   -0.053332  -0.000000   0.000002  -0.000011  -0.000004   0.000865
     7  N    6.608139  -0.000000   0.000000   0.000000  -0.000002  -0.000000
     8  H   -0.000000   0.597516  -0.040262  -0.029206  -0.001373   0.000167
     9  H    0.000000  -0.040262   0.664101  -0.043699  -0.006360  -0.002028
    10  H    0.000000  -0.029206  -0.043699   0.586695   0.005992   0.007198
    11  H   -0.000002  -0.001373  -0.006360   0.005992   0.537669   0.007008
    12  H   -0.000000   0.000167  -0.002028   0.007198   0.007008   0.629434
    13  H    0.000121  -0.000240   0.013884  -0.001667  -0.007060  -0.052549
    14  H   -0.000499   0.000010  -0.000018   0.000010   0.004718   0.005956
    15  H    0.002033   0.000004   0.000031  -0.000017  -0.000545  -0.006052
    16  H    0.003158  -0.000000   0.000007  -0.000015  -0.000002   0.002028
    17  H    0.003634   0.000000  -0.000000   0.000000   0.000000  -0.000173
    18  H   -0.002866   0.000000  -0.000000   0.000001   0.000002   0.000690
    19  H    0.342352   0.000000   0.000000  -0.000000   0.000000   0.000009
    20  H    0.315262   0.000000  -0.000000   0.000000   0.000001   0.000007
              13         14         15         16         17         18
     1  C   -0.002100   0.000021   0.000185  -0.000007  -0.000000   0.000003
     2  N   -0.047715  -0.002456   0.006048   0.000114  -0.000003   0.000031
     3  C    0.355354  -0.024033  -0.032794  -0.002441   0.000035  -0.000878
     4  C   -0.040501   0.350431   0.328950   0.000025   0.005474  -0.006876
     5  N    0.007687  -0.021044  -0.044410  -0.025318  -0.020459  -0.044679
     6  C    0.000015   0.005412  -0.007831   0.379972   0.376067   0.353197
     7  N    0.000121  -0.000499   0.002033   0.003158   0.003634  -0.002866
     8  H   -0.000240   0.000010   0.000004  -0.000000   0.000000   0.000000
     9  H    0.013884  -0.000018   0.000031   0.000007  -0.000000  -0.000000
    10  H   -0.001667   0.000010  -0.000017  -0.000015   0.000000   0.000001
    11  H   -0.007060   0.004718  -0.000545  -0.000002   0.000000   0.000002
    12  H   -0.052549   0.005956  -0.006052   0.002028  -0.000173   0.000690
    13  H    0.685448  -0.006936   0.007524   0.000760  -0.000074   0.000252
    14  H   -0.006936   0.648042  -0.050827   0.000007  -0.000204  -0.000245
    15  H    0.007524  -0.050827   0.687491  -0.000775  -0.000366   0.014355
    16  H    0.000760   0.000007  -0.000775   0.586573  -0.027154  -0.042583
    17  H   -0.000074  -0.000204  -0.000366  -0.027154   0.572905  -0.040655
    18  H    0.000252  -0.000245   0.014355  -0.042583  -0.040655   0.667044
    19  H   -0.000002   0.005466  -0.000540  -0.000257  -0.000006  -0.000198
    20  H    0.000044  -0.000869   0.014965  -0.000544  -0.001458   0.012857
              19         20
     1  C    0.000000   0.000000
     2  N   -0.000002   0.000011
     3  C    0.000115   0.000009
     4  C   -0.001959  -0.006496
     5  N   -0.037929  -0.057842
     6  C    0.005488  -0.007239
     7  N    0.342352   0.315262
     8  H    0.000000   0.000000
     9  H    0.000000  -0.000000
    10  H   -0.000000   0.000000
    11  H    0.000000   0.000001
    12  H    0.000009   0.000007
    13  H   -0.000002   0.000044
    14  H    0.005466  -0.000869
    15  H   -0.000540   0.014965
    16  H   -0.000257  -0.000544
    17  H   -0.000006  -0.001458
    18  H   -0.000198   0.012857
    19  H    0.490566  -0.040490
    20  H   -0.040490   0.563376
 Mulliken charges:
               1
     1  C   -0.305194
     2  N   -0.289978
     3  C   -0.137238
     4  C   -0.128397
     5  N   -0.074012
     6  C   -0.295710
     7  N   -0.473876
     8  H    0.114086
     9  H    0.094392
    10  H    0.123170
    11  H    0.214458
    12  H    0.105688
    13  H    0.087755
    14  H    0.087058
    15  H    0.082569
    16  H    0.126452
    17  H    0.132438
    18  H    0.090548
    19  H    0.237387
    20  H    0.208406
 Sum of Mulliken charges =  -0.00000
 Mulliken charges with hydrogens summed into heavy atoms:
               1
     1  C    0.026453
     2  N   -0.075520
     3  C    0.056204
     4  C    0.041231
     5  N   -0.074012
     6  C    0.053728
     7  N   -0.028083
 Electronic spatial extent (au):  <R**2>=           1235.8456
 Charge=             -0.0000 electrons
 Dipole moment (field-independent basis, Debye):
    X=             -1.0305    Y=             -0.6870    Z=              0.2488  Tot=              1.2633
 Quadrupole moment (field-independent basis, Debye-Ang):
   XX=            -48.2625   YY=            -40.1906   ZZ=            -47.7139
   XY=             -1.3287   XZ=              4.9754   YZ=              1.3739
 Traceless Quadrupole moment (field-independent basis, Debye-Ang):
   XX=             -2.8735   YY=              5.1984   ZZ=             -2.3249
   XY=             -1.3287   XZ=              4.9754   YZ=              1.3739
 Octapole moment (field-independent basis, Debye-Ang**2):
  XXX=            -21.6675  YYY=             -8.7111  ZZZ=              0.4609  XYY=              6.9592
  XXY=             -7.2386  XXZ=              4.9596  XZZ=              4.6435  YZZ=             -1.6567
  YYZ=             -2.5974  XYZ=             -3.1318
 Hexadecapole moment (field-independent basis, Debye-Ang**3):
 XXXX=          -1342.0576 YYYY=           -219.9519 ZZZZ=            -93.7959 XXXY=             -2.8656
 XXXZ=             19.3652 YYYX=             -8.4949 YYYZ=              4.1194 ZZZX=              7.1646
 ZZZY=              1.0349 XXYY=           -222.2506 XXZZ=           -234.5284 YYZZ=            -55.1768
 XXYZ=              2.2540 YYXZ=             -4.3374 ZZXY=             -5.8385
 N-N= 3.276774873460D+02 E-N=-1.409164718717D+03  KE= 3.218086148848D+02
 PrsmSu:  requested number of processors reduced to:  13 ShMem   1 Linda.
 Calling FoFJK, ICntrl=      2127 FMM=F ISym2X=0 I1Cent= 0 IOpClX= 0 NMat=1 NMatS=1 NMatT=0.
 ***** Axes restored to original set *****
 -------------------------------------------------------------------
 Center     Atomic                   Forces (Hartrees/Bohr)
 Number     Number              X              Y              Z
 -------------------------------------------------------------------
      1        6           0.003612740    0.003656992   -0.009224203
      2        7           0.003142119   -0.009804826    0.007353345
      3        6           0.007690494    0.002451777   -0.008972772
      4        6          -0.009662883    0.001148215    0.006123997
      5        7           0.009623371    0.001275193   -0.012204550
      6        6           0.002569395    0.007906098    0.004294048
      7        7          -0.002430819   -0.000291627    0.013116186
      8        1          -0.000980029    0.000125531   -0.000901474
      9        1          -0.007532384    0.002343762    0.003555024
     10        1           0.002393690    0.000327205    0.000566004
     11        1          -0.001369597   -0.001583356    0.001439048
     12        1          -0.001660855    0.000504828   -0.001315407
     13        1           0.000114632    0.001726665    0.007843605
     14        1           0.001999599   -0.000442559    0.003220807
     15        1          -0.000046183   -0.004198162   -0.002735804
     16        1           0.001157366    0.001918624   -0.004229801
     17        1           0.004205710    0.002496609   -0.004280086
     18        1           0.001077555   -0.005918755   -0.001401033
     19        1          -0.009527104   -0.001680146    0.002179441
     20        1          -0.004376817   -0.001962069   -0.004426376
 -------------------------------------------------------------------
 Cartesian Forces:  Max     0.013116186 RMS     0.005001106

 GradGradGradGradGradGradGradGradGradGradGradGradGradGradGradGradGradGrad
 Berny optimization.
 FormGI is forming the generalized inverse of G from B-inverse, IUseBI=4.
 Internal  Forces:  Max     0.016464547 RMS     0.004431843
 Search for a local minimum.
 Step number   1 out of a maximum of   99
 All quantities printed in internal units (Hartrees-Bohrs-Radians)
 Mixed Optimization -- RFO/linear search
 Second derivative matrix not updated -- first step.
 ITU=  0
     Eigenvalues ---    0.00230   0.00629   0.00635   0.00782   0.00790
     Eigenvalues ---    0.00910   0.03111   0.03197   0.04037   0.04182
     Eigenvalues ---    0.04977   0.05409   0.05413   0.07036   0.07269
     Eigenvalues ---    0.07317   0.07502   0.09294   0.09296   0.10526
     Eigenvalues ---    0.12764   0.12819   0.16000   0.16000   0.16000
     Eigenvalues ---    0.16000   0.16000   0.16000   0.16000   0.16000
     Eigenvalues ---    0.16850   0.17759   0.21954   0.21988   0.23451
     Eigenvalues ---    0.28377   0.33786   0.33870   0.33980   0.34074
     Eigenvalues ---    0.34172   0.34218   0.34251   0.34325   0.34361
     Eigenvalues ---    0.34443   0.34534   0.35884   0.35957   0.37076
     Eigenvalues ---    0.38261   0.43755   0.44221   0.44667
 RFO step:  Lambda=-1.00346433D-02 EMin= 2.30000000D-03
 Linear search not attempted -- first point.
 Iteration  1 RMS(Cart)=  0.09847706 RMS(Int)=  0.00369743
 Iteration  2 RMS(Cart)=  0.00486911 RMS(Int)=  0.00104408
 Iteration  3 RMS(Cart)=  0.00001591 RMS(Int)=  0.00104402
 Iteration  4 RMS(Cart)=  0.00000010 RMS(Int)=  0.00104402
 Variable       Old X    -DE/DX   Delta X   Delta X   Delta X     New X
                                 (Linear)    (Quad)   (Total)
    R1        2.75732   0.00242   0.00000   0.00635   0.00635   2.76367
    R2        2.06588   0.00117   0.00000   0.00330   0.00330   2.06918
    R3        2.06908   0.00616   0.00000   0.01747   0.01747   2.08655
    R4        2.06963  -0.00080   0.00000  -0.00228  -0.00228   2.06735
    R5        2.77563  -0.00208   0.00000  -0.00565  -0.00565   2.76998
    R6        1.92364  -0.00244   0.00000  -0.00535  -0.00535   1.91829
    R7        2.91321  -0.00543   0.00000  -0.01847  -0.01847   2.89475
    R8        2.06724  -0.00043   0.00000  -0.00123  -0.00123   2.06601
    R9        2.07364   0.00479   0.00000   0.01368   0.01368   2.08732
   R10        2.79739  -0.00546   0.00000  -0.01537  -0.01537   2.78201
   R11        2.07693  -0.00134   0.00000  -0.00385  -0.00385   2.07308
   R12        2.07549   0.00468   0.00000   0.01341   0.01341   2.08890
   R13        2.77448  -0.01077   0.00000  -0.02915  -0.02915   2.74533
   R14        2.73988  -0.01646   0.00000  -0.04193  -0.04193   2.69795
   R15        2.06785  -0.00166   0.00000  -0.00470  -0.00470   2.06315
   R16        2.07041  -0.00217   0.00000  -0.00617  -0.00617   2.06424
   R17        2.07205   0.00604   0.00000   0.01723   0.01723   2.08928
   R18        1.92890  -0.00571   0.00000  -0.01264  -0.01264   1.91627
   R19        1.93449   0.00186   0.00000   0.00416   0.00416   1.93866
    A1        1.91420   0.00052   0.00000   0.00543   0.00485   1.91905
    A2        1.94099   0.00907   0.00000   0.05704   0.05686   1.99785
    A3        1.93833  -0.00566   0.00000  -0.03935  -0.03915   1.89919
    A4        1.89013  -0.00239   0.00000  -0.00223  -0.00307   1.88706
    A5        1.87791   0.00097   0.00000  -0.00175  -0.00195   1.87596
    A6        1.90056  -0.00272   0.00000  -0.02033  -0.01980   1.88076
    A7        1.90911   0.01294   0.00000   0.05219   0.05232   1.96143
    A8        1.91028  -0.00422   0.00000  -0.01950  -0.01932   1.89096
    A9        1.91005  -0.00407   0.00000  -0.01812  -0.01791   1.89214
   A10        1.95581  -0.00724   0.00000  -0.02946  -0.02944   1.92637
   A11        1.87994  -0.00008   0.00000  -0.01316  -0.01321   1.86673
   A12        1.92123   0.00667   0.00000   0.05329   0.05339   1.97462
   A13        1.91234   0.00386   0.00000   0.01282   0.01252   1.92486
   A14        1.90561  -0.00084   0.00000  -0.00718  -0.00691   1.89869
   A15        1.88759  -0.00220   0.00000  -0.01605  -0.01599   1.87160
   A16        1.96302   0.00612   0.00000   0.02789   0.02767   1.99069
   A17        1.88469   0.00039   0.00000  -0.00018   0.00008   1.88477
   A18        1.91739  -0.00294   0.00000  -0.00398  -0.00454   1.91284
   A19        1.89597  -0.00536   0.00000  -0.04656  -0.04637   1.84960
   A20        1.93234   0.00042   0.00000   0.01918   0.01887   1.95121
   A21        1.86718   0.00111   0.00000   0.00122   0.00134   1.86852
   A22        1.95642   0.00346   0.00000   0.01916   0.01940   1.97582
   A23        1.91556   0.00432   0.00000   0.02565   0.02588   1.94144
   A24        1.88817  -0.00713   0.00000  -0.03812  -0.03831   1.84986
   A25        1.94443  -0.00442   0.00000  -0.02375  -0.02385   1.92058
   A26        1.93224  -0.00685   0.00000  -0.04086  -0.04097   1.89127
   A27        1.95371   0.00354   0.00000   0.01911   0.01920   1.97291
   A28        1.84147   0.00642   0.00000   0.04116   0.04082   1.88229
   A29        1.89284   0.00067   0.00000   0.00489   0.00498   1.89782
   A30        1.89495   0.00100   0.00000   0.00173   0.00182   1.89676
   A31        1.94097  -0.01243   0.00000  -0.09156  -0.09437   1.84660
   A32        1.95729  -0.00758   0.00000  -0.06273  -0.06535   1.89193
   A33        1.86055   0.00573   0.00000  -0.00056  -0.00721   1.85334
    D1       -3.12231   0.00132   0.00000  -0.00981  -0.00961  -3.13192
    D2        1.06834   0.00098   0.00000  -0.00760  -0.00732   1.06102
    D3        1.07065  -0.00179   0.00000  -0.04672  -0.04729   1.02336
    D4       -1.02189  -0.00214   0.00000  -0.04451  -0.04500  -1.06688
    D5       -1.04891  -0.00066   0.00000  -0.03291  -0.03266  -1.08157
    D6       -3.14144  -0.00100   0.00000  -0.03070  -0.03037   3.11137
    D7        3.10439   0.00066   0.00000   0.00900   0.00929   3.11367
    D8        0.99979   0.00035   0.00000   0.01977   0.01963   1.01942
    D9       -1.05457  -0.00065   0.00000   0.01722   0.01714  -1.03742
   D10       -1.08613   0.00091   0.00000   0.00593   0.00617  -1.07995
   D11        3.09246   0.00060   0.00000   0.01671   0.01652   3.10898
   D12        1.03811  -0.00040   0.00000   0.01416   0.01403   1.05213
   D13        3.12977  -0.00057   0.00000  -0.04486  -0.04482   3.08496
   D14        1.03796   0.00210   0.00000  -0.00392  -0.00387   1.03409
   D15       -0.99259   0.00216   0.00000  -0.00312  -0.00306  -0.99565
   D16       -1.06771  -0.00271   0.00000  -0.07160  -0.07163  -1.13935
   D17        3.12366  -0.00004   0.00000  -0.03066  -0.03069   3.09297
   D18        1.09311   0.00001   0.00000  -0.02986  -0.02988   1.06323
   D19        0.99661  -0.00361   0.00000  -0.08779  -0.08783   0.90878
   D20       -1.09521  -0.00094   0.00000  -0.04686  -0.04688  -1.14209
   D21       -3.12576  -0.00089   0.00000  -0.04605  -0.04607   3.11135
   D22        1.08844   0.00280   0.00000   0.07445   0.07460   1.16304
   D23       -3.09614  -0.00100   0.00000   0.05629   0.05675  -3.03939
   D24       -3.10948   0.00351   0.00000   0.06055   0.06034  -3.04914
   D25       -1.01088  -0.00029   0.00000   0.04239   0.04249  -0.96839
   D26       -1.06406   0.00189   0.00000   0.04516   0.04475  -1.01930
   D27        1.03455  -0.00191   0.00000   0.02700   0.02690   1.06145
   D28       -1.13092   0.00125   0.00000  -0.00834  -0.00826  -1.13918
   D29        3.10882   0.00038   0.00000  -0.01877  -0.01904   3.08978
   D30        0.99191   0.00146   0.00000  -0.00547  -0.00557   0.98634
   D31        3.03780  -0.00153   0.00000  -0.02679  -0.02651   3.01129
   D32        0.99435  -0.00240   0.00000  -0.03721  -0.03728   0.95707
   D33       -1.12255  -0.00131   0.00000  -0.02391  -0.02381  -1.14637
   D34        1.07854  -0.00257   0.00000   0.04876   0.05181   1.13035
   D35       -1.00297   0.00375   0.00000   0.15430   0.15155  -0.85142
   D36       -3.06505  -0.00017   0.00000   0.06396   0.06670  -2.99835
   D37        1.13662   0.00614   0.00000   0.16949   0.16644   1.30307
         Item               Value     Threshold  Converged?
 Maximum Force            0.016465     0.000450     NO 
 RMS     Force            0.004432     0.000300     NO 
 Maximum Displacement     0.315074     0.001800     NO 
 RMS     Displacement     0.098660     0.001200     NO 
 Predicted change in Energy=-5.672337D-03
 GradGradGradGradGradGradGradGradGradGradGradGradGradGradGradGradGradGrad

                          Input orientation:                          
 ---------------------------------------------------------------------
 Center     Atomic      Atomic             Coordinates (Angstroms)
 Number     Number       Type             X           Y           Z
 ---------------------------------------------------------------------
      1          6           0        0.937921    0.001696   -0.065646
      2          7           0        2.395894   -0.037395    0.042059
      3          6           0        2.854988    0.034518    1.432263
      4          6           0        4.383244   -0.049802    1.494219
      5          7           0        4.937554    0.090614    2.850806
      6          6           0        4.590330   -1.013962    3.728234
      7          7           0        6.364203    0.138196    2.824135
      8          1           0        0.639005   -0.064181   -1.116956
      9          1           0        0.471309    0.903483    0.368182
     10          1           0        0.522589   -0.869553    0.449380
     11          1           0        2.774937    0.757843   -0.462308
     12          1           0        2.406959   -0.811571    1.960166
     13          1           0        2.528140    0.953692    1.950285
     14          1           0        4.792507    0.785671    0.912882
     15          1           0        4.723249   -0.981612    1.006330
     16          1           0        3.512610   -1.029080    3.902190
     17          1           0        5.082620   -0.856815    4.690618
     18          1           0        4.899445   -1.997474    3.328856
     19          1           0        6.602874    0.988796    2.326335
     20          1           0        6.703280   -0.637243    2.244329
 ---------------------------------------------------------------------
                    Distance matrix (angstroms):
                    1          2          3          4          5
     1  C    0.000000
     2  N    1.462469   0.000000
     3  C    2.433096   1.465813   0.000000
     4  C    3.782338   2.461398   1.531834   0.000000
     5  N    4.950825   3.790182   2.520415   1.472177   0.000000
     6  C    5.363319   4.399673   3.063039   2.441990   1.452767
     7  N    6.149309   4.849562   3.776592   2.393369   1.427691
     8  H    1.094963   2.104921   3.379178   4.564841   5.851891
     9  H    1.104153   2.166942   2.751235   4.180903   5.174121
    10  H    1.093996   2.089897   2.687654   4.082687   5.116706
    11  H    2.025766   1.015117   2.029534   2.658371   4.012335
    12  H    2.631234   2.068480   1.093288   2.168663   2.830386
    13  H    2.738443   2.154314   1.104561   2.157871   2.713138
    14  H    4.053390   2.679463   2.141955   1.097025   2.063903
    15  H    4.055211   2.690343   2.168949   1.105399   2.144221
    16  H    4.840997   4.138974   2.768438   2.741408   2.095134
    17  H    6.366917   5.431303   4.046443   3.370069   2.074506
    18  H    5.586860   4.573043   3.450488   2.725029   2.142451
    19  H    6.227972   4.895883   3.969466   2.588023   1.963439
    20  H    6.243685   4.874770   3.989996   2.508051   2.003841
                    6          7          8          9         10
     6  C    0.000000
     7  N    2.300324   0.000000
     8  H    6.323838   6.953492   0.000000
     9  H    5.650919   6.429896   1.780487   0.000000
    10  H    5.226687   6.385880   1.765103   1.775636   0.000000
    11  H    4.898529   4.905863   2.380440   2.453086   2.924494
    12  H    2.816760   4.160322   3.626698   3.036868   2.415923
    13  H    3.359374   4.017963   3.743376   2.595405   3.098253
    14  H    3.347501   2.557799   4.700433   4.356987   4.602912
    15  H    2.725339   2.692789   4.693728   4.694658   4.238903
    16  H    1.091774   3.264402   5.863486   5.047130   4.570292
    17  H    1.092349   2.473108   7.355400   6.560968   6.227531
    18  H    1.105600   2.638436   6.454009   6.065438   5.359147
    19  H    3.166496   1.014046   6.966545   6.437215   6.629200
    20  H    2.609301   1.025892   6.957160   6.688141   6.440244
                   11         12         13         14         15
    11  H    0.000000
    12  H    2.909785   0.000000
    13  H    2.433078   1.769445   0.000000
    14  H    2.441825   3.055949   2.496356   0.000000
    15  H    2.996418   2.510760   3.074891   1.771106   0.000000
    16  H    4.773479   2.245269   2.951355   3.723899   3.139093
    17  H    5.872407   3.823163   4.160857   4.129554   3.703876
    18  H    5.145701   3.080936   4.029011   3.687040   2.541092
    19  H    4.741621   4.580514   4.092200   2.305762   3.026204
    20  H    4.970314   4.309236   4.477648   2.729192   2.360456
                   16         17         18         19         20
    16  H    0.000000
    17  H    1.765284   0.000000
    18  H    1.786005   1.785792   0.000000
    19  H    4.013088   3.362631   3.581135   0.000000
    20  H    3.616963   2.942632   2.506042   1.631199   0.000000
 Stoichiometry    C4H13N3
 Framework group  C1[X(C4H13N3)]
 Deg. of freedom    54
 Full point group                 C1      NOp   1
 Largest Abelian subgroup         C1      NOp   1
 Largest concise Abelian subgroup C1      NOp   1
                         Standard orientation:                         
 ---------------------------------------------------------------------
 Center     Atomic      Atomic             Coordinates (Angstroms)
 Number     Number       Type             X           Y           Z
 ---------------------------------------------------------------------
      1          6           0       -3.347715    0.226875   -0.043915
      2          7           0       -2.110498   -0.476069    0.293692
      3          6           0       -0.922227    0.200525   -0.234360
      4          6           0        0.347069   -0.551018    0.178663
      5          7           0        1.587740    0.017938   -0.372996
      6          6           0        1.895814    1.336842    0.152470
      7          7           0        2.714907   -0.801831   -0.063519
      8          1           0       -4.206857   -0.305691    0.377026
      9          1           0       -3.520047    0.354857   -1.127002
     10          1           0       -3.323262    1.221975    0.409964
     11          1           0       -2.153171   -1.408021   -0.106441
     12          1           0       -0.917930    1.210472    0.184288
     13          1           0       -0.933460    0.302196   -1.334175
     14          1           0        0.280612   -1.571726   -0.217825
     15          1           0        0.387494   -0.633058    1.280272
     16          1           0        1.134219    2.052607   -0.163165
     17          1           0        2.852036    1.659171   -0.265825
     18          1           0        1.967018    1.357329    1.255584
     19          1           0        2.560025   -1.678809   -0.548503
     20          1           0        2.690634   -1.020912    0.938414
 ---------------------------------------------------------------------
 Rotational constants (GHZ):           7.0386288           1.0572895           0.9629859
 Standard basis: 6-31G(2df,p) (6D, 7F)
 There are   282 symmetry adapted cartesian basis functions of A   symmetry.
 There are   261 symmetry adapted basis functions of A   symmetry.
   261 basis functions,   399 primitive gaussians,   282 cartesian basis functions
    29 alpha electrons       29 beta electrons
       nuclear repulsion energy       328.3572718767 Hartrees.
 NAtoms=   20 NActive=   20 NUniq=   20 SFac= 1.00D+00 NAtFMM=   60 NAOKFM=F Big=F
 Integral buffers will be    131072 words long.
 Raffenetti 2 integral format.
 Two-electron integral symmetry is turned on.
 One-electron integrals computed using PRISM.
 PrsmSu:  requested number of processors reduced to:  13 ShMem   1 Linda.
 NBasis=   261 RedAO= T EigKep=  3.16D-04  NBF=   261
 NBsUse=   261 1.00D-06 EigRej= -1.00D+00 NBFU=   261
 Initial guess from the checkpoint file:  "CNCCNpCpN.chk"
 B after Tr=    -0.000000   -0.000000    0.000000
         Rot=    0.999972   -0.002007   -0.000393    0.007155 Ang=  -0.85 deg.
 ExpMin= 1.61D-01 ExpMax= 4.17D+03 ExpMxC= 6.27D+02 IAcc=2 IRadAn=         4 AccDes= 0.00D+00
 Harris functional with IExCor=  402 and IRadAn=       4 diagonalized for initial guess.
 HarFok:  IExCor=  402 AccDes= 0.00D+00 IRadAn=         4 IDoV= 1 UseB2=F ITyADJ=14
 ICtDFT=  3500011 ScaDFX=  1.000000  1.000000  1.000000  1.000000
 FoFCou: FMM=F IPFlag=           0 FMFlag=      100000 FMFlg1=           0
         NFxFlg=           0 DoJE=T BraDBF=F KetDBF=T FulRan=T
         wScrn=  0.000000 ICntrl=       500 IOpCl=  0 I1Cent=   200000004 NGrid=           0
         NMat0=    1 NMatS0=      1 NMatT0=    0 NMatD0=    1 NMtDS0=    0 NMtDT0=    0
 Petite list used in FoFCou.
 Requested convergence on RMS density matrix=1.00D-08 within 128 cycles.
 Requested convergence on MAX density matrix=1.00D-06.
 Requested convergence on             energy=1.00D-06.
 No special actions if energy rises.
 Integral accuracy reduced to 1.0D-05 until final iterations.
 Initial convergence to 1.0D-05 achieved.  Increase integral accuracy.
 SCF Done:  E(RB3LYP) =  -324.474254884     A.U. after   10 cycles
            NFock= 10  Conv=0.68D-08     -V/T= 2.0079
 PrsmSu:  requested number of processors reduced to:  13 ShMem   1 Linda.
 Calling FoFJK, ICntrl=      2127 FMM=F ISym2X=0 I1Cent= 0 IOpClX= 0 NMat=1 NMatS=1 NMatT=0.
 ***** Axes restored to original set *****
 -------------------------------------------------------------------
 Center     Atomic                   Forces (Hartrees/Bohr)
 Number     Number              X              Y              Z
 -------------------------------------------------------------------
      1        6           0.002281039   -0.000878818   -0.000957828
      2        7          -0.001323182    0.001635219    0.003288378
      3        6           0.000842172    0.000546810   -0.002847025
      4        6          -0.000441726    0.002380631    0.003283931
      5        7          -0.004322970   -0.003937255   -0.002523262
      6        6          -0.004524956    0.002548620    0.004147561
      7        7           0.000564500    0.002347347   -0.000918648
      8        1           0.000837584    0.000395502    0.000202328
      9        1           0.000050123   -0.000107714    0.000692890
     10        1          -0.001086925   -0.000542326    0.000484933
     11        1           0.001085876    0.000007896   -0.001249322
     12        1          -0.000726788   -0.000996598    0.001381298
     13        1          -0.000340771   -0.000469148    0.001151175
     14        1           0.000675932   -0.000245041   -0.001572336
     15        1          -0.000043911   -0.001254787    0.000081738
     16        1          -0.001213592   -0.001471859   -0.000789486
     17        1           0.000731889   -0.000656141   -0.000974933
     18        1           0.000169760   -0.000794772   -0.000442973
     19        1           0.003669672    0.002393335   -0.000427754
     20        1           0.003116272   -0.000900902   -0.002010665
 -------------------------------------------------------------------
 Cartesian Forces:  Max     0.004524956 RMS     0.001806377

 GradGradGradGradGradGradGradGradGradGradGradGradGradGradGradGradGradGrad
 Berny optimization.
 Using GEDIIS/GDIIS optimizer.
 FormGI is forming the generalized inverse of G from B-inverse, IUseBI=4.
 Internal  Forces:  Max     0.007535471 RMS     0.001675082
 Search for a local minimum.
 Step number   2 out of a maximum of   99
 All quantities printed in internal units (Hartrees-Bohrs-Radians)
 Mixed Optimization -- RFO/linear search
 Update second derivatives using D2CorX and points    1    2
 DE= -4.61D-03 DEPred=-5.67D-03 R= 8.13D-01
 TightC=F SS=  1.41D+00  RLast= 3.84D-01 DXNew= 5.0454D-01 1.1519D+00
 Trust test= 8.13D-01 RLast= 3.84D-01 DXMaxT set to 5.05D-01
 ITU=  1  0
 Use linear search instead of GDIIS.
     Eigenvalues ---    0.00232   0.00630   0.00649   0.00782   0.00796
     Eigenvalues ---    0.00909   0.02969   0.03113   0.03925   0.04298
     Eigenvalues ---    0.05404   0.05451   0.06295   0.06976   0.07077
     Eigenvalues ---    0.07541   0.07647   0.09018   0.09561   0.10901
     Eigenvalues ---    0.12544   0.12962   0.15579   0.16000   0.16000
     Eigenvalues ---    0.16000   0.16000   0.16000   0.16000   0.16632
     Eigenvalues ---    0.16955   0.19529   0.21202   0.22514   0.23320
     Eigenvalues ---    0.28206   0.33294   0.33798   0.33917   0.34015
     Eigenvalues ---    0.34154   0.34202   0.34228   0.34329   0.34383
     Eigenvalues ---    0.34435   0.34524   0.35769   0.36242   0.37128
     Eigenvalues ---    0.41138   0.43753   0.44599   0.45416
 RFO step:  Lambda=-1.67234737D-03 EMin= 2.32283583D-03
 Quartic linear search produced a step of -0.08852.
 Iteration  1 RMS(Cart)=  0.05586081 RMS(Int)=  0.00153207
 Iteration  2 RMS(Cart)=  0.00182839 RMS(Int)=  0.00008346
 Iteration  3 RMS(Cart)=  0.00000140 RMS(Int)=  0.00008345
 Iteration  4 RMS(Cart)=  0.00000000 RMS(Int)=  0.00008345
 Variable       Old X    -DE/DX   Delta X   Delta X   Delta X     New X
                                 (Linear)    (Quad)   (Total)
    R1        2.76367  -0.00214  -0.00056  -0.00413  -0.00469   2.75897
    R2        2.06918  -0.00045  -0.00029  -0.00063  -0.00092   2.06826
    R3        2.08655   0.00016  -0.00155   0.00323   0.00169   2.08824
    R4        2.06735   0.00107   0.00020   0.00243   0.00264   2.06999
    R5        2.76998  -0.00294   0.00050  -0.00822  -0.00772   2.76226
    R6        1.91829   0.00103   0.00047   0.00121   0.00169   1.91998
    R7        2.89475  -0.00172   0.00163  -0.00841  -0.00677   2.88798
    R8        2.06601   0.00174   0.00011   0.00432   0.00442   2.07044
    R9        2.08732   0.00025  -0.00121   0.00286   0.00165   2.08896
   R10        2.78201  -0.00436   0.00136  -0.01374  -0.01238   2.76963
   R11        2.07308   0.00090   0.00034   0.00176   0.00210   2.07518
   R12        2.08890   0.00101  -0.00119   0.00481   0.00363   2.09253
   R13        2.74533   0.00261   0.00258   0.00181   0.00439   2.74973
   R14        2.69795   0.00754   0.00371   0.01088   0.01459   2.71254
   R15        2.06315   0.00109   0.00042   0.00209   0.00250   2.06566
   R16        2.06424  -0.00062   0.00055  -0.00262  -0.00208   2.06216
   R17        2.08928   0.00092  -0.00153   0.00517   0.00364   2.09292
   R18        1.91627   0.00308   0.00112   0.00421   0.00533   1.92160
   R19        1.93866   0.00285  -0.00037   0.00649   0.00612   1.94477
    A1        1.91905  -0.00108  -0.00043  -0.00504  -0.00542   1.91363
    A2        1.99785  -0.00038  -0.00503   0.00656   0.00154   1.99939
    A3        1.89919   0.00128   0.00347   0.00118   0.00463   1.90381
    A4        1.88706   0.00057   0.00027   0.00157   0.00192   1.88897
    A5        1.87596   0.00021   0.00017   0.00229   0.00249   1.87845
    A6        1.88076  -0.00057   0.00175  -0.00674  -0.00504   1.87572
    A7        1.96143   0.00060  -0.00463   0.01303   0.00834   1.96977
    A8        1.89096   0.00029   0.00171   0.00484   0.00647   1.89743
    A9        1.89214  -0.00011   0.00159   0.00171   0.00320   1.89534
   A10        1.92637  -0.00238   0.00261  -0.01358  -0.01096   1.91541
   A11        1.86673   0.00112   0.00117   0.00463   0.00579   1.87252
   A12        1.97462   0.00097  -0.00473   0.01443   0.00969   1.98432
   A13        1.92486   0.00048  -0.00111   0.00305   0.00199   1.92685
   A14        1.89869   0.00070   0.00061   0.00064   0.00126   1.89995
   A15        1.87160  -0.00083   0.00142  -0.00898  -0.00759   1.86401
   A16        1.99069  -0.00239  -0.00245  -0.00556  -0.00801   1.98268
   A17        1.88477   0.00079  -0.00001   0.00731   0.00730   1.89207
   A18        1.91284   0.00047   0.00040  -0.00387  -0.00345   1.90939
   A19        1.84960   0.00119   0.00410   0.00334   0.00745   1.85705
   A20        1.95121   0.00059  -0.00167   0.00065  -0.00105   1.95016
   A21        1.86852  -0.00051  -0.00012  -0.00101  -0.00113   1.86739
   A22        1.97582  -0.00256  -0.00172   0.00115  -0.00102   1.97480
   A23        1.94144  -0.00070  -0.00229   0.01210   0.00949   1.95093
   A24        1.84986   0.00433   0.00339   0.02776   0.03102   1.88088
   A25        1.92058   0.00112   0.00211   0.00377   0.00587   1.92645
   A26        1.89127   0.00008   0.00363  -0.00470  -0.00109   1.89017
   A27        1.97291  -0.00077  -0.00170  -0.00436  -0.00609   1.96683
   A28        1.88229   0.00082  -0.00361   0.01817   0.01454   1.89684
   A29        1.89782  -0.00087  -0.00044  -0.00712  -0.00757   1.89025
   A30        1.89676  -0.00032  -0.00016  -0.00462  -0.00482   1.89195
   A31        1.84660   0.00492   0.00835   0.01621   0.02463   1.87123
   A32        1.89193   0.00372   0.00578   0.01410   0.01995   1.91188
   A33        1.85334  -0.00209   0.00064  -0.00335  -0.00256   1.85078
    D1       -3.13192  -0.00032   0.00085  -0.02367  -0.02282   3.12844
    D2        1.06102  -0.00074   0.00065  -0.03707  -0.03646   1.02456
    D3        1.02336   0.00003   0.00419  -0.02655  -0.02229   1.00107
    D4       -1.06688  -0.00039   0.00398  -0.03994  -0.03593  -1.10281
    D5       -1.08157   0.00007   0.00289  -0.02311  -0.02022  -1.10179
    D6        3.11137  -0.00034   0.00269  -0.03650  -0.03386   3.07751
    D7        3.11367  -0.00026  -0.00082  -0.00020  -0.00105   3.11263
    D8        1.01942  -0.00017  -0.00174   0.00101  -0.00071   1.01871
    D9       -1.03742  -0.00042  -0.00152   0.00082  -0.00072  -1.03814
   D10       -1.07995   0.00040  -0.00055   0.01503   0.01447  -1.06548
   D11        3.10898   0.00049  -0.00146   0.01624   0.01481   3.12379
   D12        1.05213   0.00023  -0.00124   0.01605   0.01480   1.06694
   D13        3.08496   0.00015   0.00397  -0.06399  -0.06003   3.02492
   D14        1.03409  -0.00044   0.00034  -0.06974  -0.06940   0.96468
   D15       -0.99565  -0.00052   0.00027  -0.07054  -0.07026  -1.06591
   D16       -1.13935   0.00036   0.00634  -0.06477  -0.05843  -1.19778
   D17        3.09297  -0.00023   0.00272  -0.07052  -0.06780   3.02517
   D18        1.06323  -0.00031   0.00264  -0.07132  -0.06866   0.99457
   D19        0.90878   0.00005   0.00777  -0.07351  -0.06574   0.84303
   D20       -1.14209  -0.00054   0.00415  -0.07926  -0.07511  -1.21721
   D21        3.11135  -0.00062   0.00408  -0.08006  -0.07597   3.03539
   D22        1.16304  -0.00186  -0.00660   0.01064   0.00408   1.16713
   D23       -3.03939   0.00147  -0.00502   0.05569   0.05059  -2.98880
   D24       -3.04914  -0.00145  -0.00534   0.01872   0.01344  -3.03570
   D25       -0.96839   0.00187  -0.00376   0.06377   0.05994  -0.90844
   D26       -1.01930  -0.00106  -0.00396   0.01981   0.01594  -1.00337
   D27        1.06145   0.00227  -0.00238   0.06487   0.06244   1.12389
   D28       -1.13918   0.00120   0.00073   0.03039   0.03118  -1.10800
   D29        3.08978  -0.00047   0.00169   0.00911   0.01085   3.10063
   D30        0.98634   0.00036   0.00049   0.02093   0.02147   1.00781
   D31        3.01129   0.00065   0.00235  -0.00446  -0.00217   3.00913
   D32        0.95707  -0.00102   0.00330  -0.02575  -0.02249   0.93458
   D33       -1.14637  -0.00019   0.00211  -0.01392  -0.01188  -1.15825
   D34        1.13035   0.00204  -0.00459   0.11897   0.11413   1.24448
   D35       -0.85142   0.00036  -0.01341   0.10854   0.09501  -0.75641
   D36       -2.99835   0.00132  -0.00590   0.14583   0.14005  -2.85830
   D37        1.30307  -0.00037  -0.01473   0.13540   0.12093   1.42399
         Item               Value     Threshold  Converged?
 Maximum Force            0.007535     0.000450     NO 
 RMS     Force            0.001675     0.000300     NO 
 Maximum Displacement     0.175129     0.001800     NO 
 RMS     Displacement     0.055893     0.001200     NO 
 Predicted change in Energy=-9.599092D-04
 GradGradGradGradGradGradGradGradGradGradGradGradGradGradGradGradGradGrad

                          Input orientation:                          
 ---------------------------------------------------------------------
 Center     Atomic      Atomic             Coordinates (Angstroms)
 Number     Number       Type             X           Y           Z
 ---------------------------------------------------------------------
      1          6           0        0.941122    0.028583   -0.069384
      2          7           0        2.394894   -0.031091    0.051199
      3          6           0        2.851256   -0.000582    1.439525
      4          6           0        4.375074   -0.107825    1.484567
      5          7           0        4.936366    0.069958    2.826729
      6          6           0        4.580425   -1.003439    3.742381
      7          7           0        6.368418    0.163512    2.797046
      8          1           0        0.658823    0.016045   -1.126752
      9          1           0        0.477170    0.913936    0.401814
     10          1           0        0.506047   -0.860037    0.400665
     11          1           0        2.795565    0.763493   -0.439081
     12          1           0        2.393041   -0.853880    1.951701
     13          1           0        2.540482    0.906613    1.989433
     14          1           0        4.797574    0.692997    0.863213
     15          1           0        4.689713   -1.068414    1.032431
     16          1           0        3.499184   -1.025149    3.901480
     17          1           0        5.070725   -0.814606    4.698820
     18          1           0        4.898322   -1.999533    3.377201
     19          1           0        6.602732    1.063609    2.386025
     20          1           0        6.746727   -0.548369    2.157347
 ---------------------------------------------------------------------
                    Distance matrix (angstroms):
                    1          2          3          4          5
     1  C    0.000000
     2  N    1.459985   0.000000
     3  C    2.434393   1.461727   0.000000
     4  C    3.771657   2.445720   1.528251   0.000000
     5  N    4.934689   3.764685   2.505393   1.465624   0.000000
     6  C    5.370209   4.398503   3.049409   2.437626   1.455093
     7  N    6.139232   4.833885   3.773622   2.402009   1.435412
     8  H    1.094475   2.098507   3.375324   4.543661   5.824971
     9  H    1.105046   2.166489   2.747630   4.172530   5.145574
    10  H    1.095391   2.092133   2.705161   4.087791   5.135991
    11  H    2.028725   1.016009   2.028810   2.637132   3.966048
    12  H    2.640378   2.070965   1.095629   2.168702   2.843879
    13  H    2.750930   2.158063   1.105433   2.156316   2.672323
    14  H    4.022860   2.637525   2.145073   1.098135   2.064663
    15  H    4.058243   2.702785   2.164697   1.107319   2.139213
    16  H    4.839607   4.127017   2.744225   2.729494   2.102342
    17  H    6.363989   5.419811   4.026374   3.363761   2.074905
    18  H    5.625979   4.604802   3.455557   2.726612   2.141789
    19  H    6.257327   4.935148   4.012722   2.673452   1.989558
    20  H    6.244698   4.862292   3.998754   2.504286   2.026773
                    6          7          8          9         10
     6  C    0.000000
     7  N    2.335028   0.000000
     8  H    6.334569   6.929460   0.000000
     9  H    5.627825   6.403677   1.782055   0.000000
    10  H    5.271450   6.415426   1.767444   1.774208   0.000000
    11  H    4.877745   4.857755   2.365848   2.470768   2.929661
    12  H    2.830821   4.189668   3.638840   3.032802   2.442642
    13  H    3.298862   3.982152   3.747580   2.603429   3.127964
    14  H    3.348829   2.547080   4.641927   4.350585   4.587272
    15  H    2.712931   2.729388   4.699595   4.698181   4.236226
    16  H    1.093099   3.296240   5.868121   5.014008   4.608887
    17  H    1.091251   2.501493   7.354736   6.523256   6.269967
    18  H    1.107528   2.678904   6.505497   6.073534   5.426813
    19  H    3.194076   1.016865   6.983341   6.440653   6.694150
    20  H    2.722551   1.029129   6.940205   6.672898   6.490698
                   11         12         13         14         15
    11  H    0.000000
    12  H    2.914406   0.000000
    13  H    2.446064   1.767059   0.000000
    14  H    2.389347   3.059315   2.531494   0.000000
    15  H    3.018116   2.483099   3.071770   1.772804   0.000000
    16  H    4.747082   2.248226   2.882141   3.724098   3.106553
    17  H    5.836504   3.836430   4.087236   4.130297   3.694860
    18  H    5.159448   3.101774   3.991365   3.685105   2.531491
    19  H    4.750349   4.646171   4.084582   2.390587   3.168182
    20  H    4.906537   4.369234   4.453949   2.648579   2.401497
                   16         17         18         19         20
    16  H    0.000000
    17  H    1.774774   0.000000
    18  H    1.783783   1.783382   0.000000
    19  H    4.036276   3.350188   3.642840   0.000000
    20  H    3.716969   3.055969   2.647739   1.634472   0.000000
 Stoichiometry    C4H13N3
 Framework group  C1[X(C4H13N3)]
 Deg. of freedom    54
 Full point group                 C1      NOp   1
 Largest Abelian subgroup         C1      NOp   1
 Largest concise Abelian subgroup C1      NOp   1
                         Standard orientation:                         
 ---------------------------------------------------------------------
 Center     Atomic      Atomic             Coordinates (Angstroms)
 Number     Number       Type             X           Y           Z
 ---------------------------------------------------------------------
      1          6           0       -3.346329    0.204818   -0.065046
      2          7           0       -2.102172   -0.478103    0.277370
      3          6           0       -0.916281    0.224510   -0.209092
      4          6           0        0.342440   -0.527123    0.222441
      5          7           0        1.576516    0.017429   -0.350772
      6          6           0        1.896518    1.349092    0.140724
      7          7           0        2.705097   -0.829552   -0.087454
      8          1           0       -4.197669   -0.370961    0.311220
      9          1           0       -3.494562    0.374109   -1.146940
     10          1           0       -3.364577    1.183558    0.426499
     11          1           0       -2.117859   -1.408331   -0.130924
     12          1           0       -0.930376    1.228772    0.228702
     13          1           0       -0.896109    0.354686   -1.306647
     14          1           0        0.266449   -1.563414   -0.132844
     15          1           0        0.386406   -0.566499    1.328186
     16          1           0        1.122245    2.060939   -0.157002
     17          1           0        2.844812    1.658842   -0.301566
     18          1           0        1.996658    1.384987    1.243132
     19          1           0        2.596072   -1.662817   -0.659990
     20          1           0        2.674335   -1.150082    0.890002
 ---------------------------------------------------------------------
 Rotational constants (GHZ):           6.9522332           1.0620923           0.9648039
 Standard basis: 6-31G(2df,p) (6D, 7F)
 There are   282 symmetry adapted cartesian basis functions of A   symmetry.
 There are   261 symmetry adapted basis functions of A   symmetry.
   261 basis functions,   399 primitive gaussians,   282 cartesian basis functions
    29 alpha electrons       29 beta electrons
       nuclear repulsion energy       328.2477969396 Hartrees.
 NAtoms=   20 NActive=   20 NUniq=   20 SFac= 1.00D+00 NAtFMM=   60 NAOKFM=F Big=F
 Integral buffers will be    131072 words long.
 Raffenetti 2 integral format.
 Two-electron integral symmetry is turned on.
 One-electron integrals computed using PRISM.
 PrsmSu:  requested number of processors reduced to:  13 ShMem   1 Linda.
 NBasis=   261 RedAO= T EigKep=  3.21D-04  NBF=   261
 NBsUse=   261 1.00D-06 EigRej= -1.00D+00 NBFU=   261
 Initial guess from the checkpoint file:  "CNCCNpCpN.chk"
 B after Tr=    -0.000000    0.000000   -0.000000
         Rot=    0.999998   -0.002146    0.000203   -0.000178 Ang=  -0.25 deg.
 ExpMin= 1.61D-01 ExpMax= 4.17D+03 ExpMxC= 6.27D+02 IAcc=2 IRadAn=         4 AccDes= 0.00D+00
 Harris functional with IExCor=  402 and IRadAn=       4 diagonalized for initial guess.
 HarFok:  IExCor=  402 AccDes= 0.00D+00 IRadAn=         4 IDoV= 1 UseB2=F ITyADJ=14
 ICtDFT=  3500011 ScaDFX=  1.000000  1.000000  1.000000  1.000000
 FoFCou: FMM=F IPFlag=           0 FMFlag=      100000 FMFlg1=           0
         NFxFlg=           0 DoJE=T BraDBF=F KetDBF=T FulRan=T
         wScrn=  0.000000 ICntrl=       500 IOpCl=  0 I1Cent=   200000004 NGrid=           0
         NMat0=    1 NMatS0=      1 NMatT0=    0 NMatD0=    1 NMtDS0=    0 NMtDT0=    0
 Petite list used in FoFCou.
 Requested convergence on RMS density matrix=1.00D-08 within 128 cycles.
 Requested convergence on MAX density matrix=1.00D-06.
 Requested convergence on             energy=1.00D-06.
 No special actions if energy rises.
 Integral accuracy reduced to 1.0D-05 until final iterations.
 Initial convergence to 1.0D-05 achieved.  Increase integral accuracy.
 SCF Done:  E(RB3LYP) =  -324.475179073     A.U. after   10 cycles
            NFock= 10  Conv=0.61D-08     -V/T= 2.0081
 PrsmSu:  requested number of processors reduced to:  13 ShMem   1 Linda.
 Calling FoFJK, ICntrl=      2127 FMM=F ISym2X=0 I1Cent= 0 IOpClX= 0 NMat=1 NMatS=1 NMatT=0.
 ***** Axes restored to original set *****
 -------------------------------------------------------------------
 Center     Atomic                   Forces (Hartrees/Bohr)
 Number     Number              X              Y              Z
 -------------------------------------------------------------------
      1        6           0.001217425   -0.000752898   -0.000475561
      2        7          -0.001691645    0.001676252    0.001970699
      3        6          -0.000330067    0.000091135   -0.001954974
      4        6           0.001919309    0.000881973    0.002357934
      5        7           0.000975329    0.000457471   -0.002223889
      6        6           0.001304723    0.000454612    0.000610919
      7        7          -0.001853202   -0.001855208   -0.000748592
      8        1           0.000087903    0.000259872    0.000158689
      9        1           0.000366685   -0.000142402    0.000208756
     10        1          -0.000431441   -0.000182658   -0.000038957
     11        1           0.000256426   -0.000481137   -0.000507972
     12        1          -0.000189109   -0.000316378    0.000257411
     13        1          -0.000204477   -0.000090966    0.000071085
     14        1          -0.000204356   -0.000521527   -0.000584178
     15        1          -0.000003540   -0.000076078   -0.000237580
     16        1           0.000029328    0.000138928   -0.000496406
     17        1          -0.000022576   -0.000472442    0.000052900
     18        1          -0.000339159   -0.000058498    0.000314476
     19        1          -0.000632780    0.000230321    0.000416980
     20        1          -0.000254774    0.000759628    0.000848259
 -------------------------------------------------------------------
 Cartesian Forces:  Max     0.002357934 RMS     0.000879059

 GradGradGradGradGradGradGradGradGradGradGradGradGradGradGradGradGradGrad
 Berny optimization.
 Using GEDIIS/GDIIS optimizer.
 FormGI is forming the generalized inverse of G from B-inverse, IUseBI=4.
 Internal  Forces:  Max     0.002801960 RMS     0.000515704
 Search for a local minimum.
 Step number   3 out of a maximum of   99
 All quantities printed in internal units (Hartrees-Bohrs-Radians)
 Mixed Optimization -- En-DIIS/RFO-DIIS
 Update second derivatives using D2CorX and points    2    3
 DE= -9.24D-04 DEPred=-9.60D-04 R= 9.63D-01
 TightC=F SS=  1.41D+00  RLast= 3.47D-01 DXNew= 8.4853D-01 1.0412D+00
 Trust test= 9.63D-01 RLast= 3.47D-01 DXMaxT set to 8.49D-01
 ITU=  1  1  0
 Use linear search instead of GDIIS.
     Eigenvalues ---    0.00234   0.00617   0.00652   0.00784   0.00795
     Eigenvalues ---    0.00886   0.02802   0.02946   0.03959   0.04336
     Eigenvalues ---    0.05392   0.05451   0.05988   0.06978   0.07109
     Eigenvalues ---    0.07503   0.07617   0.08934   0.09492   0.11016
     Eigenvalues ---    0.12518   0.12917   0.15590   0.15973   0.16000
     Eigenvalues ---    0.16000   0.16000   0.16000   0.16046   0.16776
     Eigenvalues ---    0.17442   0.20096   0.21473   0.22164   0.23452
     Eigenvalues ---    0.28390   0.32752   0.33804   0.33913   0.34007
     Eigenvalues ---    0.34126   0.34186   0.34226   0.34282   0.34345
     Eigenvalues ---    0.34387   0.34444   0.35699   0.36069   0.37016
     Eigenvalues ---    0.42297   0.44020   0.44637   0.48229
[...]
 75682,-0.00096809,0.00176612,0.00054477,-0.00012800,-0.00217826,-0.000
 66878,0.00005587,0.00020582,-0.00004798,-0.00014630,0.00007867,-0.0003
 1510,0.00003687,-0.00036160,0.07415788,0.00466140,-0.04940094,0.016708
 81,-0.00068255,-0.00080125,0.00062118,-0.00025512,0.00023855,-0.000074
 17,-0.00005082,0.00058839,0.00001029,0.00004488,0.00001369,0.00000518,
 -0.00000332,0.00001479,0.00000791,0.00002509,-0.00001189,0.00004164,-0
 .00578524,0.04746288,-0.06040699,0.01757641,-0.29632246,-0.00164011,0.
 00076070,-0.00017543,-0.00093606,-0.00021260,0.00182133,0.00048774,-0.
 00008600,-0.00014264,-0.00013203,0.00001744,0.00004054,0.00001246,-0.0
 0008007,0.00001415,-0.00008330,0.00001883,-0.00017947,0.06747274,-0.01
 896905,0.31882636,-0.08239975,0.06634045,0.04330122,-0.03320688,0.0276
 8407,0.01387804,0.00283276,0.00059557,0.00670339,0.00022998,-0.0002885
 2,-0.00019179,-0.00010585,-0.00010206,-0.00022550,-0.00010423,-0.00014
 981,0.00005966,-0.00008635,0.00001533,-0.00020155,0.00371149,-0.005471
 83,-0.00246245,0.10154844,0.06542608,-0.18716760,-0.08809944,0.0067125
 1,0.00533407,0.00068644,-0.00073333,0.00145982,0.00003238,-0.00013269,
 0.00021572,0.00022360,0.00010201,0.00002935,0.00006414,0.00007211,0.00
 002178,-0.00002554,0.00007354,-0.00002352,0.00009896,-0.00176886,0.001
 94351,0.00165011,-0.08038044,0.20007201,0.04273221,-0.08808948,-0.1102
 5227,0.00149602,0.00248009,0.00381662,-0.00082459,0.00316880,0.0028024
 5,-0.00022158,0.00010227,0.00005795,0.00007206,-0.00003164,-0.00000330
 ,0.00001269,0.00004796,-0.00002612,0.00007233,-0.00003308,0.00009505,0
 .01137449,-0.02500647,-0.01489482,-0.05214663,0.09884171,0.11177828,-0
 .07791260,-0.07297440,0.02983655,-0.02310748,-0.03045184,0.01631094,0.
 00122650,-0.00161331,0.00256052,-0.00012882,0.00001605,0.00020418,0.00
 005752,0.00017220,-0.00014186,-0.00008069,-0.00008545,0.00000838,0.000
 02463,0.00001512,-0.00002669,0.00318747,0.00712103,-0.00178048,0.00556
 641,0.00979703,-0.00464064,0.09755259,-0.07970655,-0.23993501,0.080553
 88,-0.00290355,0.00469784,-0.00039355,0.00051419,0.00021610,0.00067773
 ,0.00019757,0.00042419,-0.00042429,-0.00007898,0.00001786,-0.00004432,
 -0.00006796,-0.00005680,0.00005065,-0.00001699,0.00000522,-0.00004029,
 0.00052030,-0.00086231,-0.00023246,-0.00755226,-0.02226509,0.00948261,
 0.08819788,0.25673277,0.03368217,0.07997321,-0.08242230,0.00005333,-0.
 00199943,0.00059402,-0.00049960,-0.00169382,0.00088602,-0.00030988,-0.
 00010966,0.00021326,0.00005225,-0.00001322,0.00001320,-0.00003087,0.00
 005412,0.00001452,0.00004457,0.00000511,0.00006080,0.01135534,0.027025
 28,-0.00985677,-0.00564255,-0.01531154,0.00601493,-0.03808807,-0.08803
 266,0.08323046,-0.02102477,-0.03364071,0.01779793,-0.09917898,-0.10760
 594,0.04860882,0.00475838,0.01013330,-0.00430510,0.00231992,0.00225531
 ,-0.00162535,-0.00035013,-0.00041152,0.00034730,0.00028284,0.00014341,
 -0.00016087,-0.00003287,-0.00003040,0.00015892,0.00140481,0.00003644,-
 0.00060783,0.00109636,0.00019177,0.00065307,-0.00684783,0.00108303,-0.
 00097181,0.11932535,0.00834066,-0.00249349,-0.00303970,-0.13744316,-0.
 27617867,0.16736123,-0.00008711,-0.00389114,-0.00717569,-0.00030033,-0
 .00011817,0.00029178,0.00042973,0.00023965,-0.00031428,-0.00034108,-0.
 00007679,-0.00004392,0.00001861,0.00001610,-0.00009579,-0.00052984,0.0
 0022357,-0.00031812,0.00075472,0.00139752,-0.00004933,-0.00135136,0.00
 127197,-0.00048297,0.12869841,0.27600703,0.00051082,-0.00378755,0.0024
 3718,0.04830540,0.13003673,-0.11537812,0.01299475,0.03310246,-0.024458
 75,0.00129304,0.00069935,0.00061696,0.00018710,-0.00056252,0.00017946,
 0.00035657,0.00013321,-0.00024072,-0.00001288,-0.00008083,0.00012919,-
 0.00015689,-0.00045479,0.00029788,-0.00056880,0.00076979,-0.00024548,-
 0.00261947,-0.00098517,0.00114512,-0.05670494,-0.15716751,0.13918594,0
 .00131422,0.00175071,-0.00067803,0.00414395,0.00859242,-0.00665146,-0.
 09132958,-0.08354189,0.04600139,-0.01447474,-0.02757588,0.01568563,0.0
 0080581,0.00026439,0.00048539,-0.00095305,-0.00043554,0.00033013,-0.00
 024300,0.00049050,-0.00102821,0.00019809,0.00012155,0.00007919,-0.0001
 1996,-0.00011549,-0.00007703,0.00031866,-0.00050854,0.00029790,-0.0004
 3142,0.00058785,-0.00285714,0.09977560,-0.00085125,0.00048137,-0.00047
 799,0.00044298,0.00128377,0.00387624,-0.08398407,-0.21501839,0.0854678
 8,0.00203186,0.00246561,-0.00230489,-0.00077245,0.00024396,0.00018205,
 -0.00080929,-0.00002695,0.00142159,-0.00020281,0.00010351,-0.00035829,
 0.00037011,0.00034653,-0.00022464,0.00005414,-0.00050642,-0.00006580,0
 .00068781,0.00016527,0.00036895,0.00084464,0.00146877,-0.00062478,0.09
 092141,0.22872109,0.00228992,0.00097069,0.00101946,0.01363673,0.028599
 64,-0.02556422,0.04186972,0.07951850,-0.09000395,0.00044262,-0.0009905
 9,0.00062269,0.00025616,0.00005788,0.00014309,-0.00067516,0.00009419,-
 0.00083594,0.00013983,0.00013484,0.00008733,0.00016602,-0.00042279,0.0
 0026559,-0.00052641,-0.00007753,-0.00000745,-0.00091886,-0.00063423,0.
 00029396,-0.00316385,0.00133079,-0.00597541,-0.04641087,-0.09673560,0.
 11340195,0.00403293,-0.00274798,-0.00123938,0.00270819,-0.00890551,-0.
 00841743,-0.07058737,0.05168846,0.03124764,-0.01216291,0.03015511,0.01
 548243,0.00246675,-0.00038233,0.00095605,-0.00017140,0.00026517,-0.000
 16689,-0.00025822,-0.00060240,-0.00036810,-0.00005258,0.00026358,0.000
 21108,0.00056993,0.00106227,0.00152208,-0.00009585,0.00008190,0.000049
 01,0.00001455,0.00011649,0.00085036,0.00434961,-0.01109711,-0.00567482
 ,0.07360616,-0.00030806,0.00123502,0.00074862,-0.00123728,0.00679412,-
 0.00426566,0.05377291,-0.20649377,-0.08559028,0.00063333,-0.00353234,-
 0.00187794,-0.00064262,0.00074978,0.00011160,0.00041464,-0.00020070,0.
 00012797,0.00010420,0.00027905,0.00054885,-0.00021779,0.00029954,0.000
 02801,-0.00148330,-0.00049058,-0.00080253,0.00018271,-0.00037795,0.000
 18648,-0.00058995,0.00183425,-0.00026160,0.00801470,-0.02255733,-0.012
 04867,-0.05920285,0.22048879,0.00595300,-0.00023804,0.00099911,0.00133
 408,-0.02721649,-0.03461390,0.03393082,-0.08710022,-0.09982151,0.00084
 333,-0.00105958,0.00017441,-0.00038294,0.00067679,0.00085374,0.0001027
 7,0.00015714,0.00022752,-0.00011541,0.00018128,0.00019610,-0.00024206,
 0.00051443,0.00021079,-0.00204827,0.00119773,0.00106332,-0.00053607,-0
 .00001707,0.00002421,-0.00036673,-0.00054920,0.00143435,-0.00347674,0.
 01056574,0.00762892,-0.03439458,0.10346804,0.12180773,-0.00003918,0.00
 003333,-0.00008018,0.00243728,-0.00026907,0.00162404,-0.01645553,-0.02
 584675,0.01837352,-0.08310131,-0.07064846,0.05776938,0.00227104,0.0080
 0989,-0.01011359,-0.00130184,0.00010506,-0.00307126,0.00183677,0.00226
 699,-0.00118006,0.00004133,0.00007155,-0.00008776,0.00010445,-0.000066
 44,0.00003409,0.00023447,0.00022687,-0.00006318,-0.00071530,0.00082862
 ,-0.00126235,-0.00617905,0.00125012,-0.00052660,0.00140387,0.00033797,
 -0.00014756,0.09512402,0.00003925,0.00028853,-0.00046239,0.00038255,0.
 00049249,-0.00061822,0.00080691,0.00120122,-0.00100531,-0.06869955,-0.
 18398637,0.10390730,0.00122666,0.00416787,-0.00231815,0.00004686,0.001
 21992,-0.00055065,0.00055525,0.00164989,-0.00189557,-0.00011241,-0.000
 01872,-0.00002264,0.00007779,-0.00002191,0.00000054,0.00020201,-0.0000
 3907,0.00007255,-0.00099287,0.00042060,-0.00037620,0.00055584,0.001507
 01,0.00006921,-0.00055649,0.00086157,-0.00022139,0.07652424,0.19395329
 ,-0.00002222,-0.00037766,0.00015860,-0.00100233,-0.00097533,0.00096738
 ,0.00055354,0.00082885,-0.00056621,0.05152162,0.09766064,-0.12284853,0
 .01133193,0.02410515,-0.03017670,-0.00439532,-0.00213246,-0.00407106,0
 .00285286,-0.00018989,0.00269711,0.00004069,0.00001484,0.00000306,0.00
 001841,0.00001121,-0.00001454,-0.00015772,0.00004547,-0.00011517,0.000
 24397,0.00021334,0.00054312,-0.00057205,-0.00023968,0.00024962,0.00016
 996,0.00003181,-0.00000181,-0.05572156,-0.11261503,0.14753722,-0.00012
 850,-0.00014518,-0.00018073,0.00188826,-0.00103612,0.00047511,-0.01182
 869,0.03090620,0.01311686,-0.06846732,0.05487361,0.02162640,0.00087964
 ,-0.01137463,-0.00917241,-0.00032181,-0.00092377,0.00103361,0.00574036
 ,-0.00247081,-0.00164653,-0.00008243,-0.00010189,-0.00013214,0.0003271
 1,-0.00020263,-0.00006513,-0.00002893,-0.00000964,0.00002687,-0.000220
 05,0.00009205,0.00010242,0.00182068,-0.00049544,0.00027139,-0.00647359
 ,0.00071220,-0.00056579,0.00371117,-0.01057438,-0.00346460,0.07311500,
 0.00008977,0.00022584,0.00030503,-0.00030431,0.00063510,0.00079763,-0.
 00078912,-0.00277322,-0.00138938,0.05883395,-0.22570876,-0.06545156,-0
 .00147426,-0.00363612,-0.01227754,-0.00128638,0.00249248,0.00198672,0.
 00031247,0.00208164,0.00133542,0.00009692,-0.00001439,0.00003960,-0.00
 019864,0.00002716,-0.00003086,0.00004323,-0.00001649,-0.00000787,0.000
 00257,-0.00019016,-0.00035514,0.00033516,0.00115938,0.00008063,0.00016
 638,0.00147310,-0.00008064,0.00744546,-0.02155413,-0.00765125,-0.06173
 786,0.24538553,-0.00000938,-0.00003660,0.00013409,0.00001635,0.0003574
 9,0.00079124,0.00136302,-0.00098018,0.00003626,0.02398143,-0.06742870,
 -0.07543212,0.00182800,-0.03193611,-0.03105799,-0.00050190,-0.00591058
 ,0.00379130,0.00493695,0.00106731,0.00046443,0.00000483,0.00000826,-0.
 00000650,-0.00006920,-0.00002028,-0.00012579,-0.00001973,0.00000296,-0
 .00003077,-0.00000123,0.00007782,0.00017127,-0.00014556,-0.00032755,-0
 .00001381,-0.00017049,-0.00031052,-0.00009422,-0.00458787,0.01560840,0
 .00705298,-0.02421363,0.08511237,0.09183842,0.00008608,-0.00002384,0.0
 0004016,0.00051344,0.00050617,-0.00038040,-0.00114215,-0.00062662,-0.0
 0107191,-0.00087190,-0.00039101,-0.00031770,-0.00732304,-0.00233331,0.
 00029767,-0.30565170,0.00356593,0.03492580,-0.00016684,-0.00239895,0.0
 0166123,-0.00000364,0.00000656,-0.00001171,-0.00000368,-0.00000223,0.0
 0000395,0.00001630,0.00000748,0.00002401,-0.00017301,0.00009269,-0.000
 22496,0.00032335,0.00094078,-0.00126350,0.00001623,-0.00003023,0.00010
 586,0.00007827,0.00002879,0.00010040,0.00002110,0.00017644,0.00013316,
 0.33494444,0.00004707,0.00005240,0.00003113,0.00008707,-0.00026606,-0.
 00020824,0.00023749,0.00090680,0.00068967,-0.00008282,0.00081982,-0.00
 032844,-0.02649627,-0.00166984,0.00055385,0.01148887,-0.04891754,0.000
 41552,-0.00340082,-0.00263972,0.00389570,0.00000152,-0.00001073,-0.000
 00301,0.00000627,-0.00001458,0.00001328,-0.00001684,-0.00000936,-0.000
 00346,-0.00002999,-0.00001620,0.00003908,-0.00006332,0.00007933,0.0001
 4663,0.00005865,-0.00044297,-0.00006113,-0.00005955,-0.00005450,-0.000
 21082,0.00020110,-0.00001156,0.00030538,-0.00187102,0.05325530,-0.0002
 0376,0.00004558,0.00000013,-0.00021515,-0.00013558,0.00022905,-0.00007
 600,0.00088629,-0.00147108,0.00063576,-0.00078203,0.00035238,0.0224339
 2,0.00170724,-0.00238830,0.02831618,0.00048420,-0.05363948,0.00148264,
 0.00297281,-0.00191586,0.00003301,-0.00001556,0.00003379,0.00002904,-0
 .00002584,-0.00002979,-0.00001081,-0.00001213,-0.00002516,0.00011144,-
 0.00002276,0.00010746,-0.00109828,-0.00020752,-0.00131744,-0.00007187,
 -0.00000681,0.00012706,-0.00005803,-0.00000127,0.00029511,-0.00010827,
 0.00001152,-0.00019345,-0.03761395,-0.00460195,0.05539338,0.00013595,-
 0.00000761,-0.00001218,0.00012822,0.00021433,-0.00021279,-0.00034499,-
 0.00054032,-0.00010770,-0.00090423,-0.00146822,0.00202691,0.00273080,0
 .00066552,0.00849743,-0.10437126,-0.02373959,-0.11226568,0.00101220,0.
 00007508,0.00174597,-0.00002395,0.00000990,-0.00002074,-0.00002247,0.0
 0001550,0.00001789,0.00000767,0.00000220,0.00002245,-0.00010506,0.0000
 2044,-0.00011961,0.00034555,0.00047504,-0.00005993,0.00004698,0.000008
 97,0.00002560,0.00052495,-0.00016599,0.00051012,0.00001984,-0.00010357
 ,-0.00022489,-0.01202238,-0.00632295,-0.02681812,0.10837689,-0.0000463
 3,-0.00002112,0.00001581,0.00021231,0.00006525,-0.00001488,-0.00057619
 ,-0.00010085,0.00001347,-0.00271443,-0.00293637,0.00235072,0.01310466,
 0.00161485,0.02790246,-0.02789178,-0.05945747,-0.05436656,0.00130394,0
 .00061301,-0.00044650,0.00001841,-0.00000049,0.00000797,0.00002296,-0.
 00000424,-0.00000798,0.00002407,0.00000632,-0.00000336,-0.00005962,0.0
 0007313,-0.00004917,0.00020833,0.00006585,-0.00008969,0.00002785,0.000
 04015,-0.00006016,0.00038963,0.00031197,0.00147839,-0.00008544,0.00019
 890,0.00067100,0.00136568,-0.00037519,0.00130548,0.02791247,0.06529510
 ,0.00011711,0.00000584,-0.00002283,-0.00032612,-0.00005743,0.00001879,
 0.00081886,0.00000063,0.00026225,0.00295901,0.00364976,-0.00107389,-0.
 01115895,0.00109794,-0.02490031,-0.10499845,-0.04617199,-0.24779084,-0
 .00157502,-0.00155557,0.00199699,-0.00002980,0.00000513,-0.00002070,-0
 .00004360,0.00002375,0.00001711,-0.00002064,-0.00000898,0.00000539,0.0
 0006345,-0.00006942,0.00007425,-0.00012691,-0.00017906,0.00004169,-0.0
 0009360,0.00007722,-0.00001010,-0.00055249,0.00011643,-0.00130018,0.00
 006556,-0.00007880,0.00027607,0.00244613,0.00085338,0.00622027,0.11743
 058,0.04587144,0.27430156,-0.00000938,0.00004137,0.00000992,0.00010267
 ,-0.00009685,-0.00010536,-0.00008628,0.00017898,0.00021993,-0.00025180
 ,0.00044742,-0.00061059,0.00376305,-0.01027858,-0.00182843,-0.07087424
 ,0.05742254,0.02302738,0.00326521,-0.00140641,-0.00182403,-0.00000026,
 -0.00000415,-0.00000631,0.00001166,-0.00002610,-0.00000066,-0.00001157
 ,0.00000071,0.00000696,-0.00000620,0.00001654,-0.00000575,-0.00012807,
 0.00008435,0.00010834,0.00003129,-0.00020461,0.00000791,0.00000261,-0.
 00008591,-0.00010232,-0.00018955,0.00035596,-0.00028453,-0.00828718,0.
 02862837,0.01177347,0.00446374,-0.01327547,-0.00511801,0.06758631,-0.0
 0015279,-0.00009795,0.00006455,0.00044807,0.00017971,0.00014251,-0.000
 33391,-0.00010361,0.00037868,-0.00207874,0.00090989,-0.00479438,0.0028
 3605,-0.03800561,0.00658412,0.05802584,-0.22380229,-0.07135516,0.00273
 545,0.00254866,-0.00028019,0.00005436,-0.00000416,0.00002836,0.0000438
 4,-0.00000055,-0.00001677,0.00003438,0.00002559,-0.00001862,-0.0000372
 3,0.00002362,-0.00006723,0.00032960,-0.00000087,0.00000435,-0.00021977
 ,0.00013301,-0.00003209,-0.00016693,0.00054081,0.00029810,0.00025047,0
 .00118128,0.00237763,0.00065960,-0.00012020,-0.00154277,0.00288152,-0.
 00532740,-0.00326799,-0.06317842,0.26162907,-0.00001788,-0.00002067,-0
 .00002963,-0.00008472,-0.00002332,0.00007174,-0.00002604,-0.00017926,-
 0.00022152,-0.00001345,0.00392355,0.00553272,-0.00467508,0.02793778,0.
 00347273,0.02331929,-0.06973669,-0.07966208,-0.00328707,0.00022025,0.0
 0112152,-0.00000262,0.00000014,0.00000873,0.00000613,0.00000933,0.0000
 0190,0.00000406,-0.00000106,-0.00000755,0.00002412,-0.00000543,0.00001
 730,-0.00003090,-0.00010147,-0.00001889,0.00011251,0.00000943,-0.00000
 789,0.00013149,-0.00050979,-0.00002275,0.00068564,-0.00210294,0.000848
 99,0.00006724,-0.00350088,-0.00148240,0.00947798,-0.02438568,-0.008447
 59,-0.02558753,0.07027359,0.07899389,-0.00011495,-0.00000012,0.0000381
 2,0.00017220,0.00011908,0.00000067,0.00010662,0.00037476,-0.00005713,-
 0.00010958,-0.00253440,0.00147722,-0.02376304,-0.03779223,0.02140593,-
 0.00759051,-0.00066998,-0.00163160,-0.05850544,-0.04511822,0.03325887,
 0.00003715,-0.00000777,0.00002766,0.00002415,-0.00001431,-0.00001338,0
 .00001669,0.00000819,-0.00000586,-0.00005055,0.00000812,-0.00007374,0.
 00031201,0.00006732,0.00003715,-0.00004535,-0.00000090,0.00006266,0.00
 017541,0.00052687,-0.00120253,0.00002010,0.00010514,-0.00040608,-0.000
 29004,-0.00146779,0.00122157,0.00022653,0.00041621,-0.00003127,-0.0000
 4803,-0.00039109,-0.00013472,0.08492310,-0.00009084,-0.00000842,0.0000
 5800,0.00024748,-0.00001111,-0.00005527,-0.00002611,0.00057258,0.00007
 236,0.00123204,-0.00025953,-0.00056979,0.00083987,0.00306078,0.0040653
 1,-0.00119609,0.00126804,-0.00058820,-0.07101500,-0.34742999,0.1132476
 4,0.00003371,-0.00000671,0.00002191,0.00003485,-0.00001759,-0.00001598
 ,0.00000631,-0.00000017,-0.00000896,-0.00004756,0.00003450,-0.00000003
 ,0.00020872,0.00003421,-0.00001470,0.00004330,-0.00007458,-0.00003198,
 -0.00058103,0.00007733,-0.00059573,0.00009613,-0.00027278,0.00020174,0
 .00021300,0.00006434,0.00011017,0.00005620,-0.00002065,-0.00016456,0.0
 0027366,0.00049969,-0.00028228,0.07475570,0.36907948,-0.00017024,0.000
 02430,0.00003813,0.00021524,-0.00000183,0.00003114,-0.00017388,0.00055
 747,-0.00003514,-0.00146694,-0.00267574,0.00116567,-0.00672921,-0.0008
 3208,-0.00612193,0.00292182,0.00012358,0.00017050,0.05707008,0.1602027
 6,-0.08091230,0.00004101,-0.00001158,0.00003389,0.00005207,-0.00002949
 ,-0.00002719,0.00001828,-0.00000222,-0.00001513,-0.00006528,0.00004071
 ,-0.00002106,0.00014155,-0.00007773,-0.00003792,0.00000625,-0.00005687
 ,-0.00003022,-0.00017693,0.00071920,-0.00037893,0.00030598,0.00028335,
 -0.00002992,0.00090495,0.00091052,-0.00032265,0.00026406,0.00011904,0.
 00052561,-0.00007373,-0.00005486,-0.00003970,-0.04678764,-0.13101576,0
 .08292655,-0.00003311,-0.00004358,0.00002596,0.00010149,-0.00016774,-0
 .00018903,-0.00020793,-0.00025578,-0.00023748,0.00314041,0.00297067,0.
 00596730,-0.03877971,0.02697376,0.02702031,-0.00000684,0.00434295,-0.0
 0184517,-0.07868213,0.05522944,0.06331622,0.00001434,0.00000071,0.0000
 1704,0.00002643,-0.00001029,-0.00000122,0.00000485,0.00000415,-0.00000
 304,-0.00006606,0.00004795,0.00000606,0.00015132,0.00004187,0.00000211
 ,0.00060076,-0.00026404,-0.00008989,-0.00015342,0.00021460,-0.00070285
 ,0.00019762,-0.00206930,-0.00162923,-0.00006367,-0.00094504,0.00023718
 ,-0.00022499,-0.00035726,0.00017417,0.00066602,-0.00174031,0.00003156,
 0.00450353,-0.00508434,-0.00629745,0.10881109,0.00002553,-0.00000086,-
 0.00003342,-0.00005214,-0.00000737,0.00006348,-0.00031350,-0.00001115,
 -0.00000484,-0.00244950,0.00379899,0.00142383,0.00545047,0.00647434,0.
 00255219,-0.00072206,0.00385653,0.00038679,0.06224409,-0.21497110,-0.1
 3102109,-0.00000809,0.00000015,-0.00000074,-0.00000312,0.00001113,0.00
 001268,-0.00000663,-0.00000088,-0.00000012,0.00005691,-0.00004611,-0.0
 0000809,-0.00014052,-0.00001568,0.00000647,-0.00021472,-0.00001815,-0.
 00009315,0.00014848,-0.00101779,0.00030004,0.00202600,-0.00068280,0.00
 116016,0.00011409,-0.00062953,-0.00016907,0.00001107,-0.00004075,-0.00
 014774,0.00110662,-0.00020870,-0.00152461,0.01161542,-0.02658943,-0.02
 822275,-0.07888841,0.23009917,-0.00019991,-0.00008428,0.00001142,0.000
 34831,-0.00002353,0.00008400,-0.00075832,0.00018224,-0.00031214,-0.002
 61037,0.00586262,0.00322112,-0.00034428,0.00229110,-0.00356076,0.00144
 430,-0.00328275,-0.00014907,0.09295542,-0.17736918,-0.16463182,0.00004
 476,-0.00000866,0.00004268,0.00007879,-0.00001950,-0.00002087,0.000018
 11,0.00001515,-0.00002305,-0.00003602,0.00001847,-0.00001997,0.0001319
 9,0.00004255,0.00002071,-0.00001021,-0.00011715,-0.00016761,-0.0003031
 1,0.00010298,-0.00000832,0.00183939,-0.00052632,0.00157952,0.00017356,
 0.00106380,0.00002698,-0.00017735,-0.00031181,-0.00017354,0.00039334,0
 .00127818,-0.00012950,-0.00718587,0.01556612,0.00308059,-0.08580255,0.
 15531997,0.16112961\\0.00001981,-0.00000213,-0.00000309,-0.00001143,0.
 00000963,0.00001678,-0.00002175,-0.00001086,-0.00002171,0.00000453,-0.
 00000383,0.00002291,0.00004338,-0.00001042,-0.00000020,-0.00000844,-0.
 00000361,-0.00001335,-0.00003340,0.00001629,-0.00001304,-0.00000730,0.
 00000006,-0.00000346,-0.00000142,0.00000307,-0.00000196,0.00000148,0.0
 0000093,-0.00000020,-0.00000453,-0.00000462,0.00000300,0.00000547,0.00
 000571,-0.00000644,0.00000308,0.00000487,0.00000209,-0.00000047,0.0000
 0527,0.00000250,0.00000612,-0.00000109,-0.00000462,0.00000390,-0.00000
 068,0.00000684,-0.00000237,0.00000328,0.00000244,0.00000160,0.00000108
 ,-0.00000065,0.00000251,-0.00001015,0.00000767,-0.00000077,-0.00000279
 ,0.00000450\\\@


 GETTING A SIMPLE ANSWER FROM A PROFESSOR IS LIKE
 GETTING A THIMBLE OF WATER FROM A FIRE HYDRANT.
     -- PROF. LEN SHAPIRO, NDSU
 Job cpu time:       0 days  1 hours 17 minutes 39.6 seconds.
 Elapsed time:       0 days  0 hours 19 minutes 25.9 seconds.
 File lengths (MBytes):  RWF=    107 Int=      0 D2E=      0 Chk=      7 Scr=      1
 Normal termination of Gaussian 16 at Tue Jun  1 20:37:41 2021.
### All Done ###
