### Starting Gaussian ###
 Entering Gaussian System, Link 0=g16
 Initial command:
 /cluster/software/gaussian/gaussian-16-A.03/avx2/g16/l1.exe "/local/scratch/cz9n3/Gau-3142.inp" -scrdir="/local/scratch/cz9n3/"
 Entering Link 1 = /cluster/software/gaussian/gaussian-16-A.03/avx2/g16/l1.exe PID=      3154.
  
 Copyright (c) 1988,1990,1992,1993,1995,1998,2003,2009,2016,
            Gaussian, Inc.  All Rights Reserved.
  
 This is part of the Gaussian(R) 16 program.  It is based on
 the Gaussian(R) 09 system (copyright 2009, Gaussian, Inc.),
 the Gaussian(R) 03 system (copyright 2003, Gaussian, Inc.),
 the Gaussian(R) 98 system (copyright 1998, Gaussian, Inc.),
 the Gaussian(R) 94 system (copyright 1995, Gaussian, Inc.),
 the Gaussian 92(TM) system (copyright 1992, Gaussian, Inc.),
 the Gaussian 90(TM) system (copyright 1990, Gaussian, Inc.),
 the Gaussian 88(TM) system (copyright 1988, Gaussian, Inc.),
 the Gaussian 86(TM) system (copyright 1986, Carnegie Mellon
 University), and the Gaussian 82(TM) system (copyright 1983,
 Carnegie Mellon University). Gaussian is a federally registered
 trademark of Gaussian, Inc.
  
 This software contains proprietary and confidential information,
 including trade secrets, belonging to Gaussian, Inc.
  
 This software is provided under written license and may be
 used, copied, transmitted, or stored only in accord with that
 written license.
  
 The following legend is applicable only to US Government
 contracts under FAR:
  
                    RESTRICTED RIGHTS LEGEND
  
 Use, reproduction and disclosure by the US Government is
 subject to restrictions as set forth in subparagraphs (a)
 and (c) of the Commercial Computer Software - Restricted
 Rights clause in FAR 52.227-19.
  
 Gaussian, Inc.
 340 Quinnipiac St., Bldg. 40, Wallingford CT 06492
  
  
 ---------------------------------------------------------------
 Warning -- This program may not be used in any manner that
 competes with the business of Gaussian, Inc. or will provide
 assistance to any competitor of Gaussian, Inc.  The licensee
 of this program is prohibited from giving any competitor of
 Gaussian, Inc. access to this program.  By using this program,
 the user acknowledges that Gaussian, Inc. is engaged in the
 business of creating and licensing software in the field of
 computational chemistry and represents and warrants to the
 licensee that it is not a competitor of Gaussian, Inc. and that
 it will not use this program in any manner prohibited above.
 ---------------------------------------------------------------
  

 Cite this work as:
 Gaussian 16, Revision A.03,
 M. J. Frisch, G. W. Trucks, H. B. Schlegel, G. E. Scuseria, 
 M. A. Robb, J. R. Cheeseman, G. Scalmani, V. Barone, 
 G. A. Petersson, H. Nakatsuji, X. Li, M. Caricato, A. V. Marenich, 
 J. Bloino, B. G. Janesko, R. Gomperts, B. Mennucci, H. P. Hratchian, 
 J. V. Ortiz, A. F. Izmaylov, J. L. Sonnenberg, D. Williams-Young, 
 F. Ding, F. Lipparini, F. Egidi, J. Goings, B. Peng, A. Petrone, 
 T. Henderson, D. Ranasinghe, V. G. Zakrzewski, J. Gao, N. Rega, 
 G. Zheng, W. Liang, M. Hada, M. Ehara, K. Toyota, R. Fukuda, 
 J. Hasegawa, M. Ishida, T. Nakajima, Y. Honda, O. Kitao, H. Nakai, 
 T. Vreven, K. Throssell, J. A. Montgomery, Jr., J. E. Peralta, 
 F. Ogliaro, M. J. Bearpark, J. J. Heyd, E. N. Brothers, K. N. Kudin, 
 V. N. Staroverov, T. A. Keith, R. Kobayashi, J. Normand, 
 K. Raghavachari, A. P. Rendell, J. C. Burant, S. S. Iyengar, 
 J. Tomasi, M. Cossi, J. M. Millam, M. Klene, C. Adamo, R. Cammi, 
 J. W. Ochterski, R. L. Martin, K. Morokuma, O. Farkas, 
 J. B. Foresman, and D. J. Fox, Gaussian, Inc., Wallingford CT, 2016.
 
 ******************************************
 Gaussian 16:  ES64L-G16RevA.03 25-Dec-2016
                31-May-2021 
 ******************************************
 %chk=CNCdNNCNpCpCNdN.chk
 %NProcShared=20
 Will use up to   20 processors via shared memory.
 -----------------------------
 # opt freq b3lyp/6-31g(2df,p)
 -----------------------------
 1/18=20,19=15,26=3,38=1/1,3;
 2/9=110,12=2,17=6,18=5,40=1/2;
 3/5=1,6=6,7=104,11=2,25=1,30=1,71=1,74=-5/1,2,3;
 4//1;
 5/5=2,38=5/2;
 6/7=2,8=2,9=2,10=2,28=1/1;
 7//1,2,3,16;
 1/18=20,19=15,26=3/3(2);
 2/9=110/2;
 99//99;
 2/9=110/2;
 3/5=1,6=6,7=104,11=2,25=1,30=1,71=1,74=-5/1,2,3;
 4/5=5,16=3,69=1/1;
 5/5=2,38=5/2;
 7//1,2,3,16;
 1/18=20,19=15,26=3/3(-5);
 2/9=110/2;
 6/7=2,8=2,9=2,10=2,19=2,28=1/1;
 99/9=1/99;
 -------------------
 Title Card Required
 -------------------
 Symbolic Z-matrix:
 Charge =  0 Multiplicity = 1
 C                     1.10306   0.10851   0.02491 
 N                     2.54065   0.14356  -0.01204 
 C                     3.30745   0.89301  -0.85097 
 N                     4.60779   0.87341  -0.82257 
 N                     5.2326    1.68847  -1.69234 
 C                     6.68398   1.74574  -1.76144 
 N                     7.13745   2.69375  -2.79224 
 C                     6.69952   4.06091  -2.49763 
 C                     8.6201    2.68269  -2.85392 
 N                     9.15313   3.56019  -3.92507 
 N                     10.39415   3.68937  -3.89683 
 H                     0.76347  -0.59013   0.79793 
 H                     0.69375  -0.22829  -0.93213 
 H                     0.68987   1.09367   0.26183 
 H                     3.04627  -0.44656   0.63908 
 H                     2.72117   1.51968  -1.54545 
 H                     4.73599   2.14483  -2.45001 
 H                     7.06319   0.74454  -2.00142 
 H                     7.0763    2.02676  -0.77695 
 H                     5.60874   4.14009  -2.51202 
 H                     7.04685   4.75887  -3.2679 
 H                     7.06449   4.41009  -1.52584 
 H                     8.97778   1.66529  -3.0584 
 H                     9.0465    2.98998  -1.88697 
 H                     10.72128   4.31162  -4.64978 
 

 GradGradGradGradGradGradGradGradGradGradGradGradGradGradGradGradGradGrad
 Berny optimization.
 Initialization pass.
                           ----------------------------
                           !    Initial Parameters    !
                           ! (Angstroms and Degrees)  !
 --------------------------                            --------------------------
 ! Name  Definition              Value          Derivative Info.                !
 --------------------------------------------------------------------------------
 ! R1    R(1,2)                  1.4385         estimate D2E/DX2                !
 ! R2    R(1,12)                 1.0959         estimate D2E/DX2                !
 ! R3    R(1,13)                 1.094          estimate D2E/DX2                !
 ! R4    R(1,14)                 1.0943         estimate D2E/DX2                !
 ! R5    R(2,3)                  1.3614         estimate D2E/DX2                !
 ! R6    R(2,15)                 1.0138         estimate D2E/DX2                !
 ! R7    R(3,4)                  1.3008         estimate D2E/DX2                !
 ! R8    R(3,16)                 1.104          estimate D2E/DX2                !
 ! R9    R(4,5)                  1.3458         estimate D2E/DX2                !
 ! R10   R(5,6)                  1.4542         estimate D2E/DX2                !
 ! R11   R(5,17)                 1.0144         estimate D2E/DX2                !
 ! R12   R(6,7)                  1.472          estimate D2E/DX2                !
 ! R13   R(6,18)                 1.0972         estimate D2E/DX2                !
 ! R14   R(6,19)                 1.0964         estimate D2E/DX2                !
 ! R15   R(7,8)                  1.4655         estimate D2E/DX2                !
 ! R16   R(7,9)                  1.484          estimate D2E/DX2                !
 ! R17   R(8,20)                 1.0937         estimate D2E/DX2                !
 ! R18   R(8,21)                 1.0959         estimate D2E/DX2                !
 ! R19   R(8,22)                 1.0952         estimate D2E/DX2                !
 ! R20   R(9,10)                 1.4837         estimate D2E/DX2                !
 ! R21   R(9,23)                 1.0977         estimate D2E/DX2                !
 ! R22   R(9,24)                 1.1006         estimate D2E/DX2                !
 ! R23   R(10,11)                1.248          estimate D2E/DX2                !
 ! R24   R(11,25)                1.0301         estimate D2E/DX2                !
 ! A1    A(2,1,12)             110.0801         estimate D2E/DX2                !
 ! A2    A(2,1,13)             111.0344         estimate D2E/DX2                !
 ! A3    A(2,1,14)             111.1608         estimate D2E/DX2                !
 ! A4    A(12,1,13)            107.75           estimate D2E/DX2                !
 ! A5    A(12,1,14)            107.7111         estimate D2E/DX2                !
 ! A6    A(13,1,14)            108.9832         estimate D2E/DX2                !
 ! A7    A(1,2,3)              126.3079         estimate D2E/DX2                !
 ! A8    A(1,2,15)             117.8871         estimate D2E/DX2                !
 ! A9    A(3,2,15)             115.8034         estimate D2E/DX2                !
 ! A10   A(2,3,4)              122.7715         estimate D2E/DX2                !
 ! A11   A(2,3,16)             113.642          estimate D2E/DX2                !
 ! A12   A(4,3,16)             123.5846         estimate D2E/DX2                !
 ! A13   A(3,4,5)              116.159          estimate D2E/DX2                !
 ! A14   A(4,5,6)              121.1942         estimate D2E/DX2                !
 ! A15   A(4,5,17)             121.8641         estimate D2E/DX2                !
 ! A16   A(6,5,17)             115.8126         estimate D2E/DX2                !
 ! A17   A(5,6,7)              111.4757         estimate D2E/DX2                !
 ! A18   A(5,6,18)             108.6279         estimate D2E/DX2                !
 ! A19   A(5,6,19)             108.9394         estimate D2E/DX2                !
 ! A20   A(7,6,18)             109.15           estimate D2E/DX2                !
 ! A21   A(7,6,19)             110.7002         estimate D2E/DX2                !
 ! A22   A(18,6,19)            107.8554         estimate D2E/DX2                !
 ! A23   A(6,7,8)              111.5903         estimate D2E/DX2                !
 ! A24   A(6,7,9)              109.3954         estimate D2E/DX2                !
 ! A25   A(8,7,9)              108.2924         estimate D2E/DX2                !
 ! A26   A(7,8,20)             111.2788         estimate D2E/DX2                !
 ! A27   A(7,8,21)             110.985          estimate D2E/DX2                !
 ! A28   A(7,8,22)             112.0998         estimate D2E/DX2                !
 ! A29   A(20,8,21)            105.1123         estimate D2E/DX2                !
 ! A30   A(20,8,22)            108.7191         estimate D2E/DX2                !
 ! A31   A(21,8,22)            108.3591         estimate D2E/DX2                !
 ! A32   A(7,9,10)             112.6143         estimate D2E/DX2                !
 ! A33   A(7,9,23)             109.8902         estimate D2E/DX2                !
 ! A34   A(7,9,24)             110.3952         estimate D2E/DX2                !
 ! A35   A(10,9,23)            107.2547         estimate D2E/DX2                !
 ! A36   A(10,9,24)            109.2667         estimate D2E/DX2                !
 ! A37   A(23,9,24)            107.2306         estimate D2E/DX2                !
 ! A38   A(9,10,11)            113.7098         estimate D2E/DX2                !
 ! A39   A(10,11,25)           111.2085         estimate D2E/DX2                !
 ! D1    D(12,1,2,3)           179.6426         estimate D2E/DX2                !
 ! D2    D(12,1,2,15)            0.1221         estimate D2E/DX2                !
 ! D3    D(13,1,2,3)            60.4109         estimate D2E/DX2                !
 ! D4    D(13,1,2,15)         -119.1096         estimate D2E/DX2                !
 ! D5    D(14,1,2,3)           -61.0938         estimate D2E/DX2                !
 ! D6    D(14,1,2,15)          119.3856         estimate D2E/DX2                !
 ! D7    D(1,2,3,4)            179.8498         estimate D2E/DX2                !
 ! D8    D(1,2,3,16)             0.3399         estimate D2E/DX2                !
 ! D9    D(15,2,3,4)            -0.6209         estimate D2E/DX2                !
 ! D10   D(15,2,3,16)          179.8691         estimate D2E/DX2                !
 ! D11   D(2,3,4,5)           -178.6247         estimate D2E/DX2                !
 ! D12   D(16,3,4,5)             0.8364         estimate D2E/DX2                !
 ! D13   D(3,4,5,6)           -179.4973         estimate D2E/DX2                !
 ! D14   D(3,4,5,17)           -12.1549         estimate D2E/DX2                !
 ! D15   D(4,5,6,7)            179.4065         estimate D2E/DX2                !
 ! D16   D(4,5,6,18)            59.1005         estimate D2E/DX2                !
 ! D17   D(4,5,6,19)           -58.1417         estimate D2E/DX2                !
 ! D18   D(17,5,6,7)            11.3372         estimate D2E/DX2                !
 ! D19   D(17,5,6,18)         -108.9687         estimate D2E/DX2                !
 ! D20   D(17,5,6,19)          133.7891         estimate D2E/DX2                !
 ! D21   D(5,6,7,8)             62.0332         estimate D2E/DX2                !
 ! D22   D(5,6,7,9)           -178.153          estimate D2E/DX2                !
 ! D23   D(18,6,7,8)          -177.9683         estimate D2E/DX2                !
 ! D24   D(18,6,7,9)           -58.1545         estimate D2E/DX2                !
 ! D25   D(19,6,7,8)           -59.4007         estimate D2E/DX2                !
 ! D26   D(19,6,7,9)            60.4131         estimate D2E/DX2                !
 ! D27   D(6,7,8,20)           -63.6244         estimate D2E/DX2                !
 ! D28   D(6,7,8,21)           179.6933         estimate D2E/DX2                !
 ! D29   D(6,7,8,22)            58.3715         estimate D2E/DX2                !
 ! D30   D(9,7,8,20)           175.9134         estimate D2E/DX2                !
 ! D31   D(9,7,8,21)            59.2311         estimate D2E/DX2                !
 ! D32   D(9,7,8,22)           -62.0907         estimate D2E/DX2                !
 ! D33   D(6,7,9,10)           176.808          estimate D2E/DX2                !
 ! D34   D(6,7,9,23)            57.3084         estimate D2E/DX2                !
 ! D35   D(6,7,9,24)           -60.7647         estimate D2E/DX2                !
 ! D36   D(8,7,9,10)           -61.3721         estimate D2E/DX2                !
 ! D37   D(8,7,9,23)           179.1283         estimate D2E/DX2                !
 ! D38   D(8,7,9,24)            61.0553         estimate D2E/DX2                !
 ! D39   D(7,9,10,11)          172.0885         estimate D2E/DX2                !
 ! D40   D(23,9,10,11)         -66.8938         estimate D2E/DX2                !
 ! D41   D(24,9,10,11)          49.0283         estimate D2E/DX2                !
 ! D42   D(9,10,11,25)        -179.4704         estimate D2E/DX2                !
 --------------------------------------------------------------------------------
 Trust Radius=3.00D-01 FncErr=1.00D-07 GrdErr=1.00D-06 EigMax=2.50D+02 EigMin=1.00D-04
 Number of steps in this run=    115 maximum allowed number of steps=    150.
 GradGradGradGradGradGradGradGradGradGradGradGradGradGradGradGradGradGrad

                          Input orientation:                          
 ---------------------------------------------------------------------
 Center     Atomic      Atomic             Coordinates (Angstroms)
 Number     Number       Type             X           Y           Z
 ---------------------------------------------------------------------
      1          6           0        1.103060    0.108510    0.024910
      2          7           0        2.540650    0.143560   -0.012040
      3          6           0        3.307450    0.893010   -0.850970
      4          7           0        4.607790    0.873410   -0.822570
      5          7           0        5.232600    1.688470   -1.692340
      6          6           0        6.683980    1.745740   -1.761440
      7          7           0        7.137450    2.693750   -2.792240
      8          6           0        6.699520    4.060910   -2.497630
      9          6           0        8.620100    2.682690   -2.853920
     10          7           0        9.153130    3.560190   -3.925070
     11          7           0       10.394150    3.689370   -3.896830
     12          1           0        0.763470   -0.590130    0.797930
     13          1           0        0.693750   -0.228290   -0.932130
     14          1           0        0.689870    1.093670    0.261830
     15          1           0        3.046270   -0.446560    0.639080
     16          1           0        2.721170    1.519680   -1.545450
     17          1           0        4.735990    2.144830   -2.450010
     18          1           0        7.063190    0.744540   -2.001420
     19          1           0        7.076300    2.026760   -0.776950
     20          1           0        5.608740    4.140090   -2.512020
     21          1           0        7.046850    4.758870   -3.267900
     22          1           0        7.064490    4.410090   -1.525840
     23          1           0        8.977780    1.665290   -3.058400
     24          1           0        9.046500    2.989980   -1.886970
     25          1           0       10.721280    4.311620   -4.649780
 ---------------------------------------------------------------------
                    Distance matrix (angstroms):
                    1          2          3          4          5
     1  C    0.000000
     2  N    1.438492   0.000000
     3  C    2.498388   1.361419   0.000000
     4  N    3.685977   2.337244   1.300798   0.000000
     5  N    4.743240   3.529412   2.246522   1.345812   0.000000
     6  C    6.084261   4.774365   3.599591   2.439877   1.454152
     7  N    7.143785   5.946726   4.656189   3.686790   2.418434
     8  C    7.301030   6.230569   4.924756   4.164291   2.903243
     9  C    8.451033   7.175178   5.953068   4.847526   3.716571
    10  N    9.608333   8.408927   7.122915   6.124084   4.884565
    11  N   10.701727   9.452080   8.204767   7.131807   5.958605
    12  H    1.095892   2.086318   3.374968   4.421172   5.600588
    13  H    1.094027   2.096635   2.845229   4.067611   4.985283
    14  H    1.094257   2.098357   2.851370   4.071183   4.980860
    15  H    2.112196   1.013830   2.020622   2.513381   3.843685
    16  H    2.660021   2.068246   1.103966   2.121216   2.521378
    17  H    4.844585   3.842954   2.482883   2.069180   1.014372
    18  H    6.327219   4.977166   3.930797   2.726772   2.082689
    19  H    6.324734   4.970277   3.936381   2.725039   2.086051
    20  H    6.556737   5.624529   4.312604   3.811475   2.612240
    21  H    8.233899   7.225479   5.896570   5.198601   3.898878
    22  H    7.513126   6.400000   5.190438   4.363264   3.284929
    23  H    8.598929   7.282349   6.133662   4.972205   3.986606
    24  H    8.663509   7.344628   6.197360   5.031398   4.034556
    25  H   11.490388  10.286110   9.004595   7.990218   6.764095
                    6          7          8          9         10
     6  C    0.000000
     7  N    1.472042   0.000000
     8  C    2.429450   1.465505   0.000000
     9  C    2.412457   1.483974   2.390619   0.000000
    10  N    3.751030   2.469208   2.882448   1.483742   0.000000
    11  N    4.701377   3.580150   3.968135   2.290921   1.248045
    12  H    6.859964   8.018779   8.229798   9.261425  10.484192
    13  H    6.361400   7.315709   7.544356   8.659914   9.740194
    14  H    6.359888   7.311558   7.248105   8.667262   9.759130
    15  H    4.878689   6.194615   6.595640   7.284287   8.612738
    16  H    3.975125   4.736713   4.815783   6.153216   7.155165
    17  H    2.104297   2.487055   2.743917   3.941922   4.867255
    18  H    1.097175   2.104835   3.372950   2.628146   3.999520
    19  H    1.096407   2.123678   2.690812   2.669713   4.071276
    20  H    2.729913   2.123058   1.093745   3.362915   3.859494
    21  H    3.388222   2.121127   1.095948   2.637616   2.511000
    22  H    2.701677   2.134225   1.095219   2.677243   3.292575
    23  H    2.636303   2.124944   3.353197   1.097657   2.091055
    24  H    2.673087   2.133480   2.651059   1.100562   2.119047
    25  H    5.588026   4.348769   4.568277   3.208346   1.883865
                   11         12         13         14         15
    11  N    0.000000
    12  H   11.537109   0.000000
    13  H   10.873604   1.768869   0.000000
    14  H   10.872220   1.768616   1.781329   0.000000
    15  H    9.574536   2.292820   2.837374   2.840290   0.000000
    16  H    8.313312   3.711511   2.746269   2.752077   2.957019
    17  H    6.040999   5.814640   4.927003   4.982981   4.371834
    18  H    4.833208   7.021693   6.531428   6.772252   4.952434
    19  H    4.848304   7.012858   6.770988   6.537294   4.935949
    20  H    5.002099   7.537068   6.762834   6.416401   6.126422
    21  H    3.569846   9.199111   8.407703   8.142719   7.639740
    22  H    4.150622   8.372870   7.902746   7.404741   6.664835
    23  H    2.608825   9.350566   8.759670   8.946515   7.301649
    24  H    2.518897   9.414588   9.002078   8.834399   7.361623
    25  H    1.030118  12.363765  11.618221  11.623610  10.465089
                   16         17         18         19         20
    16  H    0.000000
    17  H    2.295330   0.000000
    18  H    4.434173   2.752799   0.000000
    19  H    4.451391   2.879257   1.773016   0.000000
    20  H    4.017321   2.178669   3.729061   3.103283   0.000000
    21  H    5.671921   3.583605   4.209404   3.697313   1.738506
    22  H    5.217210   3.377485   3.696273   2.498247   1.778949
    23  H    6.438586   4.311946   2.372897   2.991872   4.215874
    24  H    6.502939   4.428520   2.998102   2.457972   3.678537
    25  H    9.024054   6.734810   5.754954   5.788374   5.544142
                   21         22         23         24         25
    21  H    0.000000
    22  H    1.776719   0.000000
    23  H    3.652755   3.680129   0.000000
    24  H    3.005751   2.464851   1.769682   0.000000
    25  H    3.951083   4.810490   3.546173   3.490665   0.000000
 Stoichiometry    C5H14N6
 Framework group  C1[X(C5H14N6)]
 Deg. of freedom    69
 Full point group                 C1      NOp   1
 Largest Abelian subgroup         C1      NOp   1
 Largest concise Abelian subgroup C1      NOp   1
                         Standard orientation:                         
 ---------------------------------------------------------------------
 Center     Atomic      Atomic             Coordinates (Angstroms)
 Number     Number       Type             X           Y           Z
 ---------------------------------------------------------------------
      1          6           0       -5.494423    0.305368   -0.200869
      2          7           0       -4.264098   -0.360098    0.134862
      3          6           0       -3.006674    0.083024   -0.140799
      4          7           0       -1.937712   -0.575893    0.198648
      5          7           0       -0.761879   -0.001132   -0.114840
      6          6           0        0.501109   -0.647471    0.204013
      7          7           0        1.647723    0.158960   -0.245265
      8          6           0        1.687246    1.461090    0.426003
      9          6           0        2.907870   -0.561958    0.062116
     10          7           0        4.109997    0.155025   -0.430139
     11          7           0        5.186182   -0.349339   -0.049274
     12          1           0       -6.349204   -0.289256    0.140820
     13          1           0       -5.588762    0.433714   -1.283237
     14          1           0       -5.557285    1.285960    0.280674
     15          1           0       -4.322566   -1.249601    0.617786
     16          1           0       -2.984664    1.052430   -0.668539
     17          1           0       -0.704998    0.794761   -0.741154
     18          1           0        0.530632   -1.624293   -0.294724
     19          1           0        0.549151   -0.820645    1.285591
     20          1           0        0.810786    2.064648    0.173388
     21          1           0        2.547159    2.050744    0.088425
     22          1           0        1.743420    1.361605    1.515247
     23          1           0        2.899237   -1.549786   -0.416394
     24          1           0        3.001343   -0.725755    1.146399
     25          1           0        5.993494    0.182493   -0.405007
 ---------------------------------------------------------------------
 Rotational constants (GHZ):           6.0740611           0.2825695           0.2749349
 Standard basis: 6-31G(2df,p) (6D, 7F)
 There are   411 symmetry adapted cartesian basis functions of A   symmetry.
 There are   378 symmetry adapted basis functions of A   symmetry.
   378 basis functions,   582 primitive gaussians,   411 cartesian basis functions
    43 alpha electrons       43 beta electrons
       nuclear repulsion energy       597.4616118654 Hartrees.
 NAtoms=   25 NActive=   25 NUniq=   25 SFac= 1.00D+00 NAtFMM=   60 NAOKFM=F Big=F
 Integral buffers will be    131072 words long.
 Raffenetti 2 integral format.
 Two-electron integral symmetry is turned on.
 One-electron integrals computed using PRISM.
 PrsmSu:  requested number of processors reduced to:  13 ShMem   1 Linda.
 NBasis=   378 RedAO= T EigKep=  2.12D-04  NBF=   378
 NBsUse=   378 1.00D-06 EigRej= -1.00D+00 NBFU=   378
 ExpMin= 1.61D-01 ExpMax= 4.17D+03 ExpMxC= 6.27D+02 IAcc=3 IRadAn=         5 AccDes= 0.00D+00
 Harris functional with IExCor=  402 and IRadAn=       5 diagonalized for initial guess.
 HarFok:  IExCor=  402 AccDes= 0.00D+00 IRadAn=         5 IDoV= 1 UseB2=F ITyADJ=14
 ICtDFT=  3500011 ScaDFX=  1.000000  1.000000  1.000000  1.000000
 FoFCou: FMM=F IPFlag=           0 FMFlag=      100000 FMFlg1=           0
         NFxFlg=           0 DoJE=T BraDBF=F KetDBF=T FulRan=T
         wScrn=  0.000000 ICntrl=       500 IOpCl=  0 I1Cent=   200000004 NGrid=           0
         NMat0=    1 NMatS0=      1 NMatT0=    0 NMatD0=    1 NMtDS0=    0 NMtDT0=    0
 Petite list used in FoFCou.
 Requested convergence on RMS density matrix=1.00D-08 within 128 cycles.
 Requested convergence on MAX density matrix=1.00D-06.
 Requested convergence on             energy=1.00D-06.
 No special actions if energy rises.
 Integral accuracy reduced to 1.0D-05 until final iterations.
 Initial convergence to 1.0D-05 achieved.  Increase integral accuracy.
 SCF Done:  E(RB3LYP) =  -527.362906567     A.U. after   14 cycles
            NFock= 14  Conv=0.35D-08     -V/T= 2.0079

 **********************************************************************

            Population analysis using the SCF density.

 **********************************************************************

 Orbital symmetries:
       Occupied  (A) (A) (A) (A) (A) (A) (A) (A) (A) (A) (A) (A)
                 (A) (A) (A) (A) (A) (A) (A) (A) (A) (A) (A) (A)
                 (A) (A) (A) (A) (A) (A) (A) (A) (A) (A) (A) (A)
                 (A) (A) (A) (A) (A) (A) (A)
       Virtual   (A) (A) (A) (A) (A) (A) (A) (A) (A) (A) (A) (A)
                 (A) (A) (A) (A) (A) (A) (A) (A) (A) (A) (A) (A)
                 (A) (A) (A) (A) (A) (A) (A) (A) (A) (A) (A) (A)
                 (A) (A) (A) (A) (A) (A) (A) (A) (A) (A) (A) (A)
                 (A) (A) (A) (A) (A) (A) (A) (A) (A) (A) (A) (A)
                 (A) (A) (A) (A) (A) (A) (A) (A) (A) (A) (A) (A)
                 (A) (A) (A) (A) (A) (A) (A) (A) (A) (A) (A) (A)
                 (A) (A) (A) (A) (A) (A) (A) (A) (A) (A) (A) (A)
                 (A) (A) (A) (A) (A) (A) (A) (A) (A) (A) (A) (A)
                 (A) (A) (A) (A) (A) (A) (A) (A) (A) (A) (A) (A)
                 (A) (A) (A) (A) (A) (A) (A) (A) (A) (A) (A) (A)
                 (A) (A) (A) (A) (A) (A) (A) (A) (A) (A) (A) (A)
                 (A) (A) (A) (A) (A) (A) (A) (A) (A) (A) (A) (A)
                 (A) (A) (A) (A) (A) (A) (A) (A) (A) (A) (A) (A)
                 (A) (A) (A) (A) (A) (A) (A) (A) (A) (A) (A) (A)
                 (A) (A) (A) (A) (A) (A) (A) (A) (A) (A) (A) (A)
                 (A) (A) (A) (A) (A) (A) (A) (A) (A) (A) (A) (A)
                 (A) (A) (A) (A) (A) (A) (A) (A) (A) (A) (A) (A)
                 (A) (A) (A) (A) (A) (A) (A) (A) (A) (A) (A) (A)
                 (A) (A) (A) (A) (A) (A) (A) (A) (A) (A) (A) (A)
                 (A) (A) (A) (A) (A) (A) (A) (A) (A) (A) (A) (A)
                 (A) (A) (A) (A) (A) (A) (A) (A) (A) (A) (A) (A)
                 (A) (A) (A) (A) (A) (A) (A) (A) (A) (A) (A) (A)
                 (A) (A) (A) (A) (A) (A) (A) (A) (A) (A) (A) (A)
                 (A) (A) (A) (A) (A) (A) (A) (A) (A) (A) (A) (A)
                 (A) (A) (A) (A) (A) (A) (A) (A) (A) (A) (A) (A)
                 (A) (A) (A) (A) (A) (A) (A) (A) (A) (A) (A) (A)
                 (A) (A) (A) (A) (A) (A) (A) (A) (A) (A) (A)
 The electronic state is 1-A.
 Alpha  occ. eigenvalues --  -14.38832 -14.37417 -14.33243 -14.33055 -14.33047
 Alpha  occ. eigenvalues --  -14.32434 -10.23690 -10.22982 -10.22483 -10.21801
 Alpha  occ. eigenvalues --  -10.19573  -1.02388  -0.98057  -0.92842  -0.90986
 Alpha  occ. eigenvalues --   -0.79250  -0.74366  -0.70258  -0.67732  -0.62041
 Alpha  occ. eigenvalues --   -0.60158  -0.58007  -0.53888  -0.50508  -0.48669
 Alpha  occ. eigenvalues --   -0.47740  -0.46092  -0.44322  -0.44028  -0.43780
 Alpha  occ. eigenvalues --   -0.41903  -0.40835  -0.40319  -0.38693  -0.38384
 Alpha  occ. eigenvalues --   -0.36152  -0.35124  -0.34438  -0.27140  -0.26156
 Alpha  occ. eigenvalues --   -0.23001  -0.22171  -0.14900
 Alpha virt. eigenvalues --   -0.04940   0.04637   0.08542   0.09660   0.10178
 Alpha virt. eigenvalues --    0.10346   0.11960   0.13780   0.14372   0.15222
 Alpha virt. eigenvalues --    0.15537   0.16195   0.17586   0.17919   0.18546
 Alpha virt. eigenvalues --    0.19278   0.20104   0.22022   0.22283   0.23398
 Alpha virt. eigenvalues --    0.25436   0.28151   0.29030   0.33371   0.34210
 Alpha virt. eigenvalues --    0.37184   0.40433   0.42598   0.45619   0.47146
 Alpha virt. eigenvalues --    0.47846   0.49155   0.49919   0.50229   0.51353
 Alpha virt. eigenvalues --    0.53200   0.54590   0.55145   0.57487   0.58685
 Alpha virt. eigenvalues --    0.62134   0.62538   0.63135   0.63490   0.64646
 Alpha virt. eigenvalues --    0.65454   0.65664   0.67637   0.68278   0.69660
 Alpha virt. eigenvalues --    0.69967   0.71431   0.72188   0.72841   0.73767
 Alpha virt. eigenvalues --    0.74016   0.74674   0.75323   0.76037   0.76373
 Alpha virt. eigenvalues --    0.76802   0.77804   0.78431   0.80243   0.80797
 Alpha virt. eigenvalues --    0.83553   0.83750   0.84537   0.84855   0.85043
 Alpha virt. eigenvalues --    0.85915   0.87167   0.87990   0.90242   0.93059
 Alpha virt. eigenvalues --    0.95251   0.96573   0.97307   0.98001   0.99941
 Alpha virt. eigenvalues --    1.01238   1.03448   1.05427   1.08709   1.11438
 Alpha virt. eigenvalues --    1.14253   1.15829   1.17061   1.20044   1.21369
 Alpha virt. eigenvalues --    1.22186   1.24516   1.25435   1.28219   1.29985
 Alpha virt. eigenvalues --    1.31890   1.34527   1.35538   1.38027   1.39230
 Alpha virt. eigenvalues --    1.41136   1.44355   1.44602   1.46048   1.46703
 Alpha virt. eigenvalues --    1.48385   1.49657   1.51964   1.53710   1.54819
 Alpha virt. eigenvalues --    1.56737   1.57915   1.58284   1.59474   1.63663
 Alpha virt. eigenvalues --    1.64773   1.68135   1.68537   1.68876   1.73755
 Alpha virt. eigenvalues --    1.74361   1.78334   1.79792   1.80992   1.83227
 Alpha virt. eigenvalues --    1.85978   1.89462   1.90113   1.93284   1.93900
 Alpha virt. eigenvalues --    1.95016   1.96956   1.98928   1.99623   2.01885
 Alpha virt. eigenvalues --    2.02713   2.04641   2.11302   2.12674   2.20515
 Alpha virt. eigenvalues --    2.20905   2.23301   2.25214   2.29820   2.36037
 Alpha virt. eigenvalues --    2.37295   2.37851   2.40886   2.41804   2.42571
 Alpha virt. eigenvalues --    2.44037   2.47557   2.48392   2.51964   2.52906
 Alpha virt. eigenvalues --    2.54361   2.57524   2.60169   2.64593   2.68693
 Alpha virt. eigenvalues --    2.71169   2.73742   2.74093   2.77034   2.78677
 Alpha virt. eigenvalues --    2.79498   2.82047   2.84659   2.85784   2.86173
 Alpha virt. eigenvalues --    2.87866   2.90380   2.91301   2.92171   2.93307
 Alpha virt. eigenvalues --    2.95988   2.99886   3.01167   3.02680   3.05174
 Alpha virt. eigenvalues --    3.06605   3.09477   3.09660   3.11982   3.14699
 Alpha virt. eigenvalues --    3.15413   3.17052   3.19227   3.22334   3.22978
 Alpha virt. eigenvalues --    3.23733   3.26989   3.27813   3.30615   3.32902
 Alpha virt. eigenvalues --    3.35115   3.37119   3.39022   3.42094   3.43089
 Alpha virt. eigenvalues --    3.46590   3.47439   3.48158   3.50317   3.50622
 Alpha virt. eigenvalues --    3.53608   3.54246   3.58321   3.59462   3.61317
 Alpha virt. eigenvalues --    3.61995   3.62833   3.63673   3.65174   3.67224
 Alpha virt. eigenvalues --    3.68494   3.70611   3.71873   3.74813   3.78264
 Alpha virt. eigenvalues --    3.79778   3.82666   3.83445   3.85147   3.87758
 Alpha virt. eigenvalues --    3.89805   3.93263   3.96217   3.98062   3.99899
 Alpha virt. eigenvalues --    4.02279   4.07393   4.08828   4.10467   4.11615
 Alpha virt. eigenvalues --    4.13646   4.15161   4.16721   4.17890   4.20953
 Alpha virt. eigenvalues --    4.22765   4.23092   4.25876   4.27524   4.29695
 Alpha virt. eigenvalues --    4.30779   4.31874   4.33548   4.36725   4.37641
 Alpha virt. eigenvalues --    4.38773   4.40844   4.41334   4.42755   4.43812
 Alpha virt. eigenvalues --    4.46031   4.46563   4.47394   4.48375   4.50591
 Alpha virt. eigenvalues --    4.51307   4.53523   4.56354   4.56610   4.57874
 Alpha virt. eigenvalues --    4.59201   4.60404   4.62251   4.62829   4.63168
 Alpha virt. eigenvalues --    4.65808   4.66457   4.68548   4.70097   4.71451
 Alpha virt. eigenvalues --    4.73326   4.74121   4.75283   4.75807   4.77798
 Alpha virt. eigenvalues --    4.78678   4.82271   4.82942   4.84934   4.86712
 Alpha virt. eigenvalues --    4.87140   4.90936   4.92508   4.98180   4.98811
 Alpha virt. eigenvalues --    5.00736   5.01567   5.04992   5.06539   5.08486
 Alpha virt. eigenvalues --    5.11701   5.12761   5.14324   5.15024   5.19055
 Alpha virt. eigenvalues --    5.21765   5.23702   5.26622   5.28855   5.34239
 Alpha virt. eigenvalues --    5.37531   5.42067   5.45070   5.47283   5.51464
 Alpha virt. eigenvalues --    5.56017   5.57638   5.65840   5.74738   5.79927
 Alpha virt. eigenvalues --    5.81932   5.95223   6.07153   6.49962   8.26639
 Alpha virt. eigenvalues --    9.56194  10.33782  11.07532  11.16387  11.25912
 Alpha virt. eigenvalues --   11.29960  11.41734  11.47183  11.50122  11.53455
 Alpha virt. eigenvalues --   11.79303  11.88352  13.52427  16.18165  19.45227
          Condensed to atoms (all electrons):
               1          2          3          4          5          6
     1  C    4.882076   0.406330  -0.055806   0.001405  -0.000123   0.000001
     2  N    0.406330   6.337023   0.387213  -0.025058   0.002569  -0.000092
     3  C   -0.055806   0.387213   4.627874   0.686104  -0.099006   0.001855
     4  N    0.001405  -0.025058   0.686104   6.373104   0.337382  -0.048491
     5  N   -0.000123   0.002569  -0.099006   0.337382   6.406885   0.405379
     6  C    0.000001  -0.000092   0.001855  -0.048491   0.405379   4.804414
     7  N   -0.000000  -0.000000  -0.000122   0.001332  -0.036237   0.387219
     8  C   -0.000000   0.000000   0.000017   0.000312   0.002242  -0.077639
     9  C    0.000000  -0.000000   0.000000  -0.000059   0.001127  -0.054076
    10  N   -0.000000   0.000000  -0.000000  -0.000000  -0.000010   0.000985
    11  N    0.000000  -0.000000  -0.000000   0.000000  -0.000000  -0.000081
    12  H    0.382920  -0.017642   0.003045  -0.000052   0.000001  -0.000000
    13  H    0.373299  -0.040470  -0.000906   0.000075  -0.000003  -0.000000
    14  H    0.373556  -0.041009   0.000527   0.000191  -0.000010   0.000000
    15  H   -0.046651   0.337841  -0.019070   0.001143  -0.000042   0.000014
    16  H   -0.000761  -0.067487   0.370440  -0.065885  -0.004093   0.000129
    17  H    0.000019  -0.000919  -0.001517  -0.046437   0.343305  -0.063336
    18  H    0.000000  -0.000010   0.000940   0.004295  -0.035294   0.337744
    19  H   -0.000000  -0.000020   0.000262   0.004059  -0.048306   0.339444
    20  H    0.000000  -0.000000  -0.000037  -0.000062   0.007682  -0.003429
    21  H    0.000000   0.000000  -0.000000  -0.000006   0.000428   0.004450
    22  H   -0.000000  -0.000000  -0.000004   0.000059  -0.002334  -0.002300
    23  H    0.000000   0.000000   0.000000   0.000002   0.000212  -0.001329
    24  H   -0.000000  -0.000000  -0.000000   0.000015  -0.000179  -0.002126
    25  H   -0.000000   0.000000  -0.000000  -0.000000  -0.000000  -0.000002
               7          8          9         10         11         12
     1  C   -0.000000  -0.000000   0.000000  -0.000000   0.000000   0.382920
     2  N   -0.000000   0.000000  -0.000000   0.000000  -0.000000  -0.017642
     3  C   -0.000122   0.000017   0.000000  -0.000000  -0.000000   0.003045
     4  N    0.001332   0.000312  -0.000059  -0.000000   0.000000  -0.000052
     5  N   -0.036237   0.002242   0.001127  -0.000010  -0.000000   0.000001
     6  C    0.387219  -0.077639  -0.054076   0.000985  -0.000081  -0.000000
     7  N    6.225527   0.388295   0.395301  -0.023824   0.001216   0.000000
     8  C    0.388295   4.993451  -0.073164  -0.005537   0.000416   0.000000
     9  C    0.395301  -0.073164   4.816481   0.346399  -0.076928  -0.000000
    10  N   -0.023824  -0.005537   0.346399   6.489352   0.463981   0.000000
    11  N    0.001216   0.000416  -0.076928   0.463981   6.560412   0.000000
    12  H    0.000000   0.000000  -0.000000   0.000000   0.000000   0.566881
    13  H   -0.000000   0.000000  -0.000000   0.000000   0.000000  -0.030526
    14  H    0.000000  -0.000000   0.000000  -0.000000  -0.000000  -0.031236
    15  H    0.000000  -0.000000   0.000000   0.000000   0.000000  -0.006231
    16  H    0.000032  -0.000022   0.000001   0.000000   0.000000  -0.000062
    17  H    0.009729   0.001257   0.000102   0.000005   0.000000   0.000000
    18  H   -0.015037   0.007810  -0.006883   0.000212   0.000003   0.000000
    19  H   -0.037615  -0.011512  -0.004812  -0.000345   0.000031   0.000000
    20  H   -0.026218   0.376029   0.004149   0.000300  -0.000010  -0.000000
    21  H   -0.021433   0.374423  -0.006970   0.013141  -0.000639   0.000000
    22  H   -0.044500   0.351240  -0.000975  -0.001825   0.000122   0.000000
    23  H   -0.022652   0.006695   0.345679  -0.017736   0.000920   0.000000
    24  H   -0.052982  -0.008444   0.345305  -0.046733   0.010542   0.000000
    25  H   -0.000209   0.000044   0.007038  -0.080485   0.311400   0.000000
              13         14         15         16         17         18
     1  C    0.373299   0.373556  -0.046651  -0.000761   0.000019   0.000000
     2  N   -0.040470  -0.041009   0.337841  -0.067487  -0.000919  -0.000010
     3  C   -0.000906   0.000527  -0.019070   0.370440  -0.001517   0.000940
     4  N    0.000075   0.000191   0.001143  -0.065885  -0.046437   0.004295
     5  N   -0.000003  -0.000010  -0.000042  -0.004093   0.343305  -0.035294
     6  C   -0.000000   0.000000   0.000014   0.000129  -0.063336   0.337744
     7  N   -0.000000   0.000000   0.000000   0.000032   0.009729  -0.015037
     8  C    0.000000  -0.000000  -0.000000  -0.000022   0.001257   0.007810
     9  C   -0.000000   0.000000   0.000000   0.000001   0.000102  -0.006883
    10  N    0.000000  -0.000000   0.000000   0.000000   0.000005   0.000212
    11  N    0.000000  -0.000000   0.000000   0.000000   0.000000   0.000003
    12  H   -0.030526  -0.031236  -0.006231  -0.000062   0.000000   0.000000
    13  H    0.624436  -0.053520   0.003650   0.002353  -0.000008   0.000000
    14  H   -0.053520   0.624616   0.003474   0.001747   0.000006  -0.000000
    15  H    0.003650   0.003474   0.472819   0.007932   0.000076   0.000005
    16  H    0.002353   0.001747   0.007932   0.669343   0.014955   0.000057
    17  H   -0.000008   0.000006   0.000076   0.014955   0.509746   0.002058
    18  H    0.000000  -0.000000   0.000005   0.000057   0.002058   0.671360
    19  H   -0.000000   0.000000   0.000001   0.000012   0.007507  -0.068909
    20  H    0.000000  -0.000000   0.000000   0.000092   0.001007   0.000388
    21  H    0.000000  -0.000000   0.000000   0.000000  -0.000238  -0.000115
    22  H   -0.000000   0.000000  -0.000000  -0.000000   0.000720  -0.000321
    23  H    0.000000  -0.000000   0.000000   0.000000  -0.000022   0.006999
    24  H   -0.000000   0.000000  -0.000000  -0.000000   0.000070  -0.001744
    25  H    0.000000  -0.000000   0.000000   0.000000   0.000000   0.000000
              19         20         21         22         23         24
     1  C   -0.000000   0.000000   0.000000  -0.000000   0.000000  -0.000000
     2  N   -0.000020  -0.000000   0.000000  -0.000000   0.000000  -0.000000
     3  C    0.000262  -0.000037  -0.000000  -0.000004   0.000000  -0.000000
     4  N    0.004059  -0.000062  -0.000006   0.000059   0.000002   0.000015
     5  N   -0.048306   0.007682   0.000428  -0.002334   0.000212  -0.000179
     6  C    0.339444  -0.003429   0.004450  -0.002300  -0.001329  -0.002126
     7  N   -0.037615  -0.026218  -0.021433  -0.044500  -0.022652  -0.052982
     8  C   -0.011512   0.376029   0.374423   0.351240   0.006695  -0.008444
     9  C   -0.004812   0.004149  -0.006970  -0.000975   0.345679   0.345305
    10  N   -0.000345   0.000300   0.013141  -0.001825  -0.017736  -0.046733
    11  N    0.000031  -0.000010  -0.000639   0.000122   0.000920   0.010542
    12  H    0.000000  -0.000000   0.000000   0.000000   0.000000   0.000000
    13  H   -0.000000   0.000000   0.000000  -0.000000   0.000000  -0.000000
    14  H    0.000000  -0.000000  -0.000000   0.000000  -0.000000   0.000000
    15  H    0.000001   0.000000   0.000000  -0.000000   0.000000  -0.000000
    16  H    0.000012   0.000092   0.000000  -0.000000   0.000000  -0.000000
    17  H    0.007507   0.001007  -0.000238   0.000720  -0.000022   0.000070
    18  H   -0.068909   0.000388  -0.000115  -0.000321   0.006999  -0.001744
    19  H    0.712831  -0.002021  -0.000404   0.014329  -0.001930   0.013986
    20  H   -0.002021   0.597576  -0.029250  -0.040238  -0.000196  -0.000305
    21  H   -0.000404  -0.029250   0.568266  -0.039068   0.000487  -0.000083
    22  H    0.014329  -0.040238  -0.039068   0.652975  -0.000227   0.015061
    23  H   -0.001930  -0.000196   0.000487  -0.000227   0.588362  -0.035198
    24  H    0.013986  -0.000305  -0.000083   0.015061  -0.035198   0.658606
    25  H   -0.000000  -0.000001  -0.000126  -0.000003  -0.000616  -0.000854
              25
     1  C   -0.000000
     2  N    0.000000
     3  C   -0.000000
     4  N   -0.000000
     5  N   -0.000000
     6  C   -0.000002
     7  N   -0.000209
     8  C    0.000044
     9  C    0.007038
    10  N   -0.080485
    11  N    0.311400
    12  H    0.000000
    13  H    0.000000
    14  H   -0.000000
    15  H    0.000000
    16  H    0.000000
    17  H    0.000000
    18  H    0.000000
    19  H   -0.000000
    20  H   -0.000001
    21  H   -0.000126
    22  H   -0.000003
    23  H   -0.000616
    24  H   -0.000854
    25  H    0.511813
 Mulliken charges:
               1
     1  C   -0.316265
     2  N   -0.278268
     3  C    0.098188
     4  N   -0.223427
     5  N   -0.281572
     6  C   -0.028731
     7  N   -0.127820
     8  C   -0.325913
     9  C   -0.037717
    10  N   -0.137880
    11  N   -0.271385
    12  H    0.132901
    13  H    0.121620
    14  H    0.121659
    15  H    0.245039
    16  H    0.071219
    17  H    0.221916
    18  H    0.096445
    19  H    0.083411
    20  H    0.114542
    21  H    0.137137
    22  H    0.097291
    23  H    0.130550
    24  H    0.105063
    25  H    0.252000
 Sum of Mulliken charges =  -0.00000
 Mulliken charges with hydrogens summed into heavy atoms:
               1
     1  C    0.059914
     2  N   -0.033229
     3  C    0.169407
     4  N   -0.223427
     5  N   -0.059657
     6  C    0.151124
     7  N   -0.127820
     8  C    0.023057
     9  C    0.197896
    10  N   -0.137880
    11  N   -0.019385
 Electronic spatial extent (au):  <R**2>=           3848.0616
 Charge=             -0.0000 electrons
 Dipole moment (field-independent basis, Debye):
    X=             -1.6952    Y=              1.0606    Z=             -0.1309  Tot=              2.0039
 Quadrupole moment (field-independent basis, Debye-Ang):
   XX=            -49.1624   YY=            -65.3834   ZZ=            -69.0781
   XY=              1.5263   XZ=              0.0919   YZ=             -0.3688
 Traceless Quadrupole moment (field-independent basis, Debye-Ang):
   XX=             12.0456   YY=             -4.1754   ZZ=             -7.8701
   XY=              1.5263   XZ=              0.0919   YZ=             -0.3688
 Octapole moment (field-independent basis, Debye-Ang**2):
  XXX=            -49.8247  YYY=              0.3224  ZZZ=             -0.6094  XYY=             -5.6273
  XXY=             12.0028  XXZ=             -9.7904  XZZ=             -0.8377  YZZ=             -1.0144
  YYZ=             -1.2941  XYZ=             10.7141
 Hexadecapole moment (field-independent basis, Debye-Ang**3):
 XXXX=          -3695.8152 YYYY=           -266.7342 ZZZZ=           -124.6187 XXXY=            197.1984
 XXXZ=           -139.9644 YYYX=             13.8528 YYYZ=             -0.8642 ZZZX=             -0.2933
 ZZZY=             -1.0534 XXYY=           -809.7947 XXZZ=           -802.9443 YYZZ=            -66.5415
 XXYZ=             -2.8865 YYXZ=            -11.6643 ZZXY=             -1.1146
 N-N= 5.974616118654D+02 E-N=-2.422469082839D+03  KE= 5.232070397879D+02
 PrsmSu:  requested number of processors reduced to:  13 ShMem   1 Linda.
 Calling FoFJK, ICntrl=      2127 FMM=F ISym2X=0 I1Cent= 0 IOpClX= 0 NMat=1 NMatS=1 NMatT=0.
 ***** Axes restored to original set *****
 -------------------------------------------------------------------
 Center     Atomic                   Forces (Hartrees/Bohr)
 Number     Number              X              Y              Z
 -------------------------------------------------------------------
      1        6           0.003026607    0.002258877   -0.002909224
      2        7           0.007270554   -0.018216424    0.019349578
      3        6           0.018130049    0.006327210   -0.006449775
      4        7          -0.029777008   -0.005275148    0.005819220
      5        7           0.016890162    0.028126093   -0.019803799
      6        6          -0.009216394   -0.007073114   -0.003264824
      7        7           0.009919026    0.004704308   -0.003206723
      8        6          -0.006639835    0.003703990   -0.006858375
      9        6          -0.005397953   -0.007193331    0.001680874
     10        7           0.005479517    0.009027262   -0.008642892
     11        7          -0.011044852   -0.013635384    0.019145212
     12        1           0.002942181    0.001563320   -0.001760948
     13        1          -0.004666358   -0.000156934   -0.002146296
     14        1          -0.004356674    0.002087130   -0.000106584
     15        1          -0.002697229    0.004348719   -0.004540252
     16        1           0.004730366   -0.001999127    0.001755924
     17        1          -0.001280833   -0.006737314    0.000926685
     18        1           0.007407844   -0.000494991   -0.002115357
     19        1           0.002734271    0.000385749    0.007482856
     20        1           0.000951105   -0.002880289    0.003449147
     21        1           0.004068663   -0.004768458    0.000507326
     22        1           0.000844966    0.002504166    0.005934517
     23        1          -0.002811267    0.000091566    0.000114766
     24        1           0.004241773    0.002310138    0.001347391
     25        1          -0.010748681    0.000991983   -0.005708448
 -------------------------------------------------------------------
 Cartesian Forces:  Max     0.029777008 RMS     0.008587635

 GradGradGradGradGradGradGradGradGradGradGradGradGradGradGradGradGradGrad
 Berny optimization.
 FormGI is forming the generalized inverse of G from B-inverse, IUseBI=4.
 Internal  Forces:  Max     0.024497940 RMS     0.006712850
 Search for a local minimum.
 Step number   1 out of a maximum of  115
 All quantities printed in internal units (Hartrees-Bohrs-Radians)
 Mixed Optimization -- RFO/linear search
 Second derivative matrix not updated -- first step.
 ITU=  0
     Eigenvalues ---    0.00581   0.00584   0.00739   0.00825   0.00975
     Eigenvalues ---    0.01183   0.01356   0.01582   0.02012   0.02202
     Eigenvalues ---    0.02504   0.03004   0.03059   0.03305   0.05214
     Eigenvalues ---    0.05758   0.06635   0.07020   0.07161   0.07331
     Eigenvalues ---    0.07427   0.07615   0.09872   0.11663   0.13199
     Eigenvalues ---    0.14089   0.15842   0.16000   0.16000   0.16000
     Eigenvalues ---    0.16000   0.16000   0.16000   0.16000   0.16000
     Eigenvalues ---    0.16000   0.16042   0.16747   0.22000   0.22000
     Eigenvalues ---    0.22002   0.22055   0.22065   0.25000   0.25000
     Eigenvalues ---    0.33247   0.33620   0.33943   0.33997   0.34083
     Eigenvalues ---    0.34119   0.34134   0.34141   0.34145   0.34216
     Eigenvalues ---    0.34325   0.34351   0.34383   0.35497   0.36284
     Eigenvalues ---    0.37706   0.39793   0.42762   0.45248   0.45337
     Eigenvalues ---    0.52662   0.55922   0.66972   0.83963
 RFO step:  Lambda=-1.80692540D-02 EMin= 5.80970100D-03
 Linear search not attempted -- first point.
 Iteration  1 RMS(Cart)=  0.15805296 RMS(Int)=  0.00486712
 Iteration  2 RMS(Cart)=  0.01124962 RMS(Int)=  0.00044799
 Iteration  3 RMS(Cart)=  0.00002760 RMS(Int)=  0.00044762
 Iteration  4 RMS(Cart)=  0.00000001 RMS(Int)=  0.00044762
 Variable       Old X    -DE/DX   Delta X   Delta X   Delta X     New X
                                 (Linear)    (Quad)   (Total)
    R1        2.71836   0.00273   0.00000   0.00657   0.00657   2.72493
    R2        2.07094  -0.00315   0.00000  -0.00876  -0.00876   2.06217
    R3        2.06741   0.00367   0.00000   0.01015   0.01015   2.07757
    R4        2.06785   0.00350   0.00000   0.00969   0.00969   2.07753
    R5        2.57271   0.00847   0.00000   0.01555   0.01555   2.58826
    R6        1.91586  -0.00679   0.00000  -0.01441  -0.01441   1.90145
    R7        2.45815  -0.02450   0.00000  -0.03562  -0.03562   2.42253
    R8        2.08619  -0.00475   0.00000  -0.01356  -0.01356   2.07264
    R9        2.54322   0.01382   0.00000   0.02394   0.02394   2.56715
   R10        2.74795  -0.01115   0.00000  -0.02821  -0.02821   2.71974
   R11        1.91688  -0.00310   0.00000  -0.00658  -0.00658   1.91030
   R12        2.78176  -0.01218   0.00000  -0.03265  -0.03265   2.74911
   R13        2.07336   0.00347   0.00000   0.00970   0.00970   2.08306
   R14        2.07191   0.00780   0.00000   0.02172   0.02172   2.09363
   R15        2.76940  -0.00050   0.00000  -0.00132  -0.00132   2.76808
   R16        2.80430  -0.02053   0.00000  -0.05715  -0.05715   2.74716
   R17        2.06688  -0.00120   0.00000  -0.00332  -0.00332   2.06356
   R18        2.07104  -0.00210   0.00000  -0.00585  -0.00585   2.06519
   R19        2.06966   0.00635   0.00000   0.01761   0.01761   2.08728
   R20        2.80387  -0.01146   0.00000  -0.03188  -0.03188   2.77199
   R21        2.07427  -0.00102   0.00000  -0.00286  -0.00286   2.07141
   R22        2.07976   0.00347   0.00000   0.00980   0.00980   2.08956
   R23        2.35846  -0.02268   0.00000  -0.02644  -0.02644   2.33203
   R24        1.94664   0.00136   0.00000   0.00305   0.00305   1.94969
    A1        1.92126  -0.00476   0.00000  -0.02910  -0.02889   1.89237
    A2        1.93792   0.00489   0.00000   0.02878   0.02859   1.96651
    A3        1.94012   0.00441   0.00000   0.02587   0.02567   1.96579
    A4        1.88059  -0.00053   0.00000  -0.00509  -0.00488   1.87571
    A5        1.87991  -0.00038   0.00000  -0.00463  -0.00445   1.87546
    A6        1.90212  -0.00394   0.00000  -0.01774  -0.01824   1.88388
    A7        2.20449  -0.00915   0.00000  -0.03844  -0.03844   2.16604
    A8        2.05752   0.00534   0.00000   0.02350   0.02350   2.08102
    A9        2.02115   0.00381   0.00000   0.01494   0.01494   2.03609
   A10        2.14277  -0.00260   0.00000  -0.01087  -0.01094   2.13183
   A11        1.98343   0.00402   0.00000   0.02078   0.02071   2.00414
   A12        2.15696  -0.00142   0.00000  -0.00975  -0.00981   2.14715
   A13        2.02736   0.01174   0.00000   0.04380   0.04380   2.07116
   A14        2.11524  -0.01217   0.00000  -0.05511  -0.05708   2.05816
   A15        2.12693   0.00256   0.00000  -0.00101  -0.00288   2.12405
   A16        2.02131   0.00881   0.00000   0.03506   0.03292   2.05423
   A17        1.94562  -0.01159   0.00000  -0.04910  -0.04891   1.89671
   A18        1.89591   0.00742   0.00000   0.04250   0.04182   1.93773
   A19        1.90135   0.00383   0.00000   0.02119   0.02099   1.92234
   A20        1.90503  -0.00089   0.00000  -0.02015  -0.01967   1.88536
   A21        1.93208   0.00392   0.00000   0.01498   0.01528   1.94736
   A22        1.88243  -0.00231   0.00000  -0.00749  -0.00806   1.87437
   A23        1.94762   0.00114   0.00000   0.01048   0.01064   1.95826
   A24        1.90931  -0.00489   0.00000  -0.02257  -0.02279   1.88652
   A25        1.89006   0.00451   0.00000   0.02826   0.02835   1.91841
   A26        1.94218  -0.00168   0.00000  -0.00751  -0.00750   1.93468
   A27        1.93705  -0.00677   0.00000  -0.03638  -0.03640   1.90066
   A28        1.95651   0.00228   0.00000   0.00919   0.00917   1.96569
   A29        1.83456   0.00595   0.00000   0.04057   0.04057   1.87512
   A30        1.89751  -0.00105   0.00000  -0.00892  -0.00891   1.88860
   A31        1.89122   0.00161   0.00000   0.00543   0.00539   1.89662
   A32        1.96549  -0.01410   0.00000  -0.06331  -0.06351   1.90197
   A33        1.91795  -0.00010   0.00000  -0.01236  -0.01301   1.90494
   A34        1.92676   0.00779   0.00000   0.04572   0.04581   1.97257
   A35        1.87195   0.00525   0.00000   0.01360   0.01256   1.88451
   A36        1.90706   0.00214   0.00000   0.00510   0.00570   1.91276
   A37        1.87153  -0.00046   0.00000   0.01381   0.01358   1.88510
   A38        1.98461  -0.01752   0.00000  -0.06536  -0.06536   1.91925
   A39        1.94095  -0.02340   0.00000  -0.13140  -0.13140   1.80955
    D1        3.13535   0.00002   0.00000   0.00002   0.00001   3.13536
    D2        0.00213   0.00005   0.00000   0.00071   0.00070   0.00283
    D3        1.05437   0.00066   0.00000   0.00688   0.00715   1.06152
    D4       -2.07886   0.00069   0.00000   0.00757   0.00784  -2.07101
    D5       -1.06629  -0.00073   0.00000  -0.00818  -0.00844  -1.07473
    D6        2.08367  -0.00070   0.00000  -0.00748  -0.00775   2.07593
    D7        3.13897   0.00062   0.00000   0.01484   0.01490  -3.12932
    D8        0.00593  -0.00027   0.00000  -0.00597  -0.00604  -0.00010
    D9       -0.01084   0.00060   0.00000   0.01420   0.01427   0.00343
   D10        3.13931  -0.00029   0.00000  -0.00661  -0.00667   3.13264
   D11       -3.11759  -0.00099   0.00000  -0.02160  -0.02148  -3.13907
   D12        0.01460   0.00002   0.00000   0.00144   0.00132   0.01592
   D13       -3.13282   0.00314   0.00000   0.09450   0.09354  -3.03928
   D14       -0.21214  -0.00021   0.00000  -0.01775  -0.01679  -0.22893
   D15        3.13123  -0.00173   0.00000  -0.01902  -0.01938   3.11186
   D16        1.03150   0.00173   0.00000   0.00871   0.00916   1.04066
   D17       -1.01476  -0.00179   0.00000  -0.01790  -0.01841  -1.03317
   D18        0.19787   0.00198   0.00000   0.09031   0.09023   0.28810
   D19       -1.90186   0.00544   0.00000   0.11804   0.11877  -1.78310
   D20        2.33506   0.00192   0.00000   0.09143   0.09120   2.42626
   D21        1.08268  -0.00018   0.00000   0.06153   0.06127   1.14395
   D22       -3.10936   0.00295   0.00000   0.08857   0.08821  -3.02115
   D23       -3.10613   0.00119   0.00000   0.07039   0.07079  -3.03535
   D24       -1.01499   0.00432   0.00000   0.09743   0.09772  -0.91727
   D25       -1.03674   0.00015   0.00000   0.05773   0.05775  -0.97899
   D26        1.05441   0.00329   0.00000   0.08477   0.08469   1.13909
   D27       -1.11046  -0.00018   0.00000   0.00981   0.00995  -1.10050
   D28        3.13624  -0.00227   0.00000  -0.01301  -0.01286   3.12338
   D29        1.01878  -0.00113   0.00000  -0.00059  -0.00048   1.01829
   D30        3.07027   0.00222   0.00000   0.01286   0.01274   3.08301
   D31        1.03378   0.00014   0.00000  -0.00996  -0.01008   1.02370
   D32       -1.08369   0.00127   0.00000   0.00246   0.00230  -1.08138
   D33        3.08588  -0.00178   0.00000  -0.05084  -0.05006   3.03582
   D34        1.00022   0.00084   0.00000  -0.01835  -0.01860   0.98162
   D35       -1.06054  -0.00327   0.00000  -0.05553  -0.05579  -1.11633
   D36       -1.07115  -0.00056   0.00000  -0.03424  -0.03364  -1.10478
   D37        3.12638   0.00206   0.00000  -0.00175  -0.00218   3.12420
   D38        1.06562  -0.00206   0.00000  -0.03893  -0.03937   1.02625
   D39        3.00351   0.00213   0.00000   0.01182   0.01190   3.01541
   D40       -1.16752  -0.00310   0.00000  -0.03321  -0.03319  -1.20071
   D41        0.85571   0.00029   0.00000  -0.00698  -0.00708   0.84862
   D42       -3.13235  -0.00302   0.00000  -0.05914  -0.05914   3.09170
         Item               Value     Threshold  Converged?
 Maximum Force            0.024498     0.000450     NO 
 RMS     Force            0.006713     0.000300     NO 
 Maximum Displacement     0.578573     0.001800     NO 
 RMS     Displacement     0.159764     0.001200     NO 
 Predicted change in Energy=-1.040140D-02
 GradGradGradGradGradGradGradGradGradGradGradGradGradGradGradGradGradGrad

                          Input orientation:                          
 ---------------------------------------------------------------------
 Center     Atomic      Atomic             Coordinates (Angstroms)
 Number     Number       Type             X           Y           Z
 ---------------------------------------------------------------------
      1          6           0        1.158595   -0.003693   -0.061707
      2          7           0        2.592638    0.141967   -0.021950
      3          6           0        3.306373    0.948736   -0.867909
      4          7           0        4.583659    1.039863   -0.807670
      5          7           0        5.220060    1.864420   -1.679774
      6          6           0        6.659259    1.858237   -1.685263
      7          7           0        7.125064    2.776016   -2.713392
      8          6           0        6.777469    4.166805   -2.412493
      9          6           0        8.568259    2.638420   -2.821065
     10          7           0        9.041588    3.446975   -3.949744
     11          7           0       10.275397    3.460199   -3.970476
     12          1           0        0.861871   -0.709104    0.716229
     13          1           0        0.799436   -0.400912   -1.021865
     14          1           0        0.631820    0.941636    0.131960
     15          1           0        3.120822   -0.378981    0.657817
     16          1           0        2.702079    1.495554   -1.601922
     17          1           0        4.748747    2.249774   -2.486783
     18          1           0        7.049516    0.854783   -1.921626
     19          1           0        7.045784    2.136777   -0.685032
     20          1           0        5.693912    4.299747   -2.386705
     21          1           0        7.167366    4.808818   -3.206296
     22          1           0        7.190214    4.508534   -1.446640
     23          1           0        8.815013    1.590749   -3.028496
     24          1           0        9.101218    2.939276   -1.900130
     25          1           0       10.499371    4.005452   -4.817236
 ---------------------------------------------------------------------
                    Distance matrix (angstroms):
                    1          2          3          4          5
     1  C    0.000000
     2  N    1.441970   0.000000
     3  C    2.483954   1.369649   0.000000
     4  N    3.657394   2.321150   1.281949   0.000000
     5  N    4.754311   3.552262   2.271519   1.358479   0.000000
     6  C    6.029927   4.716948   3.568909   2.397503   1.439224
     7  N    7.096264   5.892788   4.618134   3.620047   2.351258
     8  C    7.381801   6.279078   4.978978   4.143190   2.874609
     9  C    8.336542   7.055166   5.861510   4.741960   3.621058
    10  N    9.442749   8.242547   6.973636   5.961539   4.718191
    11  N   10.506812   9.253448   8.031231   6.946744   5.774969
    12  H    1.091254   2.065136   3.351644   4.385528   5.599791
    13  H    1.099400   2.123705   2.851312   4.054880   5.010637
    14  H    1.099384   2.123197   2.855349   4.063199   5.018551
    15  H    2.123415   1.006205   2.031035   2.510113   3.860568
    16  H    2.646195   2.083383   1.096793   2.092567   2.546045
    17  H    4.883472   3.894491   2.528616   2.076189   1.010890
    18  H    6.236924   4.897003   3.889765   2.712121   2.103514
    19  H    6.295168   4.924373   3.927860   2.698207   2.096893
    20  H    6.670405   5.700622   4.385927   3.788516   2.579749
    21  H    8.315889   7.269641   5.939322   5.160810   3.846004
    22  H    7.658894   6.498796   5.300124   4.385669   3.305632
    23  H    8.364497   7.060895   5.951927   4.810395   3.849368
    24  H    8.667533   7.328991   6.213531   5.020914   4.033270
    25  H   11.222227  10.021861   8.756707   7.737376   6.503754
                    6          7          8          9         10
     6  C    0.000000
     7  N    1.454765   0.000000
     8  C    2.423288   1.464806   0.000000
     9  C    2.354360   1.453733   2.389523   0.000000
    10  N    3.650678   2.377355   2.829758   1.466873   0.000000
    11  N    4.567815   3.460197   3.893855   2.216029   1.234055
    12  H    6.779979   7.945813   8.279957   9.116292  10.293302
    13  H    6.315170   7.277891   7.650801   8.534007   9.555719
    14  H    6.361799   7.322786   7.392223   8.636348   9.677873
    15  H    4.797470   6.111711   6.592575   7.133156   8.421581
    16  H    3.974640   4.736849   4.939778   6.099551   7.036311
    17  H    2.108505   2.444415   2.792175   3.853760   4.690632
    18  H    1.102310   2.079359   3.359233   2.509369   3.847216
    19  H    1.107902   2.128181   2.679016   2.670620   4.044526
    20  H    2.717515   2.115816   1.091987   3.348216   3.791734
    21  H    3.358219   2.092134   1.092851   2.611806   2.433113
    22  H    2.713472   2.147214   1.104541   2.699145   3.289381
    23  H    2.554036   2.088079   3.341723   1.096143   2.084612
    24  H    2.679174   2.143183   2.677528   1.105749   2.112399
    25  H    5.400578   4.162165   4.434115   3.095588   1.785937
                   11         12         13         14         15
    11  N    0.000000
    12  H   11.312063   0.000000
    13  H   10.648771   1.766311   0.000000
    14  H   10.778299   1.766136   1.778157   0.000000
    15  H    9.346034   2.283692   2.865422   2.866302   0.000000
    16  H    8.174657   3.690625   2.748290   2.756655   2.965747
    17  H    5.848960   5.841408   4.976864   5.051547   4.410103
    18  H    4.625180   6.905865   6.438155   6.738811   4.859047
    19  H    4.793327   6.950061   6.750569   6.575315   4.851558
    20  H    4.919673   7.620066   6.922057   6.576120   6.146577
    21  H    3.473126   9.251644   8.512552   8.295324   7.630147
    22  H    4.121543   8.482315   8.070014   7.630680   6.698993
    23  H    2.552428   9.086515   8.499573   8.796276   7.063467
    24  H    2.436470   9.383115   8.991540   8.935920   7.301991
    25  H    1.031731  12.071772  11.309713  11.456442  10.180494
                   16         17         18         19         20
    16  H    0.000000
    17  H    2.353864   0.000000
    18  H    4.406019   2.749353   0.000000
    19  H    4.485491   2.921550   1.781204   0.000000
    20  H    4.174978   2.259588   3.731184   3.066217   0.000000
    21  H    5.787099   3.593900   4.159165   3.675779   1.761235
    22  H    5.407912   3.484919   3.687181   2.495223   1.779392
    23  H    6.277908   4.154791   2.209929   2.986660   4.182324
    24  H    6.566753   4.445625   2.924902   2.518983   3.700997
    25  H    8.799749   6.448495   5.496614   5.700378   5.393193
                   21         22         23         24         25
    21  H    0.000000
    22  H    1.785240   0.000000
    23  H    3.619712   3.695364   0.000000
    24  H    2.990157   2.513994   1.781473   0.000000
    25  H    3.787186   4.750214   3.444915   3.406034   0.000000
 Stoichiometry    C5H14N6
 Framework group  C1[X(C5H14N6)]
 Deg. of freedom    69
 Full point group                 C1      NOp   1
 Largest Abelian subgroup         C1      NOp   1
 Largest concise Abelian subgroup C1      NOp   1
                         Standard orientation:                         
 ---------------------------------------------------------------------
 Center     Atomic      Atomic             Coordinates (Angstroms)
 Number     Number       Type             X           Y           Z
 ---------------------------------------------------------------------
      1          6           0       -5.448320    0.156247   -0.338985
      2          7           0       -4.209419   -0.393742    0.152862
      3          6           0       -2.971602    0.104089   -0.156836
      4          7           0       -1.892610   -0.423187    0.291660
      5          7           0       -0.702373    0.130296   -0.058281
      6          6           0        0.501045   -0.547377    0.346574
      7          7           0        1.645710    0.190900   -0.164337
      8          6           0        1.764401    1.518252    0.443699
      9          6           0        2.842946   -0.587426    0.108013
     10          7           0        3.992161    0.067616   -0.525975
     11          7           0        5.037211   -0.494769   -0.187619
     12          1           0       -6.271996   -0.437989    0.060110
     13          1           0       -5.519990    0.125189   -1.435607
     14          1           0       -5.606308    1.195991   -0.018648
     15          1           0       -4.234343   -1.198204    0.756741
     16          1           0       -2.979055    0.974962   -0.823530
     17          1           0       -0.631094    0.809564   -0.803540
     18          1           0        0.539662   -1.567346   -0.069670
     19          1           0        0.534674   -0.638562    1.450205
     20          1           0        0.898533    2.136836    0.198622
     21          1           0        2.648185    2.016142    0.037064
     22          1           0        1.857553    1.475069    1.543457
     23          1           0        2.733316   -1.583193   -0.336912
     24          1           0        3.038863   -0.715551    1.188698
     25          1           0        5.766414    0.004585   -0.719951
 ---------------------------------------------------------------------
 Rotational constants (GHZ):           5.6963956           0.2912747           0.2841050
 Standard basis: 6-31G(2df,p) (6D, 7F)
 There are   411 symmetry adapted cartesian basis functions of A   symmetry.
 There are   378 symmetry adapted basis functions of A   symmetry.
   378 basis functions,   582 primitive gaussians,   411 cartesian basis functions
    43 alpha electrons       43 beta electrons
       nuclear repulsion energy       603.2192851623 Hartrees.
 NAtoms=   25 NActive=   25 NUniq=   25 SFac= 1.00D+00 NAtFMM=   60 NAOKFM=F Big=F
 Integral buffers will be    131072 words long.
 Raffenetti 2 integral format.
 Two-electron integral symmetry is turned on.
 One-electron integrals computed using PRISM.
 PrsmSu:  requested number of processors reduced to:  13 ShMem   1 Linda.
 NBasis=   378 RedAO= T EigKep=  2.05D-04  NBF=   378
 NBsUse=   378 1.00D-06 EigRej= -1.00D+00 NBFU=   378
 Initial guess from the checkpoint file:  "CNCdNNCNpCpCNdN.chk"
 B after Tr=    -0.000000    0.000000   -0.000000
         Rot=    0.999360    0.035725   -0.001022    0.001692 Ang=   4.10 deg.
 ExpMin= 1.61D-01 ExpMax= 4.17D+03 ExpMxC= 6.27D+02 IAcc=2 IRadAn=         4 AccDes= 0.00D+00
 Harris functional with IExCor=  402 and IRadAn=       4 diagonalized for initial guess.
 HarFok:  IExCor=  402 AccDes= 0.00D+00 IRadAn=         4 IDoV= 1 UseB2=F ITyADJ=14
 ICtDFT=  3500011 ScaDFX=  1.000000  1.000000  1.000000  1.000000
 FoFCou: FMM=F IPFlag=           0 FMFlag=      100000 FMFlg1=           0
         NFxFlg=           0 DoJE=T BraDBF=F KetDBF=T FulRan=T
         wScrn=  0.000000 ICntrl=       500 IOpCl=  0 I1Cent=   200000004 NGrid=           0
         NMat0=    1 NMatS0=      1 NMatT0=    0 NMatD0=    1 NMtDS0=    0 NMtDT0=    0
 Petite list used in FoFCou.
 Requested convergence on RMS density matrix=1.00D-08 within 128 cycles.
 Requested convergence on MAX density matrix=1.00D-06.
 Requested convergence on             energy=1.00D-06.
 No special actions if energy rises.
 Integral accuracy reduced to 1.0D-05 until final iterations.
 Initial convergence to 1.0D-05 achieved.  Increase integral accuracy.
 SCF Done:  E(RB3LYP) =  -527.371102515     A.U. after   13 cycles
            NFock= 13  Conv=0.46D-08     -V/T= 2.0074
 PrsmSu:  requested number of processors reduced to:  13 ShMem   1 Linda.
 Calling FoFJK, ICntrl=      2127 FMM=F ISym2X=0 I1Cent= 0 IOpClX= 0 NMat=1 NMatS=1 NMatT=0.
 ***** Axes restored to original set *****
 -------------------------------------------------------------------
 Center     Atomic                   Forces (Hartrees/Bohr)
 Number     Number              X              Y              Z
 -------------------------------------------------------------------
      1        6           0.001823418    0.000745100   -0.000298554
      2        7          -0.001747451   -0.003230111    0.004234256
      3        6           0.007082618    0.002192288   -0.003985569
      4        7          -0.006544978   -0.004138812    0.001955504
      5        7           0.003254688    0.012844514    0.004891654
      6        6          -0.008688398   -0.003884999   -0.004890440
      7        7           0.005256606    0.000887613    0.006528827
      8        6          -0.001671096    0.002652097   -0.002623246
      9        6          -0.011877329   -0.000113694   -0.000761934
     10        7          -0.004521065   -0.007601366    0.005935226
     11        7           0.007627816    0.006516051   -0.011257987
     12        1          -0.000686331   -0.000272613    0.000216527
     13        1          -0.000009844    0.000081459   -0.000323429
     14        1          -0.000136175    0.000232364   -0.000152095
     15        1          -0.000339233    0.000730783   -0.000837747
     16        1          -0.000691141   -0.000523418    0.000402552
     17        1          -0.000189387   -0.006459755   -0.002983168
     18        1           0.002368759   -0.000261545    0.000001138
     19        1          -0.001827096   -0.001152950    0.001525513
     20        1           0.000618746   -0.001604689    0.001561589
     21        1           0.001062252   -0.000572878    0.000596526
     22        1           0.000201818   -0.000163650    0.000748837
     23        1          -0.000184240    0.000378725    0.000053590
     24        1           0.001235584    0.000667742   -0.000340333
     25        1           0.008581458    0.002051746   -0.000197238
 -------------------------------------------------------------------
 Cartesian Forces:  Max     0.012844514 RMS     0.004014437

 GradGradGradGradGradGradGradGradGradGradGradGradGradGradGradGradGradGrad
 Berny optimization.
 Using GEDIIS/GDIIS optimizer.
 FormGI is forming the generalized inverse of G from B-inverse, IUseBI=4.
 Internal  Forces:  Max     0.016858516 RMS     0.003371674
 Search for a local minimum.
 Step number   2 out of a maximum of  115
 All quantities printed in internal units (Hartrees-Bohrs-Radians)
 Mixed Optimization -- RFO/linear search
 Update second derivatives using D2CorX and points    1    2
 DE= -8.20D-03 DEPred=-1.04D-02 R= 7.88D-01
 TightC=F SS=  1.41D+00  RLast= 3.91D-01 DXNew= 5.0454D-01 1.1730D+00
 Trust test= 7.88D-01 RLast= 3.91D-01 DXMaxT set to 5.05D-01
 ITU=  1  0
 Use linear search instead of GDIIS.
     Eigenvalues ---    0.00580   0.00584   0.00731   0.00825   0.00955
     Eigenvalues ---    0.01183   0.01404   0.01579   0.02005   0.02202
     Eigenvalues ---    0.02504   0.02942   0.03008   0.03367   0.05487
     Eigenvalues ---    0.06136   0.06707   0.07081   0.07155   0.07231
     Eigenvalues ---    0.07481   0.07686   0.09482   0.11281   0.12844
     Eigenvalues ---    0.13736   0.15465   0.15720   0.16000   0.16000
     Eigenvalues ---    0.16000   0.16000   0.16000   0.16000   0.16000
     Eigenvalues ---    0.16107   0.16847   0.18393   0.21105   0.21945
     Eigenvalues ---    0.22000   0.22064   0.22708   0.24806   0.29673
     Eigenvalues ---    0.33126   0.33409   0.33663   0.33944   0.34006
     Eigenvalues ---    0.34089   0.34134   0.34140   0.34206   0.34320
     Eigenvalues ---    0.34347   0.34381   0.35176   0.36282   0.37456
     Eigenvalues ---    0.38972   0.40036   0.42957   0.45202   0.45271
     Eigenvalues ---    0.52311   0.55300   0.65396   0.89550
 RFO step:  Lambda=-6.54680289D-03 EMin= 5.79851927D-03
 Quartic linear search produced a step of -0.10166.
 Iteration  1 RMS(Cart)=  0.17283087 RMS(Int)=  0.00741031
 Iteration  2 RMS(Cart)=  0.01369992 RMS(Int)=  0.00111680
 Iteration  3 RMS(Cart)=  0.00007017 RMS(Int)=  0.00111625
 Iteration  4 RMS(Cart)=  0.00000032 RMS(Int)=  0.00111625
 Variable       Old X    -DE/DX   Delta X   Delta X   Delta X     New X
                                 (Linear)    (Quad)   (Total)
    R1        2.72493  -0.00105  -0.00067   0.00006  -0.00061   2.72432
    R2        2.06217   0.00052   0.00089  -0.00176  -0.00087   2.06131
    R3        2.07757   0.00026  -0.00103   0.00412   0.00309   2.08065
    R4        2.07753   0.00024  -0.00099   0.00392   0.00293   2.08046
    R5        2.58826   0.00333  -0.00158   0.01064   0.00906   2.59732
    R6        1.90145  -0.00112   0.00146  -0.00702  -0.00556   1.89590
    R7        2.42253  -0.00524   0.00362  -0.01877  -0.01515   2.40738
    R8        2.07264  -0.00015   0.00138  -0.00504  -0.00367   2.06897
    R9        2.56715   0.00390  -0.00243   0.01406   0.01163   2.57878
   R10        2.71974  -0.00179   0.00287  -0.01368  -0.01081   2.70893
   R11        1.91030   0.00001   0.00067  -0.00225  -0.00158   1.90873
   R12        2.74911   0.00381   0.00332  -0.00229   0.00103   2.75013
   R13        2.08306   0.00108  -0.00099   0.00598   0.00499   2.08806
   R14        2.09363   0.00045  -0.00221   0.00858   0.00637   2.10001
   R15        2.76808   0.00030   0.00013   0.00024   0.00038   2.76846
   R16        2.74716   0.00116   0.00581  -0.01684  -0.01103   2.73612
   R17        2.06356  -0.00077   0.00034  -0.00302  -0.00268   2.06088
   R18        2.06519  -0.00039   0.00060  -0.00297  -0.00238   2.06281
   R19        2.08728   0.00068  -0.00179   0.00772   0.00593   2.09321
   R20        2.77199   0.00855   0.00324   0.00989   0.01313   2.78512
   R21        2.07141  -0.00041   0.00029  -0.00200  -0.00171   2.06970
   R22        2.08956   0.00049  -0.00100   0.00460   0.00360   2.09317
   R23        2.33203   0.01649   0.00269   0.00751   0.01020   2.34222
   R24        1.94969   0.00311  -0.00031   0.00713   0.00682   1.95651
    A1        1.89237   0.00096   0.00294  -0.00442  -0.00151   1.89086
    A2        1.96651  -0.00034  -0.00291   0.00776   0.00487   1.97138
    A3        1.96579  -0.00011  -0.00261   0.00801   0.00542   1.97121
    A4        1.87571  -0.00018   0.00050  -0.00199  -0.00151   1.87420
    A5        1.87546  -0.00023   0.00045  -0.00189  -0.00145   1.87401
    A6        1.88388  -0.00009   0.00185  -0.00827  -0.00638   1.87750
    A7        2.16604  -0.00244   0.00391  -0.02246  -0.01855   2.14749
    A8        2.08102   0.00150  -0.00239   0.01418   0.01179   2.09281
    A9        2.03609   0.00093  -0.00152   0.00829   0.00677   2.04286
   A10        2.13183   0.00019   0.00111  -0.00307  -0.00196   2.12987
   A11        2.00414  -0.00106  -0.00211   0.00193  -0.00017   2.00397
   A12        2.14715   0.00088   0.00100   0.00119   0.00219   2.14933
   A13        2.07116  -0.00047  -0.00445   0.01361   0.00916   2.08031
   A14        2.05816  -0.00131   0.00580  -0.03585  -0.03616   2.02200
   A15        2.12405  -0.00039   0.00029  -0.02306  -0.02939   2.09467
   A16        2.05423   0.00040  -0.00335  -0.00421  -0.01407   2.04016
   A17        1.89671   0.00337   0.00497  -0.00235   0.00258   1.89929
   A18        1.93773  -0.00003  -0.00425   0.01919   0.01501   1.95274
   A19        1.92234  -0.00215  -0.00213  -0.00529  -0.00739   1.91495
   A20        1.88536  -0.00097   0.00200  -0.00720  -0.00530   1.88006
   A21        1.94736  -0.00013  -0.00155   0.00632   0.00473   1.95210
   A22        1.87437  -0.00013   0.00082  -0.01028  -0.00937   1.86500
   A23        1.95826  -0.00199  -0.00108   0.00557   0.00381   1.96207
   A24        1.88652   0.00427   0.00232   0.02492   0.02694   1.91346
   A25        1.91841  -0.00046  -0.00288   0.01996   0.01664   1.93506
   A26        1.93468  -0.00138   0.00076  -0.00950  -0.00877   1.92591
   A27        1.90066  -0.00013   0.00370  -0.01103  -0.00733   1.89332
   A28        1.96569  -0.00055  -0.00093  -0.00221  -0.00320   1.96249
   A29        1.87512   0.00193  -0.00412   0.02929   0.02518   1.90030
   A30        1.88860   0.00011   0.00091  -0.00681  -0.00597   1.88263
   A31        1.89662   0.00018  -0.00055   0.00219   0.00162   1.89824
   A32        1.90197   0.00638   0.00646   0.00306   0.00950   1.91147
   A33        1.90494  -0.00154   0.00132  -0.01113  -0.00970   1.89524
   A34        1.97257  -0.00050  -0.00466   0.01886   0.01418   1.98676
   A35        1.88451  -0.00224  -0.00128  -0.00635  -0.00752   1.87699
   A36        1.91276  -0.00267  -0.00058  -0.00692  -0.00767   1.90509
   A37        1.88510   0.00039  -0.00138   0.00133  -0.00002   1.88508
   A38        1.91925   0.01686   0.00664   0.03320   0.03985   1.95910
   A39        1.80955   0.01579   0.01336   0.03467   0.04803   1.85758
    D1        3.13536  -0.00000  -0.00000   0.00054   0.00054   3.13590
    D2        0.00283  -0.00004  -0.00007  -0.00069  -0.00076   0.00207
    D3        1.06152  -0.00020  -0.00073   0.00120   0.00045   1.06197
    D4       -2.07101  -0.00024  -0.00080  -0.00003  -0.00085  -2.07186
    D5       -1.07473   0.00027   0.00086   0.00016   0.00104  -1.07368
    D6        2.07593   0.00023   0.00079  -0.00107  -0.00026   2.07567
    D7       -3.12932  -0.00028  -0.00151  -0.00191  -0.00342  -3.13274
    D8       -0.00010   0.00020   0.00061   0.00277   0.00339   0.00328
    D9        0.00343  -0.00024  -0.00145  -0.00067  -0.00213   0.00130
   D10        3.13264   0.00024   0.00068   0.00400   0.00468   3.13732
   D11       -3.13907   0.00105   0.00218   0.01716   0.01933  -3.11974
   D12        0.01592   0.00054  -0.00013   0.01210   0.01197   0.02789
[...]
 22982,0.03353943,-0.00011763,0.00015324,-0.00011653,0.00089085,0.00158
 631,0.00072150,-0.00483789,-0.00323518,0.00345150,0.00036450,0.0024211
 7,-0.03286709,-0.12421505,-0.03661953,-0.33173232,0.00286842,-0.004434
 72,-0.00066027,-0.00075463,-0.00106671,0.00160622,-0.00029816,0.000287
 60,-0.00002176,0.00006732,-0.00011809,-0.00007698,-0.00006265,-0.00006
 837,0.00002348,0.00003740,0.00002422,-0.00001186,0.00001717,0.00003423
 ,-0.00000751,0.00009826,0.00009205,0.00002158,0.00004267,-0.00001186,0
 .00006049,-0.00075769,-0.00013276,0.00017627,0.00353601,-0.00095850,-0
 .00011814,0.12168959,0.04064438,0.35834488,0.00046023,0.00025390,0.000
 23483,-0.00137029,-0.00025533,0.00106039,-0.00009671,-0.00123201,-0.00
 080301,0.00468620,0.00198736,-0.00462141,-0.02521461,0.03509162,0.0134
 6881,-0.05403829,0.03854818,0.01183108,0.00172997,-0.01430421,-0.00348
 916,-0.00116032,-0.00209424,0.00316789,0.00011982,-0.00346606,0.000133
 43,0.00004933,-0.00017534,-0.00032477,-0.00012639,-0.00005336,0.000091
 73,-0.00004636,-0.00006089,0.00001811,-0.00002317,-0.00022273,-0.00011
 811,-0.00000299,0.00000949,-0.00003494,-0.00005558,-0.00007895,-0.0000
 8782,-0.00006933,0.00030852,0.00008207,0.00176355,-0.00065688,0.001094
 17,0.07012663,-0.00044344,-0.00023760,-0.00018005,0.00138419,0.0000746
 6,-0.00108656,-0.00061363,-0.00006820,0.00001326,0.00069405,0.00162382
 ,0.00089433,0.00987682,-0.00331784,-0.00053123,0.03262023,-0.24703326,
 -0.06744070,0.00032397,-0.02751502,-0.00517919,-0.00203739,-0.00059117
 ,0.00445438,0.00259972,-0.00078770,-0.00252370,-0.00021559,0.00100904,
 0.00081932,0.00021785,0.00027916,-0.00017264,0.00004034,0.00005372,-0.
 00001011,0.00004346,0.00021395,0.00009791,0.00001114,0.00000265,0.0000
 1905,0.00008716,0.00002765,0.00007512,-0.00007361,0.00005893,0.0000246
 4,0.00050164,0.00098273,0.00035273,-0.04466003,0.27806708,0.00000265,-
 0.00009319,-0.00003391,0.00004872,0.,-0.00000236,0.00026378,0.00016781
 ,-0.00007991,-0.00083627,0.00039165,0.00062211,0.00292859,0.00107029,0
 .00461378,0.01035856,-0.07650295,-0.08143632,-0.00070585,0.02356001,0.
 00414658,0.00187244,0.00140602,-0.00226254,0.00007439,0.00255835,0.000
 52996,-0.00044267,0.00017816,0.00034414,0.00003415,0.00008212,0.000025
 66,0.00000883,0.00001630,-0.00000159,-0.00000364,0.00003232,0.00001184
 ,-0.00000913,0.00000902,0.00000066,0.00000792,-0.00004434,-0.00001640,
 -0.00000328,0.00001856,-0.00000122,0.00040084,0.00156614,0.00091816,-0
 .01925134,0.07279116,0.08090490,0.00003685,0.00007800,0.00003151,-0.00
 015905,0.00009728,0.00039780,-0.00046418,-0.00026766,0.00000741,0.0027
 9411,0.00126709,-0.00180546,-0.02172470,-0.00094524,-0.03674623,-0.069
 17840,-0.00681113,-0.05895542,0.00475438,-0.00249144,0.02081426,0.0010
 1585,0.00280437,0.00118842,0.00368491,-0.00054141,0.00015405,-0.000820
 77,0.00015603,0.00033266,-0.00013971,-0.00020151,0.00002419,-0.0000160
 9,-0.00001335,0.00000469,0.00000794,-0.00001783,-0.00001813,0.00001770
 ,0.,0.00000008,-0.00008804,-0.00007807,0.00000805,0.00035773,-0.000154
 88,0.00038193,-0.00700279,0.00042861,0.00034975,0.00398430,0.00066110,
 0.00457467,0.08386885,0.00001229,-0.00005198,0.00000658,-0.00000039,-0
 .00002283,-0.00001229,-0.00013041,-0.00010639,-0.00007492,-0.00045485,
 0.00040858,-0.00048867,0.00677526,0.00152314,0.00933502,-0.00878864,-0
 .05840910,-0.03120998,0.00060463,-0.00122459,0.02601615,0.00183513,0.0
 0367633,0.00261934,0.00298880,-0.00095099,-0.00011137,-0.00059583,0.00
 075506,0.00062990,-0.00016788,-0.00025985,-0.00000185,0.00000044,0.000
 00779,0.00000310,-0.00000343,0.00000466,-0.00000834,0.00000534,0.00000
 204,0.00000408,-0.00003368,0.00000913,0.00000838,0.00001607,-0.0000207
 3,0.00004058,0.00140402,0.00097083,0.00105632,-0.00777400,-0.00337632,
 -0.02812300,0.00584524,0.05661176,-0.00001157,-0.00002898,0.00001835,-
 0.00010875,-0.00012161,0.00004485,0.00006570,-0.00016177,0.00076960,0.
 00167937,-0.00063259,0.00076691,-0.00443017,0.00071550,-0.00304108,-0.
 06992940,-0.02844865,-0.25589030,0.00382526,0.00822270,-0.02495452,0.0
 0100818,-0.00335491,0.00147116,-0.00413098,0.00123992,0.00027386,0.001
 02777,-0.00015491,-0.00016165,0.00026885,0.00030300,-0.00022111,-0.000
 00589,-0.00000203,-0.00000143,-0.00000656,0.00000139,-0.00001179,0.000
 00796,0.00000441,-0.00000192,-0.00003872,-0.00002739,-0.00002118,0.000
 24282,0.00036149,-0.00005001,0.00004971,0.00026055,0.00048641,-0.00307
 183,-0.00242800,-0.00896894,0.07139123,0.02184908,0.28876952,-0.000029
 40,-0.00002270,-0.00001503,0.00012698,0.00000086,-0.00006898,-0.000215
 26,-0.00001941,-0.00001240,0.00022878,0.00022605,0.00001868,-0.0007263
 9,-0.00254705,-0.00047346,-0.00043711,-0.00007642,0.00116302,0.0028863
 6,0.00159330,-0.00008910,-0.28384512,0.06576535,0.06984109,0.00078516,
 -0.00012752,-0.00015980,0.00008671,0.00000433,-0.00017519,-0.00008257,
 0.00007350,-0.00000115,0.00000808,0.00000731,-0.00000254,0.00000229,0.
 00000967,0.00000570,-0.00000009,0.00000133,0.00000277,-0.00000827,0.00
 001904,0.00002015,-0.00000057,0.00000545,0.00000265,-0.00006493,-0.000
 12388,-0.00003590,-0.00026869,0.00021615,-0.00019359,-0.00017421,0.000
 02968,-0.00031528,0.30422000,-0.00026982,-0.00014200,-0.00010491,0.000
 80869,0.00004074,-0.00061123,-0.00053285,-0.00001145,0.00026151,-0.000
 39291,0.00013603,0.00109684,-0.00062462,0.00047458,-0.00078536,0.00325
 656,0.00055598,-0.00069237,0.03241567,-0.01408726,-0.01361417,0.054635
 14,-0.06175264,-0.01502496,-0.00157864,-0.00651431,-0.00067301,-0.0005
 5318,-0.00020778,0.00061030,0.00029361,0.00037382,-0.00001673,0.000032
 84,0.00003284,-0.00001604,0.00001918,0.00010467,0.00005874,0.00000432,
 0.00000252,0.00001980,0.00000117,0.00004896,0.00007346,-0.00000970,-0.
 00000229,0.00001553,0.00008512,-0.00002487,-0.00013879,-0.00017689,0.0
 0044221,0.00003673,-0.00026693,-0.00025550,0.00029803,-0.06943936,0.07
 434793,0.00001169,0.00000129,0.00000765,0.00000072,-0.00003293,-0.0000
 4092,0.00005862,0.00004906,0.00007103,-0.00020385,0.00015247,-0.000059
 98,0.00001015,0.00069377,-0.00054614,0.00009546,0.00091158,0.00020613,
 0.01239544,-0.00485999,-0.00506914,0.06631366,-0.01851337,-0.06911238,
 -0.00107536,-0.00193774,-0.00000993,0.00002676,-0.00029352,0.00039731,
 -0.00014093,0.00007014,0.00002613,-0.00000148,-0.00000124,0.00000097,-
 0.00000267,-0.00000234,-0.00000034,-0.00000231,-0.00000052,-0.00000419
 ,0.00000712,0.00001837,0.00000317,-0.00002748,0.00000187,-0.00001752,-
 0.00000897,-0.00056394,-0.00007205,0.00003203,-0.00006263,-0.00003262,
 -0.00024033,0.00012393,0.00002561,-0.07568002,0.02476874,0.07264015,0.
 00010125,0.00004448,0.00004061,-0.00029510,-0.00001923,0.00020865,0.00
 021091,0.00001765,-0.00006716,-0.00001342,0.00005523,-0.00033128,0.000
 21995,-0.00107895,0.00022978,-0.00009947,0.00050253,-0.00014729,-0.000
 07304,-0.00026747,0.00029288,-0.07301336,-0.04890787,0.05976647,0.0000
 1789,0.00041562,-0.00051224,0.00007837,0.00048731,0.00018373,-0.000218
 76,-0.00012285,0.00010111,-0.00001246,-0.00001184,0.00000583,-0.000008
 16,-0.00003693,-0.00002099,-0.00000256,-0.00000094,-0.00000811,-0.0000
 0077,-0.00001549,-0.00002735,-0.00000165,-0.00000842,-0.00001349,-0.00
 001429,-0.00012158,-0.00002158,0.00008691,0.00009991,0.00014728,-0.000
 15277,-0.00006226,0.00028074,-0.00659967,-0.01845238,0.02184227,0.0739
 2473,0.00008678,0.00003372,0.00003763,-0.00024189,-0.00004753,0.000149
 94,0.00023708,0.00005297,-0.00007706,-0.00030213,0.00014422,-0.0001732
 1,0.00021701,0.00062112,0.00023086,0.00386086,-0.00506056,-0.00314447,
 -0.01393373,-0.02782253,0.02153504,-0.04528003,-0.13850441,0.11196539,
 -0.00184696,0.00036264,0.00196622,-0.00009834,0.00039547,0.00008612,0.
 00068401,0.00015708,-0.00064498,-0.00001359,-0.00001153,0.00000734,-0.
 00000713,-0.00002855,-0.00001617,-0.00000098,0.00000027,-0.00000825,0.
 00001167,-0.00002020,-0.00002668,-0.00001674,-0.00000271,-0.00001289,-
 0.00002562,-0.00003523,0.00004246,-0.00118140,-0.00138828,0.00095217,0
 .00009534,0.00003539,0.00005253,0.00151340,0.00625770,-0.00674381,0.05
 488546,0.16228766,-0.00004150,-0.00002334,-0.00001355,0.00009236,0.000
 01792,-0.00006638,-0.00008879,-0.00002757,0.00004035,-0.00002039,0.000
 00248,0.00009991,-0.00004216,0.00046585,0.00000700,0.00057296,-0.00284
 894,-0.00032732,-0.00607445,-0.00964659,0.01180646,0.06146170,0.120753
 14,-0.19631495,0.00065420,0.00042537,0.00063037,0.00050943,0.00026076,
 0.00029410,-0.00006145,-0.00072933,-0.00061058,0.00000413,0.00000457,-
 0.00000336,0.00000372,0.00001591,0.00000752,0.00000139,0.00000040,0.00
 000479,-0.00000411,-0.00000226,0.00000547,0.00000902,-0.00000795,0.000
 00750,0.00004493,0.00002766,0.00001261,-0.00023863,-0.00057404,0.00059
 614,-0.00006961,-0.00041405,0.00034356,0.00075432,0.00401628,-0.005773
 76,-0.06544761,-0.12551802,0.20760456,0.00009120,0.00003645,0.00003767
 ,-0.00028755,-0.00003277,0.00023678,0.00012630,-0.00000069,-0.00015335
 ,0.00007400,0.00008022,-0.00026429,-0.00036576,-0.00082859,0.00073007,
 0.00041447,0.00113320,-0.00179905,0.00164986,-0.00613799,-0.00095921,-
 0.14042368,-0.00691303,-0.11013939,0.00262049,0.00046767,0.00275065,-0
 .00044350,-0.00044431,-0.00028562,0.00015831,0.00014199,0.00009152,-0.
 00001436,-0.00001197,0.00000735,-0.00000749,-0.00003558,-0.00002211,0.
 00000372,0.00000103,-0.00000436,-0.00000547,-0.00003907,-0.00003275,0.
 00001204,0.00002302,0.00002516,0.00014667,0.00026342,0.00008097,0.0000
 7292,-0.00012740,0.00027600,-0.00037831,-0.00053245,0.00068886,-0.0163
 4543,-0.00088244,-0.02462908,0.00591200,0.00099799,0.00812804,0.146153
 33,0.00003541,0.00000516,0.00002152,-0.00012914,-0.00004423,0.00005583
 ,0.00014904,0.00004252,0.00002110,-0.00039630,0.00002585,0.00007216,-0
 .00017675,0.00010655,0.00072051,0.00179436,0.00363648,-0.00613441,-0.0
 2064081,-0.02001271,-0.03233118,-0.00767383,-0.05010042,-0.00853038,-0
 .00656900,0.00177797,0.00074849,0.00054780,-0.00019809,0.00019771,0.00
 037449,0.00023270,-0.00029368,-0.00000760,-0.00000659,0.00000302,-0.00
 000524,-0.00001070,-0.00000757,0.00000023,-0.00000045,-0.00000488,0.00
 000821,-0.00000912,-0.00001362,-0.00001749,0.00001066,-0.00001290,0.00
 030837,-0.00010690,-0.00002328,0.00024857,0.00015882,0.00048403,0.0004
 7604,0.00074804,0.00208320,0.00335758,0.00098297,0.00657591,0.01261656
 ,0.00236620,0.01385742,0.01404757,0.05943013,0.00007063,0.00003391,0.0
 0003301,-0.00022759,-0.00005362,0.00015048,0.00022543,0.00007182,-0.00
 009548,-0.00033243,0.00002828,0.00000123,-0.00012785,-0.00005086,-0.00
 000039,0.00211011,0.00145068,0.00061783,-0.00552587,-0.01514572,-0.010
 87440,-0.10993041,-0.00797155,-0.18756372,-0.00380220,0.00120770,0.001
 00201,0.00047618,-0.00047932,-0.00013594,-0.00008000,0.00050057,0.0000
 0890,-0.00001475,-0.00001216,0.00000769,-0.00000706,-0.00002590,-0.000
 01585,0.00000319,-0.00000133,-0.00000604,0.00001183,-0.00002386,-0.000
 02773,-0.00001827,0.00000314,0.00000264,0.00020126,0.00006849,-0.00009
 109,0.00008685,-0.00007422,0.00025649,-0.00110911,-0.00115144,0.000679
 92,0.00518015,0.00136048,0.00737973,-0.01621785,-0.00052670,-0.0180935
 8,0.12679081,0.02100167,0.20667226,-0.00004968,-0.00002606,-0.00002338
 ,0.00015928,0.00001833,-0.00010682,-0.00013026,0.00001057,0.00003984,0
 .00010914,0.00002530,0.00015691,0.00068124,-0.00033141,-0.00033998,0.0
 0005602,0.00335199,0.00059253,-0.00276799,0.03407271,0.00805064,-0.005
 28302,0.00011538,0.00163075,-0.04805230,-0.02389700,-0.00836921,-0.001
 91799,-0.00788622,-0.00003495,0.00076251,-0.00188439,0.00167932,0.0000
 0953,0.00000728,-0.00000495,0.00000386,0.00001784,0.00001237,-0.000001
 38,0.00000153,0.00000431,-0.00000417,0.00001337,0.00001795,-0.00000147
 ,0.00000296,0.00000133,-0.00003908,0.00016091,-0.00000531,-0.00045616,
 -0.00097199,0.00035349,-0.00006585,-0.00056423,0.00004099,0.00007329,0
 .00160067,0.00079857,0.00001048,-0.00020512,-0.00020200,0.00010112,0.0
 0013437,0.00034349,0.05714533,-0.00001499,-0.00002977,-0.00000927,0.00
 005968,-0.00000272,-0.00003067,-0.00006411,0.00000952,-0.00001932,0.00
 006441,0.00027987,0.00010490,0.00006622,0.00059478,0.00017644,-0.00274
 146,-0.00021474,0.00220133,0.00315351,-0.01493959,-0.00491311,0.002933
 68,0.00144667,-0.00042701,-0.01390450,-0.28646760,-0.05203186,-0.00609
 883,-0.01526520,0.00222152,0.00284696,-0.00233311,0.00114609,0.0000015
 1,0.00000348,0.00000155,-0.00000005,0.00001205,0.00000335,0.00000248,0
 .00000018,0.00000083,0.00000049,-0.00000372,0.00000400,0.00000888,-0.0
 0000300,0.00000679,0.00002836,-0.00012313,0.00003599,-0.00019135,0.001
 37278,-0.00015819,-0.00001587,-0.00000100,-0.00007819,-0.00027132,-0.0
 0086961,-0.00025287,-0.00017328,0.00013726,0.00012230,-0.00012456,0.00
 012688,-0.00000250,0.01581484,0.31856600,0.00002208,0.00000517,0.00000
 741,-0.00006738,0.00001099,0.00004497,0.00007258,-0.00002876,-0.000006
 82,0.00006487,-0.00002373,-0.00012726,-0.00054409,0.00070526,-0.000034
 32,0.00049526,-0.00299813,-0.00013565,0.00016694,-0.01151034,-0.002388
 57,0.00356763,-0.00020796,-0.00034014,-0.00708197,-0.04942148,-0.05892
 944,0.00405413,0.02922515,0.00414684,-0.00081974,0.00556421,-0.0019146
 3,-0.00000230,-0.00000211,0.00000076,-0.00000058,-0.00000464,-0.000002
 63,-0.00000233,0.00000085,-0.00000224,0.00000376,-0.00001008,-0.000008
 77,-0.00000120,-0.00000579,-0.00000707,-0.00004538,-0.00010110,0.00003
 313,0.00064599,0.00082282,-0.00003593,0.00012239,0.00022216,-0.0001229
 4,0.00017691,-0.00099088,-0.00003212,-0.00005375,0.00001551,0.00005057
 ,-0.00002314,0.00043094,0.00037261,-0.00135919,0.05172196,0.06286023,0
 .00014375,0.00009011,0.00007651,-0.00046330,-0.00012139,0.00027661,0.0
 0038341,0.00007384,-0.00008744,-0.00057892,0.00000566,-0.00018720,-0.0
 0066717,-0.00072629,0.00159925,0.00129784,0.00374898,-0.00447804,-0.03
 713844,0.00099330,-0.01132065,0.00155092,-0.00496611,-0.00149262,-0.16
 702659,-0.03154905,-0.10947817,0.00174419,-0.00153178,0.00272146,0.002
 92006,-0.00073560,0.00230476,-0.00002678,-0.00002495,0.00001080,-0.000
 01271,-0.00006410,-0.00003338,0.00000164,-0.00000153,-0.00001223,0.000
 01101,-0.00002243,-0.00004597,-0.00003315,0.00002467,-0.00001340,0.000
 45205,0.00023104,-0.00003399,-0.00013661,-0.00039923,0.00007550,-0.000
 15972,-0.00042672,0.00144865,0.00036404,-0.00002809,0.00039988,-0.0000
 2520,0.00048102,0.00000582,0.00073600,0.00150250,0.00183395,0.00023469
 ,-0.00026665,-0.00145064,0.19660193,-0.00000711,-0.00001261,-0.0000089
 9,0.00004590,0.00000754,-0.00000530,-0.00004996,0.00000912,-0.00005264
 ,0.00014929,0.00010602,0.00003424,0.00014464,0.00034215,-0.00030812,0.
 00020056,-0.00075617,0.00066420,0.01094568,0.00367831,0.00420781,0.001
 83894,0.00218354,0.00301319,-0.03370814,-0.06358866,-0.03453445,0.0061
 1021,0.00235580,0.02112220,0.00385761,-0.00009986,-0.00110035,0.000001
 37,0.00000355,0.00000142,0.00000007,0.00000525,-0.00000007,0.00000267,
 -0.00000028,0.00000158,-0.00000421,0.00000121,0.00000323,0.00001157,0.
 00000278,0.00001107,0.00000403,-0.00009868,0.00007936,0.00012400,0.000
 17248,-0.00030764,-0.00003775,0.00005647,-0.00008276,-0.00016427,0.000
 03802,-0.00008556,0.00002013,-0.00011721,-0.00012837,-0.00114187,0.000
 73078,-0.00015639,-0.02100669,-0.00387313,-0.01979394,0.03265487,0.058
 80603,-0.00001689,-0.00001352,-0.00001165,0.00006794,0.00000789,-0.000
 02253,-0.00007658,0.00001040,-0.00004180,0.00012320,0.00011287,-0.0000
 0950,0.00021403,0.00010251,-0.00039022,-0.00045237,-0.00096979,0.00215
 988,0.01178817,0.00080795,0.01017910,0.00150988,0.00246102,0.00279265,
 -0.10169628,-0.02968127,-0.14319652,-0.02139403,0.00338593,-0.03644785
 ,-0.00102270,-0.00478611,0.00496044,0.00000284,0.00000382,-0.00000036,
 0.00000063,0.00000787,0.00000245,0.00000263,-0.00000067,0.00000270,-0.
 00000320,0.00000140,0.00000615,0.00000578,-0.00000097,0.00001705,-0.00
 006217,-0.00005889,-0.00007628,0.00006597,0.00005866,-0.00007842,-0.00
 084008,-0.00028217,-0.00015276,0.00002218,0.00011903,0.00003786,-0.000
 23522,-0.00022864,-0.00027565,-0.00150344,0.00109975,-0.00025492,-0.00
 416712,-0.00109842,-0.00205291,0.11755108,0.02807651,0.16092793,-0.000
 00940,-0.00001061,-0.00000162,0.00002366,0.00000635,-0.00002565,-0.000
 01774,-0.00001182,0.00003508,-0.00000750,0.00001841,-0.00000061,0.0000
 1739,0.00009881,0.00002557,-0.00024665,-0.00017023,0.00025025,0.000268
 33,0.00021084,-0.00007400,-0.00011105,-0.00006433,-0.00008016,-0.00186
 572,-0.01008587,-0.00375716,-0.03080773,-0.02313676,0.06001856,-0.0389
 8550,0.00545858,-0.02194369,0.00000248,0.00000142,-0.00000255,0.000000
 47,0.00000480,0.00000311,-0.00000210,0.00000068,0.00000052,-0.00000114
 ,0.00000201,0.00000316,-0.00000104,-0.00000190,-0.00000475,-0.00001477
 ,-0.00003195,0.00000343,-0.00001438,0.00016458,0.00001795,0.00000196,0
 .00001787,0.00002306,0.00001600,0.00005486,0.00002010,-0.00003181,0.00
 008303,0.00004867,-0.00000090,0.00001504,0.00005950,-0.00057716,-0.001
 11405,0.00205913,-0.00017296,0.00000847,0.00011572,0.07253726,0.000035
 87,0.00002903,0.00002035,-0.00010113,-0.00002935,0.00005363,0.00006527
 ,0.00000900,-0.00001772,-0.00019617,-0.00001902,-0.00010229,0.00002265
 ,-0.00032707,0.00030424,-0.00016425,0.00140193,0.00024263,-0.00267188,
 -0.00337061,0.00327247,0.00005851,-0.00063940,-0.00004529,-0.00971468,
 0.02425999,0.00544873,-0.00762360,-0.03616576,0.01038058,-0.01075046,-
 0.07465656,0.10431266,-0.00000538,-0.00000610,0.00000176,-0.00000236,-
 0.00001730,-0.00000731,-0.00000071,0.00000042,-0.00000329,0.00000305,-
 0.00000089,-0.00000752,-0.00001035,0.00000453,-0.00000650,-0.00001886,
 0.00001716,-0.00000227,0.00001202,-0.00022428,-0.00009154,-0.00006604,
 -0.00012994,0.00013001,-0.00003108,0.00002874,-0.00001666,0.00013464,0
 .00018704,-0.00004962,0.00006015,0.00010749,-0.00005115,0.00142507,0.0
 0157685,-0.00362608,0.00105793,0.00004757,0.00086484,0.02848177,0.0879
 1653,-0.00006627,-0.00002791,-0.00002523,0.00017068,0.00003462,-0.0001
 1506,-0.00013837,-0.00003484,0.00006993,0.00009647,-0.00005905,0.00011
 821,0.00014719,0.00005100,-0.00022837,-0.00002798,-0.00009134,0.000330
 64,-0.00003417,0.00023552,0.00067885,0.00000569,0.00009143,-0.00000523
 ,-0.00087292,0.00728247,0.00622260,0.01151344,-0.00604620,-0.00326184,
 0.02474250,0.11911162,-0.32080340,0.00000948,0.00000767,-0.00000608,0.
 00000555,0.00002149,0.00001232,0.00000030,0.00000022,0.00000635,-0.000
 00813,0.00001107,0.00001679,0.00000555,-0.00000450,0.00000344,-0.00001
 555,0.00000281,-0.00000436,0.00002767,-0.00016030,-0.00002025,0.000001
 28,-0.00003653,-0.00005014,0.00003483,-0.00006700,-0.00002464,0.000004
 58,0.00007966,-0.00003180,-0.00002810,-0.00002138,-0.00002568,0.000890
 41,0.00127435,-0.00137509,0.00032947,-0.00065023,0.00192514,-0.0367936
 3,-0.12100465,0.31659291\\-0.00000088,0.00000424,0.00000072,0.00000992
 ,0.00000593,-0.00000831,-0.00000296,-0.00000012,0.00000591,0.00000122,
 -0.00000515,0.00001130,-0.00001499,0.00000412,-0.00000926,0.00001789,-
 0.00000238,0.00000470,-0.00000779,-0.00000602,0.00000330,-0.00000210,0
 .00000038,0.00000181,-0.00000344,0.00000379,-0.00000129,0.00000584,-0.
 00000315,-0.00000055,0.00000117,-0.00000342,0.00000030,-0.00000005,0.0
 0000016,-0.00000003,0.00000003,-0.00000152,0.00000171,0.00000106,-0.00
 000150,0.00000015,-0.00000005,-0.00000200,-0.00000186,-0.00000024,-0.0
 0000120,-0.00000083,-0.00000090,0.00000324,-0.00000716,-0.00000219,0.0
 0000201,0.00000221,0.00000306,0.00000221,-0.00000004,-0.00000188,0.000
 00283,-0.00000023,-0.00000039,-0.00000225,-0.00000095,-0.00000100,0.00
 000052,0.00000017,0.00000363,-0.00000210,-0.00000223,-0.00000152,0.000
 00053,-0.00000076,-0.00000344,0.00000084,0.00000123\\\@


 IF OTHER PEOPLE ARE GOING TO TALK, CONVERSATION IS SIMPLY IMPOSSIBLE.

                                               -- WHISTLER'S PRINCIPLE
 Job cpu time:       0 days  2 hours 36 minutes 51.4 seconds.
 Elapsed time:       0 days  0 hours 39 minutes 13.3 seconds.
 File lengths (MBytes):  RWF=    269 Int=      0 D2E=      0 Chk=     13 Scr=      1
 Normal termination of Gaussian 16 at Mon May 31 22:07:20 2021.
### All Done ###
