### Starting Gaussian ###
 Entering Gaussian System, Link 0=g16
 Initial command:
 /cluster/software/gaussian/gaussian-16-A.03/avx2/g16/l1.exe "/local/scratch/cz9n3/Gau-14736.inp" -scrdir="/local/scratch/cz9n3/"
 Entering Link 1 = /cluster/software/gaussian/gaussian-16-A.03/avx2/g16/l1.exe PID=     14737.
  
 Copyright (c) 1988,1990,1992,1993,1995,1998,2003,2009,2016,
            Gaussian, Inc.  All Rights Reserved.
  
 This is part of the Gaussian(R) 16 program.  It is based on
 the Gaussian(R) 09 system (copyright 2009, Gaussian, Inc.),
 the Gaussian(R) 03 system (copyright 2003, Gaussian, Inc.),
 the Gaussian(R) 98 system (copyright 1998, Gaussian, Inc.),
 the Gaussian(R) 94 system (copyright 1995, Gaussian, Inc.),
 the Gaussian 92(TM) system (copyright 1992, Gaussian, Inc.),
 the Gaussian 90(TM) system (copyright 1990, Gaussian, Inc.),
 the Gaussian 88(TM) system (copyright 1988, Gaussian, Inc.),
 the Gaussian 86(TM) system (copyright 1986, Carnegie Mellon
 University), and the Gaussian 82(TM) system (copyright 1983,
 Carnegie Mellon University). Gaussian is a federally registered
 trademark of Gaussian, Inc.
  
 This software contains proprietary and confidential information,
 including trade secrets, belonging to Gaussian, Inc.
  
 This software is provided under written license and may be
 used, copied, transmitted, or stored only in accord with that
 written license.
  
 The following legend is applicable only to US Government
 contracts under FAR:
  
                    RESTRICTED RIGHTS LEGEND
  
 Use, reproduction and disclosure by the US Government is
 subject to restrictions as set forth in subparagraphs (a)
 and (c) of the Commercial Computer Software - Restricted
 Rights clause in FAR 52.227-19.
  
 Gaussian, Inc.
 340 Quinnipiac St., Bldg. 40, Wallingford CT 06492
  
  
 ---------------------------------------------------------------
 Warning -- This program may not be used in any manner that
 competes with the business of Gaussian, Inc. or will provide
 assistance to any competitor of Gaussian, Inc.  The licensee
 of this program is prohibited from giving any competitor of
 Gaussian, Inc. access to this program.  By using this program,
 the user acknowledges that Gaussian, Inc. is engaged in the
 business of creating and licensing software in the field of
 computational chemistry and represents and warrants to the
 licensee that it is not a competitor of Gaussian, Inc. and that
 it will not use this program in any manner prohibited above.
 ---------------------------------------------------------------
  

 Cite this work as:
 Gaussian 16, Revision A.03,
 M. J. Frisch, G. W. Trucks, H. B. Schlegel, G. E. Scuseria, 
 M. A. Robb, J. R. Cheeseman, G. Scalmani, V. Barone, 
 G. A. Petersson, H. Nakatsuji, X. Li, M. Caricato, A. V. Marenich, 
 J. Bloino, B. G. Janesko, R. Gomperts, B. Mennucci, H. P. Hratchian, 
 J. V. Ortiz, A. F. Izmaylov, J. L. Sonnenberg, D. Williams-Young, 
 F. Ding, F. Lipparini, F. Egidi, J. Goings, B. Peng, A. Petrone, 
 T. Henderson, D. Ranasinghe, V. G. Zakrzewski, J. Gao, N. Rega, 
 G. Zheng, W. Liang, M. Hada, M. Ehara, K. Toyota, R. Fukuda, 
 J. Hasegawa, M. Ishida, T. Nakajima, Y. Honda, O. Kitao, H. Nakai, 
 T. Vreven, K. Throssell, J. A. Montgomery, Jr., J. E. Peralta, 
 F. Ogliaro, M. J. Bearpark, J. J. Heyd, E. N. Brothers, K. N. Kudin, 
 V. N. Staroverov, T. A. Keith, R. Kobayashi, J. Normand, 
 K. Raghavachari, A. P. Rendell, J. C. Burant, S. S. Iyengar, 
 J. Tomasi, M. Cossi, J. M. Millam, M. Klene, C. Adamo, R. Cammi, 
 J. W. Ochterski, R. L. Martin, K. Morokuma, O. Farkas, 
 J. B. Foresman, and D. J. Fox, Gaussian, Inc., Wallingford CT, 2016.
 
 ******************************************
 Gaussian 16:  ES64L-G16RevA.03 25-Dec-2016
                 1-Jun-2021 
 ******************************************
 %chk=CNCdNNNNCNCCdN.chk
 %NProcShared=20
 Will use up to   20 processors via shared memory.
 -----------------------------
 # opt freq b3lyp/6-31g(2df,p)
 -----------------------------
 1/18=20,19=15,26=3,38=1/1,3;
 2/9=110,12=2,17=6,18=5,40=1/2;
 3/5=1,6=6,7=104,11=2,25=1,30=1,71=1,74=-5/1,2,3;
 4//1;
 5/5=2,38=5/2;
 6/7=2,8=2,9=2,10=2,28=1/1;
 7//1,2,3,16;
 1/18=20,19=15,26=3/3(2);
 2/9=110/2;
 99//99;
 2/9=110/2;
 3/5=1,6=6,7=104,11=2,25=1,30=1,71=1,74=-5/1,2,3;
 4/5=5,16=3,69=1/1;
 5/5=2,38=5/2;
 7//1,2,3,16;
 1/18=20,19=15,26=3/3(-5);
 2/9=110/2;
 6/7=2,8=2,9=2,10=2,19=2,28=1/1;
 99/9=1/99;
 -------------------
 Title Card Required
 -------------------
 Symbolic Z-matrix:
 Charge =  0 Multiplicity = 1
 C                     1.15418  -0.02186   0.01273 
 N                     2.59551  -0.02549  -0.04796 
 C                     3.36199   0.44599  -1.07997 
 N                     4.66087   0.45833  -1.08942 
 N                     5.22442   1.08183  -2.1455 
 N                     6.62967   0.93099  -2.21869 
 N                     7.1429    1.46391  -3.46783 
 C                     8.60859   1.46416  -3.43522 
 N                     9.10451   2.00762  -4.69858 
 C                     10.57602   2.00673  -4.71046 
 C                     11.09293   2.56033  -6.02222 
 N                     12.36256   2.68799  -6.28867 
 H                     0.81219  -0.4291    0.97172 
 H                     0.73065  -0.64561  -0.78037 
 H                     0.74728   0.99073  -0.07907 
 H                     3.09712  -0.34569   0.77338 
 H                     2.75201   0.83852  -1.91456 
 H                     4.71502   1.13362  -3.02921 
 H                     6.89836  -0.04819  -2.07114 
 H                     6.84169   2.43328  -3.55258 
 H                     8.9766    0.43879  -3.31287 
 H                     8.97239   2.07464  -2.59955 
 H                     8.76646   2.96162  -4.7956 
 H                     10.96878   0.98932  -4.60695 
 H                     10.97826   2.62848  -3.90295 
 H                     10.36786   2.87523  -6.78538 
 H                     12.94229   2.35618  -5.51463 
 

 GradGradGradGradGradGradGradGradGradGradGradGradGradGradGradGradGradGrad
 Berny optimization.
 Initialization pass.
                           ----------------------------
                           !    Initial Parameters    !
                           ! (Angstroms and Degrees)  !
 --------------------------                            --------------------------
 ! Name  Definition              Value          Derivative Info.                !
 --------------------------------------------------------------------------------
 ! R1    R(1,2)                  1.4426         estimate D2E/DX2                !
 ! R2    R(1,13)                 1.0966         estimate D2E/DX2                !
 ! R3    R(1,14)                 1.0943         estimate D2E/DX2                !
 ! R4    R(1,15)                 1.0951         estimate D2E/DX2                !
 ! R5    R(2,3)                  1.3692         estimate D2E/DX2                !
 ! R6    R(2,16)                 1.0143         estimate D2E/DX2                !
 ! R7    R(3,4)                  1.299          estimate D2E/DX2                !
 ! R8    R(3,17)                 1.1058         estimate D2E/DX2                !
 ! R9    R(4,5)                  1.3497         estimate D2E/DX2                !
 ! R10   R(5,6)                  1.4152         estimate D2E/DX2                !
 ! R11   R(5,18)                 1.0213         estimate D2E/DX2                !
 ! R12   R(6,7)                  1.4518         estimate D2E/DX2                !
 ! R13   R(6,19)                 1.026          estimate D2E/DX2                !
 ! R14   R(7,8)                  1.4661         estimate D2E/DX2                !
 ! R15   R(7,20)                 1.0186         estimate D2E/DX2                !
 ! R16   R(8,9)                  1.462          estimate D2E/DX2                !
 ! R17   R(8,21)                 1.0963         estimate D2E/DX2                !
 ! R18   R(8,22)                 1.097          estimate D2E/DX2                !
 ! R19   R(9,10)                 1.4716         estimate D2E/DX2                !
 ! R20   R(9,23)                 1.0168         estimate D2E/DX2                !
 ! R21   R(10,11)                1.5147         estimate D2E/DX2                !
 ! R22   R(10,24)                1.0955         estimate D2E/DX2                !
 ! R23   R(10,25)                1.0956         estimate D2E/DX2                !
 ! R24   R(11,12)                1.3036         estimate D2E/DX2                !
 ! R25   R(11,26)                1.0988         estimate D2E/DX2                !
 ! R26   R(12,27)                1.0224         estimate D2E/DX2                !
 ! A1    A(2,1,13)             110.3316         estimate D2E/DX2                !
 ! A2    A(2,1,14)             110.7794         estimate D2E/DX2                !
 ! A3    A(2,1,15)             111.7169         estimate D2E/DX2                !
 ! A4    A(13,1,14)            107.5442         estimate D2E/DX2                !
 ! A5    A(13,1,15)            107.5065         estimate D2E/DX2                !
 ! A6    A(14,1,15)            108.8132         estimate D2E/DX2                !
 ! A7    A(1,2,3)              126.1661         estimate D2E/DX2                !
 ! A8    A(1,2,16)             117.4414         estimate D2E/DX2                !
 ! A9    A(3,2,16)             116.2446         estimate D2E/DX2                !
 ! A10   A(2,3,4)              124.6455         estimate D2E/DX2                !
 ! A11   A(2,3,17)             112.4769         estimate D2E/DX2                !
 ! A12   A(4,3,17)             122.8702         estimate D2E/DX2                !
 ! A13   A(3,4,5)              115.3149         estimate D2E/DX2                !
 ! A14   A(4,5,6)              113.9432         estimate D2E/DX2                !
 ! A15   A(4,5,18)             119.4854         estimate D2E/DX2                !
 ! A16   A(6,5,18)             117.1232         estimate D2E/DX2                !
 ! A17   A(5,6,7)              110.8788         estimate D2E/DX2                !
 ! A18   A(5,6,19)             110.7509         estimate D2E/DX2                !
 ! A19   A(7,6,19)             112.4244         estimate D2E/DX2                !
 ! A20   A(6,7,8)              109.5328         estimate D2E/DX2                !
 ! A21   A(6,7,20)             108.4439         estimate D2E/DX2                !
 ! A22   A(8,7,20)             107.2966         estimate D2E/DX2                !
 ! A23   A(7,8,9)              108.6612         estimate D2E/DX2                !
 ! A24   A(7,8,21)             109.7512         estimate D2E/DX2                !
 ! A25   A(7,8,22)             110.4013         estimate D2E/DX2                !
 ! A26   A(9,8,21)             109.2849         estimate D2E/DX2                !
 ! A27   A(9,8,22)             109.8117         estimate D2E/DX2                !
 ! A28   A(21,8,22)            108.9153         estimate D2E/DX2                !
 ! A29   A(8,9,10)             110.24           estimate D2E/DX2                !
 ! A30   A(8,9,23)             108.5699         estimate D2E/DX2                !
 ! A31   A(10,9,23)            109.4062         estimate D2E/DX2                !
 ! A32   A(9,10,11)            110.366          estimate D2E/DX2                !
 ! A33   A(9,10,24)            110.9965         estimate D2E/DX2                !
 ! A34   A(9,10,25)            111.1506         estimate D2E/DX2                !
 ! A35   A(11,10,24)           107.392          estimate D2E/DX2                !
 ! A36   A(11,10,25)           107.7929         estimate D2E/DX2                !
 ! A37   A(24,10,25)           109.0119         estimate D2E/DX2                !
 ! A38   A(10,11,12)           123.0372         estimate D2E/DX2                !
 ! A39   A(10,11,26)           118.7535         estimate D2E/DX2                !
 ! A40   A(12,11,26)           118.2085         estimate D2E/DX2                !
 ! A41   A(11,12,27)           111.4529         estimate D2E/DX2                !
 ! D1    D(13,1,2,3)          -178.0261         estimate D2E/DX2                !
 ! D2    D(13,1,2,16)           -2.6323         estimate D2E/DX2                !
 ! D3    D(14,1,2,3)            62.9983         estimate D2E/DX2                !
 ! D4    D(14,1,2,16)         -121.6079         estimate D2E/DX2                !
 ! D5    D(15,1,2,3)           -58.4953         estimate D2E/DX2                !
 ! D6    D(15,1,2,16)          116.8985         estimate D2E/DX2                !
 ! D7    D(1,2,3,4)            178.2055         estimate D2E/DX2                !
 ! D8    D(1,2,3,17)            -0.8298         estimate D2E/DX2                !
 ! D9    D(16,2,3,4)             2.7631         estimate D2E/DX2                !
 ! D10   D(16,2,3,17)         -176.2722         estimate D2E/DX2                !
 ! D11   D(2,3,4,5)           -173.8957         estimate D2E/DX2                !
 ! D12   D(17,3,4,5)             5.043          estimate D2E/DX2                !
 ! D13   D(3,4,5,6)           -172.293          estimate D2E/DX2                !
 ! D14   D(3,4,5,18)           -26.7926         estimate D2E/DX2                !
 ! D15   D(4,5,6,7)            172.0733         estimate D2E/DX2                !
 ! D16   D(4,5,6,19)            46.5442         estimate D2E/DX2                !
 ! D17   D(18,5,6,7)            25.7125         estimate D2E/DX2                !
 ! D18   D(18,5,6,19)          -99.8166         estimate D2E/DX2                !
 ! D19   D(5,6,7,8)            172.184          estimate D2E/DX2                !
 ! D20   D(5,6,7,20)            55.3843         estimate D2E/DX2                !
 ! D21   D(19,6,7,8)           -63.2306         estimate D2E/DX2                !
 ! D22   D(19,6,7,20)          179.9698         estimate D2E/DX2                !
 ! D23   D(6,7,8,9)           -179.8211         estimate D2E/DX2                !
 ! D24   D(6,7,8,21)            60.7301         estimate D2E/DX2                !
 ! D25   D(6,7,8,22)           -59.3379         estimate D2E/DX2                !
 ! D26   D(20,7,8,9)           -62.3005         estimate D2E/DX2                !
 ! D27   D(20,7,8,21)          178.2508         estimate D2E/DX2                !
 ! D28   D(20,7,8,22)           58.1828         estimate D2E/DX2                !
 ! D29   D(7,8,9,10)          -179.2302         estimate D2E/DX2                !
 ! D30   D(7,8,9,23)            60.9382         estimate D2E/DX2                !
 ! D31   D(21,8,9,10)          -59.4904         estimate D2E/DX2                !
 ! D32   D(21,8,9,23)         -179.322          estimate D2E/DX2                !
 ! D33   D(22,8,9,10)           59.9225         estimate D2E/DX2                !
 ! D34   D(22,8,9,23)          -59.9091         estimate D2E/DX2                !
 ! D35   D(8,9,10,11)          179.6047         estimate D2E/DX2                !
 ! D36   D(8,9,10,24)           60.6585         estimate D2E/DX2                !
 ! D37   D(8,9,10,25)          -60.8497         estimate D2E/DX2                !
 ! D38   D(23,9,10,11)         -61.0707         estimate D2E/DX2                !
 ! D39   D(23,9,10,24)         179.9831         estimate D2E/DX2                !
 ! D40   D(23,9,10,25)          58.4749         estimate D2E/DX2                !
 ! D41   D(9,10,11,12)         179.0393         estimate D2E/DX2                !
 ! D42   D(9,10,11,26)          -0.6191         estimate D2E/DX2                !
 ! D43   D(24,10,11,12)        -59.8434         estimate D2E/DX2                !
 ! D44   D(24,10,11,26)        120.4982         estimate D2E/DX2                !
 ! D45   D(25,10,11,12)         57.4821         estimate D2E/DX2                !
 ! D46   D(25,10,11,26)       -122.1763         estimate D2E/DX2                !
 ! D47   D(10,11,12,27)          0.928          estimate D2E/DX2                !
 ! D48   D(26,11,12,27)       -179.4118         estimate D2E/DX2                !
 --------------------------------------------------------------------------------
 Trust Radius=3.00D-01 FncErr=1.00D-07 GrdErr=1.00D-06 EigMax=2.50D+02 EigMin=1.00D-04
 Number of steps in this run=    125 maximum allowed number of steps=    162.
 GradGradGradGradGradGradGradGradGradGradGradGradGradGradGradGradGradGrad

                          Input orientation:                          
 ---------------------------------------------------------------------
 Center     Atomic      Atomic             Coordinates (Angstroms)
 Number     Number       Type             X           Y           Z
 ---------------------------------------------------------------------
      1          6           0        1.154180   -0.021860    0.012730
      2          7           0        2.595510   -0.025490   -0.047960
      3          6           0        3.361990    0.445990   -1.079970
      4          7           0        4.660870    0.458330   -1.089420
      5          7           0        5.224420    1.081830   -2.145500
      6          7           0        6.629670    0.930990   -2.218690
      7          7           0        7.142900    1.463910   -3.467830
      8          6           0        8.608590    1.464160   -3.435220
      9          7           0        9.104510    2.007620   -4.698580
     10          6           0       10.576020    2.006730   -4.710460
     11          6           0       11.092930    2.560330   -6.022220
     12          7           0       12.362560    2.687990   -6.288670
     13          1           0        0.812190   -0.429100    0.971720
     14          1           0        0.730650   -0.645610   -0.780370
     15          1           0        0.747280    0.990730   -0.079070
     16          1           0        3.097120   -0.345690    0.773380
     17          1           0        2.752010    0.838520   -1.914560
     18          1           0        4.715020    1.133620   -3.029210
     19          1           0        6.898360   -0.048190   -2.071140
     20          1           0        6.841690    2.433280   -3.552580
     21          1           0        8.976600    0.438790   -3.312870
     22          1           0        8.972390    2.074640   -2.599550
     23          1           0        8.766460    2.961620   -4.795600
     24          1           0       10.968780    0.989320   -4.606950
     25          1           0       10.978260    2.628480   -3.902950
     26          1           0       10.367860    2.875230   -6.785380
     27          1           0       12.942290    2.356180   -5.514630
 ---------------------------------------------------------------------
                    Distance matrix (angstroms):
                    1          2          3          4          5
     1  C    0.000000
     2  N    1.442612   0.000000
     3  C    2.507449   1.369244   0.000000
     4  N    3.707046   2.363140   1.298973   0.000000
     5  N    4.737398   3.540763   2.237921   1.349684   0.000000
     6  N    5.989002   4.679890   3.494230   2.318368   1.415216
     7  N    7.084249   5.881546   4.586209   3.581689   2.361167
     8  C    8.346547   7.060433   5.840435   4.700954   3.641725
     9  N    9.461658   8.254022   6.964881   5.930622   4.736075
    10  C   10.732883   9.463475   8.225485   7.106228   6.006170
    11  C   11.910797  10.704410   9.416141   8.373907   7.187095
    12  N   13.140727  11.903978  10.638016   9.556130   8.408249
    13  H    1.096569   2.093533   3.387727   4.455128   5.609612
    14  H    1.094280   2.097302   2.864490   4.093999   5.004158
    15  H    1.095141   2.109413   2.852236   4.076818   4.931857
    16  H    2.111509   1.014268   2.032688   2.561598   3.883694
    17  H    2.647218   2.062814   1.105756   2.114036   2.495064
    18  H    4.823703   3.837149   2.470438   2.054686   1.021329
    19  H    6.110549   4.754818   3.705745   2.495335   2.021027
    20  H    7.147511   6.029756   4.708655   3.837129   2.534138
    21  H    8.512465   7.182862   6.042329   4.854857   3.981847
    22  H    8.505512   7.182322   6.036407   4.845839   3.903731
    23  H    9.485146   8.339277   7.024429   6.071087   4.806526
    24  H   10.894508   9.587798   8.402265   7.241871   6.250197
    25  H   10.902724   9.600781   8.410710   7.248098   6.211878
    26  H   11.810983  10.687209   9.356021   8.417547   7.155400
    27  H   13.235041  11.942055  10.728336   9.579469   8.517072
                    6          7          8          9         10
     6  N    0.000000
     7  N    1.451812   0.000000
     8  C    2.383346   1.466053   0.000000
     9  N    3.665218   2.378714   1.461973   0.000000
    10  C    4.789552   3.691219   2.406533   1.471558   0.000000
    11  C    6.086237   4.830091   3.750480   2.451800   1.514722
    12  N    7.246918   6.058082   4.871573   3.688655   2.479231
    13  H    6.772860   7.960589   9.153655  10.336947  11.556505
    14  H    6.273187   7.265636   8.576788   9.618395  10.927572
    15  H    6.259717   7.253382   8.560845   9.602980  10.912661
    16  H    4.802219   6.134399   7.166880   8.459855   9.567671
    17  H    3.890667   4.699327   6.083039   7.033621   8.390286
    18  H    2.088992   2.489193   3.928611   4.776850   6.159565
    19  H    1.026040   2.072918   2.659474   3.999612   4.971307
    20  H    2.020171   1.018621   2.018639   2.571936   3.932919
    21  H    2.635825   2.106499   1.096259   2.097089   2.640045
    22  H    2.634640   2.115168   1.096987   2.104251   2.651826
    23  H    3.915328   2.577219   2.029272   1.016763   2.047821
    24  H    4.953288   4.019974   2.677484   2.126225   1.095490
    25  H    4.962705   4.031816   2.681371   2.128247   1.095647
    26  H    6.213597   4.837182   4.038530   2.589118   2.258963
    27  H    7.262476   6.214375   4.888824   3.939034   2.523497
                   11         12         13         14         15
    11  C    0.000000
    12  N    1.303554   0.000000
    13  H   12.788491  13.994305   0.000000
    14  H   12.047070  13.294946   1.767299   0.000000
    15  H   12.034000  13.279855   1.767566   1.780367   0.000000
    16  H   10.888439  12.038444   2.295038   2.846800   2.834508
    17  H    9.455604  10.719890   3.701402   2.752258   2.722340
    18  H    7.188278   8.457246   5.803587   4.908986   4.946383
    19  H    6.325332   7.425074   6.815098   6.329585   6.548548
    20  H    4.918161   6.166934   8.063336   7.383056   7.161568
    21  H    4.039847   5.037759   9.261130   8.693973   8.859109
    22  H    4.055521   5.047678   9.252651   8.867663   8.670647
    23  H    2.660469   3.903340  10.393718   9.680311   9.509853
    24  H    2.118130   2.766999  11.674322  11.051471  11.179479
    25  H    2.123464   2.758893  11.681617  11.201950  11.044330
    26  H    1.098773   2.064124  12.743705  11.888325  11.877773
    27  H    1.928589   1.022410  14.034595  13.436819  13.421179
                   16         17         18         19         20
    16  H    0.000000
    17  H    2.957444   0.000000
    18  H    4.389265   2.276606   0.000000
    19  H    4.757019   4.242993   2.661118   0.000000
    20  H    6.360692   4.685280   2.546715   2.890600   0.000000
    21  H    7.202856   6.392228   4.327160   2.469438   2.931432
    22  H    7.193987   6.378897   4.381247   3.014502   2.361519
    23  H    8.607744   6.998682   4.782874   4.468941   2.351379
    24  H    9.627733   8.647949   6.451325   4.906636   4.497731
    25  H    9.634631   8.650367   6.498169   5.212070   4.155968
    26  H   10.971456   9.266836   7.006898   6.542773   4.804185
    27  H   11.990269  10.913551   8.681010   7.359871   6.408815
                   21         22         23         24         25
    21  H    0.000000
    22  H    1.784614   0.000000
    23  H    2.933823   2.377346   0.000000
    24  H    2.438546   3.032020   2.962393   0.000000
    25  H    3.024827   2.455424   2.408291   1.783971   0.000000
    26  H    4.464322   4.484357   2.555615   2.943352   2.956666
    27  H    4.924513   4.933261   4.280318   2.566502   2.555205
                   26         27
    26  H    0.000000
    27  H    2.917517   0.000000
 Stoichiometry    C5H15N7
 Framework group  C1[X(C5H15N7)]
 Deg. of freedom    75
 Full point group                 C1      NOp   1
 Largest Abelian subgroup         C1      NOp   1
 Largest concise Abelian subgroup C1      NOp   1
                         Standard orientation:                         
 ---------------------------------------------------------------------
 Center     Atomic      Atomic             Coordinates (Angstroms)
 Number     Number       Type             X           Y           Z
 ---------------------------------------------------------------------
      1          6           0       -6.484695    0.398299   -0.052682
      2          7           0       -5.243648   -0.335282    0.000149
      3          6           0       -3.984957    0.202520   -0.035843
      4          7           0       -2.885694   -0.484555    0.047106
      5          7           0       -1.752937    0.245569    0.120764
      6          7           0       -0.567671   -0.523123    0.036538
      7          7           0        0.599258    0.334673   -0.064564
      8          6           0        1.815245   -0.477861    0.037782
      9          7           0        2.976957    0.404096   -0.061919
     10          6           0        4.219704   -0.379869    0.018467
     11          6           0        5.425299    0.530191   -0.094292
     12          7           0        6.652512    0.094644   -0.035131
     13          1           0       -7.336426   -0.287439    0.029666
     14          1           0       -6.580706    0.930817   -1.003816
     15          1           0       -6.563337    1.121122    0.766266
     16          1           0       -5.299065   -1.337965    0.142611
     17          1           0       -3.998499    1.304371   -0.127693
     18          1           0       -1.730801    1.181651   -0.287125
     19          1           0       -0.625739   -1.197455   -0.734606
     20          1           0        0.596665    0.976830    0.726142
     21          1           0        1.843261   -1.207375   -0.780025
     22          1           0        1.837031   -1.014761    0.994153
     23          1           0        2.946187    1.068326    0.707274
     24          1           0        4.279603   -1.105636   -0.799930
     25          1           0        4.290226   -0.912218    0.973493
     26          1           0        5.262806    1.608783   -0.226725
     27          1           0        6.683779   -0.920881    0.079122
 ---------------------------------------------------------------------
 Rotational constants (GHZ):          10.2041796           0.1729731           0.1709062
 Standard basis: 6-31G(2df,p) (6D, 7F)
 There are   447 symmetry adapted cartesian basis functions of A   symmetry.
 There are   411 symmetry adapted basis functions of A   symmetry.
   411 basis functions,   633 primitive gaussians,   447 cartesian basis functions
    47 alpha electrons       47 beta electrons
       nuclear repulsion energy       654.7899471132 Hartrees.
 NAtoms=   27 NActive=   27 NUniq=   27 SFac= 1.00D+00 NAtFMM=   60 NAOKFM=F Big=F
 Integral buffers will be    131072 words long.
 Raffenetti 2 integral format.
 Two-electron integral symmetry is turned on.
 One-electron integrals computed using PRISM.
 PrsmSu:  requested number of processors reduced to:  13 ShMem   1 Linda.
 NBasis=   411 RedAO= T EigKep=  2.00D-04  NBF=   411
 NBsUse=   411 1.00D-06 EigRej= -1.00D+00 NBFU=   411
 ExpMin= 1.61D-01 ExpMax= 4.17D+03 ExpMxC= 6.27D+02 IAcc=3 IRadAn=         5 AccDes= 0.00D+00
 Harris functional with IExCor=  402 and IRadAn=       5 diagonalized for initial guess.
 HarFok:  IExCor=  402 AccDes= 0.00D+00 IRadAn=         5 IDoV= 1 UseB2=F ITyADJ=14
 ICtDFT=  3500011 ScaDFX=  1.000000  1.000000  1.000000  1.000000
 FoFCou: FMM=F IPFlag=           0 FMFlag=      100000 FMFlg1=           0
         NFxFlg=           0 DoJE=T BraDBF=F KetDBF=T FulRan=T
         wScrn=  0.000000 ICntrl=       500 IOpCl=  0 I1Cent=   200000004 NGrid=           0
         NMat0=    1 NMatS0=      1 NMatT0=    0 NMatD0=    1 NMtDS0=    0 NMtDT0=    0
 Petite list used in FoFCou.
 Requested convergence on RMS density matrix=1.00D-08 within 128 cycles.
 Requested convergence on MAX density matrix=1.00D-06.
 Requested convergence on             energy=1.00D-06.
 No special actions if energy rises.
 Integral accuracy reduced to 1.0D-05 until final iterations.
 Initial convergence to 1.0D-05 achieved.  Increase integral accuracy.
 SCF Done:  E(RB3LYP) =  -582.671184856     A.U. after   13 cycles
            NFock= 13  Conv=0.57D-08     -V/T= 2.0078

 **********************************************************************

            Population analysis using the SCF density.

 **********************************************************************

 Orbital symmetries:
       Occupied  (A) (A) (A) (A) (A) (A) (A) (A) (A) (A) (A) (A)
                 (A) (A) (A) (A) (A) (A) (A) (A) (A) (A) (A) (A)
                 (A) (A) (A) (A) (A) (A) (A) (A) (A) (A) (A) (A)
                 (A) (A) (A) (A) (A) (A) (A) (A) (A) (A) (A)
       Virtual   (A) (A) (A) (A) (A) (A) (A) (A) (A) (A) (A) (A)
                 (A) (A) (A) (A) (A) (A) (A) (A) (A) (A) (A) (A)
                 (A) (A) (A) (A) (A) (A) (A) (A) (A) (A) (A) (A)
                 (A) (A) (A) (A) (A) (A) (A) (A) (A) (A) (A) (A)
                 (A) (A) (A) (A) (A) (A) (A) (A) (A) (A) (A) (A)
                 (A) (A) (A) (A) (A) (A) (A) (A) (A) (A) (A) (A)
                 (A) (A) (A) (A) (A) (A) (A) (A) (A) (A) (A) (A)
                 (A) (A) (A) (A) (A) (A) (A) (A) (A) (A) (A) (A)
                 (A) (A) (A) (A) (A) (A) (A) (A) (A) (A) (A) (A)
                 (A) (A) (A) (A) (A) (A) (A) (A) (A) (A) (A) (A)
                 (A) (A) (A) (A) (A) (A) (A) (A) (A) (A) (A) (A)
                 (A) (A) (A) (A) (A) (A) (A) (A) (A) (A) (A) (A)
                 (A) (A) (A) (A) (A) (A) (A) (A) (A) (A) (A) (A)
                 (A) (A) (A) (A) (A) (A) (A) (A) (A) (A) (A) (A)
                 (A) (A) (A) (A) (A) (A) (A) (A) (A) (A) (A) (A)
                 (A) (A) (A) (A) (A) (A) (A) (A) (A) (A) (A) (A)
                 (A) (A) (A) (A) (A) (A) (A) (A) (A) (A) (A) (A)
                 (A) (A) (A) (A) (A) (A) (A) (A) (A) (A) (A) (A)
                 (A) (A) (A) (A) (A) (A) (A) (A) (A) (A) (A) (A)
                 (A) (A) (A) (A) (A) (A) (A) (A) (A) (A) (A) (A)
                 (A) (A) (A) (A) (A) (A) (A) (A) (A) (A) (A) (A)
                 (A) (A) (A) (A) (A) (A) (A) (A) (A) (A) (A) (A)
                 (A) (A) (A) (A) (A) (A) (A) (A) (A) (A) (A) (A)
                 (A) (A) (A) (A) (A) (A) (A) (A) (A) (A) (A) (A)
                 (A) (A) (A) (A) (A) (A) (A) (A) (A) (A) (A) (A)
                 (A) (A) (A) (A) (A) (A) (A) (A) (A) (A) (A) (A)
                 (A) (A) (A) (A) (A) (A) (A) (A) (A) (A) (A) (A)
                 (A) (A) (A) (A) (A) (A) (A) (A) (A) (A) (A) (A)
                 (A) (A) (A) (A) (A) (A) (A) (A) (A) (A) (A) (A)
                 (A) (A) (A) (A) (A) (A) (A) (A) (A) (A) (A) (A)
                 (A) (A) (A) (A)
 The electronic state is 1-A.
 Alpha  occ. eigenvalues --  -14.35856 -14.35620 -14.34370 -14.33964 -14.32902
 Alpha  occ. eigenvalues --  -14.32621 -14.31650 -10.23582 -10.23394 -10.23286
 Alpha  occ. eigenvalues --  -10.22269 -10.22254  -1.01749  -0.95399  -0.92622
 Alpha  occ. eigenvalues --   -0.90478  -0.88137  -0.81167  -0.72769  -0.69751
 Alpha  occ. eigenvalues --   -0.66877  -0.63862  -0.60672  -0.59193  -0.54690
 Alpha  occ. eigenvalues --   -0.52399  -0.49866  -0.48452  -0.47556  -0.45803
 Alpha  occ. eigenvalues --   -0.44850  -0.44676  -0.44005  -0.42923  -0.40177
 Alpha  occ. eigenvalues --   -0.40119  -0.39142  -0.38851  -0.38044  -0.33190
 Alpha  occ. eigenvalues --   -0.30125  -0.27621  -0.26963  -0.25927  -0.23543
 Alpha  occ. eigenvalues --   -0.19554  -0.13990
 Alpha virt. eigenvalues --   -0.01149   0.03705   0.06736   0.08379   0.09035
 Alpha virt. eigenvalues --    0.10271   0.10658   0.10913   0.12188   0.13102
 Alpha virt. eigenvalues --    0.13539   0.14722   0.15617   0.16660   0.17522
 Alpha virt. eigenvalues --    0.17684   0.19195   0.19595   0.21477   0.22054
 Alpha virt. eigenvalues --    0.22520   0.25268   0.25663   0.27090   0.30383
 Alpha virt. eigenvalues --    0.32236   0.33795   0.36732   0.40707   0.43047
 Alpha virt. eigenvalues --    0.47468   0.47862   0.48706   0.49433   0.51790
 Alpha virt. eigenvalues --    0.52155   0.53181   0.54065   0.54302   0.55099
 Alpha virt. eigenvalues --    0.56152   0.56969   0.57757   0.59608   0.60699
 Alpha virt. eigenvalues --    0.61297   0.62172   0.62616   0.64278   0.64993
 Alpha virt. eigenvalues --    0.65510   0.65888   0.68072   0.69238   0.71059
 Alpha virt. eigenvalues --    0.71606   0.72526   0.73382   0.73438   0.74098
 Alpha virt. eigenvalues --    0.74847   0.75425   0.75880   0.76080   0.76986
 Alpha virt. eigenvalues --    0.77405   0.77958   0.78759   0.79327   0.80176
 Alpha virt. eigenvalues --    0.81153   0.82610   0.83277   0.83639   0.84167
 Alpha virt. eigenvalues --    0.84477   0.84927   0.86178   0.87305   0.90121
 Alpha virt. eigenvalues --    0.92996   0.94552   0.95075   0.96115   0.97189
 Alpha virt. eigenvalues --    0.98233   0.98742   1.01353   1.02794   1.04778
 Alpha virt. eigenvalues --    1.07367   1.09094   1.13923   1.14393   1.17239
 Alpha virt. eigenvalues --    1.19738   1.21628   1.24031   1.24295   1.26895
 Alpha virt. eigenvalues --    1.27189   1.29149   1.31436   1.31573   1.32966
 Alpha virt. eigenvalues --    1.34806   1.35304   1.38914   1.39413   1.39693
 Alpha virt. eigenvalues --    1.40720   1.42606   1.45875   1.46791   1.47070
 Alpha virt. eigenvalues --    1.49849   1.50450   1.51095   1.52991   1.53709
 Alpha virt. eigenvalues --    1.56189   1.58284   1.59216   1.59655   1.63460
 Alpha virt. eigenvalues --    1.66243   1.68400   1.69507   1.70508   1.74548
 Alpha virt. eigenvalues --    1.75516   1.78135   1.78855   1.79366   1.81604
 Alpha virt. eigenvalues --    1.84876   1.87401   1.87944   1.90465   1.93231
 Alpha virt. eigenvalues --    1.93570   1.96709   1.97785   1.99033   2.01268
 Alpha virt. eigenvalues --    2.03237   2.05146   2.09238   2.13056   2.15460
 Alpha virt. eigenvalues --    2.18725   2.19198   2.21950   2.24072   2.27243
 Alpha virt. eigenvalues --    2.30587   2.32885   2.35250   2.36295   2.37153
 Alpha virt. eigenvalues --    2.39216   2.42203   2.43145   2.46897   2.48216
 Alpha virt. eigenvalues --    2.48826   2.50833   2.52264   2.55717   2.58709
 Alpha virt. eigenvalues --    2.59466   2.66416   2.69834   2.71722   2.72719
 Alpha virt. eigenvalues --    2.73728   2.76139   2.77857   2.78451   2.79377
 Alpha virt. eigenvalues --    2.81489   2.84948   2.85423   2.86973   2.87192
 Alpha virt. eigenvalues --    2.88410   2.89629   2.89921   2.90682   2.93660
 Alpha virt. eigenvalues --    2.95134   2.96030   3.00315   3.01783   3.02714
 Alpha virt. eigenvalues --    3.04157   3.04976   3.07511   3.08783   3.09512
 Alpha virt. eigenvalues --    3.11442   3.12124   3.15222   3.16797   3.17905
 Alpha virt. eigenvalues --    3.22362   3.23364   3.23802   3.26237   3.28513
 Alpha virt. eigenvalues --    3.29054   3.31436   3.35364   3.37188   3.38504
 Alpha virt. eigenvalues --    3.40634   3.42213   3.44959   3.45670   3.46729
 Alpha virt. eigenvalues --    3.49112   3.51086   3.53288   3.54720   3.56323
 Alpha virt. eigenvalues --    3.58855   3.61064   3.63060   3.64728   3.67282
 Alpha virt. eigenvalues --    3.70150   3.70767   3.71637   3.74961   3.75765
 Alpha virt. eigenvalues --    3.77579   3.81074   3.82414   3.84133   3.84871
 Alpha virt. eigenvalues --    3.86225   3.90700   3.93093   3.93605   3.96594
 Alpha virt. eigenvalues --    3.97798   3.99076   4.00730   4.03919   4.04839
 Alpha virt. eigenvalues --    4.08685   4.11085   4.13505   4.14667   4.15750
 Alpha virt. eigenvalues --    4.17211   4.17660   4.18470   4.19209   4.21209
 Alpha virt. eigenvalues --    4.23045   4.24460   4.26429   4.28670   4.29235
 Alpha virt. eigenvalues --    4.31701   4.33909   4.35372   4.36984   4.37552
 Alpha virt. eigenvalues --    4.39362   4.39800   4.40278   4.41745   4.41969
 Alpha virt. eigenvalues --    4.43653   4.43927   4.44972   4.46846   4.47252
 Alpha virt. eigenvalues --    4.48952   4.49686   4.51574   4.52985   4.53821
 Alpha virt. eigenvalues --    4.55207   4.56893   4.58261   4.59591   4.60344
 Alpha virt. eigenvalues --    4.61813   4.62738   4.64319   4.64771   4.66106
 Alpha virt. eigenvalues --    4.66585   4.67351   4.67905   4.68241   4.69366
 Alpha virt. eigenvalues --    4.70989   4.73391   4.74657   4.76929   4.77778
 Alpha virt. eigenvalues --    4.80908   4.82672   4.84438   4.85473   4.86516
 Alpha virt. eigenvalues --    4.86574   4.89004   4.91772   4.92699   4.95346
 Alpha virt. eigenvalues --    4.97491   4.98516   5.01394   5.02155   5.04513
 Alpha virt. eigenvalues --    5.06810   5.10882   5.13632   5.15084   5.17225
 Alpha virt. eigenvalues --    5.20151   5.21803   5.23276   5.28930   5.31317
 Alpha virt. eigenvalues --    5.31929   5.36359   5.41372   5.43947   5.46090
 Alpha virt. eigenvalues --    5.47621   5.51219   5.52893   5.60617   5.62481
 Alpha virt. eigenvalues --    5.68703   5.74727   5.76189   5.90405   6.03487
 Alpha virt. eigenvalues --    6.57779   8.96020   8.99258  10.28133  10.76218
 Alpha virt. eigenvalues --   10.99202  11.06573  11.17722  11.27190  11.40305
 Alpha virt. eigenvalues --   11.44493  11.46908  11.50504  11.54657  11.67816
 Alpha virt. eigenvalues --   12.16481  14.35131  15.95737  19.40955
          Condensed to atoms (all electrons):
               1          2          3          4          5          6
     1  C    4.882851   0.404430  -0.054613   0.001279  -0.000130   0.000000
     2  N    0.404430   6.343389   0.385649  -0.019600   0.002595  -0.000010
     3  C   -0.054613   0.385649   4.631987   0.669961  -0.106001   0.001696
     4  N    0.001279  -0.019600   0.669961   6.388152   0.338952  -0.055252
     5  N   -0.000130   0.002595  -0.106001   0.338952   6.447016   0.326669
     6  N    0.000000  -0.000010   0.001696  -0.055252   0.326669   6.575936
     7  N   -0.000000  -0.000000  -0.000108   0.001980  -0.043361   0.209579
     8  C    0.000000  -0.000000   0.000003  -0.000135   0.002070  -0.052852
     9  N   -0.000000   0.000000   0.000000   0.000000  -0.000040   0.001859
    10  C    0.000000   0.000000   0.000000  -0.000000   0.000001  -0.000071
    11  C   -0.000000   0.000000   0.000000   0.000000   0.000000   0.000000
    12  N    0.000000   0.000000   0.000000   0.000000   0.000000   0.000000
    13  H    0.383215  -0.017426   0.002980  -0.000049   0.000001  -0.000000
    14  H    0.374782  -0.039687  -0.000222   0.000015  -0.000007   0.000000
    15  H    0.373510  -0.039462  -0.000658   0.000233  -0.000007   0.000000
    16  H   -0.046614   0.338115  -0.019062   0.000433  -0.000084   0.000001
    17  H   -0.001003  -0.069166   0.372903  -0.064812  -0.005150  -0.000082
    18  H    0.000025  -0.000794   0.002170  -0.060557   0.323990  -0.067643
    19  H   -0.000000  -0.000068   0.001198   0.017424  -0.070734   0.308250
    20  H    0.000000  -0.000000  -0.000018   0.000274   0.006598  -0.036641
    21  H   -0.000000   0.000000  -0.000000  -0.000001  -0.000042  -0.006106
    22  H   -0.000000  -0.000000   0.000001   0.000020   0.000237   0.018714
    23  H   -0.000000   0.000000   0.000000  -0.000000   0.000002  -0.000105
    24  H    0.000000   0.000000   0.000000  -0.000000   0.000000  -0.000001
    25  H    0.000000  -0.000000   0.000000   0.000000   0.000000   0.000021
    26  H    0.000000  -0.000000   0.000000   0.000000   0.000000   0.000000
    27  H    0.000000   0.000000   0.000000   0.000000   0.000000   0.000000
               7          8          9         10         11         12
     1  C   -0.000000   0.000000  -0.000000   0.000000  -0.000000   0.000000
     2  N   -0.000000  -0.000000   0.000000   0.000000   0.000000   0.000000
     3  C   -0.000108   0.000003   0.000000   0.000000   0.000000   0.000000
     4  N    0.001980  -0.000135   0.000000  -0.000000   0.000000   0.000000
     5  N   -0.043361   0.002070  -0.000040   0.000001   0.000000   0.000000
     6  N    0.209579  -0.052852   0.001859  -0.000071   0.000000   0.000000
     7  N    6.549915   0.380556  -0.030105   0.002041  -0.000032   0.000001
     8  C    0.380556   4.803474   0.377421  -0.058922   0.001697  -0.000074
     9  N   -0.030105   0.377421   6.441932   0.328045  -0.025123   0.003949
    10  C    0.002041  -0.058922   0.328045   4.972060   0.427122  -0.055608
    11  C   -0.000032   0.001697  -0.025123   0.427122   4.697105   0.662625
    12  N    0.000001  -0.000074   0.003949  -0.055608   0.662625   6.473254
    13  H    0.000000  -0.000000   0.000000  -0.000000   0.000000   0.000000
    14  H   -0.000000  -0.000000  -0.000000  -0.000000  -0.000000   0.000000
    15  H    0.000000   0.000000   0.000000   0.000000   0.000000   0.000000
    16  H    0.000000   0.000000  -0.000000  -0.000000  -0.000000   0.000000
    17  H    0.000033   0.000000   0.000000  -0.000000  -0.000000   0.000000
    18  H    0.022513   0.000002   0.000032   0.000001   0.000000  -0.000000
    19  H   -0.038900  -0.004485  -0.000099  -0.000020  -0.000000   0.000000
    20  H    0.321657  -0.052564   0.000684  -0.000557   0.000007   0.000000
    21  H   -0.012582   0.343242  -0.012157  -0.006996   0.000069  -0.000003
    22  H   -0.058567   0.365060  -0.054987   0.002224   0.000181   0.000013
    23  H    0.001512  -0.053970   0.341517  -0.048861   0.001539  -0.000013
    24  H    0.000226  -0.004650  -0.020361   0.356039  -0.018704  -0.003559
    25  H   -0.000115  -0.002062  -0.039219   0.344673  -0.032428  -0.000086
    26  H    0.000013  -0.000117   0.005778  -0.067544   0.351884  -0.017247
    27  H    0.000000   0.000001   0.000450  -0.014996  -0.102267   0.336849
              13         14         15         16         17         18
     1  C    0.383215   0.374782   0.373510  -0.046614  -0.001003   0.000025
     2  N   -0.017426  -0.039687  -0.039462   0.338115  -0.069166  -0.000794
     3  C    0.002980  -0.000222  -0.000658  -0.019062   0.372903   0.002170
     4  N   -0.000049   0.000015   0.000233   0.000433  -0.064812  -0.060557
     5  N    0.000001  -0.000007  -0.000007  -0.000084  -0.005150   0.323990
     6  N   -0.000000   0.000000   0.000000   0.000001  -0.000082  -0.067643
     7  N    0.000000  -0.000000   0.000000   0.000000   0.000033   0.022513
     8  C   -0.000000  -0.000000   0.000000   0.000000   0.000000   0.000002
     9  N    0.000000  -0.000000   0.000000  -0.000000   0.000000   0.000032
    10  C   -0.000000  -0.000000   0.000000  -0.000000  -0.000000   0.000001
    11  C    0.000000  -0.000000   0.000000  -0.000000  -0.000000   0.000000
    12  N    0.000000   0.000000   0.000000   0.000000   0.000000  -0.000000
    13  H    0.563791  -0.030514  -0.031233  -0.006094  -0.000066   0.000000
    14  H   -0.030514   0.617357  -0.052277   0.003790   0.001801  -0.000020
    15  H   -0.031233  -0.052277   0.619898   0.003244   0.002483   0.000018
    16  H   -0.006094   0.003790   0.003244   0.471026   0.007778   0.000053
    17  H   -0.000066   0.001801   0.002483   0.007778   0.667150   0.014521
    18  H    0.000000  -0.000020   0.000018   0.000053   0.014521   0.560785
    19  H    0.000000   0.000000  -0.000000   0.000015   0.000132  -0.003386
    20  H    0.000000   0.000000  -0.000000   0.000000   0.000009  -0.003877
    21  H   -0.000000   0.000000  -0.000000   0.000000  -0.000000  -0.000088
    22  H    0.000000  -0.000000   0.000000  -0.000000  -0.000000   0.000177
    23  H   -0.000000  -0.000000   0.000000  -0.000000  -0.000000   0.000000
    24  H   -0.000000  -0.000000   0.000000  -0.000000  -0.000000   0.000000
    25  H    0.000000   0.000000  -0.000000   0.000000   0.000000  -0.000000
    26  H    0.000000  -0.000000  -0.000000   0.000000   0.000000  -0.000000
    27  H    0.000000   0.000000   0.000000   0.000000   0.000000   0.000000
              19         20         21         22         23         24
     1  C   -0.000000   0.000000  -0.000000  -0.000000  -0.000000   0.000000
     2  N   -0.000068  -0.000000   0.000000  -0.000000   0.000000   0.000000
     3  C    0.001198  -0.000018  -0.000000   0.000001   0.000000   0.000000
     4  N    0.017424   0.000274  -0.000001   0.000020  -0.000000  -0.000000
     5  N   -0.070734   0.006598  -0.000042   0.000237   0.000002   0.000000
     6  N    0.308250  -0.036641  -0.006106   0.018714  -0.000105  -0.000001
     7  N   -0.038900   0.321657  -0.012582  -0.058567   0.001512   0.000226
     8  C   -0.004485  -0.052564   0.343242   0.365060  -0.053970  -0.004650
     9  N   -0.000099   0.000684  -0.012157  -0.054987   0.341517  -0.020361
    10  C   -0.000020  -0.000557  -0.006996   0.002224  -0.048861   0.356039
    11  C   -0.000000   0.000007   0.000069   0.000181   0.001539  -0.018704
    12  N    0.000000   0.000000  -0.000003   0.000013  -0.000013  -0.003559
    13  H    0.000000   0.000000  -0.000000   0.000000  -0.000000  -0.000000
    14  H    0.000000   0.000000   0.000000  -0.000000  -0.000000  -0.000000
    15  H   -0.000000  -0.000000  -0.000000   0.000000   0.000000   0.000000
    16  H    0.000015   0.000000   0.000000  -0.000000  -0.000000  -0.000000
    17  H    0.000132   0.000009  -0.000000  -0.000000  -0.000000  -0.000000
    18  H   -0.003386  -0.003877  -0.000088   0.000177   0.000000   0.000000
    19  H    0.552128   0.007567   0.005878  -0.001899   0.000007  -0.000004
    20  H    0.007567   0.526372   0.006881  -0.010011   0.005398   0.000009
    21  H    0.005878   0.006881   0.621668  -0.063432   0.006818   0.005945
    22  H   -0.001899  -0.010011  -0.063432   0.717740  -0.007922  -0.001697
    23  H    0.000007   0.005398   0.006818  -0.007922   0.536054   0.006156
    24  H   -0.000004   0.000009   0.005945  -0.001697   0.006156   0.583666
    25  H    0.000002  -0.000006  -0.001923   0.012531  -0.006640  -0.044186
    26  H    0.000000  -0.000002  -0.000012   0.000052   0.001958   0.003135
    27  H    0.000000  -0.000000  -0.000003   0.000005   0.000032   0.002703
              25         26         27
     1  C    0.000000   0.000000   0.000000
     2  N   -0.000000  -0.000000   0.000000
     3  C    0.000000   0.000000   0.000000
     4  N    0.000000   0.000000   0.000000
     5  N    0.000000   0.000000   0.000000
     6  N    0.000021   0.000000   0.000000
     7  N   -0.000115   0.000013   0.000000
     8  C   -0.002062  -0.000117   0.000001
     9  N   -0.039219   0.005778   0.000450
    10  C    0.344673  -0.067544  -0.014996
    11  C   -0.032428   0.351884  -0.102267
    12  N   -0.000086  -0.017247   0.336849
    13  H    0.000000   0.000000   0.000000
    14  H    0.000000  -0.000000   0.000000
    15  H   -0.000000  -0.000000   0.000000
    16  H    0.000000   0.000000   0.000000
    17  H    0.000000   0.000000   0.000000
    18  H   -0.000000  -0.000000   0.000000
    19  H    0.000002   0.000000   0.000000
    20  H   -0.000006  -0.000002  -0.000000
    21  H   -0.001923  -0.000012  -0.000003
    22  H    0.012531   0.000052   0.000005
    23  H   -0.006640   0.001958   0.000032
    24  H   -0.044186   0.003135   0.002703
    25  H    0.651948   0.004925   0.004291
    26  H    0.004925   0.584712   0.008662
    27  H    0.004291   0.008662   0.544993
 Mulliken charges:
               1
     1  C   -0.317731
     2  N   -0.287964
     3  C    0.112136
     4  N   -0.218315
     5  N   -0.222577
     6  N   -0.223962
     7  N   -0.306253
     8  C   -0.043697
     9  N   -0.319577
    10  C   -0.178631
    11  C    0.036324
    12  N   -0.400101
    13  H    0.135395
    14  H    0.124983
    15  H    0.124252
    16  H    0.247400
    17  H    0.073468
    18  H    0.212077
    19  H    0.226996
    20  H    0.228219
    21  H    0.112842
    22  H    0.081559
    23  H    0.216517
    24  H    0.135282
    25  H    0.108276
    26  H    0.123803
    27  H    0.219279
 Sum of Mulliken charges =  -0.00000
 Mulliken charges with hydrogens summed into heavy atoms:
               1
     1  C    0.066898
     2  N   -0.040564
     3  C    0.185605
     4  N   -0.218315
     5  N   -0.010500
     6  N    0.003034
     7  N   -0.078034
     8  C    0.150704
     9  N   -0.103060
    10  C    0.064927
    11  C    0.160127
    12  N   -0.180822
 Electronic spatial extent (au):  <R**2>=           6051.8258
 Charge=             -0.0000 electrons
 Dipole moment (field-independent basis, Debye):
    X=             -3.9180    Y=             -0.0951    Z=              0.4445  Tot=              3.9443
 Quadrupole moment (field-independent basis, Debye-Ang):
   XX=            -74.7272   YY=            -67.6327   ZZ=            -74.6247
   XY=             -9.5307   XZ=              5.1185   YZ=              3.6926
 Traceless Quadrupole moment (field-independent basis, Debye-Ang):
   XX=             -2.3990   YY=              4.6955   ZZ=             -2.2965
   XY=             -9.5307   XZ=              5.1185   YZ=              3.6926
 Octapole moment (field-independent basis, Debye-Ang**2):
  XXX=           -395.3880  YYY=              1.2699  ZZZ=              0.6917  XYY=             -0.6669
  XXY=            -57.8245  XXZ=             13.4892  XZZ=              2.9841  YZZ=             -0.4786
  YYZ=             -0.2839  XYZ=              7.1175
 Hexadecapole moment (field-independent basis, Debye-Ang**3):
 XXXX=          -8531.0345 YYYY=           -193.1132 ZZZZ=            -98.7144 XXXY=           -296.6045
 XXXZ=             38.4184 YYYX=             20.8916 YYYZ=              6.5353 ZZZX=              5.4752
 ZZZY=              4.2825 XXYY=          -1184.8531 XXZZ=          -1331.0689 YYZZ=            -48.4509
 XXYZ=             -2.2293 YYXZ=              1.1522 ZZXY=             -5.7191
 N-N= 6.547899471132D+02 E-N=-2.666558242446D+03  KE= 5.781475042200D+02
 PrsmSu:  requested number of processors reduced to:  13 ShMem   1 Linda.
 Calling FoFJK, ICntrl=      2127 FMM=F ISym2X=0 I1Cent= 0 IOpClX= 0 NMat=1 NMatS=1 NMatT=0.
 ***** Axes restored to original set *****
 -------------------------------------------------------------------
 Center     Atomic                   Forces (Hartrees/Bohr)
 Number     Number              X              Y              Z
 -------------------------------------------------------------------
      1        6           0.002891885    0.000601330   -0.004767431
      2        7           0.013485936   -0.009436751    0.019576547
      3        6           0.007740671    0.003005554   -0.007743277
      4        7          -0.030423706   -0.005593111    0.010038011
      5        7           0.006614575    0.029370778   -0.015748841
      6        7           0.011545241    0.011420764    0.026504808
      7        7          -0.005452815   -0.020772305   -0.012625180
      8        6          -0.009818245    0.011362723   -0.003852705
      9        7           0.005372098   -0.015521071    0.002683143
     10        6          -0.016337122    0.011333962   -0.013077071
     11        6           0.050821183    0.002605045   -0.002241952
     12        7          -0.042883872    0.000431157   -0.004153046
     13        1           0.003998909    0.000853663   -0.002390757
     14        1          -0.004320990   -0.000461441   -0.001640348
     15        1          -0.002828872    0.001788389   -0.000711182
     16        1          -0.002236944    0.002871642   -0.006011227
     17        1           0.004887048   -0.001042816    0.002910344
     18        1           0.004460489   -0.014421590   -0.003811020
     19        1          -0.002452598   -0.001322148   -0.019350944
     20        1          -0.003234556   -0.000304686    0.011196536
     21        1          -0.001243751   -0.000164815   -0.000950680
     22        1           0.003742264   -0.002057473    0.010239450
     23        1           0.002497994    0.000520495   -0.000175102
     24        1          -0.004089729   -0.001199370    0.003380664
     25        1           0.006540322   -0.000926111    0.005430383
     26        1           0.002375918   -0.002050735    0.003606420
     27        1          -0.001651333   -0.000891079    0.003684458
 -------------------------------------------------------------------
 Cartesian Forces:  Max     0.050821183 RMS     0.011822791

 GradGradGradGradGradGradGradGradGradGradGradGradGradGradGradGradGradGrad
 Berny optimization.
 FormGI is forming the generalized inverse of G from B-inverse, IUseBI=4.
 Internal  Forces:  Max     0.043325451 RMS     0.007184742
 Search for a local minimum.
 Step number   1 out of a maximum of  125
 All quantities printed in internal units (Hartrees-Bohrs-Radians)
 Mixed Optimization -- RFO/linear search
 Second derivative matrix not updated -- first step.
 ITU=  0
     Eigenvalues ---    0.00571   0.00609   0.00745   0.00818   0.00872
     Eigenvalues ---    0.01094   0.01128   0.01166   0.01521   0.01960
     Eigenvalues ---    0.02099   0.02450   0.02541   0.02968   0.03028
     Eigenvalues ---    0.03058   0.03430   0.03618   0.05263   0.05566
     Eigenvalues ---    0.06543   0.06741   0.07352   0.07556   0.09405
     Eigenvalues ---    0.09599   0.10601   0.11088   0.12346   0.12903
     Eigenvalues ---    0.13022   0.14828   0.15972   0.15999   0.16000
     Eigenvalues ---    0.16000   0.16000   0.16000   0.16000   0.21982
     Eigenvalues ---    0.22000   0.22000   0.22008   0.22021   0.22415
     Eigenvalues ---    0.23204   0.23487   0.23652   0.25000   0.30881
     Eigenvalues ---    0.33054   0.33818   0.34018   0.34064   0.34099
     Eigenvalues ---    0.34168   0.34186   0.34225   0.34323   0.35554
     Eigenvalues ---    0.36217   0.36718   0.38008   0.39229   0.43189
     Eigenvalues ---    0.43388   0.43956   0.44127   0.44559   0.44859
     Eigenvalues ---    0.45265   0.51122   0.55089   0.66216   0.67479
 RFO step:  Lambda=-3.04886664D-02 EMin= 5.71201644D-03
 Linear search not attempted -- first point.
 Iteration  1 RMS(Cart)=  0.22643698 RMS(Int)=  0.01427574
 Iteration  2 RMS(Cart)=  0.03911806 RMS(Int)=  0.00300377
 Iteration  3 RMS(Cart)=  0.00086026 RMS(Int)=  0.00298932
 Iteration  4 RMS(Cart)=  0.00000968 RMS(Int)=  0.00298932
 Iteration  5 RMS(Cart)=  0.00000012 RMS(Int)=  0.00298932
 Variable       Old X    -DE/DX   Delta X   Delta X   Delta X     New X
                                 (Linear)    (Quad)   (Total)
    R1        2.72614  -0.00013   0.00000  -0.00032  -0.00032   2.72582
    R2        2.07221  -0.00365   0.00000  -0.00985  -0.00985   2.06237
    R3        2.06789   0.00312   0.00000   0.00836   0.00836   2.07625
    R4        2.06952   0.00276   0.00000   0.00742   0.00742   2.07693
    R5        2.58750  -0.00179   0.00000  -0.00331  -0.00331   2.58419
    R6        1.91669  -0.00688   0.00000  -0.01424  -0.01424   1.90245
    R7        2.45470  -0.02360   0.00000  -0.03347  -0.03347   2.42124
    R8        2.08958  -0.00526   0.00000  -0.01458  -0.01458   2.07500
    R9        2.55053   0.01351   0.00000   0.02324   0.02324   2.57377
   R10        2.67437  -0.00397   0.00000  -0.00858  -0.00858   2.66579
   R11        1.93003   0.00034   0.00000   0.00072   0.00072   1.93076
   R12        2.74353  -0.01390   0.00000  -0.03386  -0.03386   2.70967
   R13        1.93894  -0.00216   0.00000  -0.00466  -0.00466   1.93428
   R14        2.77044  -0.00457   0.00000  -0.01164  -0.01164   2.75880
   R15        1.92491  -0.00027   0.00000  -0.00056  -0.00056   1.92436
   R16        2.76273  -0.00048   0.00000  -0.00120  -0.00120   2.76153
   R17        2.07163  -0.00037   0.00000  -0.00099  -0.00099   2.07064
   R18        2.07301   0.00790   0.00000   0.02130   0.02130   2.09431
   R19        2.78084  -0.00520   0.00000  -0.01348  -0.01348   2.76736
   R20        1.92140  -0.00033   0.00000  -0.00068  -0.00068   1.92072
   R21        2.86241   0.00221   0.00000   0.00653   0.00653   2.86894
   R22        2.07018  -0.00003   0.00000  -0.00009  -0.00009   2.07009
   R23        2.07047   0.00588   0.00000   0.01579   0.01579   2.08627
   R24        2.46336  -0.04333   0.00000  -0.06255  -0.06255   2.40081
   R25        2.07638  -0.00466   0.00000  -0.01264  -0.01264   2.06374
   R26        1.93208   0.00214   0.00000   0.00456   0.00456   1.93663
    A1        1.92565  -0.00580   0.00000  -0.03256  -0.03241   1.89324
    A2        1.93347   0.00524   0.00000   0.02915   0.02908   1.96254
    A3        1.94983   0.00267   0.00000   0.01450   0.01434   1.96417
    A4        1.87700   0.00005   0.00000  -0.00069  -0.00046   1.87654
    A5        1.87634   0.00079   0.00000   0.00104   0.00110   1.87744
    A6        1.89915  -0.00315   0.00000  -0.01268  -0.01301   1.88614
    A7        2.20201  -0.00989   0.00000  -0.03947  -0.03947   2.16255
    A8        2.04974   0.00624   0.00000   0.02652   0.02652   2.07626
    A9        2.02885   0.00363   0.00000   0.01282   0.01283   2.04168
   A10        2.17547  -0.01007   0.00000  -0.04014  -0.04023   2.13524
   A11        1.96309   0.00754   0.00000   0.03333   0.03325   1.99634
   A12        2.14449   0.00255   0.00000   0.00717   0.00709   2.15158
   A13        2.01263   0.01421   0.00000   0.05067   0.05067   2.06330
   A14        1.98868  -0.00683   0.00000  -0.05026  -0.05985   1.92883
   A15        2.08541   0.00432   0.00000  -0.01990  -0.03376   2.05166
   A16        2.04419  -0.00630   0.00000  -0.07413  -0.08422   1.95997
   A17        1.93520  -0.01889   0.00000  -0.09982  -0.10713   1.82807
   A18        1.93297   0.00488   0.00000  -0.03571  -0.05042   1.88255
   A19        1.96218  -0.00502   0.00000  -0.09607  -0.10674   1.85543
   A20        1.91171  -0.00577   0.00000  -0.03326  -0.03419   1.87752
   A21        1.89270  -0.00776   0.00000  -0.08486  -0.08561   1.80709
   A22        1.87268   0.00534   0.00000   0.01087   0.00790   1.88058
   A23        1.89649   0.00057   0.00000   0.00617   0.00542   1.90191
   A24        1.91552  -0.00243   0.00000  -0.02931  -0.02948   1.88604
   A25        1.92687   0.00088   0.00000   0.01820   0.01725   1.94412
   A26        1.90738  -0.00186   0.00000  -0.02168  -0.02175   1.88563
   A27        1.91658   0.00480   0.00000   0.04686   0.04631   1.96288
   A28        1.90093  -0.00197   0.00000  -0.02054  -0.02018   1.88075
   A29        1.92405   0.00843   0.00000   0.03109   0.03115   1.95520
   A30        1.89490  -0.00121   0.00000  -0.00074  -0.00052   1.89439
   A31        1.90950  -0.00431   0.00000  -0.02373  -0.02376   1.88574
   A32        1.92625   0.00341   0.00000   0.01870   0.01833   1.94459
   A33        1.93726  -0.00645   0.00000  -0.04735  -0.04721   1.89005
   A34        1.93994   0.00345   0.00000   0.03089   0.03045   1.97040
   A35        1.87434   0.00281   0.00000   0.01557   0.01577   1.89012
   A36        1.88134  -0.00137   0.00000   0.00616   0.00544   1.88678
   A37        1.90262  -0.00179   0.00000  -0.02343  -0.02327   1.87935
   A38        2.14740   0.01313   0.00000   0.05245   0.05244   2.19984
   A39        2.07264  -0.00754   0.00000  -0.03129  -0.03130   2.04134
   A40        2.06313  -0.00560   0.00000  -0.02111  -0.02112   2.04201
   A41        1.94522  -0.00671   0.00000  -0.03522  -0.03522   1.91000
    D1       -3.10714   0.00026   0.00000   0.00160   0.00153  -3.10561
    D2       -0.04594   0.00015   0.00000   0.00059   0.00051  -0.04543
    D3        1.09953   0.00059   0.00000   0.00479   0.00501   1.10454
    D4       -2.12246   0.00048   0.00000   0.00378   0.00399  -2.11847
    D5       -1.02094  -0.00088   0.00000  -0.00939  -0.00954  -1.03047
    D6        2.04026  -0.00099   0.00000  -0.01040  -0.01056   2.02971
    D7        3.11027   0.00104   0.00000   0.01930   0.01935   3.12963
    D8       -0.01448  -0.00026   0.00000  -0.00461  -0.00464  -0.01912
    D9        0.04823   0.00103   0.00000   0.01971   0.01974   0.06796
   D10       -3.07653  -0.00026   0.00000  -0.00421  -0.00426  -3.08079
   D11       -3.03505  -0.00252   0.00000  -0.04277  -0.04269  -3.07775
   D12        0.08802  -0.00107   0.00000  -0.01630  -0.01637   0.07164
   D13       -3.00708   0.01091   0.00000   0.18141   0.18003  -2.82705
   D14       -0.46762  -0.00581   0.00000  -0.07963  -0.07824  -0.54586
   D15        3.00325  -0.01025   0.00000  -0.12393  -0.11681   2.88643
   D16        0.81235   0.00661   0.00000   0.10102   0.10281   0.91516
   D17        0.44877   0.00217   0.00000   0.11102   0.10922   0.55799
   D18       -1.74213   0.01903   0.00000   0.33596   0.32885  -1.41328
   D19        3.00518   0.00622   0.00000   0.09623   0.09210   3.09727
   D20        0.96664   0.00741   0.00000   0.14964   0.14267   1.10931
   D21       -1.10358  -0.00555   0.00000  -0.09886  -0.09189  -1.19547
   D22        3.14106  -0.00436   0.00000  -0.04545  -0.04131   3.09975
   D23       -3.13847   0.00172   0.00000   0.03042   0.03055  -3.10792
   D24        1.05994   0.00508   0.00000   0.07037   0.07043   1.13037
   D25       -1.03564   0.00852   0.00000   0.10305   0.10333  -0.93231
   D26       -1.08735  -0.00759   0.00000  -0.08217  -0.08236  -1.16971
   D27        3.11106  -0.00423   0.00000  -0.04222  -0.04247   3.06859
   D28        1.01548  -0.00079   0.00000  -0.00955  -0.00958   1.00590
   D29       -3.12816   0.00214   0.00000   0.02617   0.02649  -3.10167
   D30        1.06357   0.00311   0.00000   0.03701   0.03723   1.10080
   D31       -1.03830  -0.00156   0.00000  -0.01845  -0.01822  -1.05652
   D32       -3.12976  -0.00059   0.00000  -0.00760  -0.00748  -3.13724
   D33        1.04585  -0.00221   0.00000  -0.02848  -0.02887   1.01697
   D34       -1.04561  -0.00124   0.00000  -0.01763  -0.01813  -1.06375
   D35        3.13469  -0.00077   0.00000  -0.01160  -0.01185   3.12284
   D36        1.05869  -0.00236   0.00000  -0.01291  -0.01279   1.04590
   D37       -1.06203   0.00199   0.00000   0.02832   0.02871  -1.03331
   D38       -1.06588   0.00022   0.00000  -0.00823  -0.00866  -1.07455
   D39        3.14130  -0.00138   0.00000  -0.00954  -0.00960   3.13170
   D40        1.02058   0.00297   0.00000   0.03168   0.03190   1.05248
   D41        3.12483   0.00306   0.00000   0.02597   0.02600  -3.13236
   D42       -0.01081   0.00271   0.00000   0.01794   0.01798   0.00718
   D43       -1.04446  -0.00104   0.00000  -0.01101  -0.01099  -1.05546
   D44        2.10309  -0.00138   0.00000  -0.01905  -0.01902   2.08407
   D45        1.00325  -0.00238   0.00000  -0.02711  -0.02718   0.97607
   D46       -2.13238  -0.00272   0.00000  -0.03514  -0.03520  -2.16758
   D47        0.01620  -0.00077   0.00000  -0.01396  -0.01398   0.00221
   D48       -3.13133  -0.00043   0.00000  -0.00601  -0.00599  -3.13732
         Item               Value     Threshold  Converged?
 Maximum Force            0.043325     0.000450     NO 
 RMS     Force            0.007185     0.000300     NO 
 Maximum Displacement     0.705737     0.001800     NO 
 RMS     Displacement     0.249767     0.001200     NO 
 Predicted change in Energy=-1.957525D-02
 GradGradGradGradGradGradGradGradGradGradGradGradGradGradGradGradGradGrad

                          Input orientation:                          
 ---------------------------------------------------------------------
 Center     Atomic      Atomic             Coordinates (Angstroms)
 Number     Number       Type             X           Y           Z
 ---------------------------------------------------------------------
      1          6           0        1.259744   -0.273687   -0.150685
      2          7           0        2.681043   -0.031522   -0.106967
      3          6           0        3.383673    0.570092   -1.114145
      4          7           0        4.644990    0.782100   -1.038199
      5          7           0        5.247379    1.455290   -2.057482
      6          7           0        6.642534    1.248415   -2.030148
      7          7           0        7.103043    1.696863   -3.311896
      8          6           0        8.556987    1.566236   -3.328338
      9          7           0        9.063840    2.059245   -4.607227
     10          6           0       10.516416    1.909135   -4.716925
     11          6           0       11.024686    2.401097   -6.060239
     12          7           0       12.233374    2.390965   -6.451420
     13          1           0        0.957487   -0.730093    0.793452
     14          1           0        0.976411   -0.963806   -0.957289
     15          1           0        0.678429    0.650966   -0.273296
     16          1           0        3.187446   -0.252002    0.734730
     17          1           0        2.777914    0.845823   -1.987486
     18          1           0        4.856917    1.341646   -2.994777
     19          1           0        6.809747    0.238991   -2.001694
     20          1           0        6.880630    2.690603   -3.310809
     21          1           0        8.803258    0.501156   -3.253606
     22          1           0        9.018921    2.081550   -2.462711
     23          1           0        8.842959    3.048481   -4.682714
     24          1           0       10.759941    0.844993   -4.625853
     25          1           0       11.064928    2.447606   -3.924454
     26          1           0       10.282016    2.798828   -6.755147
     27          1           0       12.826396    1.993379   -5.716226
 ---------------------------------------------------------------------
                    Distance matrix (angstroms):
                    1          2          3          4          5
     1  C    0.000000
     2  N    1.442444   0.000000
     3  C    2.480179   1.367493   0.000000
     4  N    3.655441   2.320832   1.281263   0.000000
     5  N    4.746205   3.549818   2.268669   1.361983   0.000000
     6  N    5.901152   4.585879   3.452443   2.278508   1.410675
     7  N    6.929679   5.728261   4.464687   3.471097   2.252865
     8  C    8.168999   6.888889   5.714729   4.600362   3.546955
     9  N    9.284785   8.084785   6.832532   5.821967   4.629398
    10  C   10.549939   9.295748   8.102412   7.019749   5.919574
    11  C   11.723113  10.534490   9.284476   8.279044   7.091818
    12  N   12.931364  11.720391  10.493774   9.459122   8.305799
    13  H    1.091357   2.066252   3.348998   4.386268   5.595257
    14  H    1.098704   2.120842   2.858733   4.063644   5.030270
    15  H    1.099065   2.122244   2.834064   4.041767   4.970469
    16  H    2.121430   1.006732   2.032900   2.517355   3.867121
    17  H    2.632865   2.077371   1.098042   2.095513   2.544525
    18  H    4.861872   3.867747   2.510482   2.046021   1.021713
    19  H    5.872955   4.550755   3.554624   2.430940   1.980780
    20  H    7.097024   5.942315   4.642263   3.715539   2.400903
    21  H    8.193479   6.904101   5.827001   4.719974   3.871093
    22  H    8.431929   7.084018   5.988251   4.780071   3.844599
    23  H    9.438285   8.270012   6.977170   6.003492   4.728456
    24  H   10.560886   9.298237   8.174166   7.089983   6.112064
    25  H   10.853036   9.539854   8.391935   7.233256   6.189842
    26  H   11.595717  10.487325   9.185603   8.278089   7.015748
    27  H   13.034656  11.768272  10.600468   9.501924   8.433116
                    6          7          8          9         10
     6  N    0.000000
     7  N    1.433894   0.000000
     8  C    2.334831   1.459893   0.000000
     9  N    3.627878   2.377799   1.461340   0.000000
    10  C    4.760491   3.697334   2.425925   1.464426   0.000000
    11  C    6.064121   4.840312   3.774893   2.464351   1.518176
    12  N    7.218764   6.054642   4.893837   3.681988   2.487686
    13  H    6.648832   7.778936   8.945092  10.132161  11.344730
    14  H    6.176561   7.082298   8.335953   9.373760  10.648960
    15  H    6.246121   7.183499   8.499570   9.543654  10.868064
    16  H    4.672626   5.958620   6.974703   8.271056   9.386418
    17  H    3.885768   4.602724   5.976166   6.917246   8.274351
    18  H    2.031657   2.296046   3.721858   4.562143   5.942875
    19  H    1.023575   1.981928   2.564061   3.896544   4.888890
    20  H    1.943370   1.018326   2.018584   2.616432   3.975776
    21  H    2.593062   2.079385   1.095733   2.080344   2.656806
    22  H    2.555081   2.130654   1.108260   2.145102   2.711770
    23  H    3.888214   2.594864   2.028094   1.016403   2.024781
    24  H    4.884002   3.978074   2.656453   2.086028   1.095443
    25  H    4.958227   4.078649   2.724323   2.149734   1.104005
    26  H    6.162404   4.814164   4.029644   2.577693   2.236258
    27  H    7.237561   6.214942   4.910429   3.923143   2.518275
                   11         12         13         14         15
    11  C    0.000000
    12  N    1.270454   0.000000
    13  H   12.574813  13.761352   0.000000
    14  H   11.761399  12.967620   1.766372   0.000000
    15  H   11.983184  13.217926   1.767243   1.778800   0.000000
    16  H   10.706674  11.851365   2.281389   2.873720   2.850726
    17  H    9.328207  10.569763   3.678461   2.753448   2.717398
    18  H    6.968563   8.213500   5.817932   4.952251   5.034209
    19  H    6.237964   7.338036   6.557508   6.046926   6.383585
    20  H    4.981604   6.213300   7.976825   7.331682   7.200966
    21  H    4.052370   5.055995   8.913516   8.287262   8.655492
    22  H    4.131273   5.132080   9.137541   8.730547   8.740934
    23  H    2.660191   3.880150  10.317300   9.584352   9.583872
    24  H    2.132841   2.809578  11.310962  10.604130  10.982681
    25  H    2.136670   2.784606  11.598136  11.055314  11.155189
    26  H    1.092083   2.016532  12.505258  11.591672  11.783743
    27  H    1.879026   1.024822  13.808121  13.107806  13.379114
                   16         17         18         19         20
    16  H    0.000000
    17  H    2.963679   0.000000
    18  H    4.385894   2.362779   0.000000
    19  H    4.566197   4.077269   2.452673   0.000000
    20  H    6.218112   4.688995   2.452545   2.780145   0.000000
    21  H    6.929027   6.166573   4.043145   2.368565   2.914352
    22  H    7.048063   6.379892   4.260614   2.913418   2.379602
    23  H    8.498630   6.992905   4.653058   4.383497   2.420937
    24  H    9.342480   8.406767   6.144328   4.780949   4.492735
    25  H    9.542044   8.659801   6.373920   5.165418   4.236031
    26  H   10.758195   9.102548   6.759843   6.419091   4.841963
    27  H   11.813803  10.779257   8.446517   7.285306   6.451689
                   21         22         23         24         25
    21  H    0.000000
    22  H    1.780357   0.000000
    23  H    2.921094   2.427824   0.000000
    24  H    2.414517   3.039639   2.921201   0.000000
    25  H    3.058407   2.541030   2.423459   1.775766   0.000000
    26  H    4.441488   4.531546   2.535388   2.929126   2.957893
    27  H    4.947410   5.008992   4.248431   2.603448   2.553339
                   26         27
    26  H    0.000000
    27  H    2.863909   0.000000
 Stoichiometry    C5H15N7
 Framework group  C1[X(C5H15N7)]
 Deg. of freedom    75
 Full point group                 C1      NOp   1
 Largest Abelian subgroup         C1      NOp   1
 Largest concise Abelian subgroup C1      NOp   1
                         Standard orientation:                         
 ---------------------------------------------------------------------
 Center     Atomic      Atomic             Coordinates (Angstroms)
 Number     Number       Type             X           Y           Z
 ---------------------------------------------------------------------
      1          6           0       -6.358665    0.395864   -0.420662
      2          7           0       -5.137423   -0.333958   -0.182810
      3          6           0       -3.917706    0.257823   -0.003580
      4          7           0       -2.853198   -0.419701    0.218721
      5          7           0       -1.696907    0.258363    0.460004
      6          7           0       -0.581416   -0.585205    0.275403
      7          7           0        0.541615    0.303961    0.210326
      8          6           0        1.744112   -0.513523    0.079910
      9          7           0        2.913758    0.362218    0.057123
     10          6           0        4.157996   -0.387970   -0.126274
     11          6           0        5.361008    0.536870   -0.174156
     12          7           0        6.570635    0.182269   -0.332624
     13          1           0       -7.180698   -0.318667   -0.489714
     14          1           0       -6.332534    0.961899   -1.361976
     15          1           0       -6.595691    1.096735    0.392075
     16          1           0       -5.180498   -1.333777   -0.073197
     17          1           0       -3.930836    1.353552   -0.073595
     18          1           0       -1.576886    1.165023    0.004528
     19          1           0       -0.662186   -1.014457   -0.650300
     20          1           0        0.557963    0.735251    1.132666
     21          1           0        1.695061   -1.039193   -0.880245
     22          1           0        1.802467   -1.277286    0.880848
     23          1           0        2.968966    0.850926    0.946612
     24          1           0        4.098617   -0.924586   -1.079433
     25          1           0        4.330584   -1.134481    0.668560
     26          1           0        5.168202    1.606134   -0.063942
     27          1           0        6.617546   -0.837092   -0.427298
 ---------------------------------------------------------------------
 Rotational constants (GHZ):           8.3555533           0.1781551           0.1766596
 Standard basis: 6-31G(2df,p) (6D, 7F)
 There are   447 symmetry adapted cartesian basis functions of A   symmetry.
 There are   411 symmetry adapted basis functions of A   symmetry.
   411 basis functions,   633 primitive gaussians,   447 cartesian basis functions
    47 alpha electrons       47 beta electrons
       nuclear repulsion energy       660.5145284098 Hartrees.
 NAtoms=   27 NActive=   27 NUniq=   27 SFac= 1.00D+00 NAtFMM=   60 NAOKFM=F Big=F
 Integral buffers will be    131072 words long.
 Raffenetti 2 integral format.
 Two-electron integral symmetry is turned on.
 One-electron integrals computed using PRISM.
 PrsmSu:  requested number of processors reduced to:  13 ShMem   1 Linda.
 NBasis=   411 RedAO= T EigKep=  1.89D-04  NBF=   411
 NBsUse=   411 1.00D-06 EigRej= -1.00D+00 NBFU=   411
 Initial guess from the checkpoint file:  "CNCdNNNNCNCCdN.chk"
 B after Tr=     0.000000   -0.000000   -0.000000
         Rot=    0.999240   -0.038971    0.000030    0.000313 Ang=  -4.47 deg.
 ExpMin= 1.61D-01 ExpMax= 4.17D+03 ExpMxC= 6.27D+02 IAcc=2 IRadAn=         4 AccDes= 0.00D+00
 Harris functional with IExCor=  402 and IRadAn=       4 diagonalized for initial guess.
 HarFok:  IExCor=  402 AccDes= 0.00D+00 IRadAn=         4 IDoV= 1 UseB2=F ITyADJ=14
 ICtDFT=  3500011 ScaDFX=  1.000000  1.000000  1.000000  1.000000
 FoFCou: FMM=F IPFlag=           0 FMFlag=      100000 FMFlg1=           0
         NFxFlg=           0 DoJE=T BraDBF=F KetDBF=T FulRan=T
         wScrn=  0.000000 ICntrl=       500 IOpCl=  0 I1Cent=   200000004 NGrid=           0
         NMat0=    1 NMatS0=      1 NMatT0=    0 NMatD0=    1 NMtDS0=    0 NMtDT0=    0
 Petite list used in FoFCou.
 Requested convergence on RMS density matrix=1.00D-08 within 128 cycles.
 Requested convergence on MAX density matrix=1.00D-06.
 Requested convergence on             energy=1.00D-06.
 No special actions if energy rises.
 Integral accuracy reduced to 1.0D-05 until final iterations.
 Initial convergence to 1.0D-05 achieved.  Increase integral accuracy.
 SCF Done:  E(RB3LYP) =  -582.690844021     A.U. after   12 cycles
            NFock= 12  Conv=0.63D-08     -V/T= 2.0073
 PrsmSu:  requested number of processors reduced to:  13 ShMem   1 Linda.
 Calling FoFJK, ICntrl=      2127 FMM=F ISym2X=0 I1Cent= 0 IOpClX= 0 NMat=1 NMatS=1 NMatT=0.
 ***** Axes restored to original set *****
 -------------------------------------------------------------------
 Center     Atomic                   Forces (Hartrees/Bohr)
 Number     Number              X              Y              Z
 -------------------------------------------------------------------
      1        6           0.000594342    0.000668344   -0.000650617
      2        7           0.000298067   -0.001690295    0.003488547
      3        6           0.004955939    0.000826547   -0.003720517
      4        7          -0.009933935   -0.007688063    0.007800275
      5        7          -0.008508243    0.024361226   -0.000661748
      6        7           0.006426497   -0.003904600    0.015638600
      7        7           0.004113811   -0.001112812   -0.011157402
      8        6           0.000765587    0.006324989   -0.006125680
      9        7           0.003377989   -0.003005027    0.002670218
     10        6          -0.006899669    0.004172123   -0.003888714
     11        6           0.005640353   -0.000390055   -0.000966227
     12        7          -0.003573229    0.000075414    0.001532865
     13        1          -0.000545687   -0.000189316    0.000082505
     14        1          -0.000065537    0.000054315   -0.000196743
     15        1          -0.000247102    0.000014433   -0.000109123
     16        1           0.000238396    0.000862310   -0.001307925
     17        1          -0.000056268   -0.000070702    0.001055672
     18        1           0.000305415   -0.011942501   -0.003574082
     19        1           0.000262309   -0.004565204   -0.005911680
     20        1           0.000439169    0.002874581    0.001064572
     21        1           0.000620892   -0.001228065    0.000182391
     22        1           0.000296271   -0.001741430    0.001523894
     23        1          -0.000842756    0.000765864   -0.000478810
     24        1           0.000596532   -0.001085353    0.001436035
     25        1           0.002238195   -0.001746208    0.001627651
     26        1          -0.003532107   -0.000357638    0.000553112
     27        1           0.003034768   -0.000282875    0.000092931
 -------------------------------------------------------------------
 Cartesian Forces:  Max     0.024361226 RMS     0.004828414

 GradGradGradGradGradGradGradGradGradGradGradGradGradGradGradGradGradGrad
 Berny optimization.
 Using GEDIIS/GDIIS optimizer.
 FormGI is forming the generalized inverse of G from B-inverse, IUseBI=4.
 Internal  Forces:  Max     0.013702837 RMS     0.002822467
 Search for a local minimum.
 Step number   2 out of a maximum of  125
 All quantities printed in internal units (Hartrees-Bohrs-Radians)
 Mixed Optimization -- RFO/linear search
 Update second derivatives using D2CorX and points    1    2
 DE= -1.97D-02 DEPred=-1.96D-02 R= 1.00D+00
 TightC=F SS=  1.41D+00  RLast= 5.83D-01 DXNew= 5.0454D-01 1.7489D+00
 Trust test= 1.00D+00 RLast= 5.83D-01 DXMaxT set to 5.05D-01
 ITU=  1  0
 Use linear search instead of GDIIS.
     Eigenvalues ---    0.00571   0.00610   0.00745   0.00818   0.00872
     Eigenvalues ---    0.01085   0.01128   0.01171   0.01518   0.01969
     Eigenvalues ---    0.02099   0.02450   0.02967   0.02973   0.03035
     Eigenvalues ---    0.03241   0.04238   0.05040   0.05171   0.05493
     Eigenvalues ---    0.06506   0.06786   0.07161   0.07663   0.09492
     Eigenvalues ---    0.09800   0.10709   0.10835   0.11023   0.12973
     Eigenvalues ---    0.13151   0.13700   0.15867   0.15973   0.16000
     Eigenvalues ---    0.16000   0.16000   0.16000   0.16486   0.21382
     Eigenvalues ---    0.21949   0.21997   0.22006   0.22097   0.22949
     Eigenvalues ---    0.23465   0.23716   0.24237   0.25290   0.30895
[...]
 1394,0.00003266,-0.00000369,0.00001139,-0.00001814,-0.00002628,0.00007
 463,0.00000451,-0.00000186,0.00004710,-0.00002732,0.00001723,0.0000037
 6,-0.00001515,-0.00041232,0.00160188,0.00110342,-0.00004767,-0.0013396
 5,0.00246909,-0.07451430,0.11713042,0.00004280,0.00001412,0.00004194,-
 0.00012960,0.00010303,0.00015950,0.00015027,-0.00014391,0.00020973,-0.
 00055915,-0.00093347,-0.00015204,-0.00284633,0.00314128,0.00476216,0.0
 0315144,0.01909639,-0.03761275,-0.10702972,0.11796002,-0.21086084,-0.0
 1111083,0.00556373,-0.00648647,0.00319149,0.00119105,0.00006959,-0.000
 21225,0.00016400,0.00056104,0.00023598,-0.00030339,0.00008884,-0.00005
 093,0.00029846,0.00008302,-0.00001194,0.00000582,0.00000747,0.00000393
 ,0.00000021,-0.00000534,-0.00000898,0.00001200,-0.00000140,-0.00001326
 ,0.00001516,-0.00000772,0.00004344,0.00001437,0.00000227,0.00134858,-0
 .00062601,-0.00162721,-0.00041725,-0.00075893,-0.00017468,0.11601901,-
 0.14434226,0.25141365,0.00014361,-0.00010116,-0.00001380,-0.00031084,-
 0.00001061,0.00038395,0.00028995,-0.00004473,-0.00018661,-0.00045793,0
 .00026733,-0.00012925,-0.00063549,0.00008456,0.00056242,-0.00436386,-0
 .00036685,-0.00141143,-0.02188692,-0.00480434,0.02238268,-0.14658342,0
 .03336218,0.10860242,-0.00384391,0.00666922,0.00483236,0.00103125,-0.0
 0091581,-0.00063805,0.00044624,-0.00003896,-0.00040718,-0.00012851,-0.
 00001668,0.00011936,-0.00001805,0.00001413,0.00002406,-0.00000243,0.00
 000533,-0.00001086,-0.00001599,0.00006458,0.00000630,-0.00000366,0.000
 03694,-0.00002261,-0.00001564,-0.00002179,-0.00000602,-0.00023434,0.00
 018937,0.00003302,-0.00118330,0.00000604,0.00052056,-0.00021319,0.0012
 8159,-0.00043542,0.16764622,0.00004835,-0.00005979,-0.00001004,-0.0001
 2644,0.00000890,0.00014435,0.00012254,-0.00003367,-0.00004376,-0.00033
 022,0.00030921,0.00016480,-0.00029891,0.00020539,0.00015826,-0.0039795
 6,0.00010585,0.00039920,-0.01160009,0.00006094,0.01214367,0.03205016,-
 0.05627612,-0.03533571,0.02677398,-0.01950792,-0.02670372,0.00304515,0
 .00125119,-0.00085376,-0.00007545,0.00006917,0.00022423,0.00007814,0.0
 0012609,0.00000807,-0.00000674,0.00000997,0.00000854,-0.00000115,0.000
 00263,-0.00000285,-0.00000644,0.00003103,0.00000660,-0.00000303,0.0000
 0026,-0.00000941,-0.00002069,-0.00001298,-0.00000748,-0.00020225,0.000
 22542,0.00001537,-0.00078612,0.00000550,0.00007851,0.00016806,0.000295
 98,-0.00032162,-0.03482813,0.07635408,-0.00009322,0.00005878,0.0000201
 9,0.00015686,0.00002143,-0.00022265,-0.00016213,0.00001970,0.00024229,
 -0.00000403,0.00002266,0.00021183,-0.00013499,0.00025794,0.00033310,-0
 .00074620,-0.00005952,0.00053121,-0.00583947,0.00195248,0.00852747,0.1
 1648369,-0.03716478,-0.18964507,0.00169895,-0.00270315,0.00172281,0.00
 062629,0.00054857,0.00033021,-0.00052145,-0.00023326,0.00032323,0.0001
 4333,0.00010829,-0.00008901,0.00000795,-0.00000491,-0.00001440,0.00000
 299,-0.00000421,0.00000708,0.00000882,-0.00003858,-0.00000422,-0.00000
 965,-0.00001843,0.00001506,0.00002040,0.00000337,0.00000902,0.00008988
 ,-0.00011018,-0.00007102,0.00006469,-0.00037135,0.00056903,0.00049074,
 0.00035376,-0.00048623,-0.12832396,0.04300485,0.19582330,-0.00004123,0
 .00003341,0.00001655,0.00005867,0.00001273,-0.00007929,-0.00010656,0.0
 0002049,0.00013672,-0.00005802,-0.00007227,0.00018032,-0.00058250,0.00
 052416,0.00064880,0.00353832,0.00151694,-0.00170335,-0.01889283,0.0076
 6980,-0.03245235,-0.07228654,0.02675532,-0.05438038,0.00155326,0.00341
 912,-0.00368936,0.00107964,-0.00006884,0.00125763,0.00021923,-0.000024
 18,0.00003041,-0.00006935,0.00015674,0.00003009,0.00000127,-0.00000202
 ,-0.00000473,0.00000464,-0.00000226,0.00000293,0.00000257,-0.00001778,
 -0.00000422,-0.00001098,0.00000026,0.00000843,0.00002735,-0.00000704,0
 .00001333,0.00034508,-0.00012983,-0.00010731,0.00038067,0.00000180,0.0
 0001671,-0.00582406,-0.00244657,-0.00142596,0.00802757,-0.00708672,0.0
 1757450,0.08203788,0.00004044,-0.00005348,-0.00001741,-0.00009262,0.00
 000652,0.00009725,0.00013124,-0.00003876,-0.00008699,-0.00017659,0.000
 12784,0.00008670,0.00030939,0.00024856,0.00005186,0.00071201,-0.000323
 92,-0.00099415,-0.00744111,0.00620937,-0.01313724,0.03209747,-0.084437
 39,0.08235685,0.00971412,-0.03266938,0.02695907,0.00558961,0.00322602,
 0.00207033,-0.00042553,-0.00009455,-0.00014657,0.00002449,-0.00036912,
 -0.00034773,-0.00000294,0.00000754,0.00000597,-0.00000471,0.00000209,-
 0.00000196,-0.00000219,0.00002449,0.00000835,0.00000933,-0.00000220,-0
 .00001020,-0.00003044,0.00001140,-0.00001561,-0.00003059,-0.00007541,0
 .00002297,-0.00012161,0.00011353,-0.00023155,-0.00350563,-0.00043085,0
 .00000412,-0.00208827,0.00382332,-0.00482154,-0.03116140,0.10324850,0.
 00004378,-0.00002290,-0.00000010,-0.00010716,-0.00001832,0.00014018,0.
 00007315,0.00000471,-0.00007708,-0.00014048,0.00008796,-0.00005665,-0.
 00002965,-0.00015207,0.00024903,0.00289290,0.00026094,0.00171693,-0.00
 512483,0.00338854,-0.01133674,-0.06637244,0.07715186,-0.23074342,-0.00
 035940,0.00150750,0.00804417,0.00096622,0.00001698,0.00178600,0.000227
 52,-0.00004195,0.00029462,-0.00004140,0.00013909,-0.00000676,-0.000007
 49,0.00000351,0.00000849,0.00000294,0.00000165,-0.00000258,-0.00000614
 ,0.00001829,-0.00000163,-0.00000510,0.00002358,-0.00000857,0.00000521,
 -0.00001040,0.00000821,0.00009814,-0.00004211,-0.00014310,0.00028015,0
 .00000146,0.00036471,-0.00123901,-0.00093961,0.00066323,-0.00685824,0.
 00771259,-0.01894407,0.07460260,-0.09051511,0.24757573,-0.00048629,0.0
 0025501,0.00003993,0.00095435,0.00010026,-0.00136762,-0.00085628,0.000
 07619,0.00094547,-0.00014878,-0.00007127,0.00163970,-0.00151429,0.0013
 5159,0.00005596,0.00178946,-0.00171187,-0.00134419,-0.00013026,0.00053
 418,-0.00006143,0.00002298,0.00471560,0.00410394,-0.21275246,0.0511041
 2,0.16706364,-0.02563513,0.00348625,0.02060421,0.00078068,0.00010363,0
 .00062839,-0.00027258,0.00016338,-0.00021252,0.00004313,-0.00003128,-0
 .00006641,0.00000046,-0.00001520,0.00002901,0.00006009,-0.00021012,-0.
 00001216,0.00005473,-0.00012822,0.00004883,-0.00002153,0.00008718,0.00
 001072,-0.00038227,0.00029899,-0.00034745,-0.00044514,0.00052822,0.000
 37905,-0.00005946,-0.00011729,-0.00037921,0.00171066,-0.00127818,-0.00
 098918,0.00015310,-0.00138505,0.00034778,0.23855654,-0.00031032,0.0002
 2217,0.00003406,0.00064603,-0.00001040,-0.00089796,-0.00052294,0.00010
 515,0.00050019,0.00012295,-0.00008081,0.00111612,0.00097397,0.00009800
 ,-0.00007829,-0.00093212,-0.00245729,-0.00009166,-0.00059951,0.0025567
 9,0.00068858,0.03054834,-0.01449887,-0.03025845,0.04186336,-0.07183780
 ,-0.05852721,-0.01251960,0.00375048,0.01447201,-0.00087196,0.00204766,
 0.00094155,0.00057332,-0.00046430,-0.00063426,0.00002094,-0.00003570,-
 0.00003483,0.00001433,-0.00000620,0.00001993,0.00003676,-0.00016331,-0
 .00003237,0.00001965,-0.00004512,0.00003060,0.00010690,0.00006380,0.00
 004326,0.00044654,0.00079130,-0.00028564,0.00000032,-0.00010647,0.0002
 9388,-0.00020889,-0.00021451,-0.00031177,0.00055475,-0.00721408,-0.000
 28045,0.00002131,0.00108442,0.00036610,-0.05577803,0.08795362,-0.00000
 032,-0.00002486,-0.00003062,-0.00001489,-0.00008429,-0.00009181,0.0002
 8886,-0.00003969,-0.00008140,0.00038034,0.00058557,-0.00009076,0.00158
 168,0.00101224,-0.00232417,-0.00099989,-0.00055379,0.00029045,-0.00036
 051,0.00037527,0.00042191,-0.00062429,0.00434708,-0.00437390,0.2073262
 1,-0.07951203,-0.21303463,-0.01586703,0.00220526,0.00375048,0.00104015
 ,0.00031536,0.00052758,-0.00003263,0.00011067,-0.00023761,0.00000036,0
 .00000046,-0.00000043,-0.00001499,0.00000127,0.00000169,0.00001249,-0.
 00001689,0.00000289,0.00004286,0.00002318,-0.00002152,-0.00003289,0.00
 011198,-0.00001080,-0.00062024,-0.00079370,0.00025411,0.00004586,-0.00
 002786,-0.00005224,-0.00023147,-0.00063219,-0.00061220,0.00034135,-0.0
 0155829,0.00120712,-0.00047553,0.00051597,0.00128632,-0.18961310,0.073
 94735,0.21119624,0.00008454,-0.00004204,-0.00000782,-0.00015748,-0.000
 01469,0.00022131,0.00013742,-0.00000752,-0.00016165,-0.00002898,-0.000
 04482,-0.00028319,-0.00061801,-0.00053398,0.00031559,0.00013661,0.0004
 9322,0.00010855,0.00019357,-0.00008697,-0.00058756,0.00061893,0.002726
 53,0.00122842,-0.03335660,0.00698981,0.02058935,-0.14528935,0.04826978
 ,0.10470456,-0.00110257,0.00247332,0.00257771,-0.00044310,-0.00044801,
 -0.00047122,-0.00000790,0.00000411,0.00001225,-0.00000134,0.00000226,-
 0.00000601,-0.00000886,0.00003464,0.00000215,-0.00000172,0.00002395,-0
 .00001014,-0.00000527,-0.00001117,-0.00000303,0.00000012,-0.00005902,0
 .00002857,0.00009336,-0.00003428,-0.00008713,0.00001097,0.00017077,0.0
 0010688,0.00048019,-0.00118821,-0.00059058,0.00010584,-0.00039465,-0.0
 0000470,-0.00307911,-0.00412745,-0.00162131,0.17457096,0.00001103,-0.0
 0001009,-0.00000267,-0.00002114,-0.00000413,0.00003820,0.00002001,0.00
 000603,-0.00003725,0.00005701,-0.00001692,-0.00007916,-0.00017092,-0.0
 0029304,0.00001113,-0.00016766,0.00004036,0.00017042,0.00048266,0.0006
 1524,0.00004174,-0.00193109,0.00108184,0.00234079,-0.01412879,0.005707
 04,0.01069554,0.05760603,-0.07068081,-0.05492973,0.02063575,-0.0111919
 9,-0.02656864,-0.00494499,-0.00398828,0.00433007,0.00000015,0.00000103
 ,0.00000026,-0.00000018,0.00000018,-0.00000028,-0.00000093,0.00000776,
 0.00000132,-0.00000183,0.00000126,-0.00000034,-0.00000158,-0.00000189,
 -0.00000139,0.00002705,-0.00003744,0.00001067,0.00003581,0.00000117,-0
 .00001999,0.00003998,0.00003775,-0.00005865,0.00058767,0.00032321,-0.0
 0063308,0.00006938,-0.00021871,-0.00014264,-0.00308693,-0.00154446,-0.
 00092844,-0.05176771,0.07660022,-0.00002631,0.00000780,0.00000504,0.00
 004242,0.00001323,-0.00004440,-0.00005553,0.00000952,0.00004533,0.0000
 6045,0.00001535,0.00003080,-0.00001884,-0.00005977,-0.00005713,-0.0001
 6441,-0.00004669,0.00007161,0.00011340,0.00054762,0.00024442,-0.000592
 95,-0.00088908,0.00066019,-0.00397863,0.00278431,0.00684880,0.10921226
 ,-0.04937135,-0.16352756,-0.00348810,-0.00150791,0.00174805,0.00056974
 ,-0.00025349,0.00109672,0.00000283,0.00000026,-0.00000470,0.00000203,-
 0.00000104,0.00000303,0.00000101,-0.00000420,0.00000025,-0.00001038,-0
 .00001312,0.00000601,0.00000227,-0.00000760,0.00000230,0.00001439,0.00
 000184,0.00000199,-0.00001336,0.00000954,0.00001040,-0.00007781,-0.000
 06743,-0.00008183,0.00032339,0.00063075,-0.00002079,0.00015226,-0.0000
 0305,-0.00041356,-0.00169485,-0.00051013,0.00090206,-0.11947682,0.0587
 0693,0.17330911,0.00008194,-0.00006688,-0.00000849,-0.00017482,0.00000
 475,0.00026525,0.00012652,-0.00001845,-0.00018600,-0.00009587,0.000062
 35,-0.00011506,-0.00022838,-0.00016139,0.00023662,0.00029744,0.0000585
 8,-0.00019533,-0.00022337,-0.00129236,0.00042121,-0.00004212,0.0054659
 9,0.00019149,-0.02296403,-0.00276860,-0.03153368,-0.07259869,0.0186709
 8,-0.06596936,-0.00143893,0.00302454,-0.00591811,-0.00056975,-0.001141
 69,0.00145928,-0.00001014,0.00000841,0.00001347,0.00000443,0.00000383,
 -0.00000332,-0.00001283,0.00004883,0.00000315,-0.00002104,0.00000835,-
 0.00001079,-0.00000215,-0.00002958,0.00000059,0.00007844,0.00010132,0.
 00002362,-0.00007815,0.00005701,0.00003263,0.00037158,0.00049595,0.000
 36840,0.00013471,-0.00048371,0.00004791,0.00043902,-0.00167102,0.00083
 601,0.00176640,0.00009576,-0.00043767,0.00745440,-0.00458731,0.0181699
 4,0.08635279,0.00004592,-0.00002919,-0.00000689,-0.00008874,-0.0000064
 4,0.00011366,0.00008836,-0.00001324,-0.00008074,-0.00006222,0.00000877
 ,-0.00008688,-0.00007286,-0.00007323,0.00011607,0.00007612,-0.00003503
 ,-0.00005842,-0.00035824,-0.00078573,0.00041133,-0.00106511,0.00522490
 ,-0.00266081,-0.01037884,0.00132493,-0.01662462,0.01634548,-0.06287466
 ,0.04700061,0.01146861,-0.01121743,0.03187816,0.00168574,0.00328647,0.
 00076666,-0.00000429,0.00000353,0.00000671,-0.00000178,0.00000069,-0.0
 0000347,-0.00000355,0.00001887,0.00000277,0.00000074,0.00001241,-0.000
 00626,-0.00000479,-0.00000432,-0.00000357,0.00001322,0.00001842,0.0000
 0274,-0.00003406,0.00000955,0.00002491,0.00028261,0.00006030,0.0002837
 2,0.00013166,-0.00015386,0.00003296,0.00096526,0.00009530,0.00140744,0
 .00121163,0.00025847,0.00024165,-0.00270702,0.00316471,-0.00960003,-0.
 01690920,0.06712122,0.00006824,-0.00004612,-0.00000682,-0.00014342,-0.
 00001085,0.00021923,0.00010914,-0.00000443,-0.00017164,-0.00004727,0.0
 0003963,-0.00012274,-0.00025542,-0.00020226,0.00016635,0.00011367,0.00
 012538,-0.00004253,0.00007261,-0.00066395,0.00035766,0.00011686,0.0017
 5810,0.00117100,-0.01234264,-0.00350918,-0.00211675,-0.06458073,0.0508
 9002,-0.23499369,-0.00180926,-0.00243816,-0.00689775,0.00105664,-0.000
 53030,0.00356647,-0.00000956,0.00000466,0.00001178,0.00000431,0.000003
 41,-0.00000235,-0.00001025,0.00003635,-0.00000014,-0.00001450,0.000016
 55,-0.00001252,0.00000305,-0.00001877,0.00000491,0.00005159,0.00003463
 ,0.00002681,-0.00006050,0.00003850,-0.00001119,0.00023571,0.00036565,0
 .00009685,0.00029451,0.00013744,-0.00034264,-0.00025763,-0.00167288,-0
 .00032462,0.00048900,-0.00091667,0.00144306,-0.00621876,0.00630567,-0.
 02093047,0.08289396,-0.05138848,0.25758443,-0.00002383,0.00001411,0.00
 000851,0.00004077,0.00000464,-0.00004507,-0.00004419,0.00000658,0.0000
 3532,0.00003883,-0.00001075,0.00003430,0.00001238,0.00002871,-0.000046
 41,-0.00002625,-0.00002275,0.00003768,0.00002549,0.00020343,0.00003840
 ,0.00033928,-0.00021046,0.00006546,0.00113215,0.00094451,0.00105438,0.
 00285071,-0.00076129,-0.00780005,-0.10503777,0.04302913,-0.09861829,-0
 .01123951,-0.00210625,-0.00874050,0.00000136,-0.00000202,-0.00000494,0
 .00000189,-0.00000084,0.00000152,0.00000163,-0.00000675,-0.00000263,-0
 .00000510,-0.00000643,0.00000146,0.00000290,-0.00000109,0.00000323,0.0
 0000418,-0.00000308,-0.00000086,0.00001273,-0.00000939,-0.00000298,0.0
 0000529,-0.00001734,-0.00003138,-0.00002468,0.00004003,0.00003372,-0.0
 0011505,-0.00010367,-0.00010415,-0.00015492,0.00002027,0.00007313,0.00
 015814,-0.00123053,0.00037373,0.00059956,0.00094659,-0.00058400,0.0987
 7607,-0.00000018,-0.00000215,-0.00000223,-0.00000085,0.00000282,-0.000
 00653,0.00000880,-0.00000583,0.00001327,-0.00001980,0.00001586,-0.0000
 0667,0.00000939,0.00000859,0.00000391,-0.00000240,-0.00000407,-0.00005
 520,-0.00008511,-0.00011017,-0.00006707,-0.00019706,-0.00028056,-0.000
 43774,0.00065105,0.00338406,-0.00074695,0.01408924,-0.00878003,0.02582
 035,0.04319115,-0.08445364,0.07240686,-0.01528290,0.00880989,-0.026177
 87,0.00000059,0.00000079,-0.00000014,-0.00000143,0.00000028,0.00000054
 ,0.,0.00000041,0.00000150,0.00000262,-0.00000264,0.00000030,-0.0000063
 3,0.00000199,-0.00000296,-0.00003787,-0.00002383,0.00000084,-0.0000105
 2,0.00000618,0.00001168,-0.00007014,-0.00005503,-0.00000511,-0.0000263
 4,0.00004094,0.00007357,-0.00007662,0.00044463,-0.00017453,-0.00003134
 ,-0.00031581,0.00029573,0.00027468,0.00055376,-0.00062825,0.00054535,-
 0.00568490,0.00034350,-0.04087391,0.08722708,0.00000063,0.00000362,0.0
 0000696,-0.00000059,-0.00000751,0.00002145,-0.00000958,0.00001039,-0.0
 0004128,0.00002333,-0.00001790,0.00000902,-0.00000776,-0.00002539,-0.0
 0000059,-0.00000876,-0.00000442,0.00005052,0.00004336,0.00012792,-0.00
 001755,0.00024334,-0.00003851,0.00021084,0.00075743,-0.00106131,0.0003
 8463,-0.00561359,-0.00102863,-0.00017231,-0.09770338,0.07079940,-0.218
 90158,-0.01033043,-0.00332823,-0.02578310,-0.00000279,-0.00000331,0.00
 000025,0.00000562,0.00000238,-0.00000032,-0.00000258,0.00000031,-0.000
 00758,-0.00000415,0.00000211,-0.00000523,0.00001039,-0.00000003,0.0000
 0775,0.00003967,0.00003050,0.00000218,0.00000752,-0.00000686,-0.000012
 51,0.00000970,0.00001915,-0.00000252,0.00003917,-0.00002910,-0.0000462
 1,-0.00006379,-0.00018007,-0.00004314,-0.00002292,0.00030011,-0.000181
 96,-0.00025459,0.00161974,-0.00008339,-0.00082553,0.00019555,0.0009233
 5,0.12250292,-0.06555283,0.24152165,-0.00003555,-0.00001264,0.00000712
 ,0.00004875,0.00003336,-0.00003027,-0.00007038,0.00000437,0.00003599,0
 .00004107,0.00003154,0.00004855,0.00000381,0.00005269,-0.00002777,0.00
 007641,-0.00001783,-0.00003852,-0.00002072,-0.00013916,-0.00007555,-0.
 00041070,0.00000075,-0.00001130,0.00006643,-0.00143305,-0.00002741,-0.
 00935507,0.00218075,0.00721075,-0.00655043,0.00816156,-0.01899796,-0.1
 0785523,0.05592848,-0.12074840,0.00000328,0.00000386,-0.00000775,0.000
 00474,0.00000051,0.00000522,-0.00000129,0.00000818,0.00000243,-0.00001
 900,-0.00002948,0.00000623,-0.00000358,-0.00001341,0.00000246,0.000000
 70,0.00000250,0.00000135,-0.00000015,0.00001337,0.00000840,0.00001175,
 -0.00002475,-0.00000002,0.00001180,-0.00002436,-0.00003587,0.00001301,
 0.00000992,0.00002379,0.00004591,-0.00019469,-0.00018653,0.00005522,0.
 00246908,0.00055786,0.00075303,-0.00157122,0.00082466,0.01266793,-0.00
 205007,-0.00883264,0.11051829,-0.00007971,0.00007393,0.00001773,0.0001
 5440,0.00000408,-0.00022857,-0.00015431,0.00001813,0.00019912,0.000116
 23,-0.00006508,0.00009770,0.00011599,0.00015291,-0.00015012,-0.0000707
 8,-0.00005442,0.00006528,0.00012666,0.00030952,0.00004649,0.00000009,-
 0.00064548,-0.00021491,0.00087977,0.00001352,0.00089473,-0.00342515,0.
 00232938,-0.00439741,-0.01900223,0.00055160,-0.03466903,0.08428180,-0.
 10602917,0.14910232,0.00000957,-0.00000506,-0.00001219,-0.00000170,-0.
 00000649,0.00000338,0.00000884,-0.00004588,-0.00000131,0.00000287,-0.0
 0000789,0.00001672,0.00000801,0.00000708,0.00000169,-0.00001107,-0.000
 03182,-0.00001342,0.00005109,-0.00003853,0.00000439,0.00000296,-0.0000
 7309,-0.00006236,0.00000833,0.00000933,-0.00001494,-0.00007118,0.00004
 025,-0.00003257,-0.00017144,0.00006326,0.00008302,0.00000448,-0.000153
 77,0.00023597,0.00047818,0.00026949,0.00130256,0.00012856,-0.00077861,
 -0.00182709,-0.06339027,0.10409280,-0.00002860,0.00003993,0.00001543,0
 .00006541,-0.00001079,-0.00008746,-0.00006556,0.00001305,0.00006281,0.
 00005982,-0.00004976,0.00004630,0.00004404,0.00004381,-0.00007131,-0.0
 0007128,-0.00001804,0.00009625,0.00014084,0.00042406,0.00002399,0.0004
 0147,-0.00049083,0.00015324,0.00008994,0.00183743,0.00093556,0.0075638
 5,0.00152963,-0.00028462,-0.02047551,0.01715973,-0.03194514,-0.1195916
 3,0.09783738,-0.25073625,0.00000132,-0.00000641,-0.00000622,0.00000046
 ,-0.00000185,-0.00000111,0.00000297,-0.00002068,-0.00000657,0.00000300
 ,0.00000313,0.00000009,0.00000855,0.00000707,0.00000412,0.00001899,0.0
 0000417,-0.00000698,0.00002865,-0.00002597,-0.00001192,-0.00000433,-0.
 00003195,-0.00004809,-0.00002212,0.00003851,0.00001336,-0.00002737,0.0
 0000262,-0.00003559,-0.00027462,0.00010594,-0.00013987,-0.00011082,-0.
 00087022,0.00017775,0.00023981,-0.00196477,0.00040395,-0.00828249,-0.0
 0510798,0.00216068,0.14028520,-0.11044719,0.27928759\\0.00000294,0.000
 00753,0.00000028,-0.00000536,-0.00000730,-0.00000881,0.00000085,0.0000
 0332,0.00000668,0.00000581,0.00000437,-0.00000083,-0.00000224,0.000000
 53,-0.00000086,-0.00000246,-0.00000381,0.00000153,0.00000935,-0.000003
 91,-0.00000122,-0.00000057,-0.00000618,-0.00000076,-0.00000104,0.00000
 029,0.00000284,-0.00000836,0.00000055,-0.00000319,0.00000325,0.0000033
 0,0.00000093,0.00000170,-0.00000106,0.00000012,0.00000270,0.00000022,0
 .00000038,-0.00000189,-0.00000306,0.00000132,-0.00000067,0.00000066,-0
 .00000157,-0.00000164,-0.00000327,0.00000149,-0.00000118,-0.00000158,-
 0.00000226,-0.00000082,0.00000122,0.00000184,0.00000070,0.00000229,-0.
 00000063,-0.00000415,0.00000144,0.00000068,-0.00000011,0.00000294,0.00
 000046,-0.00000261,0.00000221,-0.00000164,0.00000144,-0.00000060,0.000
 00002,0.00000298,0.00000057,0.00000154,0.00000174,0.00000036,0.0000013
 1,-0.00000026,-0.00000113,-0.00000003,-0.00000012,0.00000012,0.0000003
 9\\\@


 SEEN ON A WALL AT THE UNIVERSITY OF ILLINOIS AT CHICAGO CIRCLE:

 TO DO IS TO BE  -- SOCRATES
 TO BE IS TO DO  -- SARTRE
 OO BE DO BE DO  -- SINATRA
 Job cpu time:       0 days  3 hours 28 minutes 53.8 seconds.
 Elapsed time:       0 days  0 hours 52 minutes 15.4 seconds.
 File lengths (MBytes):  RWF=    341 Int=      0 D2E=      0 Chk=     15 Scr=      1
 Normal termination of Gaussian 16 at Tue Jun  1 13:02:21 2021.
### All Done ###
