### Starting Gaussian ###
 Entering Gaussian System, Link 0=g16
 Initial command:
 /cluster/software/gaussian/gaussian-16-A.03/avx2/g16/l1.exe "/local/scratch/cz9n3/Gau-29534.inp" -scrdir="/local/scratch/cz9n3/"
 Entering Link 1 = /cluster/software/gaussian/gaussian-16-A.03/avx2/g16/l1.exe PID=     29535.
  
 Copyright (c) 1988,1990,1992,1993,1995,1998,2003,2009,2016,
            Gaussian, Inc.  All Rights Reserved.
  
 This is part of the Gaussian(R) 16 program.  It is based on
 the Gaussian(R) 09 system (copyright 2009, Gaussian, Inc.),
 the Gaussian(R) 03 system (copyright 2003, Gaussian, Inc.),
 the Gaussian(R) 98 system (copyright 1998, Gaussian, Inc.),
 the Gaussian(R) 94 system (copyright 1995, Gaussian, Inc.),
 the Gaussian 92(TM) system (copyright 1992, Gaussian, Inc.),
 the Gaussian 90(TM) system (copyright 1990, Gaussian, Inc.),
 the Gaussian 88(TM) system (copyright 1988, Gaussian, Inc.),
 the Gaussian 86(TM) system (copyright 1986, Carnegie Mellon
 University), and the Gaussian 82(TM) system (copyright 1983,
 Carnegie Mellon University). Gaussian is a federally registered
 trademark of Gaussian, Inc.
  
 This software contains proprietary and confidential information,
 including trade secrets, belonging to Gaussian, Inc.
  
 This software is provided under written license and may be
 used, copied, transmitted, or stored only in accord with that
 written license.
  
 The following legend is applicable only to US Government
 contracts under FAR:
  
                    RESTRICTED RIGHTS LEGEND
  
 Use, reproduction and disclosure by the US Government is
 subject to restrictions as set forth in subparagraphs (a)
 and (c) of the Commercial Computer Software - Restricted
 Rights clause in FAR 52.227-19.
  
 Gaussian, Inc.
 340 Quinnipiac St., Bldg. 40, Wallingford CT 06492
  
  
 ---------------------------------------------------------------
 Warning -- This program may not be used in any manner that
 competes with the business of Gaussian, Inc. or will provide
 assistance to any competitor of Gaussian, Inc.  The licensee
 of this program is prohibited from giving any competitor of
 Gaussian, Inc. access to this program.  By using this program,
 the user acknowledges that Gaussian, Inc. is engaged in the
 business of creating and licensing software in the field of
 computational chemistry and represents and warrants to the
 licensee that it is not a competitor of Gaussian, Inc. and that
 it will not use this program in any manner prohibited above.
 ---------------------------------------------------------------
  

 Cite this work as:
 Gaussian 16, Revision A.03,
 M. J. Frisch, G. W. Trucks, H. B. Schlegel, G. E. Scuseria, 
 M. A. Robb, J. R. Cheeseman, G. Scalmani, V. Barone, 
 G. A. Petersson, H. Nakatsuji, X. Li, M. Caricato, A. V. Marenich, 
 J. Bloino, B. G. Janesko, R. Gomperts, B. Mennucci, H. P. Hratchian, 
 J. V. Ortiz, A. F. Izmaylov, J. L. Sonnenberg, D. Williams-Young, 
 F. Ding, F. Lipparini, F. Egidi, J. Goings, B. Peng, A. Petrone, 
 T. Henderson, D. Ranasinghe, V. G. Zakrzewski, J. Gao, N. Rega, 
 G. Zheng, W. Liang, M. Hada, M. Ehara, K. Toyota, R. Fukuda, 
 J. Hasegawa, M. Ishida, T. Nakajima, Y. Honda, O. Kitao, H. Nakai, 
 T. Vreven, K. Throssell, J. A. Montgomery, Jr., J. E. Peralta, 
 F. Ogliaro, M. J. Bearpark, J. J. Heyd, E. N. Brothers, K. N. Kudin, 
 V. N. Staroverov, T. A. Keith, R. Kobayashi, J. Normand, 
 K. Raghavachari, A. P. Rendell, J. C. Burant, S. S. Iyengar, 
 J. Tomasi, M. Cossi, J. M. Millam, M. Klene, C. Adamo, R. Cammi, 
 J. W. Ochterski, R. L. Martin, K. Morokuma, O. Farkas, 
 J. B. Foresman, and D. J. Fox, Gaussian, Inc., Wallingford CT, 2016.
 
 ******************************************
 Gaussian 16:  ES64L-G16RevA.03 25-Dec-2016
                 1-Jun-2021 
 ******************************************
 %chk=CNCdNCNCCtN.chk
 %NProcShared=20
 Will use up to   20 processors via shared memory.
 -----------------------------
 # opt freq b3lyp/6-31g(2df,p)
 -----------------------------
 1/18=20,19=15,26=3,38=1/1,3;
 2/9=110,12=2,17=6,18=5,40=1/2;
 3/5=1,6=6,7=104,11=2,25=1,30=1,71=1,74=-5/1,2,3;
 4//1;
 5/5=2,38=5/2;
 6/7=2,8=2,9=2,10=2,28=1/1;
 7//1,2,3,16;
 1/18=20,19=15,26=3/3(2);
 2/9=110/2;
 99//99;
 2/9=110/2;
 3/5=1,6=6,7=104,11=2,25=1,30=1,71=1,74=-5/1,2,3;
 4/5=5,16=3,69=1/1;
 5/5=2,38=5/2;
 7//1,2,3,16;
 1/18=20,19=15,26=3/3(-5);
 2/9=110/2;
 6/7=2,8=2,9=2,10=2,19=2,28=1/1;
 99/9=1/99;
 -------------------
 Title Card Required
 -------------------
 Symbolic Z-matrix:
 Charge =  0 Multiplicity = 1
 C                     1.14679  -0.02078   0.0121 
 N                     2.58503  -0.02922  -0.04236 
 C                     3.3482    0.00758  -1.16737 
 N                     4.63476  -0.01701  -1.14163 
 C                     5.29068   0.05123  -2.44332 
 N                     6.73004   0.06265  -2.23407 
 C                     7.50676   0.0839   -3.48198 
 C                     9.00117   0.0756   -3.20435 
 N                     10.2409   0.06872  -2.97403 
 H                     0.80728  -0.05106   1.05346 
 H                     0.73166  -0.89443  -0.49966 
 H                     0.73963   0.88558  -0.44638 
 H                     3.09082  -0.04706   0.83736 
 H                     2.75722   0.05544  -2.09956 
 H                     4.99023   0.963    -2.9726 
 H                     5.007    -0.81992  -3.0463 
 H                     6.96294  -0.75879  -1.67813 
 H                     7.26838   0.98929  -4.05124 
 H                     7.26258  -0.7875   -4.09992 
 

 GradGradGradGradGradGradGradGradGradGradGradGradGradGradGradGradGradGrad
 Berny optimization.
 Initialization pass.
                           ----------------------------
                           !    Initial Parameters    !
                           ! (Angstroms and Degrees)  !
 --------------------------                            --------------------------
 ! Name  Definition              Value          Derivative Info.                !
 --------------------------------------------------------------------------------
 ! R1    R(1,2)                  1.4393         estimate D2E/DX2                !
 ! R2    R(1,10)                 1.0957         estimate D2E/DX2                !
 ! R3    R(1,11)                 1.0943         estimate D2E/DX2                !
 ! R4    R(1,12)                 1.0943         estimate D2E/DX2                !
 ! R5    R(2,3)                  1.3599         estimate D2E/DX2                !
 ! R6    R(2,13)                 1.0149         estimate D2E/DX2                !
 ! R7    R(3,4)                  1.2871         estimate D2E/DX2                !
 ! R8    R(3,14)                 1.1048         estimate D2E/DX2                !
 ! R9    R(4,5)                  1.4592         estimate D2E/DX2                !
 ! R10   R(5,6)                  1.4545         estimate D2E/DX2                !
 ! R11   R(5,15)                 1.0962         estimate D2E/DX2                !
 ! R12   R(5,16)                 1.0968         estimate D2E/DX2                !
 ! R13   R(6,7)                  1.47           estimate D2E/DX2                !
 ! R14   R(6,17)                 1.0189         estimate D2E/DX2                !
 ! R15   R(7,8)                  1.52           estimate D2E/DX2                !
 ! R16   R(7,18)                 1.0957         estimate D2E/DX2                !
 ! R17   R(7,19)                 1.0958         estimate D2E/DX2                !
 ! R18   R(8,9)                  1.261          estimate D2E/DX2                !
 ! A1    A(2,1,10)             110.2075         estimate D2E/DX2                !
 ! A2    A(2,1,11)             110.8977         estimate D2E/DX2                !
 ! A3    A(2,1,12)             111.1498         estimate D2E/DX2                !
 ! A4    A(10,1,11)            107.7491         estimate D2E/DX2                !
 ! A5    A(10,1,12)            107.8056         estimate D2E/DX2                !
 ! A6    A(11,1,12)            108.9152         estimate D2E/DX2                !
 ! A7    A(1,2,3)              126.2928         estimate D2E/DX2                !
 ! A8    A(1,2,13)             117.7295         estimate D2E/DX2                !
 ! A9    A(3,2,13)             115.9676         estimate D2E/DX2                !
 ! A10   A(2,3,4)              122.9498         estimate D2E/DX2                !
 ! A11   A(2,3,14)             113.5156         estimate D2E/DX2                !
 ! A12   A(4,3,14)             123.5339         estimate D2E/DX2                !
 ! A13   A(3,4,5)              115.5056         estimate D2E/DX2                !
 ! A14   A(4,5,6)              108.4726         estimate D2E/DX2                !
 ! A15   A(4,5,15)             110.267          estimate D2E/DX2                !
 ! A16   A(4,5,16)             109.695          estimate D2E/DX2                !
 ! A17   A(6,5,15)             109.5204         estimate D2E/DX2                !
 ! A18   A(6,5,16)             109.9543         estimate D2E/DX2                !
 ! A19   A(15,5,16)            108.9227         estimate D2E/DX2                !
 ! A20   A(5,6,7)              113.631          estimate D2E/DX2                !
 ! A21   A(5,6,17)             107.3598         estimate D2E/DX2                !
 ! A22   A(7,6,17)             110.7367         estimate D2E/DX2                !
 ! A23   A(6,7,8)              111.3669         estimate D2E/DX2                !
 ! A24   A(6,7,18)             109.7563         estimate D2E/DX2                !
 ! A25   A(6,7,19)             110.4548         estimate D2E/DX2                !
 ! A26   A(8,7,18)             108.258          estimate D2E/DX2                !
 ! A27   A(8,7,19)             108.5259         estimate D2E/DX2                !
 ! A28   A(18,7,19)            108.3988         estimate D2E/DX2                !
 ! A29   L(7,8,9,17,-1)        179.9999         estimate D2E/DX2                !
 ! A30   L(7,8,9,17,-2)        180.0004         estimate D2E/DX2                !
 ! D1    D(10,1,2,3)          -179.6403         estimate D2E/DX2                !
 ! D2    D(10,1,2,13)           -0.8499         estimate D2E/DX2                !
 ! D3    D(11,1,2,3)            61.1337         estimate D2E/DX2                !
 ! D4    D(11,1,2,13)         -120.076          estimate D2E/DX2                !
 ! D5    D(12,1,2,3)           -60.183          estimate D2E/DX2                !
 ! D6    D(12,1,2,13)          118.6074         estimate D2E/DX2                !
 ! D7    D(1,2,3,4)           -179.2453         estimate D2E/DX2                !
 ! D8    D(1,2,3,14)             0.4772         estimate D2E/DX2                !
 ! D9    D(13,2,3,4)             1.9456         estimate D2E/DX2                !
 ! D10   D(13,2,3,14)         -178.3318         estimate D2E/DX2                !
 ! D11   D(2,3,4,5)           -179.0646         estimate D2E/DX2                !
 ! D12   D(14,3,4,5)             1.2406         estimate D2E/DX2                !
 ! D13   D(3,4,5,6)            177.9265         estimate D2E/DX2                !
 ! D14   D(3,4,5,15)            57.9993         estimate D2E/DX2                !
 ! D15   D(3,4,5,16)           -61.9578         estimate D2E/DX2                !
 ! D16   D(4,5,6,7)            178.0315         estimate D2E/DX2                !
 ! D17   D(4,5,6,17)            55.2318         estimate D2E/DX2                !
 ! D18   D(15,5,6,7)           -61.5763         estimate D2E/DX2                !
 ! D19   D(15,5,6,17)          175.624          estimate D2E/DX2                !
 ! D20   D(16,5,6,7)            58.0775         estimate D2E/DX2                !
 ! D21   D(16,5,6,17)          -64.7222         estimate D2E/DX2                !
 ! D22   D(5,6,7,8)           -179.2113         estimate D2E/DX2                !
 ! D23   D(5,6,7,18)            60.9227         estimate D2E/DX2                !
 ! D24   D(5,6,7,19)           -58.5429         estimate D2E/DX2                !
 ! D25   D(17,6,7,8)           -58.2879         estimate D2E/DX2                !
 ! D26   D(17,6,7,18)         -178.154          estimate D2E/DX2                !
 ! D27   D(17,6,7,19)           62.3805         estimate D2E/DX2                !
 --------------------------------------------------------------------------------
 Trust Radius=3.00D-01 FncErr=1.00D-07 GrdErr=1.00D-06 EigMax=2.50D+02 EigMin=1.00D-04
 Number of steps in this run=     85 maximum allowed number of steps=    114.
 GradGradGradGradGradGradGradGradGradGradGradGradGradGradGradGradGradGrad

                          Input orientation:                          
 ---------------------------------------------------------------------
 Center     Atomic      Atomic             Coordinates (Angstroms)
 Number     Number       Type             X           Y           Z
 ---------------------------------------------------------------------
      1          6           0        1.146790   -0.020780    0.012100
      2          7           0        2.585030   -0.029220   -0.042360
      3          6           0        3.348200    0.007580   -1.167370
      4          7           0        4.634760   -0.017010   -1.141630
      5          6           0        5.290680    0.051230   -2.443320
      6          7           0        6.730040    0.062650   -2.234070
      7          6           0        7.506760    0.083900   -3.481980
      8          6           0        9.001170    0.075600   -3.204350
      9          7           0       10.240900    0.068720   -2.974030
     10          1           0        0.807280   -0.051060    1.053460
     11          1           0        0.731660   -0.894430   -0.499660
     12          1           0        0.739630    0.885580   -0.446380
     13          1           0        3.090820   -0.047060    0.837360
     14          1           0        2.757220    0.055440   -2.099560
     15          1           0        4.990230    0.963000   -2.972600
     16          1           0        5.007000   -0.819920   -3.046300
     17          1           0        6.962940   -0.758790   -1.678130
     18          1           0        7.268380    0.989290   -4.051240
     19          1           0        7.262580   -0.787500   -4.099920
 ---------------------------------------------------------------------
                    Distance matrix (angstroms):
                    1          2          3          4          5
     1  C    0.000000
     2  N    1.439295   0.000000
     3  C    2.497631   1.359938   0.000000
     4  N    3.673832   2.325927   1.287052   0.000000
     5  C    4.817271   3.618235   2.324475   1.459207   0.000000
     6  N    6.018714   4.689685   3.546509   2.364312   1.454535
     7  C    7.257325   6.005598   4.759923   3.706185   2.447630
     8  C    8.487999   7.153742   6.009158   4.830003   3.787809
     9  N    9.572242   8.198575   7.125803   5.898631   4.978618
    10  H    1.095726   2.088467   3.375174   4.412390   5.686722
    11  H    1.094301   2.095875   2.847058   4.051689   5.045468
    12  H    1.094290   2.098950   2.845233   4.058335   5.039441
    13  H    2.112107   1.014913   2.021923   2.510190   3.951190
    14  H    2.656765   2.066129   1.104774   2.109037   2.556679
    15  H    4.964704   3.918647   2.620676   2.106948   1.096235
    16  H    4.989354   3.938883   2.639460   2.100237   1.096796
    17  H    6.101568   4.730128   3.730220   2.501698   2.009503
    18  H    7.416525   6.248380   4.964703   4.051472   2.716001
    19  H    7.409417   6.238450   4.955237   4.031200   2.708539
                    6          7          8          9         10
     6  N    0.000000
     7  C    1.470042   0.000000
     8  C    2.469745   1.520003   0.000000
     9  N    3.587996   2.780965   1.260962   0.000000
    10  H    6.774944   8.091444   9.234978  10.258080   0.000000
    11  H    6.317020   7.466816   8.754490   9.872984   1.768947
    12  H    6.305399   7.460000   8.747314   9.865617   1.769574
    13  H    4.763364   6.178541   7.161194   8.103317   2.293746
    14  H    3.975103   4.946719   6.340968   7.534610   3.708793
    15  H    2.093560   2.713892   4.114466   5.326281   5.893602
    16  H    2.099408   2.693605   4.096380   5.309295   5.919191
    17  H    1.018860   2.063914   2.679540   3.620656   6.771604
    18  H    2.109639   1.095725   2.134154   3.292978   8.299765
    19  H    2.118431   1.095816   2.137682   3.297140   8.292802
                   11         12         13         14         15
    11  H    0.000000
    12  H    1.780825   0.000000
    13  H    2.841002   2.836530   0.000000
    14  H    2.750423   2.737299   2.957583   0.000000
    15  H    5.263164   4.945238   4.375360   2.563630   0.000000
    16  H    4.976893   5.280034   4.399076   2.593083   1.784521
    17  H    6.343188   6.553682   4.671998   4.304492   2.920924
    18  H    7.674036   7.458575   6.513405   5.003169   2.520739
    19  H    7.458299   7.661359   6.506041   5.001026   3.081992
                   16         17         18         19
    16  H    0.000000
    17  H    2.387745   0.000000
    18  H    3.065450   2.963229   0.000000
    19  H    2.489740   2.440425   1.777466   0.000000
 Stoichiometry    C5H10N4
 Framework group  C1[X(C5H10N4)]
 Deg. of freedom    51
 Full point group                 C1      NOp   1
 Largest Abelian subgroup         C1      NOp   1
 Largest concise Abelian subgroup C1      NOp   1
                         Standard orientation:                         
 ---------------------------------------------------------------------
 Center     Atomic      Atomic             Coordinates (Angstroms)
 Number     Number       Type             X           Y           Z
 ---------------------------------------------------------------------
      1          6           0        4.622729   -0.035040   -0.012477
      2          7           0        3.276342   -0.543719   -0.020194
      3          6           0        2.135920    0.196851    0.000390
      4          7           0        0.960618   -0.327684    0.006019
      5          6           0       -0.149909    0.618895    0.007289
      6          7           0       -1.395165   -0.131522   -0.036115
      7          6           0       -2.595617    0.715865    0.007193
      8          6           0       -3.864840   -0.119998   -0.021381
      9          7           0       -4.917758   -0.813414   -0.045092
     10          1           0        5.340203   -0.862733   -0.040260
     11          1           0        4.816127    0.543741    0.895875
     12          1           0        4.810039    0.599564   -0.884064
     13          1           0        3.151984   -1.550113   -0.062089
     14          1           0        2.318082    1.286383    0.016624
     15          1           0       -0.088478    1.277516   -0.866883
     16          1           0       -0.113083    1.230693    0.916854
     17          1           0       -1.384985   -0.782964    0.747208
     18          1           0       -2.606836    1.386773   -0.859046
     19          1           0       -2.600996    1.326073    0.917374
 ---------------------------------------------------------------------
 Rotational constants (GHZ):          11.2880975           0.4172643           0.4058880
 Standard basis: 6-31G(2df,p) (6D, 7F)
 There are   329 symmetry adapted cartesian basis functions of A   symmetry.
 There are   302 symmetry adapted basis functions of A   symmetry.
   302 basis functions,   466 primitive gaussians,   329 cartesian basis functions
    34 alpha electrons       34 beta electrons
       nuclear repulsion energy       392.9849857765 Hartrees.
 NAtoms=   19 NActive=   19 NUniq=   19 SFac= 1.00D+00 NAtFMM=   60 NAOKFM=F Big=F
 Integral buffers will be    131072 words long.
 Raffenetti 2 integral format.
 Two-electron integral symmetry is turned on.
 One-electron integrals computed using PRISM.
 PrsmSu:  requested number of processors reduced to:  13 ShMem   1 Linda.
 NBasis=   302 RedAO= T EigKep=  2.11D-04  NBF=   302
 NBsUse=   302 1.00D-06 EigRej= -1.00D+00 NBFU=   302
 ExpMin= 1.61D-01 ExpMax= 4.17D+03 ExpMxC= 6.27D+02 IAcc=3 IRadAn=         5 AccDes= 0.00D+00
 Harris functional with IExCor=  402 and IRadAn=       5 diagonalized for initial guess.
 HarFok:  IExCor=  402 AccDes= 0.00D+00 IRadAn=         5 IDoV= 1 UseB2=F ITyADJ=14
 ICtDFT=  3500011 ScaDFX=  1.000000  1.000000  1.000000  1.000000
 FoFCou: FMM=F IPFlag=           0 FMFlag=      100000 FMFlg1=           0
         NFxFlg=           0 DoJE=T BraDBF=F KetDBF=T FulRan=T
         wScrn=  0.000000 ICntrl=       500 IOpCl=  0 I1Cent=   200000004 NGrid=           0
         NMat0=    1 NMatS0=      1 NMatT0=    0 NMatD0=    1 NMtDS0=    0 NMtDT0=    0
 Petite list used in FoFCou.
 Requested convergence on RMS density matrix=1.00D-08 within 128 cycles.
 Requested convergence on MAX density matrix=1.00D-06.
 Requested convergence on             energy=1.00D-06.
 No special actions if energy rises.
 Integral accuracy reduced to 1.0D-05 until final iterations.
 Initial convergence to 1.0D-05 achieved.  Increase integral accuracy.
 SCF Done:  E(RB3LYP) =  -415.511318249     A.U. after   14 cycles
            NFock= 14  Conv=0.89D-08     -V/T= 2.0090

 **********************************************************************

            Population analysis using the SCF density.

 **********************************************************************

 Orbital symmetries:
       Occupied  (A) (A) (A) (A) (A) (A) (A) (A) (A) (A) (A) (A)
                 (A) (A) (A) (A) (A) (A) (A) (A) (A) (A) (A) (A)
                 (A) (A) (A) (A) (A) (A) (A) (A) (A) (A)
       Virtual   (A) (A) (A) (A) (A) (A) (A) (A) (A) (A) (A) (A)
                 (A) (A) (A) (A) (A) (A) (A) (A) (A) (A) (A) (A)
                 (A) (A) (A) (A) (A) (A) (A) (A) (A) (A) (A) (A)
                 (A) (A) (A) (A) (A) (A) (A) (A) (A) (A) (A) (A)
                 (A) (A) (A) (A) (A) (A) (A) (A) (A) (A) (A) (A)
                 (A) (A) (A) (A) (A) (A) (A) (A) (A) (A) (A) (A)
                 (A) (A) (A) (A) (A) (A) (A) (A) (A) (A) (A) (A)
                 (A) (A) (A) (A) (A) (A) (A) (A) (A) (A) (A) (A)
                 (A) (A) (A) (A) (A) (A) (A) (A) (A) (A) (A) (A)
                 (A) (A) (A) (A) (A) (A) (A) (A) (A) (A) (A) (A)
                 (A) (A) (A) (A) (A) (A) (A) (A) (A) (A) (A) (A)
                 (A) (A) (A) (A) (A) (A) (A) (A) (A) (A) (A) (A)
                 (A) (A) (A) (A) (A) (A) (A) (A) (A) (A) (A) (A)
                 (A) (A) (A) (A) (A) (A) (A) (A) (A) (A) (A) (A)
                 (A) (A) (A) (A) (A) (A) (A) (A) (A) (A) (A) (A)
                 (A) (A) (A) (A) (A) (A) (A) (A) (A) (A) (A) (A)
                 (A) (A) (A) (A) (A) (A) (A) (A) (A) (A) (A) (A)
                 (A) (A) (A) (A) (A) (A) (A) (A) (A) (A) (A) (A)
                 (A) (A) (A) (A) (A) (A) (A) (A) (A) (A) (A) (A)
                 (A) (A) (A) (A) (A) (A) (A) (A) (A) (A) (A) (A)
                 (A) (A) (A) (A) (A) (A) (A) (A) (A) (A) (A) (A)
                 (A) (A) (A) (A) (A) (A) (A) (A) (A) (A) (A) (A)
                 (A) (A) (A) (A)
 The electronic state is 1-A.
 Alpha  occ. eigenvalues --  -14.35650 -14.34785 -14.32498 -14.29960 -10.26158
 Alpha  occ. eigenvalues --  -10.25476 -10.24354 -10.23518 -10.23296  -0.96121
 Alpha  occ. eigenvalues --   -0.92662  -0.87296  -0.85140  -0.74240  -0.70774
 Alpha  occ. eigenvalues --   -0.64016  -0.60979  -0.53968  -0.49712  -0.49478
 Alpha  occ. eigenvalues --   -0.49304  -0.45929  -0.45575  -0.43731  -0.42172
 Alpha  occ. eigenvalues --   -0.40730  -0.40088  -0.35602  -0.34312  -0.30580
 Alpha  occ. eigenvalues --   -0.30255  -0.25814  -0.23736  -0.21778
 Alpha virt. eigenvalues --    0.00359   0.01358   0.01773   0.07701   0.08148
 Alpha virt. eigenvalues --    0.09829   0.11282   0.12556   0.13540   0.14491
 Alpha virt. eigenvalues --    0.15590   0.16275   0.17151   0.19569   0.19956
 Alpha virt. eigenvalues --    0.22032   0.23298   0.25032   0.32246   0.33953
 Alpha virt. eigenvalues --    0.35862   0.38132   0.40928   0.45722   0.47761
 Alpha virt. eigenvalues --    0.48384   0.48892   0.51895   0.52694   0.52927
 Alpha virt. eigenvalues --    0.55970   0.57083   0.59554   0.60629   0.61836
 Alpha virt. eigenvalues --    0.63295   0.63708   0.64535   0.65658   0.67970
 Alpha virt. eigenvalues --    0.69052   0.71149   0.71165   0.72354   0.72993
 Alpha virt. eigenvalues --    0.74026   0.74407   0.75060   0.75595   0.77725
 Alpha virt. eigenvalues --    0.78001   0.78233   0.78581   0.80454   0.81492
 Alpha virt. eigenvalues --    0.82090   0.82689   0.83619   0.84092   0.85819
 Alpha virt. eigenvalues --    0.87431   0.88106   0.92684   0.93783   0.95806
 Alpha virt. eigenvalues --    0.97695   1.03858   1.04638   1.08820   1.09885
 Alpha virt. eigenvalues --    1.11121   1.15771   1.18631   1.21869   1.23718
 Alpha virt. eigenvalues --    1.25355   1.26616   1.27643   1.28192   1.30496
 Alpha virt. eigenvalues --    1.32482   1.34635   1.36092   1.38726   1.42529
 Alpha virt. eigenvalues --    1.44048   1.47912   1.49016   1.52525   1.52951
 Alpha virt. eigenvalues --    1.57011   1.58831   1.59730   1.63220   1.65003
 Alpha virt. eigenvalues --    1.66430   1.69020   1.73972   1.76319   1.77481
 Alpha virt. eigenvalues --    1.78036   1.81509   1.86063   1.89644   1.92345
 Alpha virt. eigenvalues --    1.92694   1.94621   1.98848   2.02893   2.04122
 Alpha virt. eigenvalues --    2.13235   2.17452   2.17997   2.20775   2.21819
 Alpha virt. eigenvalues --    2.26128   2.32497   2.36434   2.37681   2.39198
 Alpha virt. eigenvalues --    2.41966   2.43936   2.46909   2.48747   2.53004
 Alpha virt. eigenvalues --    2.55923   2.64249   2.65925   2.67579   2.68931
 Alpha virt. eigenvalues --    2.72936   2.76145   2.77274   2.78370   2.78410
 Alpha virt. eigenvalues --    2.83344   2.83750   2.85283   2.88129   2.88443
 Alpha virt. eigenvalues --    2.89534   2.91675   2.94735   2.99865   3.00549
 Alpha virt. eigenvalues --    3.02723   3.03596   3.05792   3.07714   3.08562
 Alpha virt. eigenvalues --    3.10774   3.14232   3.17450   3.22068   3.22115
 Alpha virt. eigenvalues --    3.24546   3.28194   3.31354   3.34032   3.37123
 Alpha virt. eigenvalues --    3.38291   3.40761   3.46932   3.48630   3.49458
 Alpha virt. eigenvalues --    3.50297   3.51372   3.56226   3.60350   3.61607
 Alpha virt. eigenvalues --    3.64547   3.65140   3.66353   3.67162   3.68446
 Alpha virt. eigenvalues --    3.69240   3.70561   3.75531   3.78047   3.82140
 Alpha virt. eigenvalues --    3.87191   3.88668   3.90752   3.92535   3.95156
 Alpha virt. eigenvalues --    3.96696   4.02271   4.05427   4.09241   4.11371
 Alpha virt. eigenvalues --    4.12650   4.14114   4.14472   4.15755   4.20301
 Alpha virt. eigenvalues --    4.21830   4.24259   4.25353   4.26447   4.27436
 Alpha virt. eigenvalues --    4.29218   4.34360   4.37434   4.38721   4.39840
 Alpha virt. eigenvalues --    4.40880   4.41945   4.42339   4.49180   4.49354
 Alpha virt. eigenvalues --    4.52303   4.52961   4.57317   4.58677   4.59845
 Alpha virt. eigenvalues --    4.60120   4.62304   4.62990   4.63779   4.65140
 Alpha virt. eigenvalues --    4.65914   4.66796   4.69404   4.71443   4.72576
 Alpha virt. eigenvalues --    4.75484   4.76526   4.77456   4.79527   4.81873
 Alpha virt. eigenvalues --    4.87249   4.90183   4.93726   4.94984   4.96736
 Alpha virt. eigenvalues --    4.97931   5.00590   5.03587   5.09037   5.10222
 Alpha virt. eigenvalues --    5.11278   5.15638   5.16549   5.20968   5.25346
 Alpha virt. eigenvalues --    5.26648   5.32909   5.37182   5.44389   5.56874
 Alpha virt. eigenvalues --    5.65386   5.75789   5.85276   5.90030   6.02816
 Alpha virt. eigenvalues --    9.59543  10.29346  10.51252  10.97160  11.13534
 Alpha virt. eigenvalues --   11.31383  11.39271  11.45449  11.54329  12.02729
 Alpha virt. eigenvalues --   13.07257  15.49964  17.32129
          Condensed to atoms (all electrons):
               1          2          3          4          5          6
     1  C    4.893840   0.385495  -0.053309   0.001183  -0.000341  -0.000000
     2  N    0.385495   6.384437   0.368426  -0.019547   0.005024   0.000054
     3  C   -0.053309   0.368426   4.622960   0.673607  -0.105050   0.001936
     4  N    0.001183  -0.019547   0.673607   6.396523   0.404039  -0.041220
     5  C   -0.000341   0.005024  -0.105050   0.404039   4.804719   0.404004
     6  N   -0.000000   0.000054   0.001936  -0.041220   0.404004   6.421574
     7  C   -0.000000  -0.000002  -0.000347   0.003388  -0.061820   0.348567
     8  C    0.000000  -0.000000  -0.000000   0.000007   0.002440  -0.033381
     9  N   -0.000000   0.000000  -0.000000  -0.000000  -0.000009  -0.001635
    10  H    0.383488  -0.017369   0.003133  -0.000053   0.000002  -0.000000
    11  H    0.378038  -0.036865  -0.001407   0.000115   0.000008   0.000000
    12  H    0.377966  -0.037074  -0.001664   0.000134   0.000008  -0.000000
    13  H   -0.044295   0.327484  -0.010848   0.002776  -0.000368  -0.000008
    14  H    0.001318  -0.083954   0.380364  -0.071545  -0.014755  -0.000413
    15  H    0.000019  -0.000581  -0.006575  -0.021676   0.337831  -0.027220
    16  H    0.000031  -0.000511   0.001251  -0.045504   0.347988  -0.053804
    17  H    0.000000  -0.000056   0.000616   0.010985  -0.053958   0.337227
    18  H   -0.000000  -0.000000  -0.000009   0.000095  -0.004225  -0.024574
    19  H    0.000000  -0.000000   0.000055  -0.000198  -0.002057  -0.040685
               7          8          9         10         11         12
     1  C   -0.000000   0.000000  -0.000000   0.383488   0.378038   0.377966
     2  N   -0.000002  -0.000000   0.000000  -0.017369  -0.036865  -0.037074
     3  C   -0.000347  -0.000000  -0.000000   0.003133  -0.001407  -0.001664
     4  N    0.003388   0.000007  -0.000000  -0.000053   0.000115   0.000134
     5  C   -0.061820   0.002440  -0.000009   0.000002   0.000008   0.000008
     6  N    0.348567  -0.033381  -0.001635  -0.000000   0.000000  -0.000000
     7  C    4.953777   0.382493  -0.041801   0.000000  -0.000000   0.000000
     8  C    0.382493   4.460515   0.938814  -0.000000   0.000000  -0.000000
     9  N   -0.041801   0.938814   6.471372  -0.000000  -0.000000   0.000000
    10  H    0.000000  -0.000000  -0.000000   0.555699  -0.030004  -0.029948
    11  H   -0.000000   0.000000  -0.000000  -0.030004   0.600061  -0.046824
    12  H    0.000000  -0.000000   0.000000  -0.029948  -0.046824   0.599865
    13  H    0.000000   0.000000  -0.000000  -0.005808   0.003411   0.003426
    14  H    0.000056   0.000000  -0.000000  -0.000046   0.001746   0.002222
    15  H   -0.001372   0.000310   0.000001   0.000000   0.000007  -0.000018
    16  H   -0.003787  -0.000010  -0.000000   0.000000  -0.000018   0.000007
    17  H   -0.043719   0.003607   0.000439   0.000000   0.000000  -0.000000
    18  H    0.354978  -0.013085  -0.000059   0.000000   0.000000  -0.000000
    19  H    0.348230  -0.028430  -0.000209  -0.000000  -0.000000   0.000000
              13         14         15         16         17         18
     1  C   -0.044295   0.001318   0.000019   0.000031   0.000000  -0.000000
     2  N    0.327484  -0.083954  -0.000581  -0.000511  -0.000056  -0.000000
     3  C   -0.010848   0.380364  -0.006575   0.001251   0.000616  -0.000009
     4  N    0.002776  -0.071545  -0.021676  -0.045504   0.010985   0.000095
     5  C   -0.000368  -0.014755   0.337831   0.347988  -0.053958  -0.004225
     6  N   -0.000008  -0.000413  -0.027220  -0.053804   0.337227  -0.024574
     7  C    0.000000   0.000056  -0.001372  -0.003787  -0.043719   0.354978
     8  C    0.000000   0.000000   0.000310  -0.000010   0.003607  -0.013085
     9  N   -0.000000  -0.000000   0.000001  -0.000000   0.000439  -0.000059
    10  H   -0.005808  -0.000046   0.000000   0.000000   0.000000   0.000000
    11  H    0.003411   0.001746   0.000007  -0.000018   0.000000   0.000000
    12  H    0.003426   0.002222  -0.000018   0.000007  -0.000000  -0.000000
    13  H    0.461597   0.008192   0.000056   0.000047   0.000014   0.000000
    14  H    0.008192   0.679877   0.007172   0.007680   0.000119  -0.000000
    15  H    0.000056   0.007172   0.659294  -0.058979   0.007987   0.006426
    16  H    0.000047   0.007680  -0.058979   0.727095  -0.005566  -0.002018
    17  H    0.000014   0.000119   0.007987  -0.005566   0.510282   0.005858
    18  H    0.000000  -0.000000   0.006426  -0.002018   0.005858   0.563783
    19  H   -0.000000   0.000004  -0.002130   0.013778  -0.005695  -0.047342
              19
     1  C    0.000000
     2  N   -0.000000
     3  C    0.000055
     4  N   -0.000198
     5  C   -0.002057
     6  N   -0.040685
     7  C    0.348230
     8  C   -0.028430
     9  N   -0.000209
    10  H   -0.000000
    11  H   -0.000000
    12  H    0.000000
    13  H   -0.000000
    14  H    0.000004
    15  H   -0.002130
    16  H    0.013778
    17  H   -0.005695
    18  H   -0.047342
    19  H    0.631927
 Mulliken charges:
               1
     1  C   -0.323434
     2  N   -0.274963
     3  C    0.126863
     4  N   -0.293109
     5  C   -0.063479
     6  N   -0.290421
     7  C   -0.238643
     8  C    0.286719
     9  N   -0.366911
    10  H    0.140905
    11  H    0.131732
    12  H    0.131901
    13  H    0.254322
    14  H    0.081965
    15  H    0.099447
    16  H    0.072319
    17  H    0.231861
    18  H    0.160172
    19  H    0.132753
 Sum of Mulliken charges =  -0.00000
 Mulliken charges with hydrogens summed into heavy atoms:
               1
     1  C    0.081104
     2  N   -0.020641
     3  C    0.208828
     4  N   -0.293109
     5  C    0.108287
     6  N   -0.058560
     7  C    0.054283
     8  C    0.286719
     9  N   -0.366911
 Electronic spatial extent (au):  <R**2>=           2580.9272
 Charge=             -0.0000 electrons
 Dipole moment (field-independent basis, Debye):
    X=              6.6028    Y=              2.8843    Z=              0.8590  Tot=              7.2563
 Quadrupole moment (field-independent basis, Debye-Ang):
   XX=            -63.2263   YY=            -52.0894   ZZ=            -54.0786
   XY=            -10.3941   XZ=             -1.7540   YZ=             -1.5047
 Traceless Quadrupole moment (field-independent basis, Debye-Ang):
   XX=             -6.7615   YY=              4.3754   ZZ=              2.3861
   XY=            -10.3941   XZ=             -1.7540   YZ=             -1.5047
 Octapole moment (field-independent basis, Debye-Ang**2):
  XXX=            229.2515  YYY=             -3.9651  ZZZ=              0.7483  XYY=             16.1202
  XXY=             27.7025  XXZ=              1.5007  XZZ=              0.2856  YZZ=              1.5066
  YYZ=             -0.0834  XYZ=              3.0062
 Hexadecapole moment (field-independent basis, Debye-Ang**3):
 XXXX=          -3735.9136 YYYY=           -166.1985 ZZZZ=            -73.8281 XXXY=           -243.5405
 XXXZ=            -10.0038 YYYX=            -31.7287 YYYZ=             -2.3923 ZZZX=             -1.2088
 ZZZY=             -2.0077 XXYY=           -557.6734 XXZZ=           -550.9576 YYZZ=            -39.4366
 XXYZ=             -3.9797 YYXZ=             -1.5433 ZZXY=             -1.1297
 N-N= 3.929849857765D+02 E-N=-1.751861019606D+03  KE= 4.118207523358D+02
 PrsmSu:  requested number of processors reduced to:  13 ShMem   1 Linda.
 Calling FoFJK, ICntrl=      2127 FMM=F ISym2X=0 I1Cent= 0 IOpClX= 0 NMat=1 NMatS=1 NMatT=0.
 ***** Axes restored to original set *****
 -------------------------------------------------------------------
 Center     Atomic                   Forces (Hartrees/Bohr)
 Number     Number              X              Y              Z
 -------------------------------------------------------------------
      1        6          -0.002468976   -0.000191765   -0.004344863
      2        7           0.012491693   -0.000225100    0.012818451
      3        6           0.010064120   -0.000882092   -0.000623094
      4        7          -0.012438486    0.000174075   -0.003687589
      5        6          -0.001582526   -0.001310064    0.010086510
      6        7           0.009666037    0.007528721    0.002078311
      7        6           0.013403410   -0.005896266    0.018312869
      8        6           0.149437850    0.000246319    0.028817575
      9        7          -0.178145307    0.000360363   -0.033519064
     10        1           0.003128748    0.000105887   -0.002434739
     11        1          -0.003721639   -0.000641457   -0.000630001
     12        1          -0.003424303    0.000898374   -0.000648667
     13        1          -0.000843520   -0.000189651   -0.006753703
     14        1           0.000157224    0.000411060    0.003110617
     15        1           0.003049810    0.001656160   -0.004506085
     16        1          -0.005415679   -0.003603311   -0.007753031
     17        1           0.001918063    0.003562540   -0.001751847
     18        1           0.000377128   -0.000020783    0.000368820
     19        1           0.004346353   -0.001983011   -0.008940471
 -------------------------------------------------------------------
 Cartesian Forces:  Max     0.178145307 RMS     0.031845238

 GradGradGradGradGradGradGradGradGradGradGradGradGradGradGradGradGradGrad
 Berny optimization.
 FormGI is forming the generalized inverse of G from B-inverse, IUseBI=4.
 Internal  Forces:  Max     0.181270079 RMS     0.021587414
 Search for a local minimum.
 Step number   1 out of a maximum of   85
 All quantities printed in internal units (Hartrees-Bohrs-Radians)
 Mixed Optimization -- RFO/linear search
 Second derivative matrix not updated -- first step.
 ITU=  0
     Eigenvalues ---    0.00765   0.00909   0.00970   0.01172   0.01585
     Eigenvalues ---    0.02222   0.02585   0.02777   0.03186   0.03531
     Eigenvalues ---    0.03531   0.06591   0.07249   0.07436   0.07581
     Eigenvalues ---    0.07597   0.07717   0.11154   0.11206   0.13808
     Eigenvalues ---    0.15998   0.16000   0.16000   0.16000   0.16000
     Eigenvalues ---    0.16000   0.16000   0.22000   0.22001   0.22071
     Eigenvalues ---    0.22419   0.23398   0.25000   0.30366   0.33160
     Eigenvalues ---    0.34039   0.34102   0.34149   0.34159   0.34159
     Eigenvalues ---    0.34320   0.34321   0.35735   0.37064   0.37657
     Eigenvalues ---    0.39682   0.44520   0.45160   0.52960   0.70921
     Eigenvalues ---    0.79315
 RFO step:  Lambda=-4.59572507D-02 EMin= 7.65252676D-03
 Linear search not attempted -- first point.
 Iteration  1 RMS(Cart)=  0.04994462 RMS(Int)=  0.00198105
 Iteration  2 RMS(Cart)=  0.00215722 RMS(Int)=  0.00011211
 Iteration  3 RMS(Cart)=  0.00000230 RMS(Int)=  0.00011210
 Iteration  4 RMS(Cart)=  0.00000000 RMS(Int)=  0.00011210
 Variable       Old X    -DE/DX   Delta X   Delta X   Delta X     New X
                                 (Linear)    (Quad)   (Total)
    R1        2.71987   0.00618   0.00000   0.01395   0.01395   2.73383
    R2        2.07062  -0.00329   0.00000  -0.00848  -0.00848   2.06214
    R3        2.06793   0.00222   0.00000   0.00570   0.00570   2.07363
    R4        2.06791   0.00229   0.00000   0.00588   0.00588   2.07379
    R5        2.56991  -0.00454   0.00000  -0.00789  -0.00789   2.56202
    R6        1.91791  -0.00627   0.00000  -0.01260  -0.01260   1.90530
    R7        2.43218  -0.01540   0.00000  -0.02039  -0.02039   2.41178
    R8        2.08772  -0.00269   0.00000  -0.00713  -0.00713   2.08059
    R9        2.75750  -0.00415   0.00000  -0.00996  -0.00996   2.74755
   R10        2.74867   0.00179   0.00000   0.00425   0.00425   2.75292
   R11        2.07158   0.00272   0.00000   0.00702   0.00702   2.07861
   R12        2.07264   0.00853   0.00000   0.02207   0.02207   2.09471
   R13        2.77798  -0.00997   0.00000  -0.02473  -0.02473   2.75325
   R14        1.92537  -0.00339   0.00000  -0.00690  -0.00690   1.91846
   R15        2.87239  -0.02909   0.00000  -0.08319  -0.08319   2.78920
   R16        2.07062  -0.00029   0.00000  -0.00075  -0.00075   2.06987
   R17        2.07079   0.00565   0.00000   0.01458   0.01458   2.08537
   R18        2.38287  -0.18127   0.00000  -0.21603  -0.21603   2.16684
    A1        1.92348  -0.00490   0.00000  -0.02569  -0.02556   1.89792
    A2        1.93553   0.00452   0.00000   0.02309   0.02298   1.95851
    A3        1.93993   0.00388   0.00000   0.01967   0.01954   1.95947
    A4        1.88058  -0.00035   0.00000  -0.00324  -0.00310   1.87748
    A5        1.88156  -0.00023   0.00000  -0.00326  -0.00315   1.87841
    A6        1.90093  -0.00319   0.00000  -0.01191  -0.01224   1.88869
    A7        2.20422  -0.00660   0.00000  -0.02482  -0.02482   2.17941
    A8        2.05477   0.00582   0.00000   0.02465   0.02465   2.07942
    A9        2.02402   0.00078   0.00000   0.00017   0.00017   2.02419
   A10        2.14588  -0.00157   0.00000  -0.00590  -0.00591   2.13997
   A11        1.98122  -0.00081   0.00000  -0.00480  -0.00480   1.97642
   A12        2.15607   0.00238   0.00000   0.01071   0.01071   2.16679
   A13        2.01595   0.00445   0.00000   0.01503   0.01503   2.03099
   A14        1.89320  -0.00451   0.00000  -0.01450  -0.01454   1.87866
   A15        1.92452   0.00545   0.00000   0.02631   0.02608   1.95061
   A16        1.91454   0.00063   0.00000   0.00703   0.00700   1.92154
   A17        1.91149  -0.00453   0.00000  -0.03062  -0.03048   1.88101
   A18        1.91907   0.00579   0.00000   0.03087   0.03097   1.95004
   A19        1.90106  -0.00276   0.00000  -0.01876  -0.01863   1.88243
   A20        1.98323  -0.00765   0.00000  -0.02780  -0.02781   1.95542
   A21        1.87378   0.00451   0.00000   0.02036   0.02021   1.89399
   A22        1.93272   0.00002   0.00000  -0.00722  -0.00708   1.92564
   A23        1.94372  -0.00311   0.00000  -0.01292  -0.01312   1.93060
   A24        1.91561  -0.00209   0.00000  -0.01278  -0.01301   1.90260
   A25        1.92780   0.01317   0.00000   0.06710   0.06696   1.99476
   A26        1.88946  -0.00012   0.00000  -0.00951  -0.00979   1.87967
   A27        1.89413  -0.00427   0.00000  -0.01865  -0.01877   1.87537
   A28        1.89192  -0.00390   0.00000  -0.01490  -0.01505   1.87687
   A29        3.14159   0.00029   0.00000   0.00354   0.00354   3.14513
   A30        3.14160  -0.00136   0.00000  -0.01673  -0.01673   3.12487
    D1       -3.13531   0.00009   0.00000   0.00055   0.00054  -3.13478
    D2       -0.01483   0.00011   0.00000   0.00116   0.00115  -0.01368
    D3        1.06698   0.00080   0.00000   0.00644   0.00662   1.07361
    D4       -2.09572   0.00082   0.00000   0.00706   0.00724  -2.08848
    D5       -1.05039  -0.00090   0.00000  -0.00767  -0.00784  -1.05823
    D6        2.07009  -0.00088   0.00000  -0.00706  -0.00723   2.06286
    D7       -3.12842  -0.00027   0.00000  -0.00399  -0.00399  -3.13241
    D8        0.00833  -0.00006   0.00000  -0.00102  -0.00102   0.00731
    D9        0.03396  -0.00034   0.00000  -0.00486  -0.00486   0.02910
   D10       -3.11248  -0.00013   0.00000  -0.00189  -0.00189  -3.11437
   D11       -3.12527  -0.00088   0.00000  -0.01116  -0.01115  -3.13641
   D12        0.02165  -0.00111   0.00000  -0.01438  -0.01439   0.00726
   D13        3.10540  -0.00353   0.00000  -0.02628  -0.02640   3.07901
   D14        1.01228   0.00154   0.00000   0.00438   0.00456   1.01684
   D15       -1.08137   0.00115   0.00000   0.00665   0.00659  -1.07478
   D16        3.10724  -0.00155   0.00000  -0.01582  -0.01601   3.09122
   D17        0.96398   0.00018   0.00000  -0.00316  -0.00318   0.96079
   D18       -1.07471  -0.00036   0.00000  -0.01084  -0.01073  -1.08544
   D19        3.06522   0.00137   0.00000   0.00183   0.00210   3.06732
   D20        1.01364  -0.00299   0.00000  -0.03388  -0.03405   0.97960
   D21       -1.12962  -0.00127   0.00000  -0.02122  -0.02122  -1.15083
   D22       -3.12783  -0.00179   0.00000  -0.01279  -0.01281  -3.14063
   D23        1.06330   0.00172   0.00000   0.01575   0.01561   1.07891
   D24       -1.02177  -0.00035   0.00000   0.00041   0.00031  -1.02145
   D25       -1.01732  -0.00130   0.00000  -0.01123  -0.01107  -1.02839
   D26       -3.10937   0.00220   0.00000   0.01731   0.01734  -3.09203
   D27        1.08874   0.00014   0.00000   0.00197   0.00205   1.09079
         Item               Value     Threshold  Converged?
 Maximum Force            0.181270     0.000450     NO 
 RMS     Force            0.021587     0.000300     NO 
 Maximum Displacement     0.318463     0.001800     NO 
 RMS     Displacement     0.051267     0.001200     NO 
 Predicted change in Energy=-2.467772D-02
 GradGradGradGradGradGradGradGradGradGradGradGradGradGradGradGradGradGrad

                          Input orientation:                          
 ---------------------------------------------------------------------
 Center     Atomic      Atomic             Coordinates (Angstroms)
 Number     Number       Type             X           Y           Z
 ---------------------------------------------------------------------
      1          6           0        1.169511   -0.011465   -0.000809
      2          7           0        2.615330   -0.039892   -0.041770
      3          6           0        3.359781    0.007552   -1.173865
      4          7           0        4.635412   -0.030197   -1.160329
      5          6           0        5.297135    0.036204   -2.453252
      6          7           0        6.733653    0.065864   -2.212933
      7          6           0        7.495786    0.064974   -3.454654
      8          6           0        8.944758    0.094017   -3.175100
      9          7           0       10.072377    0.104556   -2.967355
     10          1           0        0.847300   -0.055771    1.040833
     11          1           0        0.722795   -0.867298   -0.522443
     12          1           0        0.759127    0.908236   -0.436733
     13          1           0        3.130331   -0.081132    0.824040
     14          1           0        2.753288    0.079031   -2.089977
     15          1           0        5.029505    0.951268   -3.001819
     16          1           0        5.003176   -0.831988   -3.076584
     17          1           0        6.982365   -0.738618   -1.645837
     18          1           0        7.248701    0.966477   -4.025606
     19          1           0        7.301739   -0.804598   -4.105786
 ---------------------------------------------------------------------
                    Distance matrix (angstroms):
                    1          2          3          4          5
     1  C    0.000000
     2  N    1.446678   0.000000
     3  C    2.484694   1.355764   0.000000
     4  N    3.654764   2.309112   1.276260   0.000000
     5  C    4.801461   3.607369   2.321851   1.453939   0.000000
     6  N    5.988251   4.656792   3.530733   2.349430   1.456783
     7  C    7.208096   5.956310   4.723540   3.668069   2.416134
     8  C    8.398911   7.063805   5.933328   4.758697   3.718811
     9  N    9.384822   8.011708   6.948738   5.730977   4.803323
    10  H    1.091238   2.073213   3.349844   4.381273   5.658456
    11  H    1.097318   2.120692   2.853665   4.051691   5.046674
    12  H    1.097404   2.121422   2.849210   4.053373   5.041855
    13  H    2.128390   1.008244   2.012992   2.491101   3.930579
    14  H    2.623197   2.056290   1.101003   2.102039   2.570012
    15  H    4.983219   3.946204   2.649527   2.123598   1.099951
    16  H    4.983035   3.941995   2.650644   2.109539   1.108473
    17  H    6.084746   4.704492   3.728624   2.499154   2.022936
    18  H    7.356080   6.192887   4.916876   4.004055   2.673259
    19  H    7.421867   6.250074   4.979436   4.047804   2.730614
                    6          7          8          9         10
     6  N    0.000000
     7  C    1.456956   0.000000
     8  C    2.411543   1.475979   0.000000
     9  N    3.423117   2.622565   1.146645   0.000000
    10  H    6.726882   8.026603   9.130462  10.059489   0.000000
    11  H    6.313395   7.439113   8.692605   9.712712   1.765761
    12  H    6.289630   7.429772   8.669842   9.684347   1.766433
    13  H    4.714737   6.114391   7.059132   7.912089   2.293441
    14  H    3.982286   4.934960   6.285858   7.371534   3.667824
    15  H    2.076150   2.659533   4.011746   5.113576   5.903219
    16  H    2.132271   2.675927   4.050093   5.156146   5.901436
    17  H    1.015208   2.044794   2.623530   3.464899   6.732273
    18  H    2.088579   1.095328   2.088338   3.136231   8.227499
    19  H    2.159472   1.103532   2.091219   3.130339   8.289042
                   11         12         13         14         15
    11  H    0.000000
    12  H    1.777973   0.000000
    13  H    2.868328   2.861994   0.000000
    14  H    2.734155   2.719830   2.942671   0.000000
    15  H    5.291714   4.981731   4.394304   2.602579   0.000000
    16  H    4.984631   5.292367   4.391606   2.620181   1.785017
    17  H    6.360879   6.550019   4.622850   4.330231   2.916858
    18  H    7.630356   7.416062   6.448064   4.974230   2.444014
    19  H    7.491780   7.694253   6.498249   5.052989   3.076501
                   16         17         18         19
    16  H    0.000000
    17  H    2.443961   0.000000
    18  H    3.029439   2.939657   0.000000
    19  H    2.518610   2.481472   1.773682   0.000000
 Stoichiometry    C5H10N4
 Framework group  C1[X(C5H10N4)]
 Deg. of freedom    51
 Full point group                 C1      NOp   1
 Largest Abelian subgroup         C1      NOp   1
 Largest concise Abelian subgroup C1      NOp   1
                         Standard orientation:                         
 ---------------------------------------------------------------------
 Center     Atomic      Atomic             Coordinates (Angstroms)
 Number     Number       Type             X           Y           Z
 ---------------------------------------------------------------------
      1          6           0        4.582929   -0.018619   -0.028317
      2          7           0        3.236876   -0.548323   -0.007509
      3          6           0        2.108235    0.202849   -0.004940
      4          7           0        0.940230   -0.310752    0.023662
      5          6           0       -0.175468    0.621499    0.015642
      6          7           0       -1.403641   -0.160313   -0.035143
      7          6           0       -2.590828    0.682400    0.020900
      8          6           0       -3.815099   -0.140372   -0.031253
      9          7           0       -4.771535   -0.772224   -0.059316
     10          1           0        5.287604   -0.851817   -0.032430
     11          1           0        4.800891    0.595234    0.854737
     12          1           0        4.778104    0.586052   -0.923066
     13          1           0        3.102332   -1.547540   -0.011703
     14          1           0        2.306893    1.285537   -0.027905
     15          1           0       -0.155670    1.273581   -0.869959
     16          1           0       -0.137705    1.268425    0.914960
     17          1           0       -1.400206   -0.816798    0.739236
     18          1           0       -2.598520    1.346371   -0.850207
     19          1           0       -2.655861    1.315696    0.922283
 ---------------------------------------------------------------------
 Rotational constants (GHZ):          11.6203384           0.4297638           0.4181616
 Standard basis: 6-31G(2df,p) (6D, 7F)
 There are   329 symmetry adapted cartesian basis functions of A   symmetry.
 There are   302 symmetry adapted basis functions of A   symmetry.
   302 basis functions,   466 primitive gaussians,   329 cartesian basis functions
    34 alpha electrons       34 beta electrons
       nuclear repulsion energy       398.2120243211 Hartrees.
 NAtoms=   19 NActive=   19 NUniq=   19 SFac= 1.00D+00 NAtFMM=   60 NAOKFM=F Big=F
 Integral buffers will be    131072 words long.
 Raffenetti 2 integral format.
 Two-electron integral symmetry is turned on.
 One-electron integrals computed using PRISM.
 PrsmSu:  requested number of processors reduced to:  13 ShMem   1 Linda.
 NBasis=   302 RedAO= T EigKep=  1.50D-04  NBF=   302
 NBsUse=   302 1.00D-06 EigRej= -1.00D+00 NBFU=   302
 Initial guess from the checkpoint file:  "CNCdNCNCCtN.chk"
 B after Tr=     0.000000   -0.000000   -0.000000
         Rot=    0.999995    0.002804    0.000103   -0.001238 Ang=   0.35 deg.
 ExpMin= 1.61D-01 ExpMax= 4.17D+03 ExpMxC= 6.27D+02 IAcc=2 IRadAn=         4 AccDes= 0.00D+00
 Harris functional with IExCor=  402 and IRadAn=       4 diagonalized for initial guess.
 HarFok:  IExCor=  402 AccDes= 0.00D+00 IRadAn=         4 IDoV= 1 UseB2=F ITyADJ=14
 ICtDFT=  3500011 ScaDFX=  1.000000  1.000000  1.000000  1.000000
 FoFCou: FMM=F IPFlag=           0 FMFlag=      100000 FMFlg1=           0
         NFxFlg=           0 DoJE=T BraDBF=F KetDBF=T FulRan=T
         wScrn=  0.000000 ICntrl=       500 IOpCl=  0 I1Cent=   200000004 NGrid=           0
         NMat0=    1 NMatS0=      1 NMatT0=    0 NMatD0=    1 NMtDS0=    0 NMtDT0=    0
 Petite list used in FoFCou.
 Requested convergence on RMS density matrix=1.00D-08 within 128 cycles.
 Requested convergence on MAX density matrix=1.00D-06.
 Requested convergence on             energy=1.00D-06.
 No special actions if energy rises.
 Integral accuracy reduced to 1.0D-05 until final iterations.
 Initial convergence to 1.0D-05 achieved.  Increase integral accuracy.
 SCF Done:  E(RB3LYP) =  -415.535473266     A.U. after   12 cycles
            NFock= 12  Conv=0.78D-08     -V/T= 2.0075
 PrsmSu:  requested number of processors reduced to:  13 ShMem   1 Linda.
 Calling FoFJK, ICntrl=      2127 FMM=F ISym2X=0 I1Cent= 0 IOpClX= 0 NMat=1 NMatS=1 NMatT=0.
 ***** Axes restored to original set *****
 -------------------------------------------------------------------
 Center     Atomic                   Forces (Hartrees/Bohr)
 Number     Number              X              Y              Z
 -------------------------------------------------------------------
      1        6           0.000227484    0.000120978   -0.001332874
      2        7          -0.000731523   -0.000225146    0.004309289
      3        6           0.002635797   -0.000298245   -0.000795170
      4        7          -0.002007146    0.000008420   -0.004965600
      5        6          -0.001232020   -0.001803818    0.009172350
      6        7           0.000961341    0.001954545   -0.004016731
      7        6           0.007286042   -0.001596436    0.006514679
      8        6          -0.024747780    0.000253618   -0.005085605
      9        7           0.020020561   -0.000177294    0.003671825
     10        1           0.000046645    0.000036557    0.000117172
     11        1          -0.000040038   -0.000084318   -0.000071557
     12        1          -0.000046222    0.000122559   -0.000051138
     13        1          -0.000206426   -0.000237251   -0.000846644
     14        1          -0.000421819    0.000306352    0.000499624
     15        1           0.000559680    0.000470527   -0.001843856
     16        1          -0.000465254    0.000344515   -0.002633512
     17        1           0.000183171    0.000743889    0.001035029
     18        1          -0.001215813    0.000087252   -0.001238906
     19        1          -0.000806680   -0.000026703   -0.002438377
 -------------------------------------------------------------------
 Cartesian Forces:  Max     0.024747780 RMS     0.004851835

 GradGradGradGradGradGradGradGradGradGradGradGradGradGradGradGradGradGrad
 Berny optimization.
 Using GEDIIS/GDIIS optimizer.
 FormGI is forming the generalized inverse of G from B-inverse, IUseBI=4.
 Internal  Forces:  Max     0.020351993 RMS     0.002622242
 Search for a local minimum.
 Step number   2 out of a maximum of   85
 All quantities printed in internal units (Hartrees-Bohrs-Radians)
 Mixed Optimization -- RFO/linear search
 Update second derivatives using D2CorX and points    1    2
 DE= -2.42D-02 DEPred=-2.47D-02 R= 9.79D-01
 TightC=F SS=  1.41D+00  RLast= 2.72D-01 DXNew= 5.0454D-01 8.1537D-01
 Trust test= 9.79D-01 RLast= 2.72D-01 DXMaxT set to 5.05D-01
 ITU=  1  0
 Use linear search instead of GDIIS.
     Eigenvalues ---    0.00765   0.00909   0.00970   0.01172   0.01578
     Eigenvalues ---    0.02222   0.02589   0.02877   0.03186   0.03531
     Eigenvalues ---    0.03532   0.06617   0.07045   0.07223   0.07617
     Eigenvalues ---    0.07634   0.07675   0.10995   0.11021   0.13760
     Eigenvalues ---    0.15986   0.15998   0.16000   0.16000   0.16000
     Eigenvalues ---    0.16000   0.16062   0.21945   0.22001   0.22046
     Eigenvalues ---    0.22310   0.23438   0.24933   0.30052   0.33159
     Eigenvalues ---    0.33999   0.34094   0.34132   0.34158   0.34167
     Eigenvalues ---    0.34320   0.34322   0.35718   0.37030   0.37649
     Eigenvalues ---    0.39691   0.44522   0.45144   0.52983   0.70823
     Eigenvalues ---    0.92889
 RFO step:  Lambda=-1.30883682D-03 EMin= 7.65242161D-03
 Quartic linear search produced a step of -0.05088.
 Iteration  1 RMS(Cart)=  0.04995789 RMS(Int)=  0.00133240
 Iteration  2 RMS(Cart)=  0.00217013 RMS(Int)=  0.00003866
 Iteration  3 RMS(Cart)=  0.00000301 RMS(Int)=  0.00003865
 Iteration  4 RMS(Cart)=  0.00000000 RMS(Int)=  0.00003865
 Variable       Old X    -DE/DX   Delta X   Delta X   Delta X     New X
                                 (Linear)    (Quad)   (Total)
    R1        2.73383  -0.00022  -0.00071   0.00083   0.00012   2.73394
    R2        2.06214   0.00010   0.00043  -0.00060  -0.00017   2.06197
    R3        2.07363   0.00012  -0.00029   0.00090   0.00061   2.07425
    R4        2.07379   0.00014  -0.00030   0.00099   0.00069   2.07448
    R5        2.56202   0.00220   0.00040   0.00323   0.00363   2.56565
    R6        1.90530  -0.00082   0.00064  -0.00289  -0.00225   1.90305
    R7        2.41178  -0.00149   0.00104  -0.00365  -0.00261   2.40917
    R8        2.08059  -0.00016   0.00036  -0.00121  -0.00084   2.07975
    R9        2.74755  -0.00253   0.00051  -0.00745  -0.00694   2.74061
   R10        2.75292   0.00143  -0.00022   0.00400   0.00378   2.75671
   R11        2.07861   0.00117  -0.00036   0.00398   0.00362   2.08223
   R12        2.09471   0.00133  -0.00112   0.00598   0.00485   2.09956
   R13        2.75325  -0.00093   0.00126  -0.00496  -0.00370   2.74955
   R14        1.91846   0.00003   0.00035  -0.00057  -0.00022   1.91824
   R15        2.78920  -0.00491   0.00423  -0.02425  -0.02001   2.76918
   R16        2.06987   0.00099   0.00004   0.00267   0.00271   2.07257
   R17        2.08537   0.00160  -0.00074   0.00593   0.00519   2.09056
   R18        2.16684   0.02035   0.01099   0.00716   0.01815   2.18499
    A1        1.89792  -0.00011   0.00130  -0.00504  -0.00374   1.89418
    A2        1.95851   0.00002  -0.00117   0.00391   0.00275   1.96125
    A3        1.95947   0.00000  -0.00099   0.00312   0.00213   1.96159
    A4        1.87748   0.00007   0.00016  -0.00042  -0.00027   1.87721
    A5        1.87841   0.00003   0.00016  -0.00104  -0.00089   1.87752
    A6        1.88869   0.00001   0.00062  -0.00084  -0.00020   1.88849
    A7        2.17941  -0.00219   0.00126  -0.01251  -0.01125   2.16816
    A8        2.07942   0.00134  -0.00125   0.00950   0.00825   2.08767
    A9        2.02419   0.00086  -0.00001   0.00304   0.00303   2.02722
   A10        2.13997   0.00066   0.00030   0.00209   0.00238   2.14235
   A11        1.97642  -0.00098   0.00024  -0.00602  -0.00578   1.97064
   A12        2.16679   0.00032  -0.00055   0.00394   0.00339   2.17018
   A13        2.03099   0.00405  -0.00076   0.01708   0.01631   2.04730
   A14        1.87866   0.00155   0.00074   0.00863   0.00931   1.88797
   A15        1.95061   0.00107  -0.00133   0.01459   0.01332   1.96393
   A16        1.92154  -0.00003  -0.00036   0.00831   0.00786   1.92940
   A17        1.88101  -0.00174   0.00155  -0.01915  -0.01765   1.86336
   A18        1.95004   0.00017  -0.00158   0.00761   0.00591   1.95594
   A19        1.88243  -0.00103   0.00095  -0.02004  -0.01916   1.86326
   A20        1.95542   0.00067   0.00141  -0.00041   0.00101   1.95643
   A21        1.89399  -0.00003  -0.00103   0.00449   0.00347   1.89746
   A22        1.92564  -0.00027   0.00036  -0.00274  -0.00239   1.92325
   A23        1.93060   0.00124   0.00067   0.00610   0.00669   1.93730
   A24        1.90260  -0.00063   0.00066  -0.00869  -0.00799   1.89461
   A25        1.99476   0.00119  -0.00341   0.01742   0.01395   2.00871
   A26        1.87967   0.00018   0.00050   0.00077   0.00130   1.88097
   A27        1.87537  -0.00044   0.00095   0.00155   0.00236   1.87773
   A28        1.87687  -0.00166   0.00077  -0.01843  -0.01762   1.85925
   A29        3.14513  -0.00029  -0.00018  -0.00581  -0.00599   3.13914
   A30        3.12487  -0.00057   0.00085  -0.02227  -0.02142   3.10346
    D1       -3.13478   0.00002  -0.00003   0.00006   0.00003  -3.13475
    D2       -0.01368   0.00003  -0.00006   0.00191   0.00185  -0.01183
    D3        1.07361  -0.00000  -0.00034   0.00148   0.00113   1.07474
    D4       -2.08848   0.00002  -0.00037   0.00333   0.00295  -2.08553
    D5       -1.05823  -0.00002   0.00040  -0.00263  -0.00222  -1.06046
    D6        2.06286  -0.00001   0.00037  -0.00078  -0.00040   2.06246
    D7       -3.13241  -0.00026   0.00020  -0.01246  -0.01225   3.13853
    D8        0.00731  -0.00009   0.00005  -0.00488  -0.00484   0.00247
    D9        0.02910  -0.00029   0.00025  -0.01433  -0.01408   0.01502
   D10       -3.11437  -0.00012   0.00010  -0.00675  -0.00666  -3.12104
   D11       -3.13641  -0.00056   0.00057  -0.02075  -0.02018   3.12660
   D12        0.00726  -0.00075   0.00073  -0.02916  -0.02844  -0.02117
   D13        3.07901  -0.00093   0.00134  -0.05021  -0.04888   3.03013
   D14        1.01684  -0.00039  -0.00023  -0.04058  -0.04086   0.97598
   D15       -1.07478   0.00023  -0.00034  -0.03043  -0.03072  -1.10549
   D16        3.09122  -0.00065   0.00081  -0.07282  -0.07193   3.01929
   D17        0.96079  -0.00072   0.00016  -0.07220  -0.07198   0.88881
   D18       -1.08544   0.00051   0.00055  -0.06134  -0.06086  -1.14630
   D19        3.06732   0.00045  -0.00011  -0.06072  -0.06090   3.00642
   D20        0.97960  -0.00174   0.00173  -0.09341  -0.09167   0.88793
   D21       -1.15083  -0.00181   0.00108  -0.09279  -0.09171  -1.24254
   D22       -3.14063  -0.00021   0.00065   0.00696   0.00755  -3.13308
   D23        1.07891  -0.00078  -0.00079   0.00772   0.00692   1.08584
   D24       -1.02145   0.00101  -0.00002   0.02609   0.02614  -0.99531
   D25       -1.02839   0.00001   0.00056   0.01050   0.01100  -1.01739
   D26       -3.09203  -0.00056  -0.00088   0.01126   0.01037  -3.08166
   D27        1.09079   0.00123  -0.00010   0.02963   0.02959   1.12038
         Item               Value     Threshold  Converged?
 Maximum Force            0.020352     0.000450     NO 
 RMS     Force            0.002622     0.000300     NO 
 Maximum Displacement     0.185277     0.001800     NO 
 RMS     Displacement     0.050036     0.001200     NO 
 Predicted change in Energy=-6.207070D-04
 GradGradGradGradGradGradGradGradGradGradGradGradGradGradGradGradGradGrad

                          Input orientation:                          
 ---------------------------------------------------------------------
 Center     Atomic      Atomic             Coordinates (Angstroms)
 Number     Number       Type             X           Y           Z
 ---------------------------------------------------------------------
      1          6           0        1.169451   -0.009788   -0.000091
      2          7           0        2.614383   -0.071728   -0.037365
      3          6           0        3.353355    0.013800   -1.173107
      4          7           0        4.627055   -0.040961   -1.172895
      5          6           0        5.296708    0.043372   -2.456532
      6          7           0        6.733752    0.115335   -2.216156
      7          6           0        7.499706    0.038451   -3.450830
      8          6           0        8.938646    0.101289   -3.180899
      9          7           0       10.076594    0.117665   -2.976649
     10          1           0        0.845324   -0.096864    1.038158
     11          1           0        0.701567   -0.827920   -0.562733
     12          1           0        0.781430    0.940260   -0.389896
     13          1           0        3.130648   -0.168977    0.821802
     14          1           0        2.737465    0.139210   -2.076531
     15          1           0        5.022367    0.951586   -3.016885
     16          1           0        5.023407   -0.822702   -3.096560
     17          1           0        6.997904   -0.640574   -1.592268
     18          1           0        7.238756    0.899818   -4.077595
     19          1           0        7.313551   -0.864051   -4.062948
 ---------------------------------------------------------------------
                    Distance matrix (angstroms):
                    1          2          3          4          5
     1  C    0.000000
     2  N    1.446740   0.000000
     3  C    2.479105   1.357684   0.000000
     4  N    3.651229   2.311109   1.274877   0.000000
     5  C    4.803247   3.613930   2.329093   1.450266   0.000000
     6  N    5.990663   4.663831   3.539116   2.356054   1.458785
     7  C    7.209858   5.960726   4.730840   3.667072   2.416992
     8  C    8.395849   7.064563   5.935854   4.758375   3.713728
     9  N    9.392196   8.022459   6.961716   5.742487   4.808674
    10  H    1.091147   2.070495   3.345468   4.381024   5.661037
    11  H    1.097643   2.122900   2.848338   4.049823   5.045885
    12  H    1.097770   2.123232   2.843686   4.045333   5.046101
    13  H    2.132403   1.007052   2.015606   2.496886   3.935020
    14  H    2.606237   2.053739   1.100556   2.102278   2.589075
    15  H    4.987007   3.965236   2.657924   2.131131   1.101867
    16  H    5.010183   3.965606   2.681134   2.113930   1.111041
    17  H    6.074849   4.685783   3.726478   2.481196   2.027018
    18  H    7.368167   6.217088   4.931269   4.017876   2.670748
    19  H    7.415291   6.238211   4.980457   4.030774   2.733430
                    6          7          8          9         10
     6  N    0.000000
     7  C    1.454997   0.000000
     8  C    2.406758   1.465388   0.000000
     9  N    3.428257   2.621350   1.156248   0.000000
    10  H    6.731208   8.028083   9.129160  10.068815   0.000000
    11  H    6.325409   7.436827   8.692969   9.726883   1.765775
    12  H    6.280595   7.437594   8.662203   9.683390   1.766082
    13  H    4.721480   6.114497   7.058860   7.921903   2.296675
    14  H    3.998797   4.957598   6.298866   7.394152   3.652015
    15  H    2.066234   2.675693   4.010879   5.122720   5.915260
    16  H    2.140165   2.645590   4.023676   5.141338   5.922762
    17  H    1.015091   2.041356   2.615452   3.459735   6.713345
    18  H    2.082162   1.096759   2.081187   3.142796   8.248653
    19  H    2.169333   1.106279   2.085864   3.127014   8.273319
                   11         12         13         14         15
    11  H    0.000000
    12  H    1.778401   0.000000
    13  H    2.872556   2.866608   0.000000
    14  H    2.715108   2.704163   2.941072   0.000000
    15  H    5.278145   4.988662   4.423774   2.600960   0.000000
    16  H    5.009852   5.331833   4.400392   2.681654   1.776076
    17  H    6.382704   6.526047   4.583209   4.358201   2.909855
    18  H    7.620642   7.436251   6.482512   4.984416   2.457675
    19  H    7.481387   7.708142   6.468430   5.088511   3.104885
                   16         17         18         19
    16  H    0.000000
    17  H    2.488916   0.000000
    18  H    2.972756   2.933883   0.000000
    19  H    2.486035   2.500767   1.765515   0.000000
 Stoichiometry    C5H10N4
 Framework group  C1[X(C5H10N4)]
 Deg. of freedom    51
 Full point group                 C1      NOp   1
 Largest Abelian subgroup         C1      NOp   1
 Largest concise Abelian subgroup C1      NOp   1
                         Standard orientation:                         
 ---------------------------------------------------------------------
 Center     Atomic      Atomic             Coordinates (Angstroms)
 Number     Number       Type             X           Y           Z
 ---------------------------------------------------------------------
      1          6           0        4.583017   -0.018851   -0.037025
      2          7           0        3.240070   -0.554064    0.018623
      3          6           0        2.114044    0.203795   -0.013322
      4          7           0        0.943201   -0.298379    0.034214
      5          6           0       -0.176979    0.622461    0.011354
      6          7           0       -1.405866   -0.158183   -0.080768
      7          6           0       -2.593079    0.672048    0.054354
      8          6           0       -3.811998   -0.136936   -0.030164
      9          7           0       -4.779068   -0.769858   -0.063261
     10          1           0        5.289236   -0.849846   -0.000914
     11          1           0        4.805072    0.641463    0.811207
     12          1           0        4.773261    0.537779   -0.963884
     13          1           0        3.103166   -1.550481    0.069265
     14          1           0        2.324843    1.281300   -0.089285
     15          1           0       -0.157513    1.289161   -0.865711
     16          1           0       -0.163541    1.275246    0.910300
     17          1           0       -1.393310   -0.871813    0.641025
     18          1           0       -2.611262    1.392219   -0.772631
     19          1           0       -2.648340    1.263252    0.987777
 ---------------------------------------------------------------------
 Rotational constants (GHZ):          11.6482373           0.4291300           0.4175900
 Standard basis: 6-31G(2df,p) (6D, 7F)
 There are   329 symmetry adapted cartesian basis functions of A   symmetry.
 There are   302 symmetry adapted basis functions of A   symmetry.
   302 basis functions,   466 primitive gaussians,   329 cartesian basis functions
    34 alpha electrons       34 beta electrons
       nuclear repulsion energy       398.0360539423 Hartrees.
 NAtoms=   19 NActive=   19 NUniq=   19 SFac= 1.00D+00 NAtFMM=   60 NAOKFM=F Big=F
 Integral buffers will be    131072 words long.
 Raffenetti 2 integral format.
 Two-electron integral symmetry is turned on.
 One-electron integrals computed using PRISM.
 PrsmSu:  requested number of processors reduced to:  13 ShMem   1 Linda.
 NBasis=   302 RedAO= T EigKep=  1.53D-04  NBF=   302
 NBsUse=   302 1.00D-06 EigRej= -1.00D+00 NBFU=   302
 Initial guess from the checkpoint file:  "CNCdNCNCCtN.chk"
 B after Tr=     0.000000    0.000000    0.000000
         Rot=    0.999999   -0.001651   -0.000017   -0.000022 Ang=  -0.19 deg.
 ExpMin= 1.61D-01 ExpMax= 4.17D+03 ExpMxC= 6.27D+02 IAcc=2 IRadAn=         4 AccDes= 0.00D+00
 Harris functional with IExCor=  402 and IRadAn=       4 diagonalized for initial guess.
 HarFok:  IExCor=  402 AccDes= 0.00D+00 IRadAn=         4 IDoV= 1 UseB2=F ITyADJ=14
 ICtDFT=  3500011 ScaDFX=  1.000000  1.000000  1.000000  1.000000
 FoFCou: FMM=F IPFlag=           0 FMFlag=      100000 FMFlg1=           0
         NFxFlg=           0 DoJE=T BraDBF=F KetDBF=T FulRan=T
         wScrn=  0.000000 ICntrl=       500 IOpCl=  0 I1Cent=   200000004 NGrid=           0
         NMat0=    1 NMatS0=      1 NMatT0=    0 NMatD0=    1 NMtDS0=    0 NMtDT0=    0
 Petite list used in FoFCou.
 Requested convergence on RMS density matrix=1.00D-08 within 128 cycles.
 Requested convergence on MAX density matrix=1.00D-06.
 Requested convergence on             energy=1.00D-06.
 No special actions if energy rises.
 Integral accuracy reduced to 1.0D-05 until final iterations.
 Initial convergence to 1.0D-05 achieved.  Increase integral accuracy.
 SCF Done:  E(RB3LYP) =  -415.536210873     A.U. after   12 cycles
            NFock= 12  Conv=0.56D-08     -V/T= 2.0076
 PrsmSu:  requested number of processors reduced to:  13 ShMem   1 Linda.
 Calling FoFJK, ICntrl=      2127 FMM=F ISym2X=0 I1Cent= 0 IOpClX= 0 NMat=1 NMatS=1 NMatT=0.
 ***** Axes restored to original set *****
 -------------------------------------------------------------------
 Center     Atomic                   Forces (Hartrees/Bohr)
 Number     Number              X              Y              Z
 -------------------------------------------------------------------
      1        6           0.000016151    0.000231133    0.000140335
      2        7          -0.000372866   -0.000264356    0.000428621
      3        6           0.001560937    0.000816259   -0.000289549
      4        7           0.000575772   -0.000953526   -0.003739906
      5        6          -0.001482099    0.000726794    0.003907872
      6        7           0.000243666   -0.001646637   -0.001619582
      7        6           0.001264795    0.001610059    0.001781261
      8        6           0.003764708   -0.000958299    0.000522095
      9        7          -0.002994923    0.000326721   -0.000536512
     10        1          -0.000389399    0.000007906    0.000168378
     11        1           0.000369789   -0.000005604   -0.000042330
     12        1           0.000310589   -0.000053800   -0.000013121
     13        1          -0.000119050   -0.000155694    0.000168436
     14        1          -0.000127508   -0.000063341   -0.000095413
     15        1          -0.001193394    0.000409910   -0.000564793
     16        1           0.000720038   -0.000180289   -0.000154217
     17        1          -0.000514761    0.000282799    0.001141627
     18        1          -0.000659744    0.000123333   -0.001151314
     19        1          -0.000972701   -0.000253368   -0.000051890
 -------------------------------------------------------------------
 Cartesian Forces:  Max     0.003907872 RMS     0.001197958

 GradGradGradGradGradGradGradGradGradGradGradGradGradGradGradGradGradGrad
 Berny optimization.
 Using GEDIIS/GDIIS optimizer.
 FormGI is forming the generalized inverse of G from B-inverse, IUseBI=4.
 Internal  Forces:  Max     0.003714744 RMS     0.000755295
 Search for a local minimum.
 Step number   3 out of a maximum of   85
 All quantities printed in internal units (Hartrees-Bohrs-Radians)
 Mixed Optimization -- En-DIIS/RFO-DIIS
 Update second derivatives using D2CorX and points    1    2    3
 DE= -7.38D-04 DEPred=-6.21D-04 R= 1.19D+00
 TightC=F SS=  1.41D+00  RLast= 2.16D-01 DXNew= 8.4853D-01 6.4867D-01
 Trust test= 1.19D+00 RLast= 2.16D-01 DXMaxT set to 6.49D-01
 ITU=  1  1  0
 Use linear search instead of GDIIS.
     Eigenvalues ---    0.00592   0.00772   0.00954   0.01172   0.01577
     Eigenvalues ---    0.02204   0.02593   0.02865   0.03124   0.03530
     Eigenvalues ---    0.03599   0.06607   0.06916   0.07206   0.07293
     Eigenvalues ---    0.07691   0.07836   0.11000   0.11135   0.14082
     Eigenvalues ---    0.15889   0.15998   0.16000   0.16000   0.16000
     Eigenvalues ---    0.16008   0.16670   0.21272   0.22003   0.22248
     Eigenvalues ---    0.22334   0.23436   0.24434   0.29878   0.33159
     Eigenvalues ---    0.33711   0.34097   0.34126   0.34160   0.34224
     Eigenvalues ---    0.34321   0.34338   0.35631   0.37140   0.37826
     Eigenvalues ---    0.39706   0.44538   0.45167   0.52861   0.70570
     Eigenvalues ---    1.14527
 RFO step:  Lambda=-4.60673471D-04 EMin= 5.92049585D-03
 Quartic linear search produced a step of  0.14918.
 Iteration  1 RMS(Cart)=  0.06095327 RMS(Int)=  0.00186089
 Iteration  2 RMS(Cart)=  0.00285151 RMS(Int)=  0.00001374
 Iteration  3 RMS(Cart)=  0.00000452 RMS(Int)=  0.00001362
 Iteration  4 RMS(Cart)=  0.00000000 RMS(Int)=  0.00001362
 Variable       Old X    -DE/DX   Delta X   Delta X   Delta X     New X
                                 (Linear)    (Quad)   (Total)
    R1        2.73394  -0.00029   0.00002  -0.00063  -0.00061   2.73333
    R2        2.06197   0.00028  -0.00003   0.00077   0.00074   2.06271
    R3        2.07425  -0.00013   0.00009  -0.00022  -0.00013   2.07411
    R4        2.07448  -0.00015   0.00010  -0.00027  -0.00017   2.07432
    R5        2.56565   0.00083   0.00054   0.00251   0.00305   2.56871
    R6        1.90305   0.00010  -0.00034  -0.00043  -0.00076   1.90229
    R7        2.40917  -0.00123  -0.00039  -0.00285  -0.00324   2.40593
    R8        2.07975   0.00014  -0.00013   0.00020   0.00008   2.07983
    R9        2.74061  -0.00371  -0.00104  -0.01327  -0.01430   2.72630
   R10        2.75671   0.00012   0.00056   0.00127   0.00183   2.75854
   R11        2.08223   0.00092   0.00054   0.00403   0.00458   2.08680
   R12        2.09956   0.00005   0.00072   0.00159   0.00231   2.10187
   R13        2.74955  -0.00031  -0.00055  -0.00219  -0.00275   2.74680
   R14        1.91824   0.00036  -0.00003   0.00078   0.00074   1.91899
   R15        2.76918   0.00073  -0.00299  -0.00295  -0.00594   2.76324
   R16        2.07257   0.00091   0.00040   0.00368   0.00408   2.07666
   R17        2.09056   0.00040   0.00077   0.00272   0.00350   2.09406
   R18        2.18499  -0.00304   0.00271  -0.00309  -0.00038   2.18461
    A1        1.89418   0.00066  -0.00056   0.00429   0.00373   1.89791
    A2        1.96125  -0.00053   0.00041  -0.00325  -0.00285   1.95841
    A3        1.96159  -0.00041   0.00032  -0.00249  -0.00217   1.95942
    A4        1.87721   0.00002  -0.00004   0.00072   0.00068   1.87789
    A5        1.87752  -0.00002  -0.00013   0.00040   0.00027   1.87780
    A6        1.88849   0.00031  -0.00003   0.00060   0.00056   1.88904
    A7        2.16816  -0.00057  -0.00168  -0.00590  -0.00758   2.16058
    A8        2.08767   0.00010   0.00123   0.00242   0.00365   2.09132
    A9        2.02722   0.00047   0.00045   0.00346   0.00391   2.03113
   A10        2.14235   0.00009   0.00035   0.00093   0.00129   2.14364
   A11        1.97064  -0.00010  -0.00086  -0.00202  -0.00289   1.96775
   A12        2.17018   0.00001   0.00051   0.00109   0.00160   2.17178
   A13        2.04730   0.00092   0.00243   0.00812   0.01055   2.05785
   A14        1.88797  -0.00093   0.00139  -0.00319  -0.00182   1.88615
   A15        1.96393   0.00013   0.00199   0.00699   0.00897   1.97289
   A16        1.92940   0.00039   0.00117   0.00048   0.00163   1.93102
   A17        1.86336   0.00124  -0.00263   0.00783   0.00518   1.86853
   A18        1.95594  -0.00058   0.00088  -0.00642  -0.00556   1.95039
   A19        1.86326  -0.00022  -0.00286  -0.00543  -0.00830   1.85497
   A20        1.95643   0.00027   0.00015   0.00201   0.00215   1.95858
   A21        1.89746  -0.00053   0.00052  -0.00197  -0.00147   1.89599
   A22        1.92325   0.00052  -0.00036   0.00706   0.00670   1.92996
   A23        1.93730   0.00078   0.00100   0.00692   0.00788   1.94518
   A24        1.89461   0.00063  -0.00119   0.00318   0.00194   1.89655
   A25        2.00871  -0.00148   0.00208  -0.00865  -0.00659   2.00212
   A26        1.88097   0.00022   0.00019   0.00823   0.00837   1.88933
   A27        1.87773   0.00027   0.00035   0.00218   0.00252   1.88025
   A28        1.85925  -0.00038  -0.00263  -0.01150  -0.01417   1.84508
   A29        3.13914   0.00028  -0.00089   0.00799   0.00710   3.14624
   A30        3.10346   0.00059  -0.00320   0.01371   0.01052   3.11397
    D1       -3.13475   0.00000   0.00000   0.00071   0.00072  -3.13403
    D2       -0.01183  -0.00002   0.00028  -0.00083  -0.00055  -0.01239
    D3        1.07474  -0.00013   0.00017  -0.00101  -0.00083   1.07391
    D4       -2.08553  -0.00016   0.00044  -0.00255  -0.00210  -2.08763
    D5       -1.06046   0.00016  -0.00033   0.00251   0.00217  -1.05829
    D6        2.06246   0.00013  -0.00006   0.00096   0.00090   2.06336
[...]
 861638,0.66298688,-0.00188131,0.00020088,0.00002853,0.00587545,0.01437
 663,-0.01325953,0.20136128,-0.18398206,0.01500545,-0.23069432,0.241882
 55,-0.00185973,0.00436414,-0.00326682,0.05392143,-0.02272052,-0.006941
 53,0.07890018,-0.01777766,-0.10239607,-0.19757561,-0.02796661,0.331733
 44,-0.00106679,0.00140494,0.00162394,0.00607325,0.00645734,-0.00409400
 ,-0.04525710,0.00010347,0.04317931,-0.10411822,0.00073797,0.04007239,0
 .49468674,0.00021403,0.00319522,0.00115709,0.00861848,0.00691390,0.000
 45214,0.01540667,-0.00856013,-0.01462862,-0.02094097,-0.07897092,0.033
 81029,-0.06612947,0.53143679,0.00408162,0.00071046,0.00195835,-0.00769
 827,0.00142352,0.00983408,0.01382587,0.00291945,-0.02899885,0.07658320
 ,0.00779693,-0.18622333,0.01265112,-0.00390029,0.53942185,0.00135500,-
 0.00029386,0.00029964,-0.00274933,0.00021042,0.00300718,0.00345170,-0.
 00355630,-0.00283408,-0.03332931,-0.01236798,0.01016579,-0.14767274,-0
 .07489738,-0.04753429,0.49721995,0.00088950,-0.00032273,0.00008051,-0.
 00240134,-0.00049188,0.00187108,0.00401568,-0.00218237,-0.00274427,-0.
 01431235,0.00062826,0.00688412,-0.02257009,-0.09198728,-0.00916266,0.0
 2899317,0.26058324,-0.00135316,-0.00010198,-0.00073572,0.00292171,-0.0
 0137010,-0.00283803,-0.00224036,0.00492112,0.00062165,0.03850691,0.016
 01255,0.00517105,-0.03409894,-0.01173600,-0.10922012,0.07022080,-0.138
 06144,0.59773974,0.00000838,0.00020480,0.00022010,-0.00006248,0.000539
 94,0.00010867,-0.00038420,-0.00200709,0.00072627,-0.00607790,-0.001280
 27,-0.00020360,-0.02812632,0.00418887,0.02846406,-0.13552774,-0.019598
 98,0.04710679,0.50101105,0.00005201,0.00012196,0.00009800,-0.00008325,
 0.00007834,0.00006893,-0.00076491,0.00009496,0.00010456,-0.00319661,-0
 .00080655,-0.00027266,-0.01724551,-0.00724505,0.01185512,0.02203525,-0
 .06043671,-0.01662145,-0.00368472,0.52150551,0.00058763,-0.00030669,0.
 00006653,-0.00153982,-0.00003735,0.00134348,0.00181379,-0.00026337,-0.
 00056279,-0.00214739,-0.00017975,-0.00008502,0.00407988,-0.00327143,0.
 00441565,0.05225929,0.02395425,-0.16730713,0.04743419,-0.01924590,0.50
 954557,-0.00004748,0.00004410,0.00003030,0.00012586,0.00020299,-0.0000
 9359,-0.00049772,-0.00003410,0.00047125,-0.00016067,-0.00043402,-0.001
 17488,-0.00320551,-0.00073798,0.00501575,-0.03923550,-0.01276693,0.001
 51825,-0.20009854,-0.07277958,-0.04426760,1.19828748,-0.00013101,0.000
 04049,-0.00001039,0.00030761,0.00004524,-0.00030004,-0.00071201,0.0003
 6426,0.00048735,0.00070235,0.00052317,-0.00058658,-0.00126932,-0.00174
 774,0.00014427,-0.00768476,-0.00086751,0.00594565,-0.06998514,-0.11151
 845,-0.02351446,0.55642895,0.39378351,-0.00024660,0.00005539,-0.000072
 36,0.00060612,-0.00005631,-0.00056518,-0.00061767,0.00065677,0.0003068
 4,0.00269475,0.00024773,-0.00001856,-0.00019245,-0.00142606,-0.0053816
 4,0.02666629,0.01356812,0.01024136,-0.04983548,-0.02457799,-0.08373677
 ,0.32750072,0.16888215,0.21035402,0.00022120,-0.00011563,0.00000989,-0
 .00059398,-0.00010895,0.00047112,0.00091743,-0.00034387,-0.00047754,-0
 .00118759,0.00018741,0.00051928,0.00180958,0.00060750,0.00043172,0.002
 37993,-0.00022211,-0.00209914,0.00465701,-0.00697168,-0.00672655,-0.94
 384302,-0.46022601,-0.27405951,0.93952649,0.00014754,-0.00008973,0.000
 00044,-0.00037747,-0.00002121,0.00032628,0.00060638,-0.00030919,-0.000
 30546,-0.00081037,0.00004411,0.00026637,0.00095918,0.00071990,0.000629
 60,-0.00006727,0.00004832,-0.00223147,-0.00804374,0.01557547,-0.003779
 90,-0.45989515,-0.27339681,-0.13864817,0.46813326,0.25770621,0.0000903
 6,-0.00004119,0.00001830,-0.00025884,0.00000947,0.00025561,0.00032153,
 -0.00026649,-0.00019405,-0.00089128,0.00001209,0.00013354,0.00093101,0
 .00051390,0.00156448,-0.00282300,-0.00175935,-0.00224776,-0.00329395,-
 0.00235758,0.01531468,-0.27550414,-0.13942269,-0.11994528,0.27984549,0
 .14210957,0.10293147,-0.18495265,-0.10289951,0.07607994,-0.02386105,-0
 .00464576,0.01930688,-0.00189552,0.00081258,-0.00589642,-0.00172750,-0
 .00005594,0.00176818,0.00046284,0.00077226,-0.00015779,-0.00015806,-0.
 00010415,0.00008837,0.00004982,0.00001210,-0.00011206,0.00001387,0.000
 01387,0.00002538,-0.00004444,-0.00002213,-0.00001146,0.20847034,-0.108
 82533,-0.12914697,0.06211921,0.02243149,0.01250187,-0.01614603,0.00308
 077,-0.00110716,0.00230211,0.00112007,0.00012710,-0.00127803,-0.000152
 51,-0.00059884,-0.00013474,0.00001221,0.00005888,0.00002297,-0.0000023
 4,-0.00001187,0.00001824,-0.00000420,-0.00000556,-0.00000722,0.0000083
 9,0.00001191,0.00000772,0.10820668,0.13633899,0.07753626,0.05667250,-0
 .09281796,0.00666346,0.00228749,-0.00433160,0.00230074,-0.00033931,0.0
 0077388,0.00023823,-0.00024978,-0.00050217,-0.00019149,-0.00011976,0.0
 0022877,0.00010799,0.00005153,-0.00007639,-0.00002985,-0.00000360,0.00
 007476,-0.00000048,-0.00000833,-0.00001804,0.00002253,0.00001377,0.000
 00694,-0.09123749,-0.06057167,0.09715515,-0.07700196,0.03514483,-0.069
 95303,-0.01362742,0.01641935,-0.02258021,0.00189354,0.00157913,-0.0040
 6039,-0.00060402,-0.00060853,0.00095620,0.00011595,0.00026000,0.000011
 43,0.00001088,-0.00004620,0.00000064,-0.00001910,0.00000425,0.00001550
 ,0.00000034,0.00000053,-0.00000081,0.00000366,-0.00000118,0.00000248,0
 .01008775,-0.00927957,0.02031877,0.08606204,0.03668441,-0.09077922,0.0
 8655895,0.01141228,-0.01477339,0.01947307,-0.00213959,0.00045528,0.002
 50129,0.00029649,-0.00003570,-0.00073048,-0.00009239,-0.00006533,-0.00
 000914,0.00001256,0.00000296,-0.00002397,-0.00001218,-0.00000065,0.000
 02136,-0.00000321,-0.00000238,-0.00000240,0.00000769,0.00000156,-0.000
 00074,0.00612135,-0.00681650,0.01436651,-0.04790862,0.10116564,-0.0775
 5878,0.09417031,-0.24133146,0.00225918,-0.00367229,0.00983849,0.002622
 24,-0.00113928,0.00002776,0.00000565,0.00052248,0.00039935,-0.00014354
 ,-0.00013186,-0.00028925,-0.00007835,-0.00004405,0.00009385,-0.0000147
 8,0.00000293,-0.00004132,0.00000007,0.00000950,0.00001563,-0.00001246,
 -0.00001084,-0.00000346,-0.00454811,0.00342858,-0.01002968,0.08139104,
 -0.09986119,0.25725644,-0.07308448,-0.05703091,-0.04955903,0.00073998,
 0.02560728,0.02527870,0.00488611,0.00356405,-0.00297710,-0.00250536,0.
 00060459,0.00122509,0.00009101,-0.00035538,-0.00123504,-0.00034775,-0.
 00023029,0.00037753,-0.00006735,-0.00002850,-0.00011460,0.00000623,0.0
 0003397,0.00007001,-0.00004650,-0.00003390,-0.00003041,-0.00655976,-0.
 01594399,-0.01555372,-0.00299993,-0.00795684,-0.00530022,0.07915733,-0
 .05652683,-0.17456181,-0.10869699,0.01044425,-0.01508411,-0.01644841,-
 0.00411442,-0.00222005,0.00415294,0.00232854,-0.00076116,-0.00168147,-
 0.00055609,-0.00018704,0.00133860,0.00043932,0.00032963,-0.00042718,0.
 00000588,0.00001479,0.00020336,-0.00001882,-0.00004682,-0.00008815,0.0
 0007913,0.00005391,0.00004224,-0.00790963,-0.01222210,-0.01185242,0.00
 352908,0.01083061,0.00858760,0.05231306,0.19391582,-0.04740569,-0.1082
 8035,-0.14752089,0.00604352,-0.00741299,-0.00256433,-0.00172919,-0.001
 61906,0.00142994,0.00132739,0.00016483,-0.00050609,-0.00034425,-0.0001
 8043,0.00045738,0.00018952,0.00017265,-0.00013960,0.00000165,0.0000018
 4,0.00007900,-0.00000617,-0.00002172,-0.00003722,0.00003107,0.00002930
 ,0.00001848,0.00402848,0.01028045,0.00909396,-0.00948308,-0.01978982,-
 0.01636241,0.04718327,0.12633813,0.15643481,-0.00720601,0.00977077,-0.
 02035395,-0.10628541,0.10962435,-0.09849821,0.01296179,-0.01642666,0.0
 1867900,0.00006841,-0.00076000,-0.00243165,-0.00053829,0.00018673,-0.0
 0043040,-0.00019609,-0.00018288,0.00017324,-0.00010974,-0.00003961,-0.
 00000096,0.00000170,0.00000998,0.00004136,-0.00000336,-0.00001075,-0.0
 0003007,0.00024690,-0.00066417,-0.00023457,-0.00366841,0.00328412,0.00
 166723,0.00068615,-0.00007935,0.00036999,0.10540250,0.00503007,-0.0098
 3091,0.01234500,0.10056398,-0.15242048,0.16181381,-0.00276986,-0.00208
 661,0.01040783,0.00195394,-0.00224241,-0.00237571,-0.00090457,-0.00129
 515,-0.00015247,0.00019332,-0.00001409,-0.00000841,-0.00007921,-0.0000
 2269,0.00014172,-0.00003781,-0.00002068,-0.00002682,0.00006419,0.00002
 258,0.00000690,-0.00006308,0.00067037,-0.00026335,0.00141774,-0.000573
 72,-0.00148520,-0.00039351,-0.00027779,0.00048575,-0.10656863,0.164691
 91,0.00444261,-0.00943213,0.01003452,-0.09116325,0.17576189,-0.2632525
 2,-0.01440876,0.01851068,-0.02317809,-0.00273963,-0.00187177,0.0033185
 2,0.00063742,-0.00031381,-0.00014011,-0.00008224,-0.00020544,0.0002540
 1,-0.00001400,-0.00000776,-0.00005156,0.00000651,0.00002075,0.00003660
 ,-0.00003159,-0.00002442,-0.00002507,0.00004415,0.00049786,0.00015777,
 0.00207545,-0.00172214,0.00008710,0.00006812,-0.00067675,0.00005722,0.
 09739661,-0.18246420,0.27431704,0.00064054,-0.00221227,0.00134904,0.00
 679125,-0.00968190,0.01633414,-0.08612403,0.05472164,-0.05666642,-0.01
 394865,0.03176707,-0.01346034,0.00089425,-0.00086289,-0.00764156,-0.00
 013048,-0.00036359,0.00070624,-0.00018450,-0.00000143,-0.00008174,-0.0
 0004895,0.00003183,0.00006718,-0.00000909,-0.00003129,-0.00001889,0.00
 005939,-0.00008454,-0.00000887,-0.00022923,0.00023097,-0.00029538,0.00
 006672,-0.00006866,-0.00024895,-0.00106389,0.00111852,0.00394815,0.091
 79980,0.00021103,-0.00070609,-0.00120714,0.00342470,-0.00202261,0.0088
 3204,0.05187250,-0.14674156,0.10057213,0.02222443,0.00005233,0.0174168
 8,-0.00510038,-0.00284255,-0.00025433,-0.00048056,0.00020229,-0.000060
 74,-0.00017261,0.00002746,-0.00009259,-0.00004876,-0.00000390,0.000038
 57,0.00002367,0.00001220,-0.00001757,-0.00018736,0.00016823,-0.0000154
 8,-0.00045835,0.00056862,-0.00036643,-0.00016273,0.00018670,-0.0001579
 0,0.00137785,0.00324461,0.00197654,-0.07272867,0.14759130,-0.00307635,
 0.00119753,-0.00003916,-0.00774368,0.02051737,-0.02154509,-0.05150818,
 0.09946900,-0.16350408,0.00276050,0.00862232,0.00615041,0.00155335,-0.
 00655144,0.00309820,0.00009174,0.00002739,0.00044381,-0.00016462,0.000
 00095,-0.00010090,-0.00004181,0.00004585,0.00005021,-0.00003139,-0.000
 04735,-0.00002205,0.00024591,-0.00033292,0.00042987,0.00113787,-0.0006
 8123,0.00030938,0.00034583,-0.00031249,-0.00025508,0.00407346,0.002281
 81,-0.00214790,0.05382902,-0.12465115,0.17698471,-0.00002684,0.0000021
 0,-0.00013256,-0.00006322,0.00000991,0.00010796,0.00390816,-0.00513744
 ,0.00442366,0.00646637,-0.00806835,0.01413124,-0.10616825,0.06741409,-
 0.06616514,-0.02062297,0.00923170,-0.02372676,0.00077151,0.00090320,-0
 .00247950,0.00020309,-0.00023770,0.00027083,-0.00002054,0.00000573,0.0
 0002503,-0.00001148,-0.00000311,0.00000033,-0.00002961,0.00002821,0.00
 001892,0.00000677,0.00000536,0.00000371,-0.00014414,0.00023517,-0.0002
 1141,0.00054842,0.00046567,-0.00179706,0.12261863,0.00029184,-0.000174
 85,0.00005355,-0.00126889,0.00020196,0.00029811,0.00226422,0.00077913,
 -0.00418284,-0.00143652,-0.00134337,0.01183524,0.07164861,-0.13319157,
 0.08254246,-0.01194637,0.01084658,-0.01363242,0.00005552,0.00046294,-0
 .00043130,0.00015828,0.00017554,-0.00031603,-0.00001172,-0.00002530,0.
 00007934,-0.00005938,0.00002485,0.00004390,-0.00002525,0.00002987,-0.0
 0000693,-0.00007515,0.00011342,0.00004340,0.00037755,-0.00004363,-0.00
 015844,-0.00156908,0.00043752,0.00026446,-0.07007454,0.13923769,-0.000
 34264,0.00019208,0.00000856,0.00202335,-0.00065107,-0.00045561,-0.0085
 4138,0.00436585,0.00150327,-0.00128660,0.01808863,-0.02920660,-0.06627
 289,0.07769611,-0.13463815,-0.00968228,0.00140788,-0.00707347,0.000160
 34,0.00015226,0.00013004,-0.00004466,-0.00017740,0.00036418,0.00000627
 ,0.00000611,-0.00004140,0.00007969,-0.00004392,-0.00003047,0.00011363,
 -0.00005525,-0.00000455,0.00009770,-0.00015691,-0.00007582,-0.00044314
 ,-0.00013804,0.00050300,0.00194860,-0.00182740,0.00065542,0.07924883,-
 0.09252095,0.15835757,0.00053303,-0.00069495,-0.00011255,-0.00305953,-
 0.00148600,0.00139244,0.00293502,0.00038699,0.00235860,-0.00850224,0.0
 1544331,0.01493028,-0.05743638,0.04380327,0.01481675,-0.00793482,-0.03
 434556,-0.01370287,0.00412242,-0.00235840,-0.00478179,0.00058246,0.000
 38287,-0.00028080,-0.00006864,-0.00003516,0.00008695,-0.00022699,0.000
 11992,0.00008303,-0.00002502,0.00004750,-0.00001315,-0.00008295,0.0002
 2125,0.00008371,-0.00012271,0.00030406,-0.00005987,0.00065836,0.000284
 29,0.00033290,-0.00161554,0.01521924,0.00554079,0.06925694,-0.00008231
 ,-0.00020566,-0.00008910,-0.00057655,-0.00026814,0.00009976,-0.0009476
 5,0.00093201,0.00009486,0.00116980,0.01013105,0.00219544,0.04557169,-0
 .22147963,-0.07935909,-0.01203523,-0.01823844,-0.01054497,0.00196805,0
 .00179646,-0.00210228,0.00003941,0.00060547,0.00026510,0.00003368,-0.0
 0004694,-0.00001199,-0.00001755,0.00002274,0.00001198,-0.00002578,-0.0
 0000446,-0.00000508,0.00003020,0.00000501,-0.00000077,0.00008237,0.000
 14217,0.00004540,-0.00039887,-0.00005305,-0.00006825,0.00625400,-0.017
 09929,-0.00688968,-0.03898688,0.24383639,-0.00039415,0.00092633,0.0001
 1204,0.00357735,0.00089465,-0.00128329,-0.00340239,-0.00059677,-0.0028
 2793,0.01686719,-0.02294540,-0.01936423,0.01518791,-0.07466392,-0.0880
 5620,-0.00447065,-0.01471320,-0.00303880,0.00103998,0.00218033,0.00025
 089,-0.00012308,0.00025202,0.00006143,-0.00001981,-0.00003595,-0.00004
 030,0.00026608,-0.00015772,-0.00009391,0.00006530,-0.00004895,0.000024
 10,0.00005636,-0.00021711,-0.00006707,-0.00009051,-0.00058764,0.000004
 45,0.00025128,-0.00028192,-0.00021137,-0.00507545,0.01670584,0.0090270
 5,-0.02254289,0.09400432,0.10444444,-0.00036821,0.00014796,-0.00000106
 ,0.00101546,0.00023085,-0.00062872,-0.00170272,0.00048153,0.00135855,0
 .00425240,0.00096260,0.00070371,-0.01693903,0.01808347,-0.02920683,-0.
 11404084,0.05699793,-0.12417239,0.00776394,-0.01243314,0.02756748,0.00
 235000,-0.00009458,0.00107069,-0.00062684,0.00003969,-0.00067726,0.000
 05945,-0.00001764,-0.00002270,0.00003062,-0.00001770,0.00000152,0.0000
 6492,-0.00011578,-0.00005317,-0.00005246,-0.00009039,0.00010100,0.0003
 0440,-0.00064187,-0.00005225,-0.00564920,-0.00403438,-0.00159952,0.000
 89792,-0.00027929,0.00029914,0.12543077,-0.00007863,0.00006256,0.00002
 353,0.00022212,-0.00004959,-0.00030097,-0.00025458,0.00001888,0.000564
 43,0.00136329,0.00005479,-0.00124199,-0.01273550,0.00242504,-0.0182321
 2,0.06955066,-0.10565129,0.17522572,0.00351070,-0.00399569,-0.00841536
 ,0.00058127,0.00043890,0.00158532,-0.00012680,-0.00024541,-0.00064732,
 0.00000442,-0.00001317,-0.00001255,0.00000028,-0.00000003,-0.00000148,
 0.00004217,-0.00005832,-0.00004011,0.00002357,0.00009153,0.00005237,0.
 00014762,-0.00009205,0.00022812,-0.00078185,-0.00006838,0.00037482,-0.
 00097087,0.00034539,-0.00039502,-0.05906845,0.10452501,-0.00006579,-0.
 00003051,-0.00005711,0.00006982,0.00003842,-0.00019704,0.00081846,-0.0
 0061127,0.00029464,0.00092199,-0.00014182,0.00095403,-0.00859106,0.005
 04034,-0.00792590,-0.10861656,0.13177662,-0.27434741,-0.00859500,0.014
 11400,-0.02454934,-0.00041093,0.00027132,0.00074834,0.00022418,-0.0000
 6282,0.00002683,-0.00000929,0.00000260,-0.00000113,-0.00001550,0.00000
 953,-0.00000093,0.00003325,-0.00003768,-0.00001330,0.00012137,0.000095
 87,0.00000832,-0.00001960,0.00015442,-0.00025735,0.00005739,-0.0011045
 9,0.00042530,0.00067598,0.00050693,0.00012649,0.12099643,-0.14933945,0
 .30543354,0.00000041,-0.00000442,-0.00000727,-0.00002058,-0.00003137,-
 0.00001629,0.00004949,0.00009321,-0.00007511,-0.00027278,0.00003510,-0
 .00035188,0.00225288,-0.00129545,0.00160368,0.00976168,-0.01143031,0.0
 2310422,-0.08992329,0.05383813,-0.08301653,-0.01801231,0.01328568,-0.0
 2376465,0.00069349,-0.00290866,0.00222278,0.00000019,0.00000176,-0.000
 00254,-0.00000497,0.00000078,0.00000265,0.00000320,-0.00000038,0.00000
 102,0.00000952,-0.00000081,-0.00000799,-0.00002633,0.00008550,0.000036
 34,0.00001150,0.00077554,-0.00069106,-0.00041056,0.00012193,-0.0000801
 5,-0.00307185,-0.00087768,0.00365990,0.10049973,0.00000051,0.00002226,
 0.00001065,0.00003848,0.00000587,-0.00001901,-0.00010477,0.00002008,0.
 00001257,-0.00012428,-0.00005082,-0.00031966,0.00079191,0.00039429,0.0
 0052301,-0.00252817,0.00280338,0.00020319,0.05217080,-0.11254372,0.097
 70414,-0.00711222,0.00949828,-0.01521247,-0.00160194,-0.00233998,0.001
 46099,0.00000444,-0.00000522,-0.00000117,0.00000238,0.00000232,0.00000
 059,0.00000018,-0.00000423,-0.00000633,0.00000052,-0.00000583,0.000003
 80,-0.00000245,-0.00000189,0.00001481,-0.00033477,0.00008518,0.0000308
 3,0.00019857,-0.00046084,0.00006518,-0.00023263,0.00061628,-0.00067284
 ,-0.05538117,0.11855588,-0.00006176,0.00003205,0.00000171,0.00013017,0
 .00005063,-0.00010060,-0.00013085,-0.00004803,0.00010813,0.00042157,-0
 .00024468,0.00047918,-0.00172230,-0.00024780,0.00016954,-0.00560356,0.
 01153308,-0.02996397,-0.07594599,0.09530871,-0.18705834,-0.00949550,0.
 00091988,-0.00815813,0.00174326,0.00054585,0.00138042,0.00000825,-0.00
 000389,-0.00000299,0.00000656,-0.00000041,0.00000377,0.00000780,-0.000
 01668,-0.00001076,-0.00000421,-0.00001561,0.00000319,0.00002131,-0.000
 04472,-0.00003404,0.00101190,0.00018249,0.00033171,0.00026676,0.000250
 55,0.00016826,0.00433591,0.00132807,-0.00180496,0.08185523,-0.10573459
 ,0.21687955,0.00008883,-0.00002733,0.00000157,-0.00013023,-0.00001268,
 0.00017153,0.00040503,-0.00014659,-0.00038355,-0.00039818,-0.00082407,
 -0.00023607,0.00414211,0.00566416,0.00258411,-0.01223350,0.01844681,0.
 01666891,-0.05780297,0.04274242,0.01151078,0.00357872,-0.03085709,-0.0
 1001535,-0.00376482,0.00234528,0.00001367,-0.00001310,-0.00000389,0.00
 001036,0.00000491,0.00000416,-0.00000372,-0.00001434,0.00002408,0.0000
 0716,0.00001351,0.00002688,-0.00000128,0.00000202,0.00001168,0.0000084
 0,-0.00018268,-0.00028953,-0.00031505,0.00049926,-0.00192102,-0.001411
 51,0.00028129,-0.00055175,-0.00125503,-0.00153942,0.01421462,0.0031554
 5,0.06706357,-0.00009663,0.00002500,-0.00000700,0.00019993,0.00007388,
 -0.00017257,-0.00035460,-0.00006587,0.00031715,0.00004822,0.00017211,0
 .00017889,-0.00091929,0.00308610,0.00132140,0.00441100,0.00468875,-0.0
 0751106,0.04222173,-0.24309652,-0.06040269,-0.00358223,-0.01786501,-0.
 00493752,0.00058379,0.00227841,0.00028271,0.00001678,0.00000244,-0.000
 01024,-0.00000409,-0.00000548,0.00000266,0.00001571,-0.00002646,-0.000
 00686,-0.00000575,-0.00002917,0.00000757,-0.00001201,-0.00002757,-0.00
 002476,0.00008262,-0.00044829,0.00014607,0.00246655,0.00003976,-0.0003
 8508,0.00008181,0.00159556,-0.00000907,0.00369262,-0.01659130,-0.00379
 490,-0.04884617,0.26619367,-0.00015859,0.00008109,0.00000035,0.0003771
 6,0.00008757,-0.00033694,-0.00079922,0.00017398,0.00043797,0.00027231,
 0.00035781,0.00017091,-0.00426543,-0.00149845,-0.00027475,0.01871675,-
 0.02463681,-0.01757707,0.01283522,-0.06080069,-0.06772743,-0.00338003,
 -0.01293714,-0.00424545,0.00015318,0.00121910,0.00086861,0.00003130,-0
 .00000360,-0.00001676,-0.00000185,-0.00000500,0.00000719,0.00002646,-0
 .00005061,-0.00001822,-0.00000461,-0.00006127,0.00001352,-0.00001322,-
 0.00001317,-0.00000500,0.00028808,0.00030469,0.00021996,0.00092571,0.0
 0159686,0.00076396,-0.00002053,-0.00075600,0.00113697,-0.00447233,0.02
 193631,0.00760835,-0.02051037,0.07500532,0.07897381\\0.00000161,-0.000
 00528,-0.00000566,0.00000336,0.00001072,0.00000846,-0.00000104,-0.0000
 0670,-0.00000185,0.00000243,0.00000238,0.00000137,-0.00000731,0.000001
 11,-0.00000149,0.00001052,0.00000226,-0.00000103,-0.00000736,-0.000003
 54,0.00000501,-0.00000318,0.00000703,-0.00000181,0.00000487,-0.0000006
 1,0.00000054,0.00000050,0.00000107,0.00000039,-0.00000342,0.00000337,-
 0.00000047,0.00000031,0.00000078,0.00000051,0.00000023,-0.00000637,-0.
 00000422,0.00000008,-0.00000036,-0.00000152,-0.00000019,-0.00000041,0.
 00000079,-0.00000123,0.00000022,0.00000224,-0.00000288,-0.00000259,0.0
 0000105,0.00000021,-0.00000243,-0.00000123,0.00000248,-0.00000066,-0.0
 0000109\\\@


 IF GOD HAD MEANT MAN TO SEE THE SUN RISE, HE
 WOULD HAVE SCHEDULED IT FOR A LATER HOUR.
 Job cpu time:       0 days  1 hours 54 minutes  3.4 seconds.
 Elapsed time:       0 days  0 hours 28 minutes 45.6 seconds.
 File lengths (MBytes):  RWF=    137 Int=      0 D2E=      0 Chk=      8 Scr=      1
 Normal termination of Gaussian 16 at Tue Jun  1 09:47:38 2021.
### All Done ###
