### Starting Gaussian ###
 Entering Gaussian System, Link 0=g16
 Initial command:
 /cluster/software/gaussian/gaussian-16-A.03/avx2/g16/l1.exe "/local/scratch/linjian/Gau-22967.inp" -scrdir="/local/scratch/linjian/"
 Entering Link 1 = /cluster/software/gaussian/gaussian-16-A.03/avx2/g16/l1.exe PID=     22968.
  
 Copyright (c) 1988,1990,1992,1993,1995,1998,2003,2009,2016,
            Gaussian, Inc.  All Rights Reserved.
  
 This is part of the Gaussian(R) 16 program.  It is based on
 the Gaussian(R) 09 system (copyright 2009, Gaussian, Inc.),
 the Gaussian(R) 03 system (copyright 2003, Gaussian, Inc.),
 the Gaussian(R) 98 system (copyright 1998, Gaussian, Inc.),
 the Gaussian(R) 94 system (copyright 1995, Gaussian, Inc.),
 the Gaussian 92(TM) system (copyright 1992, Gaussian, Inc.),
 the Gaussian 90(TM) system (copyright 1990, Gaussian, Inc.),
 the Gaussian 88(TM) system (copyright 1988, Gaussian, Inc.),
 the Gaussian 86(TM) system (copyright 1986, Carnegie Mellon
 University), and the Gaussian 82(TM) system (copyright 1983,
 Carnegie Mellon University). Gaussian is a federally registered
 trademark of Gaussian, Inc.
  
 This software contains proprietary and confidential information,
 including trade secrets, belonging to Gaussian, Inc.
  
 This software is provided under written license and may be
 used, copied, transmitted, or stored only in accord with that
 written license.
  
 The following legend is applicable only to US Government
 contracts under FAR:
  
                    RESTRICTED RIGHTS LEGEND
  
 Use, reproduction and disclosure by the US Government is
 subject to restrictions as set forth in subparagraphs (a)
 and (c) of the Commercial Computer Software - Restricted
 Rights clause in FAR 52.227-19.
  
 Gaussian, Inc.
 340 Quinnipiac St., Bldg. 40, Wallingford CT 06492
  
  
 ---------------------------------------------------------------
 Warning -- This program may not be used in any manner that
 competes with the business of Gaussian, Inc. or will provide
 assistance to any competitor of Gaussian, Inc.  The licensee
 of this program is prohibited from giving any competitor of
 Gaussian, Inc. access to this program.  By using this program,
 the user acknowledges that Gaussian, Inc. is engaged in the
 business of creating and licensing software in the field of
 computational chemistry and represents and warrants to the
 licensee that it is not a competitor of Gaussian, Inc. and that
 it will not use this program in any manner prohibited above.
 ---------------------------------------------------------------
  

 Cite this work as:
 Gaussian 16, Revision A.03,
 M. J. Frisch, G. W. Trucks, H. B. Schlegel, G. E. Scuseria, 
 M. A. Robb, J. R. Cheeseman, G. Scalmani, V. Barone, 
 G. A. Petersson, H. Nakatsuji, X. Li, M. Caricato, A. V. Marenich, 
 J. Bloino, B. G. Janesko, R. Gomperts, B. Mennucci, H. P. Hratchian, 
 J. V. Ortiz, A. F. Izmaylov, J. L. Sonnenberg, D. Williams-Young, 
 F. Ding, F. Lipparini, F. Egidi, J. Goings, B. Peng, A. Petrone, 
 T. Henderson, D. Ranasinghe, V. G. Zakrzewski, J. Gao, N. Rega, 
 G. Zheng, W. Liang, M. Hada, M. Ehara, K. Toyota, R. Fukuda, 
 J. Hasegawa, M. Ishida, T. Nakajima, Y. Honda, O. Kitao, H. Nakai, 
 T. Vreven, K. Throssell, J. A. Montgomery, Jr., J. E. Peralta, 
 F. Ogliaro, M. J. Bearpark, J. J. Heyd, E. N. Brothers, K. N. Kudin, 
 V. N. Staroverov, T. A. Keith, R. Kobayashi, J. Normand, 
 K. Raghavachari, A. P. Rendell, J. C. Burant, S. S. Iyengar, 
 J. Tomasi, M. Cossi, J. M. Millam, M. Klene, C. Adamo, R. Cammi, 
 J. W. Ochterski, R. L. Martin, K. Morokuma, O. Farkas, 
 J. B. Foresman, and D. J. Fox, Gaussian, Inc., Wallingford CT, 2016.
 
 ******************************************
 Gaussian 16:  ES64L-G16RevA.03 25-Dec-2016
                31-May-2021 
 ******************************************
 %chk=CNCNpCdNpNdNCN.chk
 %NProcShared=20
 Will use up to   20 processors via shared memory.
 -----------------------------
 # opt freq b3lyp/6-31g(2df,p)
 -----------------------------
 1/18=20,19=15,26=3,38=1/1,3;
 2/9=110,12=2,17=6,18=5,40=1/2;
 3/5=1,6=6,7=104,11=2,25=1,30=1,71=1,74=-5/1,2,3;
 4//1;
 5/5=2,38=5/2;
 6/7=2,8=2,9=2,10=2,28=1/1;
 7//1,2,3,16;
 1/18=20,19=15,26=3/3(2);
 2/9=110/2;
 99//99;
 2/9=110/2;
 3/5=1,6=6,7=104,11=2,25=1,30=1,71=1,74=-5/1,2,3;
 4/5=5,16=3,69=1/1;
 5/5=2,38=5/2;
 7//1,2,3,16;
 1/18=20,19=15,26=3/3(-5);
 2/9=110/2;
 6/7=2,8=2,9=2,10=2,19=2,28=1/1;
 99/9=1/99;
 -------------------
 Title Card Required
 -------------------
 Symbolic Z-matrix:
 Charge =  0 Multiplicity = 1
 C                     0.99908  -0.0747   -0.10435 
 N                     2.44054  -0.18535  -0.05597 
 C                     3.13911   0.0154   -1.34209 
 N                     4.61871   0.04609  -1.35057 
 C                     5.31838  -0.02991  -0.15735 
 N                     4.88653  -0.01679   1.06629 
 N                     5.18665   0.10584  -2.62242 
 N                     6.43451   0.13149  -2.53707 
 C                     7.15044   0.19105  -3.81512 
 N                     8.59675   0.15528  -3.61326 
 H                     0.62207  -0.12954   0.92408 
 H                     0.55921  -0.90276  -0.66475 
 H                     0.66623   0.88034  -0.51947 
 H                     2.68463  -1.12668   0.26138 
 H                     2.7859    0.95228  -1.79456 
 H                     2.81611  -0.79119  -2.01447 
 H                     6.40488  -0.12195  -0.28215 
 H                     3.86335   0.12009   1.03923 
 H                     6.89562   1.11453  -4.34679 
 H                     6.87418  -0.65683  -4.45111 
 H                     8.86136   0.95526  -3.04101 
 H                     9.07373   0.26494  -4.5052 
 

 GradGradGradGradGradGradGradGradGradGradGradGradGradGradGradGradGradGrad
 Berny optimization.
 Initialization pass.
                           ----------------------------
                           !    Initial Parameters    !
                           ! (Angstroms and Degrees)  !
 --------------------------                            --------------------------
 ! Name  Definition              Value          Derivative Info.                !
 --------------------------------------------------------------------------------
 ! R1    R(1,2)                  1.4465         estimate D2E/DX2                !
 ! R2    R(1,11)                 1.0967         estimate D2E/DX2                !
 ! R3    R(1,12)                 1.0923         estimate D2E/DX2                !
 ! R4    R(1,13)                 1.0933         estimate D2E/DX2                !
 ! R5    R(2,3)                  1.4773         estimate D2E/DX2                !
 ! R6    R(2,14)                 1.0229         estimate D2E/DX2                !
 ! R7    R(3,4)                  1.4799         estimate D2E/DX2                !
 ! R8    R(3,15)                 1.0987         estimate D2E/DX2                !
 ! R9    R(3,16)                 1.0986         estimate D2E/DX2                !
 ! R10   R(4,5)                  1.3853         estimate D2E/DX2                !
 ! R11   R(4,7)                  1.3942         estimate D2E/DX2                !
 ! R12   R(5,6)                  1.2977         estimate D2E/DX2                !
 ! R13   R(5,17)                 1.0975         estimate D2E/DX2                !
 ! R14   R(6,18)                 1.0326         estimate D2E/DX2                !
 ! R15   R(7,8)                  1.251          estimate D2E/DX2                !
 ! R16   R(8,9)                  1.4661         estimate D2E/DX2                !
 ! R17   R(9,10)                 1.4608         estimate D2E/DX2                !
 ! R18   R(9,19)                 1.0956         estimate D2E/DX2                !
 ! R19   R(9,20)                 1.0953         estimate D2E/DX2                !
 ! R20   R(10,21)                1.0186         estimate D2E/DX2                !
 ! R21   R(10,22)                1.0174         estimate D2E/DX2                !
 ! A1    A(2,1,11)             107.9008         estimate D2E/DX2                !
 ! A2    A(2,1,12)             111.1278         estimate D2E/DX2                !
 ! A3    A(2,1,13)             112.5145         estimate D2E/DX2                !
 ! A4    A(11,1,12)            107.7428         estimate D2E/DX2                !
 ! A5    A(11,1,13)            107.1626         estimate D2E/DX2                !
 ! A6    A(12,1,13)            110.1707         estimate D2E/DX2                !
 ! A7    A(1,2,3)              115.5759         estimate D2E/DX2                !
 ! A8    A(1,2,14)             108.5754         estimate D2E/DX2                !
 ! A9    A(3,2,14)             106.3976         estimate D2E/DX2                !
 ! A10   A(2,3,4)              118.7225         estimate D2E/DX2                !
 ! A11   A(2,3,15)             108.8066         estimate D2E/DX2                !
 ! A12   A(2,3,16)             107.0988         estimate D2E/DX2                !
 ! A13   A(4,3,15)             107.5388         estimate D2E/DX2                !
 ! A14   A(4,3,16)             107.7972         estimate D2E/DX2                !
 ! A15   A(15,3,16)            106.2288         estimate D2E/DX2                !
 ! A16   A(3,4,5)              119.9255         estimate D2E/DX2                !
 ! A17   A(3,4,7)              114.4178         estimate D2E/DX2                !
 ! A18   A(5,4,7)              125.6173         estimate D2E/DX2                !
 ! A19   A(4,5,6)              130.058          estimate D2E/DX2                !
 ! A20   A(4,5,17)             113.9948         estimate D2E/DX2                !
 ! A21   A(6,5,17)             115.9458         estimate D2E/DX2                !
 ! A22   A(5,6,18)             107.8404         estimate D2E/DX2                !
 ! A23   A(4,7,8)              110.1801         estimate D2E/DX2                !
 ! A24   A(7,8,9)              115.3683         estimate D2E/DX2                !
 ! A25   A(8,9,10)             111.2247         estimate D2E/DX2                !
 ! A26   A(8,9,19)             110.1014         estimate D2E/DX2                !
 ! A27   A(8,9,20)             110.5823         estimate D2E/DX2                !
 ! A28   A(10,9,19)            108.5403         estimate D2E/DX2                !
 ! A29   A(10,9,20)            108.12           estimate D2E/DX2                !
 ! A30   A(19,9,20)            108.1822         estimate D2E/DX2                !
 ! A31   A(9,10,21)            108.3984         estimate D2E/DX2                !
 ! A32   A(9,10,22)            109.9011         estimate D2E/DX2                !
 ! A33   A(21,10,22)           106.6243         estimate D2E/DX2                !
 ! D1    D(11,1,2,3)          -173.6187         estimate D2E/DX2                !
 ! D2    D(11,1,2,14)           66.9744         estimate D2E/DX2                !
 ! D3    D(12,1,2,3)            68.4673         estimate D2E/DX2                !
 ! D4    D(12,1,2,14)          -50.9396         estimate D2E/DX2                !
 ! D5    D(13,1,2,3)           -55.6123         estimate D2E/DX2                !
 ! D6    D(13,1,2,14)         -175.0192         estimate D2E/DX2                !
 ! D7    D(1,2,3,4)            174.2413         estimate D2E/DX2                !
 ! D8    D(1,2,3,15)            50.8992         estimate D2E/DX2                !
 ! D9    D(1,2,3,16)           -63.5352         estimate D2E/DX2                !
 ! D10   D(14,2,3,4)           -65.1635         estimate D2E/DX2                !
 ! D11   D(14,2,3,15)          171.4945         estimate D2E/DX2                !
 ! D12   D(14,2,3,16)           57.0601         estimate D2E/DX2                !
 ! D13   D(2,3,4,5)             -3.9418         estimate D2E/DX2                !
 ! D14   D(2,3,4,7)            173.9007         estimate D2E/DX2                !
 ! D15   D(15,3,4,5)           120.0254         estimate D2E/DX2                !
 ! D16   D(15,3,4,7)           -62.1321         estimate D2E/DX2                !
 ! D17   D(16,3,4,5)          -125.8147         estimate D2E/DX2                !
 ! D18   D(16,3,4,7)            52.0278         estimate D2E/DX2                !
 ! D19   D(3,4,5,6)             -6.5937         estimate D2E/DX2                !
 ! D20   D(3,4,5,17)           172.9442         estimate D2E/DX2                !
 ! D21   D(7,4,5,6)            175.8231         estimate D2E/DX2                !
 ! D22   D(7,4,5,17)            -4.639          estimate D2E/DX2                !
 ! D23   D(3,4,7,8)            179.8409         estimate D2E/DX2                !
 ! D24   D(5,4,7,8)             -2.4594         estimate D2E/DX2                !
 ! D25   D(4,5,6,18)            -3.2175         estimate D2E/DX2                !
 ! D26   D(17,5,6,18)          177.2521         estimate D2E/DX2                !
 ! D27   D(4,7,8,9)            179.8345         estimate D2E/DX2                !
 ! D28   D(7,8,9,10)          -177.3916         estimate D2E/DX2                !
 ! D29   D(7,8,9,19)            62.2525         estimate D2E/DX2                !
 ! D30   D(7,8,9,20)           -57.2439         estimate D2E/DX2                !
 ! D31   D(8,9,10,21)          -59.7759         estimate D2E/DX2                !
 ! D32   D(8,9,10,22)         -175.9482         estimate D2E/DX2                !
 ! D33   D(19,9,10,21)          61.4977         estimate D2E/DX2                !
 ! D34   D(19,9,10,22)         -54.6746         estimate D2E/DX2                !
 ! D35   D(20,9,10,21)         178.6297         estimate D2E/DX2                !
 ! D36   D(20,9,10,22)          62.4574         estimate D2E/DX2                !
 --------------------------------------------------------------------------------
 Trust Radius=3.00D-01 FncErr=1.00D-07 GrdErr=1.00D-06 EigMax=2.50D+02 EigMin=1.00D-04
 Number of steps in this run=    100 maximum allowed number of steps=    132.
 GradGradGradGradGradGradGradGradGradGradGradGradGradGradGradGradGradGrad

                          Input orientation:                          
 ---------------------------------------------------------------------
 Center     Atomic      Atomic             Coordinates (Angstroms)
 Number     Number       Type             X           Y           Z
 ---------------------------------------------------------------------
      1          6           0        0.999080   -0.074700   -0.104350
      2          7           0        2.440540   -0.185350   -0.055970
      3          6           0        3.139110    0.015400   -1.342090
      4          7           0        4.618710    0.046090   -1.350570
      5          6           0        5.318380   -0.029910   -0.157350
      6          7           0        4.886530   -0.016790    1.066290
      7          7           0        5.186650    0.105840   -2.622420
      8          7           0        6.434510    0.131490   -2.537070
      9          6           0        7.150440    0.191050   -3.815120
     10          7           0        8.596750    0.155280   -3.613260
     11          1           0        0.622070   -0.129540    0.924080
     12          1           0        0.559210   -0.902760   -0.664750
     13          1           0        0.666230    0.880340   -0.519470
     14          1           0        2.684630   -1.126680    0.261380
     15          1           0        2.785900    0.952280   -1.794560
     16          1           0        2.816110   -0.791190   -2.014470
     17          1           0        6.404880   -0.121950   -0.282150
     18          1           0        3.863350    0.120090    1.039230
     19          1           0        6.895620    1.114530   -4.346790
     20          1           0        6.874180   -0.656830   -4.451110
     21          1           0        8.861360    0.955260   -3.041010
     22          1           0        9.073730    0.264940   -4.505200
 ---------------------------------------------------------------------
                    Distance matrix (angstroms):
                    1          2          3          4          5
     1  C    0.000000
     2  N    1.446510   0.000000
     3  C    2.473832   1.477297   0.000000
     4  N    3.830062   2.544401   1.479943   0.000000
     5  C    4.319857   2.883817   2.480903   1.385312   0.000000
     6  N    4.060298   2.696432   2.975703   2.432467   1.297675
     7  N    4.889684   3.769957   2.416577   1.394177   2.472317
     8  N    5.958569   4.712541   3.507295   2.170761   2.633413
     9  C    7.188857   6.037884   4.715665   3.536195   4.096895
    10  N    8.371973   7.118235   5.913004   4.577826   4.767108
    11  H    1.096728   2.066506   3.389989   4.601957   4.820243
    12  H    1.092345   2.103495   2.820938   4.224950   4.865082
    13  H    1.093259   2.121015   2.745899   4.124172   4.754176
    14  H    2.020272   1.022934   2.020400   2.777488   2.883553
    15  H    2.665375   2.106222   1.098740   2.092248   3.171531
    16  H    2.731943   2.084183   1.098641   2.095511   3.207771
    17  H    5.408930   3.971293   3.436218   2.088100   1.097510
    18  H    3.090269   1.821303   2.491218   2.507427   1.889819
    19  H    7.360825   6.320487   4.934336   3.911933   4.620480
    20  H    7.331439   6.260728   4.905981   3.898024   4.609763
    21  H    8.455781   7.172056   6.042666   4.656636   4.673196
    22  H    9.202326   7.999851   6.729580   5.463221   5.752685
                    6          7          8          9         10
     6  N    0.000000
     7  N    3.702930   0.000000
     8  N    3.924593   1.251038   0.000000
     9  C    5.384854   2.299188   1.466122   0.000000
    10  N    5.974406   3.551477   2.415374   1.460767   0.000000
    11  H    4.268320   5.785193   6.769945   8.073562   9.179548
    12  H    4.744169   5.124739   6.252552   7.386851   8.626425
    13  H    4.596782   5.045438   6.156666   7.306258   8.543442
    14  H    2.593858   4.011921   4.845195   6.188515   7.183970
    15  H    3.679158   2.676829   3.812791   4.869429   6.140754
    16  H    3.791756   2.606478   3.770579   4.795159   6.071881
    17  H    2.033405   2.648176   2.269311   3.624321   3.997180
    18  H    1.032650   3.893457   4.404647   5.862995   6.637166
    19  H    5.883686   2.628970   2.110468   1.095638   2.086162
    20  H    5.899331   2.602601   2.116201   1.095310   2.080568
    21  H    5.797764   3.794763   2.611925   2.027439   1.018556
    22  H    6.975207   4.321986   3.294970   2.044680   1.017395
                   11         12         13         14         15
    11  H    0.000000
    12  H    1.768107   0.000000
    13  H    1.762284   1.792207   0.000000
    14  H    2.384872   2.329220   2.951575   0.000000
    15  H    3.639162   3.110594   2.474678   2.925614   0.000000
    16  H    3.726482   2.632069   3.106609   2.304199   1.757544
    17  H    5.907279   5.909983   5.830352   3.891679   4.066740
    18  H    3.252917   3.855789   3.637183   1.883844   3.143852
    19  H    8.287775   7.601116   7.314952   6.632548   4.840455
    20  H    8.261936   7.367215   7.507285   6.323025   5.134250
    21  H    9.207857   8.833150   8.574610   7.307000   6.202005
    22  H   10.053022   9.413269   9.324742   8.091816   6.881629
                   16         17         18         19         20
    16  H    0.000000
    17  H    4.040803   0.000000
    18  H    3.354434   2.874718   0.000000
    19  H    5.070886   4.276799   6.260414   0.000000
    20  H    4.735314   4.229251   6.309718   1.774559   0.000000
    21  H    6.375651   3.847854   6.505841   2.365283   2.921661
    22  H    6.817401   5.010648   7.609845   2.343301   2.385499
                   21         22
    21  H    0.000000
    22  H    1.632634   0.000000
 Stoichiometry    C4H12N6
 Framework group  C1[X(C4H12N6)]
 Deg. of freedom    60
 Full point group                 C1      NOp   1
 Largest Abelian subgroup         C1      NOp   1
 Largest concise Abelian subgroup C1      NOp   1
                         Standard orientation:                         
 ---------------------------------------------------------------------
 Center     Atomic      Atomic             Coordinates (Angstroms)
 Number     Number       Type             X           Y           Z
 ---------------------------------------------------------------------
      1          6           0        3.979619   -0.873590    0.067374
      2          7           0        2.791809   -0.062408   -0.085867
      3          6           0        1.507653   -0.782156    0.037877
      4          7           0        0.250431   -0.001531    0.022161
      5          6           0        0.296679    1.382223   -0.024451
      6          7           0        1.311579    2.187034    0.054412
      7          7           0       -0.908753   -0.776043    0.009774
      8          7           0       -1.919889   -0.039423    0.000243
      9          6           0       -3.207505   -0.740320   -0.017201
     10          7           0       -4.321519    0.201816   -0.089252
     11          1           0        4.847728   -0.203367    0.068317
     12          1           0        4.094393   -1.565796   -0.769821
     13          1           0        3.993574   -1.420893    1.013671
     14          1           0        2.800276    0.354619   -1.019895
     15          1           0        1.519865   -1.371550    0.965075
     16          1           0        1.463027   -1.507243   -0.786301
     17          1           0       -0.683920    1.857392   -0.155479
     18          1           0        2.155719    1.616253    0.221753
     19          1           0       -3.319932   -1.344025    0.890170
     20          1           0       -3.270288   -1.408905   -0.882507
     21          1           0       -4.280410    0.811212    0.725857
     22          1           0       -5.204315   -0.300746   -0.032723
 ---------------------------------------------------------------------
 Rotational constants (GHZ):           3.4107060           0.5324172           0.4662802
 Standard basis: 6-31G(2df,p) (6D, 7F)
 There are   370 symmetry adapted cartesian basis functions of A   symmetry.
 There are   340 symmetry adapted basis functions of A   symmetry.
   340 basis functions,   524 primitive gaussians,   370 cartesian basis functions
    39 alpha electrons       39 beta electrons
       nuclear repulsion energy       534.3652608096 Hartrees.
 NAtoms=   22 NActive=   22 NUniq=   22 SFac= 1.00D+00 NAtFMM=   60 NAOKFM=F Big=F
 Integral buffers will be    131072 words long.
 Raffenetti 2 integral format.
 Two-electron integral symmetry is turned on.
 One-electron integrals computed using PRISM.
 PrsmSu:  requested number of processors reduced to:  13 ShMem   1 Linda.
 NBasis=   340 RedAO= T EigKep=  1.64D-04  NBF=   340
 NBsUse=   340 1.00D-06 EigRej= -1.00D+00 NBFU=   340
 ExpMin= 1.61D-01 ExpMax= 4.17D+03 ExpMxC= 6.27D+02 IAcc=3 IRadAn=         5 AccDes= 0.00D+00
 Harris functional with IExCor=  402 and IRadAn=       5 diagonalized for initial guess.
 HarFok:  IExCor=  402 AccDes= 0.00D+00 IRadAn=         5 IDoV= 1 UseB2=F ITyADJ=14
 ICtDFT=  3500011 ScaDFX=  1.000000  1.000000  1.000000  1.000000
 FoFCou: FMM=F IPFlag=           0 FMFlag=      100000 FMFlg1=           0
         NFxFlg=           0 DoJE=T BraDBF=F KetDBF=T FulRan=T
         wScrn=  0.000000 ICntrl=       500 IOpCl=  0 I1Cent=   200000004 NGrid=           0
         NMat0=    1 NMatS0=      1 NMatT0=    0 NMatD0=    1 NMtDS0=    0 NMtDT0=    0
 Petite list used in FoFCou.
 Requested convergence on RMS density matrix=1.00D-08 within 128 cycles.
 Requested convergence on MAX density matrix=1.00D-06.
 Requested convergence on             energy=1.00D-06.
 No special actions if energy rises.
 Integral accuracy reduced to 1.0D-05 until final iterations.
 Initial convergence to 1.0D-05 achieved.  Increase integral accuracy.
 SCF Done:  E(RB3LYP) =  -488.067417071     A.U. after   16 cycles
            NFock= 16  Conv=0.25D-08     -V/T= 2.0077

 **********************************************************************

            Population analysis using the SCF density.

 **********************************************************************

 Orbital symmetries:
       Occupied  (A) (A) (A) (A) (A) (A) (A) (A) (A) (A) (A) (A)
                 (A) (A) (A) (A) (A) (A) (A) (A) (A) (A) (A) (A)
                 (A) (A) (A) (A) (A) (A) (A) (A) (A) (A) (A) (A)
                 (A) (A) (A)
       Virtual   (A) (A) (A) (A) (A) (A) (A) (A) (A) (A) (A) (A)
                 (A) (A) (A) (A) (A) (A) (A) (A) (A) (A) (A) (A)
                 (A) (A) (A) (A) (A) (A) (A) (A) (A) (A) (A) (A)
                 (A) (A) (A) (A) (A) (A) (A) (A) (A) (A) (A) (A)
                 (A) (A) (A) (A) (A) (A) (A) (A) (A) (A) (A) (A)
                 (A) (A) (A) (A) (A) (A) (A) (A) (A) (A) (A) (A)
                 (A) (A) (A) (A) (A) (A) (A) (A) (A) (A) (A) (A)
                 (A) (A) (A) (A) (A) (A) (A) (A) (A) (A) (A) (A)
                 (A) (A) (A) (A) (A) (A) (A) (A) (A) (A) (A) (A)
                 (A) (A) (A) (A) (A) (A) (A) (A) (A) (A) (A) (A)
                 (A) (A) (A) (A) (A) (A) (A) (A) (A) (A) (A) (A)
                 (A) (A) (A) (A) (A) (A) (A) (A) (A) (A) (A) (A)
                 (A) (A) (A) (A) (A) (A) (A) (A) (A) (A) (A) (A)
                 (A) (A) (A) (A) (A) (A) (A) (A) (A) (A) (A) (A)
                 (A) (A) (A) (A) (A) (A) (A) (A) (A) (A) (A) (A)
                 (A) (A) (A) (A) (A) (A) (A) (A) (A) (A) (A) (A)
                 (A) (A) (A) (A) (A) (A) (A) (A) (A) (A) (A) (A)
                 (A) (A) (A) (A) (A) (A) (A) (A) (A) (A) (A) (A)
                 (A) (A) (A) (A) (A) (A) (A) (A) (A) (A) (A) (A)
                 (A) (A) (A) (A) (A) (A) (A) (A) (A) (A) (A) (A)
                 (A) (A) (A) (A) (A) (A) (A) (A) (A) (A) (A) (A)
                 (A) (A) (A) (A) (A) (A) (A) (A) (A) (A) (A) (A)
                 (A) (A) (A) (A) (A) (A) (A) (A) (A) (A) (A) (A)
                 (A) (A) (A) (A) (A) (A) (A) (A) (A) (A) (A) (A)
                 (A) (A) (A) (A) (A) (A) (A) (A) (A) (A) (A) (A)
                 (A)
 The electronic state is 1-A.
 Alpha  occ. eigenvalues --  -14.42459 -14.39395 -14.36404 -14.34541 -14.31167
 Alpha  occ. eigenvalues --  -14.28084 -10.26301 -10.23918 -10.23765 -10.22173
 Alpha  occ. eigenvalues --   -1.07361  -0.95722  -0.91332  -0.88278  -0.84827
 Alpha  occ. eigenvalues --   -0.73809  -0.70393  -0.66419  -0.62649  -0.56740
 Alpha  occ. eigenvalues --   -0.53254  -0.51613  -0.48922  -0.47817  -0.46242
 Alpha  occ. eigenvalues --   -0.45037  -0.44011  -0.43597  -0.42631  -0.40255
 Alpha  occ. eigenvalues --   -0.38872  -0.38455  -0.37432  -0.32444  -0.28681
 Alpha  occ. eigenvalues --   -0.25388  -0.23946  -0.22411  -0.21685
 Alpha virt. eigenvalues --   -0.04916   0.05165   0.06363   0.08404   0.10783
 Alpha virt. eigenvalues --    0.11557   0.13612   0.14351   0.14515   0.15411
 Alpha virt. eigenvalues --    0.16037   0.16775   0.17279   0.18253   0.18860
 Alpha virt. eigenvalues --    0.19055   0.22077   0.23238   0.24530   0.25489
 Alpha virt. eigenvalues --    0.30613   0.35833   0.39438   0.41245   0.42415
 Alpha virt. eigenvalues --    0.43785   0.46622   0.48891   0.50183   0.50463
 Alpha virt. eigenvalues --    0.52701   0.53658   0.54358   0.56182   0.56899
 Alpha virt. eigenvalues --    0.58748   0.60094   0.60633   0.62041   0.62500
 Alpha virt. eigenvalues --    0.64566   0.66076   0.67348   0.68925   0.69404
 Alpha virt. eigenvalues --    0.70947   0.71334   0.72264   0.72669   0.73238
 Alpha virt. eigenvalues --    0.73743   0.74755   0.76145   0.76908   0.79342
 Alpha virt. eigenvalues --    0.80169   0.81046   0.81854   0.82427   0.82871
 Alpha virt. eigenvalues --    0.83826   0.85415   0.86101   0.86616   0.87954
 Alpha virt. eigenvalues --    0.88685   0.91544   0.92385   0.94992   0.96609
 Alpha virt. eigenvalues --    0.99399   1.01633   1.02881   1.03716   1.07168
 Alpha virt. eigenvalues --    1.09546   1.12553   1.17679   1.19483   1.22977
 Alpha virt. eigenvalues --    1.24023   1.25910   1.26559   1.28744   1.30352
 Alpha virt. eigenvalues --    1.31566   1.32346   1.33427   1.34210   1.39224
 Alpha virt. eigenvalues --    1.40102   1.41272   1.43892   1.45320   1.48608
 Alpha virt. eigenvalues --    1.50299   1.51827   1.52597   1.53628   1.54984
 Alpha virt. eigenvalues --    1.58984   1.60141   1.62909   1.64086   1.66895
 Alpha virt. eigenvalues --    1.69937   1.70754   1.73676   1.74509   1.78767
 Alpha virt. eigenvalues --    1.81909   1.83530   1.85511   1.87564   1.89256
 Alpha virt. eigenvalues --    1.91850   1.93252   1.94170   1.96652   2.00963
 Alpha virt. eigenvalues --    2.05144   2.06719   2.08592   2.13954   2.19162
 Alpha virt. eigenvalues --    2.20891   2.23807   2.24533   2.27152   2.27475
 Alpha virt. eigenvalues --    2.28070   2.30042   2.37828   2.39456   2.44880
 Alpha virt. eigenvalues --    2.47216   2.49166   2.52294   2.53665   2.54717
 Alpha virt. eigenvalues --    2.56113   2.66144   2.67458   2.71334   2.72902
 Alpha virt. eigenvalues --    2.76187   2.76996   2.77633   2.80778   2.83915
 Alpha virt. eigenvalues --    2.84141   2.84916   2.87761   2.88952   2.89930
 Alpha virt. eigenvalues --    2.93791   2.95264   2.96322   2.98156   3.00886
 Alpha virt. eigenvalues --    3.01262   3.02592   3.04106   3.07126   3.08304
 Alpha virt. eigenvalues --    3.13656   3.18251   3.19102   3.21870   3.23501
 Alpha virt. eigenvalues --    3.26479   3.29066   3.30094   3.31241   3.33395
 Alpha virt. eigenvalues --    3.35108   3.36403   3.37289   3.39004   3.40178
 Alpha virt. eigenvalues --    3.43557   3.46111   3.48715   3.52494   3.55552
 Alpha virt. eigenvalues --    3.57892   3.59553   3.61990   3.63543   3.66491
 Alpha virt. eigenvalues --    3.67606   3.68297   3.73709   3.74119   3.79760
 Alpha virt. eigenvalues --    3.81471   3.82344   3.88316   3.88837   3.93835
 Alpha virt. eigenvalues --    3.97083   3.97905   4.00714   4.01592   4.02595
 Alpha virt. eigenvalues --    4.06319   4.07722   4.10526   4.11671   4.12738
 Alpha virt. eigenvalues --    4.15964   4.17530   4.19584   4.20385   4.20949
 Alpha virt. eigenvalues --    4.22597   4.26179   4.26709   4.30923   4.32026
 Alpha virt. eigenvalues --    4.33624   4.35419   4.35936   4.38302   4.39326
 Alpha virt. eigenvalues --    4.39682   4.41334   4.42094   4.43164   4.45027
 Alpha virt. eigenvalues --    4.46071   4.47214   4.50251   4.51979   4.53101
 Alpha virt. eigenvalues --    4.54764   4.55608   4.56589   4.57998   4.58788
 Alpha virt. eigenvalues --    4.61048   4.62193   4.63487   4.65831   4.66900
 Alpha virt. eigenvalues --    4.67472   4.69185   4.73445   4.74173   4.75752
 Alpha virt. eigenvalues --    4.76551   4.79384   4.80280   4.81888   4.83688
 Alpha virt. eigenvalues --    4.85167   4.87260   4.87961   4.90008   4.91260
 Alpha virt. eigenvalues --    4.99221   5.00733   5.01926   5.03511   5.07389
 Alpha virt. eigenvalues --    5.08732   5.12415   5.14815   5.17286   5.19229
 Alpha virt. eigenvalues --    5.24043   5.29466   5.31363   5.32543   5.36034
 Alpha virt. eigenvalues --    5.38490   5.45437   5.49918   5.52704   5.57691
 Alpha virt. eigenvalues --    5.62686   5.69647   5.83744   5.89796   6.10262
 Alpha virt. eigenvalues --    7.04039   8.82773  10.18454  10.27760  10.95747
 Alpha virt. eigenvalues --   11.25452  11.28433  11.38836  11.41864  11.43769
 Alpha virt. eigenvalues --   11.50914  11.63374  12.20894  13.65848  16.34887
 Alpha virt. eigenvalues --   22.40123
          Condensed to atoms (all electrons):
               1          2          3          4          5          6
     1  C    4.914007   0.378531  -0.063029   0.001954  -0.000058   0.001485
     2  N    0.378531   6.362300   0.379251  -0.022297   0.004279  -0.050146
     3  C   -0.063029   0.379251   4.816753   0.366126  -0.054244  -0.001370
     4  N    0.001954  -0.022297   0.366126   6.235370   0.398025  -0.040287
     5  C   -0.000058   0.004279  -0.054244   0.398025   4.597654   0.682231
     6  N    0.001485  -0.050146  -0.001370  -0.040287   0.682231   6.615966
     7  N   -0.000029   0.000941  -0.050914   0.318654  -0.040026   0.004830
     8  N    0.000000   0.000002   0.002606  -0.091329  -0.003875   0.000094
     9  C   -0.000000   0.000000  -0.000417   0.005129  -0.000452  -0.000015
    10  N    0.000000  -0.000000   0.000000  -0.000040  -0.000034  -0.000000
    11  H    0.387306  -0.027715   0.003815  -0.000054   0.000001   0.000139
    12  H    0.366022  -0.035354  -0.002348  -0.000148  -0.000003  -0.000111
    13  H    0.379800  -0.022619  -0.003643   0.000086   0.000031   0.000001
    14  H   -0.037952   0.338039  -0.046044   0.001296   0.005391   0.005474
    15  H   -0.005010  -0.020901   0.349827  -0.026067   0.003390   0.000359
    16  H   -0.001765  -0.037722   0.352966  -0.037099   0.002518  -0.000558
    17  H    0.000009  -0.000167   0.004864  -0.045044   0.357958  -0.031004
    18  H   -0.000055   0.061554  -0.002627  -0.011786  -0.068000   0.318468
    19  H    0.000000   0.000000   0.000047   0.000117   0.000018  -0.000000
    20  H    0.000000   0.000000   0.000036  -0.000088   0.000072   0.000000
    21  H    0.000000   0.000000   0.000000  -0.000025  -0.000008   0.000001
    22  H   -0.000000   0.000000  -0.000000   0.000001   0.000001   0.000000
               7          8          9         10         11         12
     1  C   -0.000029   0.000000  -0.000000   0.000000   0.387306   0.366022
     2  N    0.000941   0.000002   0.000000  -0.000000  -0.027715  -0.035354
     3  C   -0.050914   0.002606  -0.000417   0.000000   0.003815  -0.002348
     4  N    0.318654  -0.091329   0.005129  -0.000040  -0.000054  -0.000148
     5  C   -0.040026  -0.003875  -0.000452  -0.000034   0.000001  -0.000003
     6  N    0.004830   0.000094  -0.000015  -0.000000   0.000139  -0.000111
     7  N    6.506490   0.426734  -0.082533   0.001272   0.000000   0.000005
     8  N    0.426734   6.530189   0.339183  -0.034458  -0.000000   0.000000
     9  C   -0.082533   0.339183   4.775463   0.400712   0.000000   0.000000
    10  N    0.001272  -0.034458   0.400712   6.556998  -0.000000   0.000000
    11  H    0.000000  -0.000000   0.000000  -0.000000   0.567444  -0.041271
    12  H    0.000005   0.000000   0.000000   0.000000  -0.041271   0.643024
    13  H   -0.000003   0.000000  -0.000000   0.000000  -0.027367  -0.037511
    14  H   -0.000103   0.000007  -0.000000   0.000000  -0.000287  -0.009210
    15  H    0.002234   0.000250   0.000007   0.000000  -0.000005  -0.001214
    16  H    0.003004   0.000513  -0.000001  -0.000000  -0.000447   0.009481
    17  H   -0.008647   0.023584  -0.001007   0.000103   0.000000  -0.000001
    18  H   -0.000097  -0.000026   0.000001   0.000000  -0.000618   0.000544
    19  H    0.007678  -0.044300   0.371512  -0.055751  -0.000000   0.000000
    20  H    0.001569  -0.016621   0.342400  -0.027768  -0.000000  -0.000000
    21  H   -0.000062   0.005207  -0.054024   0.336858  -0.000000  -0.000000
    22  H   -0.000181   0.004027  -0.041474   0.338721   0.000000   0.000000
              13         14         15         16         17         18
     1  C    0.379800  -0.037952  -0.005010  -0.001765   0.000009  -0.000055
     2  N   -0.022619   0.338039  -0.020901  -0.037722  -0.000167   0.061554
     3  C   -0.003643  -0.046044   0.349827   0.352966   0.004864  -0.002627
     4  N    0.000086   0.001296  -0.026067  -0.037099  -0.045044  -0.011786
     5  C    0.000031   0.005391   0.003390   0.002518   0.357958  -0.068000
     6  N    0.000001   0.005474   0.000359  -0.000558  -0.031004   0.318468
     7  N   -0.000003  -0.000103   0.002234   0.003004  -0.008647  -0.000097
     8  N    0.000000   0.000007   0.000250   0.000513   0.023584  -0.000026
     9  C   -0.000000  -0.000000   0.000007  -0.000001  -0.001007   0.000001
    10  N    0.000000   0.000000   0.000000  -0.000000   0.000103   0.000000
    11  H   -0.027367  -0.000287  -0.000005  -0.000447   0.000000  -0.000618
    12  H   -0.037511  -0.009210  -0.001214   0.009481  -0.000001   0.000544
    13  H    0.563752   0.005495   0.006817  -0.001167  -0.000000  -0.000264
    14  H    0.005495   0.509230   0.006254  -0.009144  -0.000023  -0.012657
    15  H    0.006817   0.006254   0.608578  -0.052413  -0.000163  -0.000771
    16  H   -0.001167  -0.009144  -0.052413   0.660292  -0.000208   0.001651
    17  H   -0.000000  -0.000023  -0.000163  -0.000208   0.551272   0.006209
    18  H   -0.000264  -0.012657  -0.000771   0.001651   0.006209   0.470376
    19  H   -0.000000   0.000000  -0.000017   0.000012   0.000100  -0.000000
    20  H    0.000000  -0.000000   0.000010  -0.000015   0.000053  -0.000000
    21  H    0.000000  -0.000000   0.000000  -0.000000   0.000099  -0.000000
    22  H   -0.000000  -0.000000   0.000000   0.000000  -0.000003  -0.000000
              19         20         21         22
     1  C    0.000000   0.000000   0.000000  -0.000000
     2  N    0.000000   0.000000   0.000000   0.000000
     3  C    0.000047   0.000036   0.000000  -0.000000
     4  N    0.000117  -0.000088  -0.000025   0.000001
     5  C    0.000018   0.000072  -0.000008   0.000001
     6  N   -0.000000   0.000000   0.000001   0.000000
     7  N    0.007678   0.001569  -0.000062  -0.000181
     8  N   -0.044300  -0.016621   0.005207   0.004027
     9  C    0.371512   0.342400  -0.054024  -0.041474
    10  N   -0.055751  -0.027768   0.336858   0.338721
    11  H   -0.000000  -0.000000  -0.000000   0.000000
    12  H    0.000000  -0.000000  -0.000000   0.000000
    13  H   -0.000000   0.000000   0.000000  -0.000000
    14  H    0.000000  -0.000000  -0.000000  -0.000000
    15  H   -0.000017   0.000010   0.000000   0.000000
    16  H    0.000012  -0.000015  -0.000000   0.000000
    17  H    0.000100   0.000053   0.000099  -0.000003
    18  H   -0.000000  -0.000000  -0.000000  -0.000000
    19  H    0.671226  -0.042571  -0.004218  -0.002618
    20  H   -0.042571   0.615287   0.007271  -0.000256
    21  H   -0.004218   0.007271   0.508045  -0.028999
    22  H   -0.002618  -0.000256  -0.028999   0.499569
 Mulliken charges:
               1
     1  C   -0.321216
     2  N   -0.307976
     3  C   -0.051655
     4  N   -0.052497
     5  C    0.115131
     6  N   -0.505555
     7  N   -0.090817
     8  N   -0.141788
     9  C   -0.054483
    10  N   -0.516614
    11  H    0.139057
    12  H    0.108094
    13  H    0.136592
    14  H    0.244233
    15  H    0.128835
    16  H    0.110102
    17  H    0.142013
    18  H    0.238096
    19  H    0.098763
    20  H    0.120621
    21  H    0.229855
    22  H    0.231211
 Sum of Mulliken charges =  -0.00000
 Mulliken charges with hydrogens summed into heavy atoms:
               1
     1  C    0.062527
     2  N   -0.063743
     3  C    0.187281
     4  N   -0.052497
     5  C    0.257144
     6  N   -0.267460
     7  N   -0.090817
     8  N   -0.141788
     9  C    0.164901
    10  N   -0.055548
 Electronic spatial extent (au):  <R**2>=           2371.6377
 Charge=             -0.0000 electrons
 Dipole moment (field-independent basis, Debye):
    X=              0.5132    Y=             -4.2498    Z=              0.4065  Tot=              4.2999
 Quadrupole moment (field-independent basis, Debye-Ang):
   XX=            -44.2442   YY=            -70.0030   ZZ=            -59.3256
   XY=             -2.2289   XZ=             -6.9077   YZ=              0.4194
 Traceless Quadrupole moment (field-independent basis, Debye-Ang):
   XX=             13.6134   YY=            -12.1454   ZZ=             -1.4679
   XY=             -2.2289   XZ=             -6.9077   YZ=              0.4194
 Octapole moment (field-independent basis, Debye-Ang**2):
  XXX=            -21.2469  YYY=            -26.2373  ZZZ=             -0.1110  XYY=            -14.7112
  XXY=            -28.3243  XXZ=             17.6378  XZZ=              1.6663  YZZ=             -2.5508
  YYZ=              0.9055  XYZ=             -8.7431
 Hexadecapole moment (field-independent basis, Debye-Ang**3):
 XXXX=          -2098.6732 YYYY=           -532.4799 ZZZZ=            -80.8833 XXXY=             73.2828
 XXXZ=           -112.2166 YYYX=            -42.4649 YYYZ=              0.3574 ZZZX=             -8.7116
 ZZZY=             -0.2514 XXYY=           -500.8206 XXZZ=           -430.3240 YYZZ=            -86.6875
 XXYZ=             17.6291 YYXZ=             -1.4365 ZZXY=             -1.2298
 N-N= 5.343652608096D+02 E-N=-2.205110143734D+03  KE= 4.843483917255D+02
 PrsmSu:  requested number of processors reduced to:  13 ShMem   1 Linda.
 Calling FoFJK, ICntrl=      2127 FMM=F ISym2X=0 I1Cent= 0 IOpClX= 0 NMat=1 NMatS=1 NMatT=0.
 ***** Axes restored to original set *****
 -------------------------------------------------------------------
 Center     Atomic                   Forces (Hartrees/Bohr)
 Number     Number              X              Y              Z
 -------------------------------------------------------------------
      1        6          -0.003724411   -0.003083618    0.002642997
      2        7           0.025486371   -0.001936125   -0.002839032
      3        6          -0.018631787   -0.000978967   -0.019871906
      4        7          -0.024566818   -0.000874413    0.012433971
      5        6           0.023790779   -0.002374524    0.035031469
      6        7           0.000530153    0.003509147   -0.027621741
      7        7           0.012537834   -0.003489337    0.021827202
      8        7           0.006187480    0.001885926   -0.009040537
      9        6           0.000393091    0.004512854   -0.010951136
     10        7           0.000211208   -0.004109934    0.013398935
     11        1          -0.000058379   -0.000046440   -0.001660186
     12        1          -0.008210018   -0.000273573   -0.005898129
     13        1           0.003069285   -0.000104444   -0.002217883
     14        1          -0.004062459    0.005553234    0.000288779
     15        1          -0.001789582   -0.000213044    0.003901877
     16        1           0.004181488    0.000268941   -0.008035014
     17        1          -0.008324211   -0.000415836   -0.006632659
     18        1           0.010334081    0.002792172    0.006780829
     19        1          -0.012549607    0.002504998   -0.001205233
     20        1          -0.001942673   -0.000833657   -0.000448126
     21        1           0.000694305   -0.001691246   -0.001211773
     22        1          -0.003556132   -0.000602115    0.001327297
 -------------------------------------------------------------------
 Cartesian Forces:  Max     0.035031469 RMS     0.010003940

 GradGradGradGradGradGradGradGradGradGradGradGradGradGradGradGradGradGrad
 Berny optimization.
 FormGI is forming the generalized inverse of G from B-inverse, IUseBI=4.
 Internal  Forces:  Max     0.063403305 RMS     0.011867747
 Search for a local minimum.
 Step number   1 out of a maximum of  100
 All quantities printed in internal units (Hartrees-Bohrs-Radians)
 Mixed Optimization -- RFO/linear search
 Second derivative matrix not updated -- first step.
 ITU=  0
     Eigenvalues ---    0.00634   0.00669   0.00817   0.00888   0.01077
     Eigenvalues ---    0.01236   0.01372   0.01886   0.02281   0.02809
     Eigenvalues ---    0.03045   0.03265   0.04238   0.04591   0.06197
     Eigenvalues ---    0.06308   0.07175   0.07594   0.07806   0.10916
     Eigenvalues ---    0.11327   0.11362   0.13826   0.13993   0.16000
     Eigenvalues ---    0.16000   0.16000   0.16000   0.16000   0.16000
     Eigenvalues ---    0.16000   0.22000   0.22084   0.22101   0.23551
     Eigenvalues ---    0.24983   0.24993   0.25000   0.25000   0.33822
     Eigenvalues ---    0.33833   0.33959   0.34047   0.34169   0.34206
     Eigenvalues ---    0.34439   0.34543   0.34576   0.34881   0.36208
     Eigenvalues ---    0.36868   0.38706   0.42380   0.43873   0.44569
     Eigenvalues ---    0.44756   0.46599   0.48144   0.67843   0.82854
 RFO step:  Lambda=-4.58548831D-02 EMin= 6.34293733D-03
 Linear search not attempted -- first point.
 Maximum step size (   0.300) exceeded in Quadratic search.
    -- Step size scaled by   0.792
 Iteration  1 RMS(Cart)=  0.24296940 RMS(Int)=  0.01052031
 Iteration  2 RMS(Cart)=  0.03181464 RMS(Int)=  0.00030327
 Iteration  3 RMS(Cart)=  0.00024774 RMS(Int)=  0.00028876
 Iteration  4 RMS(Cart)=  0.00000006 RMS(Int)=  0.00028876
 Variable       Old X    -DE/DX   Delta X   Delta X   Delta X     New X
                                 (Linear)    (Quad)   (Total)
    R1        2.73351   0.00886   0.00000   0.01621   0.01621   2.74972
    R2        2.07252  -0.00153   0.00000  -0.00315  -0.00315   2.06937
    R3        2.06423   0.00654   0.00000   0.01323   0.01323   2.07747
    R4        2.06596  -0.00018   0.00000  -0.00037  -0.00037   2.06559
    R5        2.79169  -0.01436   0.00000  -0.02880  -0.02880   2.76288
    R6        1.93306  -0.00599   0.00000  -0.00979  -0.00979   1.92328
    R7        2.79669   0.00356   0.00000   0.00720   0.00720   2.80389
    R8        2.07632  -0.00121   0.00000  -0.00250  -0.00250   2.07382
    R9        2.07613   0.00349   0.00000   0.00720   0.00720   2.08333
   R10        2.61786   0.01962   0.00000   0.02946   0.02946   2.64732
   R11        2.63461  -0.01177   0.00000  -0.01821  -0.01821   2.61641
   R12        2.45225  -0.02320   0.00000  -0.02537  -0.02537   2.42688
   R13        2.07399  -0.00745   0.00000  -0.01531  -0.01531   2.05868
   R14        1.95143  -0.01005   0.00000  -0.01694  -0.01694   1.93449
   R15        2.36412  -0.01106   0.00000  -0.01001  -0.01001   2.35411
   R16        2.77057  -0.00898   0.00000  -0.01743  -0.01743   2.75314
   R17        2.76045  -0.00060   0.00000  -0.00115  -0.00115   2.75930
   R18        2.07045   0.00561   0.00000   0.01147   0.01147   2.08193
   R19        2.06984   0.00140   0.00000   0.00285   0.00285   2.07268
   R20        1.92479  -0.00183   0.00000  -0.00295  -0.00295   1.92185
   R21        1.92260  -0.00290   0.00000  -0.00465  -0.00465   1.91795
    A1        1.88322   0.00136   0.00000   0.00813   0.00781   1.89104
    A2        1.93955   0.01025   0.00000   0.04031   0.04019   1.97974
    A3        1.96375  -0.00785   0.00000  -0.03413  -0.03398   1.92976
    A4        1.88047  -0.00171   0.00000   0.00154   0.00099   1.88145
    A5        1.87034   0.00182   0.00000   0.00476   0.00473   1.87507
    A6        1.92284  -0.00385   0.00000  -0.01983  -0.01955   1.90329
    A7        2.01718  -0.01910   0.00000  -0.05435  -0.05434   1.96284
    A8        1.89500   0.00391   0.00000   0.00631   0.00647   1.90147
    A9        1.85699   0.00712   0.00000   0.02133   0.02120   1.87819
   A10        2.07210   0.00582   0.00000   0.01833   0.01832   2.09042
   A11        1.89903  -0.00375   0.00000  -0.01294  -0.01290   1.88613
   A12        1.86923   0.00370   0.00000   0.02089   0.02099   1.89021
   A13        1.87691   0.00007   0.00000   0.00097   0.00096   1.87787
   A14        1.88142  -0.00649   0.00000  -0.02565  -0.02581   1.85561
   A15        1.85404   0.00013   0.00000  -0.00387  -0.00389   1.85015
   A16        2.09309   0.06340   0.00000   0.16968   0.16967   2.26276
   A17        1.99697  -0.04179   0.00000  -0.11192  -0.11191   1.88505
   A18        2.19243  -0.02162   0.00000  -0.05797  -0.05795   2.13448
   A19        2.26994   0.01810   0.00000   0.05396   0.05381   2.32375
   A20        1.98958  -0.01685   0.00000  -0.05693  -0.05707   1.93252
   A21        2.02364  -0.00123   0.00000   0.00318   0.00303   2.02667
   A22        1.88217   0.01243   0.00000   0.04780   0.04780   1.92997
   A23        1.92301   0.03916   0.00000   0.10482   0.10482   2.02783
   A24        2.01356  -0.02154   0.00000  -0.05764  -0.05764   1.95592
   A25        1.94124  -0.01807   0.00000  -0.05441  -0.05419   1.88705
   A26        1.92163  -0.00212   0.00000  -0.01597  -0.01500   1.90663
   A27        1.93003   0.00376   0.00000  -0.00058  -0.00089   1.92913
   A28        1.89439   0.01739   0.00000   0.07456   0.07432   1.96870
   A29        1.88705   0.00360   0.00000   0.00792   0.00702   1.89407
   A30        1.88814  -0.00386   0.00000  -0.00857  -0.00956   1.87857
   A31        1.89191   0.00262   0.00000   0.00983   0.00985   1.90176
   A32        1.91814  -0.00448   0.00000  -0.01747  -0.01745   1.90069
   A33        1.86095   0.00065   0.00000   0.00199   0.00203   1.86298
    D1       -3.03022   0.00103   0.00000   0.00045   0.00074  -3.02948
    D2        1.16892   0.00149   0.00000   0.00395   0.00408   1.17300
    D3        1.19498  -0.00357   0.00000  -0.02935  -0.02959   1.16539
    D4       -0.88906  -0.00311   0.00000  -0.02585  -0.02626  -0.91532
    D5       -0.97062  -0.00045   0.00000  -0.00848  -0.00828  -0.97890
    D6       -3.05466   0.00001   0.00000  -0.00498  -0.00494  -3.05960
    D7        3.04108   0.00070   0.00000  -0.00859  -0.00862   3.03246
    D8        0.88836  -0.00056   0.00000  -0.01262  -0.01254   0.87582
    D9       -1.10890  -0.00077   0.00000  -0.01246  -0.01224  -1.12114
   D10       -1.13732  -0.00106   0.00000  -0.01896  -0.01916  -1.15648
   D11        2.99314  -0.00232   0.00000  -0.02298  -0.02308   2.97006
   D12        0.99589  -0.00253   0.00000  -0.02283  -0.02279   0.97310
   D13       -0.06880  -0.00181   0.00000  -0.04423  -0.04420  -0.11300
   D14        3.03514  -0.00258   0.00000  -0.05154  -0.05177   2.98337
   D15        2.09484  -0.00251   0.00000  -0.04730  -0.04720   2.04764
   D16       -1.08441  -0.00327   0.00000  -0.05461  -0.05477  -1.13918
   D17       -2.19588  -0.00550   0.00000  -0.06389  -0.06363  -2.25951
   D18        0.90806  -0.00627   0.00000  -0.07120  -0.07119   0.83686
   D19       -0.11508  -0.00741   0.00000  -0.08760  -0.08751  -0.20259
   D20        3.01845  -0.00446   0.00000  -0.05384  -0.05406   2.96439
   D21        3.06869  -0.00640   0.00000  -0.07902  -0.07881   2.98989
   D22       -0.08097  -0.00345   0.00000  -0.04526  -0.04535  -0.12632
   D23        3.13882  -0.00196   0.00000  -0.01655  -0.01713   3.12168
   D24       -0.04292  -0.00069   0.00000  -0.01876  -0.01818  -0.06110
   D25       -0.05616  -0.00259   0.00000  -0.02507  -0.02479  -0.08094
   D26        3.09363  -0.00553   0.00000  -0.05915  -0.05943   3.03420
   D27        3.13870   0.00094   0.00000   0.00952   0.00952  -3.13496
   D28       -3.09607   0.00481   0.00000   0.02910   0.02914  -3.06693
   D29        1.08651  -0.00383   0.00000  -0.01843  -0.01870   1.06781
   D30       -0.99909  -0.00006   0.00000   0.00278   0.00301  -0.99608
   D31       -1.04329  -0.00084   0.00000  -0.01167  -0.01115  -1.05444
   D32       -3.07088  -0.00065   0.00000  -0.01003  -0.00949  -3.08036
   D33        1.07334  -0.00338   0.00000  -0.01664  -0.01750   1.05584
   D34       -0.95425  -0.00320   0.00000  -0.01501  -0.01584  -0.97009
   D35        3.11768   0.00338   0.00000   0.01774   0.01805   3.13573
   D36        1.09009   0.00357   0.00000   0.01938   0.01971   1.10980
         Item               Value     Threshold  Converged?
 Maximum Force            0.063403     0.000450     NO 
 RMS     Force            0.011868     0.000300     NO 
 Maximum Displacement     0.798555     0.001800     NO 
 RMS     Displacement     0.262537     0.001200     NO 
 Predicted change in Energy=-2.511218D-02
 GradGradGradGradGradGradGradGradGradGradGradGradGradGradGradGradGradGrad

                          Input orientation:                          
 ---------------------------------------------------------------------
 Center     Atomic      Atomic             Coordinates (Angstroms)
 Number     Number       Type             X           Y           Z
 ---------------------------------------------------------------------
      1          6           0        0.957260   -0.095295   -0.390102
      2          7           0        2.373364   -0.247801   -0.092322
      3          6           0        3.219725    0.007353   -1.256869
      4          7           0        4.695302    0.034001   -1.103604
      5          6           0        5.474648   -0.035051    0.058451
      6          7           0        5.195910    0.050693    1.309152
      7          7           0        5.256083    0.086136   -2.368421
      8          7           0        6.499870    0.136502   -2.416653
      9          6           0        6.992462    0.197383   -3.786396
     10          7           0        8.451315    0.149903   -3.746887
     11          1           0        0.396385   -0.186524    0.545986
     12          1           0        0.573042   -0.853464   -1.087327
     13          1           0        0.755369    0.898799   -0.797288
     14          1           0        2.546265   -1.203968    0.210455
     15          1           0        2.914485    0.965621   -1.696044
     16          1           0        3.001178   -0.759352   -2.018310
     17          1           0        6.526805   -0.168716   -0.190371
     18          1           0        4.206212    0.275666    1.442635
     19          1           0        6.607968    1.109389   -4.270309
     20          1           0        6.631368   -0.662516   -4.363624
     21          1           0        8.793724    0.947941   -3.217571
     22          1           0        8.809229    0.250187   -4.691310
 ---------------------------------------------------------------------
                    Distance matrix (angstroms):
                    1          2          3          4          5
     1  C    0.000000
     2  N    1.455088   0.000000
     3  C    2.424989   1.462054   0.000000
     4  N    3.807724   2.548234   1.483755   0.000000
     5  C    4.540003   3.112227   2.610852   1.400900   0.000000
     6  N    4.568909   3.165437   3.239082   2.464200   1.284251
     7  N    4.735668   3.688118   2.321316   1.384542   2.439706
     8  N    5.906028   4.751658   3.481541   2.234071   2.684521
     9  C    6.931388   5.931310   4.546225   3.535677   4.140125
    10  N    8.215169   7.103204   5.795692   4.594346   4.834807
    11  H    1.095064   2.078374   3.355462   4.609822   5.103860
    12  H    1.099348   2.144300   2.788311   4.216738   5.099838
    13  H    1.093062   2.104656   2.660628   4.045339   4.886303
    14  H    2.028488   1.017754   2.018388   2.806720   3.156723
    15  H    2.581038   2.082578   1.097417   2.095283   3.260987
    16  H    2.696226   2.089322   1.102448   2.082343   3.309925
    17  H    5.573609   4.155350   3.479252   2.056573   1.089409
    18  H    3.748630   2.447333   2.886602   2.604024   1.903008
    19  H    6.959725   6.101591   4.666422   3.852632   4.618692
    20  H    6.950260   6.045379   4.662612   3.855025   4.613725
    21  H    8.396017   7.240028   5.983187   4.701192   4.766011
    22  H    8.959530   7.925847   6.564824   5.462854   5.810424
                    6          7          8          9         10
     6  N    0.000000
     7  N    3.678236   0.000000
     8  N    3.948329   1.245740   0.000000
     9  C    5.404973   2.244558   1.456897   0.000000
    10  N    6.014237   3.480480   2.361745   1.460160   0.000000
    11  H    4.865607   5.673163   6.792209   7.900959   9.133665
    12  H    5.285028   4.945192   6.154220   7.042599   8.375392
    13  H    4.987462   4.835836   6.016870   6.951840   8.275782
    14  H    3.130803   3.957030   4.932499   6.140625   7.236238
    15  H    3.882422   2.590110   3.749894   4.646467   5.960524
    16  H    4.067558   2.433521   3.633466   4.468984   5.789535
    17  H    2.016926   2.534479   2.247268   3.644483   4.056361
    18  H    1.023686   3.957562   4.491585   5.925544   6.705807
    19  H    5.851934   2.547904   2.096242   1.101709   2.143015
    20  H    5.894879   2.536281   2.108653   1.096817   2.086288
    21  H    5.851542   3.738806   2.561576   2.032595   1.016997
    22  H    7.007241   4.248243   3.243475   2.030345   1.014936
                   11         12         13         14         15
    11  H    0.000000
    12  H    1.773057   0.000000
    13  H    1.763854   1.785439   0.000000
    14  H    2.402032   2.387614   2.940150   0.000000
    15  H    3.562999   3.026873   2.339660   2.911605   0.000000
    16  H    3.699824   2.602197   3.046969   2.317763   1.756959
    17  H    6.174511   6.059761   5.900627   4.132445   4.074632
    18  H    3.941114   4.568978   4.160993   2.542244   3.463510
    19  H    7.966169   7.099612   6.808754   6.475052   4.504367
    20  H    7.950211   6.890130   7.048675   6.156576   4.856133
    21  H    9.271822   8.681164   8.394959   7.443979   6.072958
    22  H    9.919472   9.057677   8.969323   8.084961   6.650675
                   16         17         18         19         20
    16  H    0.000000
    17  H    4.015004   0.000000
    18  H    3.808084   2.872165   0.000000
    19  H    4.644634   4.276217   6.253099   0.000000
    20  H    4.322979   4.203666   6.361934   1.774515   0.000000
    21  H    6.156839   3.943322   6.573792   2.431430   2.929640
    22  H    6.472832   5.063930   7.669009   2.400213   2.384006
                   21         22
    21  H    0.000000
    22  H    1.630647   0.000000
 Stoichiometry    C4H12N6
 Framework group  C1[X(C4H12N6)]
 Deg. of freedom    60
 Full point group                 C1      NOp   1
 Largest Abelian subgroup         C1      NOp   1
 Largest concise Abelian subgroup C1      NOp   1
                         Standard orientation:                         
 ---------------------------------------------------------------------
 Center     Atomic      Atomic             Coordinates (Angstroms)
 Number     Number       Type             X           Y           Z
 ---------------------------------------------------------------------
      1          6           0        3.861333   -1.179948    0.076266
      2          7           0        2.825634   -0.179395   -0.132308
      3          6           0        1.480313   -0.720818    0.053628
      4          7           0        0.308582    0.188725    0.017479
      5          6           0        0.264369    1.586984   -0.056253
      6          7           0        1.156006    2.501918    0.074813
      7          7           0       -0.836865   -0.589006    0.010966
      8          7           0       -1.919588    0.027052    0.003705
      9          6           0       -3.063023   -0.875776    0.006259
     10          7           0       -4.276706   -0.071781   -0.106145
     11          1           0        4.835493   -0.681466    0.035114
     12          1           0        3.858970   -1.976149   -0.681774
     13          1           0        3.765739   -1.630726    1.067449
     14          1           0        2.888748    0.167476   -1.087044
     15          1           0        1.457351   -1.253403    1.012872
     16          1           0        1.304043   -1.484058   -0.722121
     17          1           0       -0.752057    1.931201   -0.243885
     18          1           0        2.053852    2.092898    0.347774
     19          1           0       -3.039964   -1.488284    0.921717
     20          1           0       -3.016373   -1.558034   -0.851269
     21          1           0       -4.329552    0.559824    0.689194
     22          1           0       -5.083639   -0.684524   -0.046984
 ---------------------------------------------------------------------
 Rotational constants (GHZ):           2.6970598           0.5562176           0.4672905
 Standard basis: 6-31G(2df,p) (6D, 7F)
 There are   370 symmetry adapted cartesian basis functions of A   symmetry.
 There are   340 symmetry adapted basis functions of A   symmetry.
   340 basis functions,   524 primitive gaussians,   370 cartesian basis functions
    39 alpha electrons       39 beta electrons
       nuclear repulsion energy       531.2469357195 Hartrees.
 NAtoms=   22 NActive=   22 NUniq=   22 SFac= 1.00D+00 NAtFMM=   60 NAOKFM=F Big=F
 Integral buffers will be    131072 words long.
 Raffenetti 2 integral format.
 Two-electron integral symmetry is turned on.
 One-electron integrals computed using PRISM.
 PrsmSu:  requested number of processors reduced to:  13 ShMem   1 Linda.
 NBasis=   340 RedAO= T EigKep=  1.60D-04  NBF=   340
 NBsUse=   340 1.00D-06 EigRej= -1.00D+00 NBFU=   340
 Initial guess from the checkpoint file:  "CNCNpCdNpNdNCN.chk"
 B after Tr=    -0.000000   -0.000000   -0.000000
         Rot=    0.999968    0.006318    0.000549   -0.004976 Ang=   0.92 deg.
 ExpMin= 1.61D-01 ExpMax= 4.17D+03 ExpMxC= 6.27D+02 IAcc=2 IRadAn=         4 AccDes= 0.00D+00
 Harris functional with IExCor=  402 and IRadAn=       4 diagonalized for initial guess.
 HarFok:  IExCor=  402 AccDes= 0.00D+00 IRadAn=         4 IDoV= 1 UseB2=F ITyADJ=14
 ICtDFT=  3500011 ScaDFX=  1.000000  1.000000  1.000000  1.000000
 FoFCou: FMM=F IPFlag=           0 FMFlag=      100000 FMFlg1=           0
         NFxFlg=           0 DoJE=T BraDBF=F KetDBF=T FulRan=T
         wScrn=  0.000000 ICntrl=       500 IOpCl=  0 I1Cent=   200000004 NGrid=           0
         NMat0=    1 NMatS0=      1 NMatT0=    0 NMatD0=    1 NMtDS0=    0 NMtDT0=    0
 Petite list used in FoFCou.
 Requested convergence on RMS density matrix=1.00D-08 within 128 cycles.
 Requested convergence on MAX density matrix=1.00D-06.
 Requested convergence on             energy=1.00D-06.
 No special actions if energy rises.
 Integral accuracy reduced to 1.0D-05 until final iterations.
 Initial convergence to 1.0D-05 achieved.  Increase integral accuracy.
 SCF Done:  E(RB3LYP) =  -488.079884894     A.U. after   13 cycles
            NFock= 13  Conv=0.85D-08     -V/T= 2.0077
 PrsmSu:  requested number of processors reduced to:  13 ShMem   1 Linda.
 Calling FoFJK, ICntrl=      2127 FMM=F ISym2X=0 I1Cent= 0 IOpClX= 0 NMat=1 NMatS=1 NMatT=0.
 ***** Axes restored to original set *****
 -------------------------------------------------------------------
 Center     Atomic                   Forces (Hartrees/Bohr)
 Number     Number              X              Y              Z
 -------------------------------------------------------------------
      1        6          -0.001622425   -0.001582418    0.004426781
      2        7           0.024783732    0.002203808    0.005606440
      3        6          -0.013815195   -0.003192393   -0.010542888
      4        7          -0.004719354   -0.001078727    0.006510758
      5        6           0.009758657    0.000955552    0.012270248
      6        7          -0.009867120    0.004125834   -0.017004648
      7        7           0.002591781   -0.002936246    0.005663276
      8        7          -0.006531776    0.001777239    0.006933667
      9        6           0.006480382    0.001331628   -0.007383234
     10        7          -0.001846997   -0.001547174    0.002532652
     11        1          -0.000227384   -0.000218654   -0.000988398
     12        1          -0.001523343    0.000860806   -0.003674866
     13        1           0.001163303    0.000357151   -0.000928773
     14        1          -0.001000005    0.002582915    0.002512736
     15        1          -0.000350970    0.000442002    0.002853386
     16        1           0.005723248    0.002312088   -0.004640860
     17        1          -0.002537454   -0.002613700   -0.004819927
     18        1          -0.002033340   -0.003476379    0.000343235
     19        1          -0.004262820    0.000591270    0.000932301
     20        1          -0.000535113   -0.000192886   -0.000057572
     21        1          -0.000134306   -0.000441588   -0.000386173
     22        1           0.000506498   -0.000260130   -0.000158144
 -------------------------------------------------------------------
 Cartesian Forces:  Max     0.024783732 RMS     0.005681812

 GradGradGradGradGradGradGradGradGradGradGradGradGradGradGradGradGradGrad
 Berny optimization.
 Using GEDIIS/GDIIS optimizer.
 FormGI is forming the generalized inverse of G from B-inverse, IUseBI=4.
 Internal  Forces:  Max     0.033856423 RMS     0.006410363
 Search for a local minimum.
 Step number   2 out of a maximum of  100
 All quantities printed in internal units (Hartrees-Bohrs-Radians)
 Mixed Optimization -- RFO/linear search
 Update second derivatives using D2CorX and points    1    2
 DE= -1.25D-02 DEPred=-2.51D-02 R= 4.96D-01
 Trust test= 4.96D-01 RLast= 3.72D-01 DXMaxT set to 3.00D-01
 ITU=  0  0
 Use linear search instead of GDIIS.
     Eigenvalues ---    0.00655   0.00675   0.00817   0.00888   0.01076
     Eigenvalues ---    0.01233   0.01371   0.01974   0.02317   0.02996
     Eigenvalues ---    0.03115   0.03267   0.04111   0.04632   0.06273
     Eigenvalues ---    0.06465   0.07110   0.07451   0.07742   0.10837
     Eigenvalues ---    0.10933   0.11154   0.13319   0.13865   0.15455
     Eigenvalues ---    0.16000   0.16000   0.16000   0.16000   0.16000
     Eigenvalues ---    0.16048   0.19459   0.22022   0.22287   0.23541
     Eigenvalues ---    0.24913   0.24984   0.25000   0.33795   0.33817
     Eigenvalues ---    0.33856   0.33907   0.34047   0.34146   0.34205
     Eigenvalues ---    0.34439   0.34491   0.34720   0.36037   0.36864
     Eigenvalues ---    0.38634   0.42043   0.43830   0.44561   0.44605
     Eigenvalues ---    0.44990   0.46411   0.57368   0.67034   0.82652
 RFO step:  Lambda=-1.07056939D-02 EMin= 6.55300002D-03
 Quartic linear search produced a step of -0.17903.
 Iteration  1 RMS(Cart)=  0.09475129 RMS(Int)=  0.00281954
 Iteration  2 RMS(Cart)=  0.00465223 RMS(Int)=  0.00066592
 Iteration  3 RMS(Cart)=  0.00001335 RMS(Int)=  0.00066589
 Iteration  4 RMS(Cart)=  0.00000002 RMS(Int)=  0.00066589
 Variable       Old X    -DE/DX   Delta X   Delta X   Delta X     New X
                                 (Linear)    (Quad)   (Total)
    R1        2.74972   0.00233  -0.00290   0.01325   0.01035   2.76007
    R2        2.06937  -0.00071   0.00056  -0.00328  -0.00271   2.06666
    R3        2.07747   0.00227  -0.00237   0.01205   0.00968   2.08715
    R4        2.06559   0.00046   0.00007   0.00085   0.00092   2.06651
    R5        2.76288  -0.00768   0.00516  -0.03235  -0.02719   2.73569
    R6        1.92328  -0.00185   0.00175  -0.00852  -0.00677   1.91651
    R7        2.80389  -0.01257  -0.00129  -0.02493  -0.02622   2.77767
    R8        2.07382  -0.00066   0.00045  -0.00283  -0.00238   2.07143
    R9        2.08333   0.00046  -0.00129   0.00481   0.00352   2.08684
   R10        2.64732  -0.01019  -0.00527  -0.00118  -0.00645   2.64087
   R11        2.61641  -0.00895   0.00326  -0.02494  -0.02168   2.59473
   R12        2.42688  -0.01360   0.00454  -0.02978  -0.02524   2.40165
   R13        2.05868  -0.00103   0.00274  -0.01033  -0.00758   2.05110
   R14        1.93449   0.00125   0.00303  -0.00660  -0.00357   1.93092
   R15        2.35411  -0.00636   0.00179  -0.01162  -0.00983   2.34428
   R16        2.75314   0.00430   0.00312   0.00029   0.00341   2.75654
   R17        2.75930  -0.00135   0.00021  -0.00348  -0.00328   2.75603
   R18        2.08193   0.00157  -0.00205   0.00957   0.00751   2.08944
   R19        2.07268   0.00036  -0.00051   0.00230   0.00179   2.07448
   R20        1.92185  -0.00059   0.00053  -0.00261  -0.00209   1.91976
   R21        1.91795   0.00030   0.00083  -0.00193  -0.00110   1.91685
    A1        1.89104   0.00159  -0.00140   0.01473   0.01320   1.90423
    A2        1.97974   0.00232  -0.00720   0.02939   0.02204   2.00178
    A3        1.92976  -0.00289   0.00608  -0.03279  -0.02666   1.90310
    A4        1.88145  -0.00017  -0.00018   0.00502   0.00454   1.88599
    A5        1.87507   0.00065  -0.00085   0.00622   0.00545   1.88052
    A6        1.90329  -0.00147   0.00350  -0.02216  -0.01865   1.88464
    A7        1.96284  -0.00589   0.00973  -0.04395  -0.03410   1.92874
    A8        1.90147   0.00150  -0.00116   0.01336   0.01242   1.91389
    A9        1.87819   0.00289  -0.00380   0.02866   0.02500   1.90319
   A10        2.09042  -0.03386  -0.00328  -0.11709  -0.12064   1.96977
   A11        1.88613   0.00703   0.00231   0.00054  -0.00003   1.88610
   A12        1.89021   0.01706  -0.00376   0.09488   0.09101   1.98122
   A13        1.87787   0.01072  -0.00017   0.01983   0.01720   1.89507
   A14        1.85561   0.00483   0.00462  -0.00049   0.00669   1.86230
   A15        1.85015  -0.00317   0.00070   0.01572   0.01505   1.86520
   A16        2.26276  -0.01571  -0.03038   0.03635   0.00597   2.26873
   A17        1.88505   0.00895   0.02004  -0.02819  -0.00817   1.87689
   A18        2.13448   0.00675   0.01038  -0.00791   0.00245   2.13693
   A19        2.32375  -0.02116  -0.00963  -0.04781  -0.05765   2.26610
   A20        1.93252   0.00513   0.01022  -0.01588  -0.00587   1.92665
   A21        2.02667   0.01606  -0.00054   0.06440   0.06364   2.09031
   A22        1.92997   0.00022  -0.00856   0.02348   0.01492   1.94488
   A23        2.02783  -0.00252  -0.01877   0.04479   0.02603   2.05385
   A24        1.95592  -0.00249   0.01032  -0.03674  -0.02642   1.92950
   A25        1.88705  -0.00266   0.00970  -0.03653  -0.02676   1.86029
   A26        1.90663  -0.00201   0.00269  -0.02019  -0.01735   1.88928
   A27        1.92913   0.00051   0.00016  -0.00147  -0.00135   1.92779
   A28        1.96870   0.00524  -0.01331   0.06382   0.05042   2.01913
   A29        1.89407   0.00002  -0.00126   0.00364   0.00222   1.89629
   A30        1.87857  -0.00104   0.00171  -0.00897  -0.00753   1.87104
   A31        1.90176   0.00004  -0.00176   0.00546   0.00369   1.90545
   A32        1.90069   0.00075   0.00312  -0.00397  -0.00085   1.89984
   A33        1.86298  -0.00019  -0.00036   0.00145   0.00108   1.86406
    D1       -3.02948   0.00043  -0.00013  -0.00643  -0.00642  -3.03590
    D2        1.17300  -0.00049  -0.00073  -0.02368  -0.02425   1.14876
    D3        1.16539  -0.00191   0.00530  -0.04133  -0.03616   1.12922
    D4       -0.91532  -0.00283   0.00470  -0.05858  -0.05399  -0.96931
    D5       -0.97890   0.00052   0.00148  -0.00879  -0.00735  -0.98625
    D6       -3.05960  -0.00040   0.00089  -0.02604  -0.02517  -3.08478
    D7        3.03246  -0.00070   0.00154  -0.02617  -0.02259   3.00987
    D8        0.87582   0.00420   0.00225   0.03614   0.03825   0.91406
    D9       -1.12114  -0.00435   0.00219  -0.03077  -0.03032  -1.15147
   D10       -1.15648  -0.00050   0.00343  -0.01727  -0.01191  -1.16839
   D11        2.97006   0.00440   0.00413   0.04504   0.04893   3.01899
   D12        0.97310  -0.00415   0.00408  -0.02187  -0.01964   0.95346
   D13       -0.11300   0.00248   0.00791   0.03054   0.03851  -0.07449
   D14        2.98337   0.00274   0.00927   0.03616   0.04552   3.02889
   D15        2.04764  -0.00404   0.00845  -0.04036  -0.03147   2.01616
   D16       -1.13918  -0.00377   0.00981  -0.03475  -0.02447  -1.16365
   D17       -2.25951  -0.00052   0.01139  -0.01360  -0.00276  -2.26227
   D18        0.83686  -0.00025   0.01275  -0.00799   0.00425   0.84111
   D19       -0.20259   0.00147   0.01567   0.03506   0.05045  -0.15214
   D20        2.96439  -0.00020   0.00968  -0.00227   0.00772   2.97211
   D21        2.98989   0.00123   0.01411   0.02895   0.04275   3.03263
   D22       -0.12632  -0.00043   0.00812  -0.00838   0.00001  -0.12630
   D23        3.12168  -0.00100   0.00307  -0.04266  -0.03947   3.08221
   D24       -0.06110  -0.00147   0.00325  -0.03610  -0.03297  -0.09407
   D25       -0.08094   0.00269   0.00444   0.04270   0.04659  -0.03435
   D26        3.03420   0.00427   0.01064   0.08059   0.09177   3.12597
   D27       -3.13496  -0.00033  -0.00170  -0.00447  -0.00618  -3.14114
   D28       -3.06693   0.00190  -0.00522   0.03201   0.02684  -3.04009
   D29        1.06781  -0.00160   0.00335  -0.01076  -0.00743   1.06038
   D30       -0.99608   0.00060  -0.00054   0.01347   0.01291  -0.98317
   D31       -1.05444   0.00005   0.00200  -0.00586  -0.00377  -1.05821
   D32       -3.08036  -0.00017   0.00170  -0.00840  -0.00662  -3.08698
   D33        1.05584  -0.00099   0.00313  -0.01587  -0.01291   1.04292
   D34       -0.97009  -0.00121   0.00284  -0.01841  -0.01576  -0.98585
   D35        3.13573   0.00096  -0.00323   0.01482   0.01168  -3.13578
   D36        1.10980   0.00074  -0.00353   0.01228   0.00883   1.11863
         Item               Value     Threshold  Converged?
 Maximum Force            0.033856     0.000450     NO 
 RMS     Force            0.006410     0.000300     NO 
 Maximum Displacement     0.373096     0.001800     NO 
 RMS     Displacement     0.096227     0.001200     NO 
 Predicted change in Energy=-6.564669D-03
 GradGradGradGradGradGradGradGradGradGradGradGradGradGradGradGradGradGrad

                          Input orientation:                          
 ---------------------------------------------------------------------
 Center     Atomic      Atomic             Coordinates (Angstroms)
 Number     Number       Type             X           Y           Z
 ---------------------------------------------------------------------
      1          6           0        1.049205   -0.067432   -0.343414
      2          7           0        2.482138   -0.220940   -0.105947
      3          6           0        3.224070   -0.018272   -1.332403
      4          7           0        4.678339    0.014375   -1.121269
      5          6           0        5.415018   -0.039055    0.065078
      6          7           0        5.020381    0.018434    1.271782
      7          7           0        5.274845    0.063330   -2.357030
      8          7           0        6.510799    0.162216   -2.396758
      9          6           0        6.977240    0.201538   -3.778312
     10          7           0        8.434524    0.175911   -3.726611
     11          1           0        0.520577   -0.117368    0.612662
     12          1           0        0.609602   -0.823766   -1.017629
     13          1           0        0.863014    0.919472   -0.776081
     14          1           0        2.671797   -1.153231    0.245349
     15          1           0        2.912212    0.939882   -1.763962
     16          1           0        3.031628   -0.791755   -2.096728
     17          1           0        6.471380   -0.163444   -0.151047
     18          1           0        4.008778    0.151031    1.327885
     19          1           0        6.530569    1.085706   -4.269505
     20          1           0        6.629774   -0.684200   -4.325874
     21          1           0        8.764657    0.989968   -3.216355
     22          1           0        8.797424    0.254489   -4.670563
 ---------------------------------------------------------------------
                    Distance matrix (angstroms):
                    1          2          3          4          5
     1  C    0.000000
     2  N    1.460567   0.000000
     3  C    2.389678   1.447665   0.000000
     4  N    3.712461   2.430957   1.469878   0.000000
     5  C    4.384974   2.943487   2.598776   1.397487   0.000000
     6  N    4.287945   2.897949   3.163836   2.417374   1.270896
     7  N    4.682712   3.598250   2.293948   1.373071   2.428321
     8  N    5.839347   4.650240   3.459482   2.237552   2.702199
     9  C    6.856564   5.819853   4.485205   3.518502   4.155727
    10  N    8.127003   6.978366   5.737487   4.574147   4.851858
    11  H    1.093628   2.091614   3.331963   4.506757   4.925600
    12  H    1.104472   2.168169   2.753788   4.155460   4.987991
    13  H    1.093548   2.090738   2.600663   3.936377   4.727268
    14  H    2.039217   1.014172   2.020505   2.693912   2.966336
    15  H    2.550183   2.069175   1.096156   2.094952   3.250806
    16  H    2.743858   2.142657   1.104310   2.076782   3.304620
    17  H    5.426436   3.989911   3.458568   2.046447   1.085395
    18  H    3.405883   2.127173   2.778770   2.542703   1.899559
    19  H    6.840269   5.952507   4.558318   3.806560   4.614992
    20  H    6.883542   5.935088   4.582918   3.816490   4.601337
    21  H    8.300608   7.114140   5.938344   4.694589   4.800706
    22  H    8.880471   7.806702   6.502306   5.442610   5.826932
                    6          7          8          9         10
     6  N    0.000000
     7  N    3.638000   0.000000
     8  N    3.962348   1.240540   0.000000
     9  C    5.419065   2.222001   1.458700   0.000000
    10  N    6.055171   3.445576   2.338677   1.458426   0.000000
    11  H    4.549848   5.608458   6.709511   7.814784   9.030275
    12  H    5.040404   4.934109   6.139893   7.015656   8.340704
    13  H    4.721156   4.764099   5.924315   6.849276   8.160041
    14  H    2.818193   3.876630   4.842424   6.046659   7.124051
    15  H    3.809092   2.588843   3.735642   4.596434   5.910293
    16  H    3.994796   2.414737   3.620043   4.402523   5.725747
    17  H    2.040324   2.519818   2.269542   3.680510   4.093134
    18  H    1.021797   3.897335   4.487003   5.906569   6.718316
    19  H    5.841712   2.505924   2.088159   1.105685   2.178877
    20  H    5.866650   2.504192   2.109992   1.097765   2.087110
    21  H    5.925104   3.711588   2.537083   2.032800   1.015893
    22  H    7.045086   4.218713   3.226044   2.027803   1.014356
                   11         12         13         14         15
    11  H    0.000000
    12  H    1.778981   0.000000
    13  H    1.766609   1.778044   0.000000
    14  H    2.415715   2.440555   2.934470   0.000000
    15  H    3.533559   2.994909   2.274981   2.911401   0.000000
    16  H    3.755125   2.651733   3.061910   2.396970   1.767360
    17  H    5.999786   5.962167   5.746055   3.946345   4.060357
    18  H    3.570873   4.243356   3.861736   2.158820   3.374057
    19  H    7.836004   7.019874   6.659792   6.347194   4.403580
    20  H    7.876086   6.870694   6.959046   6.064788   4.798052
    21  H    9.157097   8.638805   8.270180   7.328004   6.030180
    22  H    9.826340   9.030337   8.863637   7.979422   6.599531
                   16         17         18         19         20
    16  H    0.000000
    17  H    4.001542   0.000000
    18  H    3.683971   2.889731   0.000000
    19  H    4.526413   4.304135   6.209978   0.000000
    20  H    4.234066   4.210160   6.287465   1.773580   0.000000
    21  H    6.107023   3.998198   6.631163   2.471729   2.931143
    22  H    6.400286   5.100115   7.676146   2.447530   2.387185
                   21         22
    21  H    0.000000
    22  H    1.629946   0.000000
 Stoichiometry    C4H12N6
 Framework group  C1[X(C4H12N6)]
 Deg. of freedom    60
 Full point group                 C1      NOp   1
 Largest Abelian subgroup         C1      NOp   1
 Largest concise Abelian subgroup C1      NOp   1
                         Standard orientation:                         
 ---------------------------------------------------------------------
 Center     Atomic      Atomic             Coordinates (Angstroms)
 Number     Number       Type             X           Y           Z
 ---------------------------------------------------------------------
      1          6           0        3.789808   -1.137865    0.091150
      2          7           0        2.720709   -0.163577   -0.111442
      3          6           0        1.425636   -0.797436    0.017958
      4          7           0        0.314577    0.164721   -0.000529
      5          6           0        0.336671    1.561423   -0.041806
      6          7           0        1.315287    2.363979    0.073910
      7          7           0       -0.855081   -0.554222   -0.019097
      8          7           0       -1.921121    0.078415    0.028522
      9          6           0       -3.059391   -0.833373    0.000441
     10          7           0       -4.255756   -0.003357   -0.081965
     11          1           0        4.751832   -0.617762    0.096173
     12          1           0        3.836436   -1.936706   -0.670124
     13          1           0        3.661262   -1.610397    1.068921
     14          1           0        2.799637    0.241886   -1.037680
[...]
 0227779,0.02508356,0.00529538,0.04835932,-0.07533247,-0.01009040,-0.25
 224852,-0.00661329,0.00074501,0.00623744,0.00140579,0.00069167,0.00319
 136,-0.00030719,-0.00001804,0.00050813,0.00011644,0.00009366,-0.000141
 46,-0.00005204,-0.00014398,0.00002610,0.00032629,-0.00004899,-0.000457
 59,-0.00033045,0.00000368,0.00012018,0.00005716,-0.00004218,-0.0001693
 2,-0.00002083,0.00004685,0.00006644,-0.00487516,-0.00193049,-0.0150424
 9,0.09234464,0.01227983,0.27171300,-0.08029327,0.06933205,0.04150345,-
 0.02266233,0.03166815,0.01474714,0.00092234,0.00314210,0.00022395,-0.0
 0001410,-0.00064930,-0.00051539,0.00015708,0.00018321,0.00031787,0.000
 02318,-0.00025088,-0.00023144,0.00019712,-0.00004055,-0.00007423,0.000
 01630,0.00003428,-0.00006177,0.00001997,0.00000715,-0.00001911,-0.0000
 0854,-0.00001116,0.00001180,0.00352508,-0.00613087,-0.00493416,0.00541
 425,-0.00908287,-0.00464515,0.09946019,0.07624414,-0.21556770,-0.09810
 089,0.00168994,0.00360274,0.00316149,-0.00104879,0.00105506,0.00102158
 ,0.00010695,0.00015918,-0.00001791,-0.00006064,-0.00009852,-0.00011285
 ,0.00001465,0.00014125,0.00015993,-0.00011600,0.00012131,0.00009015,0.
 00011235,0.00001349,-0.00000459,-0.00003779,-0.00002015,0.00005526,0.0
 0002009,-0.00000635,-0.00002785,0.00919542,-0.01943729,-0.01332592,-0.
 00019269,-0.00094902,-0.00000751,-0.08515465,0.22934704,0.04480138,-0.
 09886765,-0.10677895,0.00155600,0.00254449,0.00225642,0.00024057,-0.00
 137798,-0.00010588,-0.00029475,0.00021182,0.00003794,0.00006321,0.0000
 6779,0.00029680,0.00005568,0.00004803,-0.00008814,-0.00002106,0.000083
 01,-0.00013944,-0.00007715,-0.00000579,0.00006151,0.00000032,-0.000041
 06,-0.00002684,0.00000091,0.00002062,0.00000384,-0.00723315,0.01367145
 ,0.00850600,0.01003580,-0.02507282,-0.01468907,-0.04871307,0.10808473,
 0.11018236,-0.01967933,0.03283115,0.01598482,-0.10711688,0.11014208,0.
 06068541,0.00601899,-0.01215077,-0.00508034,0.00194290,0.00180261,-0.0
 0100332,-0.00037759,-0.00069453,-0.00098056,-0.00070933,0.00015125,0.0
 0010949,-0.00046717,-0.00006960,0.00069991,0.00006332,-0.00008838,-0.0
 0008361,-0.00001348,0.00001912,0.00013120,0.00001789,0.00002706,-0.000
 07161,0.00131522,-0.00047577,0.00033397,0.00109718,0.00037453,-0.00047
 510,-0.00667315,-0.00145115,-0.00050303,0.12407464,-0.00449310,0.00531
 979,-0.00005104,0.12396532,-0.30845687,-0.10417527,0.01233052,-0.03082
 493,-0.01445629,0.00039105,0.00315312,-0.00045355,-0.00042212,-0.00042
 870,-0.00085508,-0.00004244,0.00010473,0.00039736,-0.00079206,0.000246
 44,0.00066622,0.00019574,-0.00022475,0.00004992,-0.00010400,0.00006586
 ,0.00013106,0.00003447,-0.00007014,-0.00005316,0.00020350,0.00056121,0
 .00020388,-0.00083813,0.00001643,0.00010839,-0.00172426,0.00163138,0.0
 0046540,-0.12699202,0.33119831,-0.00713499,-0.00038761,-0.00370736,0.0
 8546465,-0.14062606,-0.08160088,-0.00839806,0.02493940,0.00232199,-0.0
 0101218,-0.00109342,0.00004856,-0.00008018,-0.00043928,0.00027427,-0.0
 0063125,0.00020276,-0.00046330,-0.00046969,-0.00033018,0.00055675,0.00
 008655,0.00013754,-0.00031993,0.00008910,-0.00002443,0.00007481,-0.000
 03767,0.00002108,-0.00004218,0.00055107,-0.00007430,-0.00007102,-0.000
 37737,0.00104849,0.00111792,0.00207602,0.00009312,0.00062348,-0.072351
 84,0.11404347,0.08010696,0.00180754,-0.00127098,-0.00051754,0.00510595
 ,-0.00828874,-0.00331945,-0.08202726,0.07214686,0.03456277,-0.02681580
 ,0.02255197,0.01703166,0.00130113,0.00174666,0.00619304,0.00209214,-0.
 00118420,-0.00195406,-0.00252181,0.00382822,-0.00421072,-0.00222928,0.
 00005855,0.00217156,-0.00002150,-0.00112565,-0.00046876,-0.00002026,0.
 00017140,0.00002532,0.00014596,-0.00004393,-0.00008107,-0.00006865,0.0
 0009004,0.00017509,0.00010510,0.00059881,0.00024335,-0.00037427,-0.002
 32967,0.00131965,0.09870433,0.00210834,0.00032261,-0.00087046,0.009475
 66,-0.03363801,-0.00555867,0.07466105,-0.21188059,-0.08663423,0.000164
 84,0.00724005,0.00114718,-0.00036815,0.00071355,-0.00062932,-0.0000590
 5,0.00006796,0.00047750,-0.00033981,-0.00000410,0.00028564,-0.00031048
 ,-0.00021233,0.00024259,-0.00003322,-0.00006674,0.00005159,0.00001223,
 0.00001748,-0.00002518,-0.00019164,0.00054011,0.00025391,-0.00042994,-
 0.00012042,-0.00015886,-0.00113859,0.00035798,0.00042042,-0.00353024,-
 0.00384905,0.00215230,-0.08087709,0.24117789,-0.00082383,0.00031265,0.
 00073057,-0.00681436,0.02103512,0.00739033,0.03968148,-0.09309097,-0.1
 0081876,0.00171737,0.00175137,0.00102632,-0.00095702,0.00090246,0.0001
 4418,0.00076024,-0.00058375,0.00038664,0.00090702,-0.00109176,-0.00004
 764,0.00070005,0.00054601,0.00034663,-0.00017456,0.00003624,0.00028132
 ,0.00005915,-0.00007362,-0.00009040,-0.00034230,0.00002256,-0.00000857
 ,0.00027354,-0.00023620,-0.00039247,0.00000119,-0.00060110,0.00009156,
 0.00156878,0.00406663,-0.00057684,-0.04761618,0.08992596,0.10332094,0.
 00407746,0.00039395,0.00230374,0.00290592,-0.00302452,0.01244338,-0.06
 509199,-0.00052680,-0.05163011,-0.02197679,-0.00453068,-0.03724561,-0.
 00518633,0.00174388,0.00461768,0.00084578,-0.00043399,-0.00058616,0.00
 162710,-0.00136766,-0.00504121,-0.00006818,0.00036356,0.00138691,-0.00
 020158,-0.00004417,-0.00006578,0.00005038,0.00000701,0.00007233,-0.000
 03245,0.00002279,-0.00034519,0.00032835,0.00060387,-0.00179459,-0.0000
 8914,0.00000051,-0.00010694,0.00019550,0.00051736,-0.00013689,0.005235
 48,0.00073080,0.01121470,0.07839799,0.00472158,0.00092036,0.00050588,0
 .00052288,-0.00619235,0.03636527,-0.00285596,-0.05385016,-0.01616136,0
 .00103583,0.00132738,-0.00083733,-0.00018179,0.00084256,-0.00158075,-0
 .00115102,0.00028483,0.00021927,0.00049680,-0.00083497,-0.00026853,-0.
 00036983,0.00035397,0.00003612,0.00006731,-0.00018657,-0.00009480,-0.0
 0002535,0.00002992,0.00002612,-0.00009491,-0.00003558,-0.00030819,-0.0
 0084249,0.00032361,-0.00169985,-0.00050710,-0.00021562,-0.00017492,0.0
 0015639,0.00179789,0.00047546,-0.00706706,0.00006067,-0.02376518,0.006
 22944,0.05608324,-0.00222486,-0.00033296,0.00160117,0.00132128,0.01244
 422,-0.01921159,-0.06661167,-0.01631640,-0.27163697,-0.00419738,-0.001
 90512,-0.00272399,-0.00048171,0.00034540,-0.00026292,-0.00004695,-0.00
 027724,0.00056615,0.00657730,-0.00006217,-0.00094363,-0.00048504,-0.00
 001138,0.00053652,0.00000395,0.00008576,-0.00013222,-0.00000408,0.0000
 1019,0.00007472,0.00027778,0.00013288,0.00043988,0.00217150,0.00030588
 ,-0.00001783,0.00015269,-0.00025314,-0.00023697,0.00063980,-0.00006471
 ,0.00118473,-0.00354870,-0.00159740,-0.01125100,0.06610669,0.00704159,
 0.30196419,0.00010890,-0.00020882,-0.00001838,-0.00075715,-0.00032214,
 0.00018074,0.00164549,-0.00206056,-0.00191124,-0.01950691,-0.00820386,
 -0.00566754,-0.29216668,-0.08052329,0.04428374,-0.00614862,-0.00086820
 ,0.00821131,-0.00376435,0.00016142,0.00208763,0.00053319,0.00220360,0.
 00426842,0.00062347,-0.00007192,0.00056256,0.00004001,-0.00002559,-0.0
 0013462,-0.00006639,-0.00001390,0.00001530,-0.00002182,0.00002417,-0.0
 0003192,-0.00000262,0.00002560,0.00000082,0.00000471,0.00002690,-0.000
 03774,0.00013879,0.00014219,0.00028129,-0.00079763,0.00001948,0.000079
 64,0.31747432,0.00011487,0.00004842,0.00002509,0.00075597,-0.00008196,
 0.00026347,0.00042872,0.00162322,-0.00234082,-0.01282480,0.00437714,0.
 00182388,-0.07902441,-0.07545332,0.01185472,0.00305140,-0.00131900,0.0
 0424251,0.00017627,-0.00102769,0.00068158,0.00023445,0.00027925,-0.001
 70149,0.00056228,-0.00008254,0.00015504,0.00000029,-0.00004149,0.00000
 310,0.00000106,-0.00001381,0.00001140,0.00002759,0.00001290,-0.0000120
 1,0.00001589,-0.00001313,-0.00000458,-0.00011025,0.00000534,0.00002539
 ,0.00001825,-0.00005167,0.00002164,-0.00070926,0.00003719,0.00011307,0
 .09227039,0.05839985,-0.00011856,-0.00016036,0.00011348,0.00007831,0.0
 0027479,0.00056331,0.00034566,-0.00174867,-0.00462045,-0.02971774,-0.0
 1061613,0.00136632,0.04714211,0.01545271,-0.06001973,0.03229966,0.0119
 1661,-0.01179405,-0.00266597,0.00172268,0.00386538,0.00216625,-0.00224
 779,-0.00398136,0.00091994,0.00073301,-0.00002570,-0.00011475,0.000104
 21,0.00005146,-0.00005987,-0.00001419,0.00003204,0.00010425,0.00002466
 ,0.00003280,-0.00001544,0.00000321,-0.00003050,0.00000546,0.00002105,0
 .00005603,0.00022967,0.00015357,0.00005078,-0.00138485,-0.00000011,-0.
 00025154,-0.05335702,-0.01291533,0.07758801,-0.00064137,-0.00038126,-0
 .00067072,-0.00283350,-0.00046272,-0.00064728,0.00214163,0.00186021,-0
 .00175823,-0.00088138,0.00283921,-0.00638928,-0.02073859,-0.01122594,-
 0.00011704,-0.34000279,-0.12925766,0.03303282,-0.00155324,-0.00088807,
 0.00098461,0.00059490,0.00185104,-0.00021400,-0.00004000,-0.00044194,0
 .00040223,0.00007574,-0.00006917,-0.00020324,0.00001542,0.00003121,-0.
 00001548,0.00006299,0.00007005,0.00007650,-0.00009518,0.00004304,-0.00
 004392,0.00067315,0.00002492,0.00111226,-0.00035372,-0.00001151,-0.000
 49248,-0.00019633,-0.00010244,0.00032462,0.00269591,-0.00501747,0.0041
 5535,0.36101730,-0.00150867,-0.00008918,0.00070002,0.00033691,-0.00113
 042,0.00045950,0.00108995,0.00260493,-0.00071384,0.00391182,-0.0095137
 1,-0.00107456,-0.00173224,0.00419314,-0.00560091,-0.14132488,-0.097530
 25,0.01741386,-0.00192153,0.00098975,0.00021870,0.00030164,-0.00245623
 ,0.00152129,0.00022895,0.00114642,-0.00004261,-0.00007576,-0.00009055,
 0.00012959,-0.00001179,-0.00000455,-0.00007521,0.00068756,-0.00000589,
 0.00018032,0.00030833,-0.00012012,-0.00007130,0.00006112,-0.00025448,-
 0.00014722,0.00094715,-0.00066457,0.00084931,-0.00000407,-0.00074326,0
 .00034064,-0.00255376,0.01331706,-0.00267877,0.14119657,0.09030153,-0.
 00124264,0.00013516,0.00089650,0.00058336,0.00051850,-0.00060089,-0.00
 023026,0.00124296,-0.00405506,-0.00058024,0.00206870,0.00341106,0.0491
 0601,0.01654071,-0.01703032,-0.02069405,-0.00678027,-0.03463283,0.0017
 8075,-0.00050117,-0.00010090,-0.00076851,0.00027515,-0.00063426,-0.000
 07375,-0.00029402,-0.00028046,-0.00007413,0.00010169,0.00007737,0.0001
 6370,0.00017531,0.00002161,0.00068453,-0.00000937,0.00008324,0.0001750
 4,-0.00020588,0.00001752,0.00044372,0.00000579,0.00045942,-0.00072302,
 0.00034639,-0.00047724,0.00003586,0.00016219,0.00023874,0.00095532,-0.
 00246614,-0.00303282,-0.02946706,-0.01129283,0.05557851,0.00013626,-0.
 00003052,0.00000661,-0.00021383,-0.00006050,0.00004302,0.00060738,0.00
 035967,0.00014625,-0.00113316,0.00204040,0.00268930,-0.00101434,0.0000
 0667,-0.00088125,0.00014242,-0.00002337,0.00063142,0.00260998,-0.00268
 945,0.00159483,-0.01044775,-0.01078064,0.00735172,-0.10217895,-0.09572
 551,0.01598445,0.00785838,0.02889142,-0.00423345,-0.00003111,-0.000019
 82,0.00000660,-0.00003749,0.00000261,-0.00002652,-0.00000700,0.0000117
 2,-0.00000196,0.00002861,0.00004018,-0.00001732,-0.00021907,-0.0000008
 6,0.00007162,0.00000330,-0.00006278,-0.00002790,0.00005260,-0.00001471
 ,0.00003662,0.00003508,0.00007838,-0.00008669,0.10945693,-0.00000636,0
 .00000184,-0.00000166,0.00000601,0.00004415,-0.00001253,-0.00009561,-0
 .00018281,0.00005396,0.00003709,-0.00069500,-0.00054237,0.00012863,0.0
 0003008,0.00033550,0.00003495,0.00006416,-0.00018107,0.00026675,0.0003
 5907,0.00087685,-0.00114085,0.00561431,0.00091791,-0.09661349,-0.21423
 131,0.03773480,0.00224098,-0.03488322,0.00453783,0.00000509,0.00000350
 ,-0.00000505,0.00000705,-0.00000500,0.00000343,-0.00000614,0.00000418,
 0.00000683,0.00001578,-0.00000553,0.00000015,0.00004191,0.00000135,-0.
 00001450,0.00001654,-0.00000569,-0.00001902,-0.00001994,-0.00002511,-0
 .00002501,-0.00001098,-0.00004707,0.00000351,0.09845477,0.24513882,-0.
 00017703,0.00003977,-0.00002907,0.00026831,0.00009041,-0.00001008,-0.0
 0086796,-0.00091530,-0.00036348,0.00275512,-0.00291133,-0.00385276,0.0
 0140398,0.00033246,0.00155706,-0.00017857,-0.00001696,-0.00087666,-0.0
 0371586,0.00493694,-0.00208966,0.02448925,0.02440493,-0.01221317,0.013
 16061,0.03544751,-0.06053954,-0.00041840,-0.00054821,0.00538267,0.0000
 4131,0.00002777,-0.00000790,0.00005939,-0.00000680,0.00004135,0.000003
 73,-0.00001017,0.00001264,-0.00004195,-0.00003783,-0.00001415,0.000420
 92,0.00001010,-0.00009282,0.00004792,0.00005873,0.00003270,-0.00004102
 ,0.00002962,-0.00018527,-0.00005224,-0.00016287,0.00012016,-0.02704682
 ,-0.04404383,0.06683257,-0.00004004,0.00001228,-0.00001036,0.00006502,
 0.00001161,-0.00001009,-0.00012770,-0.00010066,-0.00009310,0.00008770,
 0.00017802,-0.00058495,0.00003742,0.00029850,0.00045688,-0.00003252,-0
 .00013328,-0.00019827,0.00339236,0.00020347,0.00325167,0.00836046,0.00
 233626,0.01000773,-0.18578547,-0.03354698,-0.12039680,-0.01632476,0.00
 131667,-0.01484612,0.00000823,0.00000409,-0.00000116,0.00001280,-0.000
 00198,0.00001150,0.00000024,-0.00000131,0.00000193,-0.00000608,-0.0000
 0476,-0.00000592,0.00002888,-0.00000180,-0.00003022,-0.00002704,0.0000
 0770,-0.00000909,-0.00009658,-0.00004306,-0.00005420,-0.00002907,0.000
 01378,0.00003541,-0.00901511,-0.00380163,-0.01021382,0.20154653,-0.000
 05058,0.00000803,-0.00000426,0.00009098,0.00001234,0.00001242,-0.00017
 694,-0.00005354,-0.00008205,0.00022031,0.00006661,-0.00035760,0.000031
 96,0.00008466,0.00026015,0.00009884,-0.00006403,-0.00014582,-0.0000513
 2,-0.00176553,0.00195615,-0.00107709,0.00369414,-0.00367242,-0.0383771
 2,-0.06217945,-0.03332217,0.02427769,0.00166660,0.02169507,0.00000955,
 0.00000572,0.00000007,0.00001464,0.00000245,0.00001143,0.00000326,-0.0
 0000549,-0.00000176,-0.00001484,-0.00001064,0.00000455,0.00003900,-0.0
 0000472,-0.00003323,0.00001300,0.00001593,0.00000947,-0.00000540,0.000
 01179,0.00006025,-0.00004253,0.00004895,-0.00000496,-0.01941859,-0.003
 88443,-0.01739172,0.02993303,0.06485432,-0.00008864,0.00004125,-0.0000
 3054,0.00026282,0.00002837,0.00007502,-0.00048479,0.00000194,-0.000248
 73,0.00113493,0.00067899,-0.00012337,-0.00072386,-0.00030012,0.0004614
 5,0.00052751,-0.00000597,-0.00022088,-0.00668921,-0.00035583,0.0056214
 5,-0.01447646,-0.00752354,-0.03638502,-0.11556989,-0.02670511,-0.15532
 697,0.00000425,0.00178551,0.00256768,0.00002575,0.00000916,-0.00000255
 ,0.00004354,-0.00000213,0.00003008,-0.00000123,-0.00000376,0.00000530,
 -0.00002623,-0.00001173,-0.00004765,0.00007425,0.00000795,-0.00001919,
 0.00010799,0.00000283,0.00004486,0.00026977,0.00024460,0.00026502,-0.0
 0002365,0.00007610,-0.00007468,0.00401470,0.00120666,0.00601859,0.1315
 9020,0.03130011,0.17571799,-0.00007416,0.00001429,-0.00001341,0.000141
 64,0.00001694,0.00002159,-0.00025751,0.00002825,-0.00008646,0.00023788
 ,-0.00027157,-0.00031345,-0.00002417,-0.00007342,0.00026368,0.00008206
 ,0.00000315,-0.00015774,-0.00022293,0.00063221,0.00110797,0.00135541,-
 0.00149144,-0.00037831,-0.02197251,-0.00895761,-0.01669906,-0.26295922
 ,-0.03107297,-0.19060371,0.00001342,0.00000765,-0.00000129,0.00002553,
 -0.00000084,0.00001894,0.00000516,-0.00000643,0.00000136,-0.00003042,-
 0.00001240,-0.00002020,0.00004044,-0.00000450,-0.00002048,0.00002029,0
 .00001398,0.00001265,-0.00001322,0.00007035,0.00002901,-0.00001166,-0.
 00001722,0.00001326,0.00229922,0.00016183,0.00043526,-0.00191421,0.005
 04445,0.00056964,0.27229595,0.00002336,-0.00001796,-0.00000513,-0.0000
 7429,-0.00003967,0.00004347,0.00016916,0.00004086,0.00001423,-0.000183
 86,0.00003173,0.00046063,-0.00004755,0.00001921,-0.00029383,-0.0000428
 4,-0.00004239,0.00019962,-0.00004913,0.00011091,-0.00086006,-0.0014333
 5,0.00068390,0.00018799,0.02959321,-0.00107990,0.02448104,-0.06064076,
 -0.04456403,-0.08088074,-0.00001398,-0.00000667,0.00000422,-0.00000719
 ,0.00000183,-0.00000240,0.00000317,0.00000105,-0.00000191,-0.00001646,
 0.00001327,-0.00002648,-0.00001766,-0.00000261,0.00001443,-0.00000204,
 -0.00001048,0.00000786,0.00002523,0.00002275,-0.00004110,0.00000159,0.
 00002277,-0.00001529,-0.00000584,0.00184918,0.00084346,0.00343859,-0.0
 0352731,-0.00086723,0.03528510,0.05021131,0.00004486,-0.00000231,0.000
 00651,-0.00006786,-0.00000461,-0.00002696,0.00009396,-0.00001911,0.000
 01560,-0.00007921,-0.00002881,-0.00017482,0.00022202,0.00005920,0.0000
 2383,-0.00010765,0.00001718,-0.00000487,0.00018937,-0.00007390,-0.0008
 1509,-0.00031976,0.00055569,0.00211819,-0.00151933,0.00148373,0.000552
 87,-0.15984205,-0.04828426,-0.18956614,-0.00000401,-0.00000336,0.00000
 057,-0.00001491,0.00000026,-0.00001222,-0.00000368,0.00000404,0.000000
 45,0.00002177,0.00000469,0.00002043,-0.00001218,0.00000211,0.00001015,
 -0.00001512,-0.00000596,-0.00001043,0.00000666,-0.00007044,-0.00001947
 ,0.00000324,-0.00000941,0.00000547,0.00060237,-0.00120872,-0.00001588,
 0.00101844,-0.00006295,0.00133026,0.19087731,0.05592942,0.20984856,0.0
 0010240,-0.00006347,0.00002304,-0.00032592,-0.00005745,0.00002933,0.00
 062245,-0.00006674,0.00025845,-0.00110588,-0.00054368,0.00180537,-0.00
 049882,-0.00025844,-0.00067198,-0.00001996,0.00013683,0.00037250,0.001
 61531,0.00174391,-0.00005795,-0.00512372,0.00410920,-0.00080048,-0.007
 41565,-0.00419122,0.02372099,-0.10957351,0.04128155,0.14133821,-0.0000
 3749,-0.00001407,0.00000614,-0.00004143,0.00000525,-0.00002764,-0.0000
 0071,0.00000620,-0.00000626,0.00001562,0.00002500,0.00001198,-0.000054
 11,0.00000175,0.00003501,-0.00002008,-0.00001065,-0.00003052,0.0000245
 8,0.00001618,-0.00002389,0.00006472,-0.00001228,-0.00003661,0.00106767
 ,0.00027760,-0.00033213,-0.00014106,-0.00056230,-0.00054137,0.01096303
 ,-0.00600443,-0.03109424,0.10988257,0.00003746,0.00001077,0.00000173,-
 0.00000464,-0.00004089,0.00000359,0.00005204,0.00018019,-0.00007448,0.
 00015324,0.00033887,0.00014236,0.00007076,0.00005029,-0.00001336,-0.00
 003790,-0.00004099,0.00005565,0.00116672,-0.00066212,-0.00127803,0.002
 59977,-0.00344473,0.00225479,0.01466992,-0.00982188,-0.03155163,0.0177
 1831,-0.02053721,-0.00607036,-0.00000372,-0.00000555,0.00000576,-0.000
 01227,0.00000477,-0.00000958,-0.00000121,-0.00000128,-0.00000482,0.000
 01292,0.00001131,0.00000527,-0.00003385,-0.00000486,0.00000591,0.00000
 049,-0.00000288,0.00000258,-0.00002159,-0.00002518,-0.00001931,-0.0000
 0615,0.00002572,-0.00000613,-0.00105324,0.00085452,-0.00017668,-0.0001
 1854,0.00102359,0.00039194,0.00063023,-0.00371779,-0.00828248,-0.03581
 874,0.03580533,-0.00001747,0.00000685,-0.00000232,0.00004698,-0.000002
 33,0.00000143,-0.00008216,0.00006153,-0.00000027,-0.00000165,-0.000182
 35,-0.00000200,-0.00000350,-0.00003371,0.00004196,-0.00000829,0.000013
 07,-0.00000841,-0.00075138,-0.00012102,0.00023863,0.00178735,-0.000547
 92,0.00027301,-0.00161230,0.00655656,0.00087215,0.12042946,-0.05131180
 ,-0.36473501,0.00000503,0.00000137,-0.00000056,0.00000568,-0.00000008,
 0.00000292,0.00000179,-0.00000195,-0.00000003,-0.00000673,-0.00000519,
 -0.00000204,0.00000440,-0.00000309,-0.00000451,0.00001524,0.00000351,-
 0.00000455,-0.00000371,0.00001568,-0.00002375,0.00000300,-0.00001979,0
 .00000987,-0.00085760,0.00037634,0.00029271,0.00008034,-0.00023074,0.0
 0034188,0.01494345,0.00080780,-0.02328701,-0.13397794,0.04461726,0.385
 99589\\0.00004623,0.00000597,0.00000188,-0.00003161,-0.00001518,0.0000
 0779,0.00001066,-0.00002321,0.00000535,0.00000767,0.00001524,-0.000022
 76,0.00000150,0.00000093,0.00001139,-0.00000695,-0.00000749,-0.0000105
 9,0.00000858,0.00000274,0.00002720,-0.00001506,-0.00001714,-0.00001642
 ,-0.00001018,0.00002206,0.00000390,0.00001097,-0.00000607,0.00001179,-
 0.00000859,0.00000102,0.00000437,-0.00000703,-0.00000487,-0.00000511,-
 0.00000334,0.00000239,-0.00000196,0.00000686,0.00000829,-0.00000496,0.
 00000477,0.00000479,-0.00000544,-0.00001077,0.00000604,-0.00000621,-0.
 00000310,0.00000189,-0.00000236,0.00000743,0.00000740,0.00000792,-0.00
 000159,-0.00000436,0.00000147,-0.00000172,0.00000073,-0.00000372,0.000
 00154,-0.00000016,-0.00000311,-0.00000627,-0.00000101,-0.00000043\\\@


 WE LEARN WISDOM FROM FAILURE MUCH MORE THAN FROM SUCCESS.
 WE DISCOVER WHAT WILL DO BY FINDING OUT WHAT WILL NOT DO...
 AND HE WHO NEVER MADE A MISTAKE NEVER MADE A DISCOVERY
 Job cpu time:       0 days  2 hours  8 minutes 25.1 seconds.
 Elapsed time:       0 days  0 hours 32 minutes 10.1 seconds.
 File lengths (MBytes):  RWF=    196 Int=      0 D2E=      0 Chk=     10 Scr=      1
 Normal termination of Gaussian 16 at Mon May 31 23:53:24 2021.
### All Done ###
