### Starting Gaussian ###
 Entering Gaussian System, Link 0=g16
 Initial command:
 /cluster/software/gaussian/gaussian-16-A.03/avx2/g16/l1.exe "/local/scratch/cz9n3/Gau-18691.inp" -scrdir="/local/scratch/cz9n3/"
 Entering Link 1 = /cluster/software/gaussian/gaussian-16-A.03/avx2/g16/l1.exe PID=     18692.
  
 Copyright (c) 1988,1990,1992,1993,1995,1998,2003,2009,2016,
            Gaussian, Inc.  All Rights Reserved.
  
 This is part of the Gaussian(R) 16 program.  It is based on
 the Gaussian(R) 09 system (copyright 2009, Gaussian, Inc.),
 the Gaussian(R) 03 system (copyright 2003, Gaussian, Inc.),
 the Gaussian(R) 98 system (copyright 1998, Gaussian, Inc.),
 the Gaussian(R) 94 system (copyright 1995, Gaussian, Inc.),
 the Gaussian 92(TM) system (copyright 1992, Gaussian, Inc.),
 the Gaussian 90(TM) system (copyright 1990, Gaussian, Inc.),
 the Gaussian 88(TM) system (copyright 1988, Gaussian, Inc.),
 the Gaussian 86(TM) system (copyright 1986, Carnegie Mellon
 University), and the Gaussian 82(TM) system (copyright 1983,
 Carnegie Mellon University). Gaussian is a federally registered
 trademark of Gaussian, Inc.
  
 This software contains proprietary and confidential information,
 including trade secrets, belonging to Gaussian, Inc.
  
 This software is provided under written license and may be
 used, copied, transmitted, or stored only in accord with that
 written license.
  
 The following legend is applicable only to US Government
 contracts under FAR:
  
                    RESTRICTED RIGHTS LEGEND
  
 Use, reproduction and disclosure by the US Government is
 subject to restrictions as set forth in subparagraphs (a)
 and (c) of the Commercial Computer Software - Restricted
 Rights clause in FAR 52.227-19.
  
 Gaussian, Inc.
 340 Quinnipiac St., Bldg. 40, Wallingford CT 06492
  
  
 ---------------------------------------------------------------
 Warning -- This program may not be used in any manner that
 competes with the business of Gaussian, Inc. or will provide
 assistance to any competitor of Gaussian, Inc.  The licensee
 of this program is prohibited from giving any competitor of
 Gaussian, Inc. access to this program.  By using this program,
 the user acknowledges that Gaussian, Inc. is engaged in the
 business of creating and licensing software in the field of
 computational chemistry and represents and warrants to the
 licensee that it is not a competitor of Gaussian, Inc. and that
 it will not use this program in any manner prohibited above.
 ---------------------------------------------------------------
  

 Cite this work as:
 Gaussian 16, Revision A.03,
 M. J. Frisch, G. W. Trucks, H. B. Schlegel, G. E. Scuseria, 
 M. A. Robb, J. R. Cheeseman, G. Scalmani, V. Barone, 
 G. A. Petersson, H. Nakatsuji, X. Li, M. Caricato, A. V. Marenich, 
 J. Bloino, B. G. Janesko, R. Gomperts, B. Mennucci, H. P. Hratchian, 
 J. V. Ortiz, A. F. Izmaylov, J. L. Sonnenberg, D. Williams-Young, 
 F. Ding, F. Lipparini, F. Egidi, J. Goings, B. Peng, A. Petrone, 
 T. Henderson, D. Ranasinghe, V. G. Zakrzewski, J. Gao, N. Rega, 
 G. Zheng, W. Liang, M. Hada, M. Ehara, K. Toyota, R. Fukuda, 
 J. Hasegawa, M. Ishida, T. Nakajima, Y. Honda, O. Kitao, H. Nakai, 
 T. Vreven, K. Throssell, J. A. Montgomery, Jr., J. E. Peralta, 
 F. Ogliaro, M. J. Bearpark, J. J. Heyd, E. N. Brothers, K. N. Kudin, 
 V. N. Staroverov, T. A. Keith, R. Kobayashi, J. Normand, 
 K. Raghavachari, A. P. Rendell, J. C. Burant, S. S. Iyengar, 
 J. Tomasi, M. Cossi, J. M. Millam, M. Klene, C. Adamo, R. Cammi, 
 J. W. Ochterski, R. L. Martin, K. Morokuma, O. Farkas, 
 J. B. Foresman, and D. J. Fox, Gaussian, Inc., Wallingford CT, 2016.
 
 ******************************************
 Gaussian 16:  ES64L-G16RevA.03 25-Dec-2016
                 1-Jun-2021 
 ******************************************
 %chk=CNCNCNpCpNCtN.chk
 %NProcShared=20
 Will use up to   20 processors via shared memory.
 -----------------------------
 # opt freq b3lyp/6-31g(2df,p)
 -----------------------------
 1/18=20,19=15,26=3,38=1/1,3;
 2/9=110,12=2,17=6,18=5,40=1/2;
 3/5=1,6=6,7=104,11=2,25=1,30=1,71=1,74=-5/1,2,3;
 4//1;
 5/5=2,38=5/2;
 6/7=2,8=2,9=2,10=2,28=1/1;
 7//1,2,3,16;
 1/18=20,19=15,26=3/3(2);
 2/9=110/2;
 99//99;
 2/9=110/2;
 3/5=1,6=6,7=104,11=2,25=1,30=1,71=1,74=-5/1,2,3;
 4/5=5,16=3,69=1/1;
 5/5=2,38=5/2;
 7//1,2,3,16;
 1/18=20,19=15,26=3/3(-5);
 2/9=110/2;
 6/7=2,8=2,9=2,10=2,19=2,28=1/1;
 99/9=1/99;
 -------------------
 Title Card Required
 -------------------
 Symbolic Z-matrix:
 Charge =  0 Multiplicity = 1
 C                     1.02735  -0.08806   0.04631 
 N                     2.48682  -0.07156   0.07647 
 C                     2.94627   0.60607   1.27025 
 N                     4.391     0.57787   1.26073 
 C                     4.92405   1.28628   2.42471 
 N                     6.40856   1.32297   2.43691 
 C                     6.91006   2.0075    1.23416 
 N                     6.90668   1.97322   3.6029 
 C                     8.23029   2.03472   3.82699 
 N                     9.36746   2.16343   4.02108 
 H                     0.66903  -0.60619  -0.84863 
 H                     0.61931   0.92856   0.03088 
 H                     0.62342  -0.6172    0.91615 
 H                     2.83519   0.39755  -0.75465 
 H                     2.57277   0.08695   2.15815 
 H                     2.58319   1.64035   1.27267 
 H                     4.69912   1.03485   0.41317 
 H                     4.58265   0.77204   3.33309 
 H                     4.53685   2.31314   2.45909 
 H                     6.60991   1.49231   0.31834 
 H                     8.00397   2.01127   1.20841 
 H                     6.55075   3.04156   1.19733 
 H                     6.22043   2.30568   4.28862 
 

 GradGradGradGradGradGradGradGradGradGradGradGradGradGradGradGradGradGrad
 Berny optimization.
 Initialization pass.
                           ----------------------------
                           !    Initial Parameters    !
                           ! (Angstroms and Degrees)  !
 --------------------------                            --------------------------
 ! Name  Definition              Value          Derivative Info.                !
 --------------------------------------------------------------------------------
 ! R1    R(1,2)                  1.4599         estimate D2E/DX2                !
 ! R2    R(1,11)                 1.0944         estimate D2E/DX2                !
 ! R3    R(1,12)                 1.0956         estimate D2E/DX2                !
 ! R4    R(1,13)                 1.0953         estimate D2E/DX2                !
 ! R5    R(2,3)                  1.4475         estimate D2E/DX2                !
 ! R6    R(2,14)                 1.016          estimate D2E/DX2                !
 ! R7    R(3,4)                  1.445          estimate D2E/DX2                !
 ! R8    R(3,15)                 1.0942         estimate D2E/DX2                !
 ! R9    R(3,16)                 1.0962         estimate D2E/DX2                !
 ! R10   R(4,5)                  1.4632         estimate D2E/DX2                !
 ! R11   R(4,17)                 1.011          estimate D2E/DX2                !
 ! R12   R(5,6)                  1.485          estimate D2E/DX2                !
 ! R13   R(5,18)                 1.0982         estimate D2E/DX2                !
 ! R14   R(5,19)                 1.098          estimate D2E/DX2                !
 ! R15   R(6,7)                  1.472          estimate D2E/DX2                !
 ! R16   R(6,8)                  1.4249         estimate D2E/DX2                !
 ! R17   R(7,20)                 1.0928         estimate D2E/DX2                !
 ! R18   R(7,21)                 1.0942         estimate D2E/DX2                !
 ! R19   R(7,22)                 1.0953         estimate D2E/DX2                !
 ! R20   R(8,9)                  1.3439         estimate D2E/DX2                !
 ! R21   R(8,23)                 1.0255         estimate D2E/DX2                !
 ! R22   R(9,10)                 1.1608         estimate D2E/DX2                !
 ! A1    A(2,1,11)             110.4603         estimate D2E/DX2                !
 ! A2    A(2,1,12)             111.2322         estimate D2E/DX2                !
 ! A3    A(2,1,13)             110.9604         estimate D2E/DX2                !
 ! A4    A(11,1,12)            107.8096         estimate D2E/DX2                !
 ! A5    A(11,1,13)            107.4538         estimate D2E/DX2                !
 ! A6    A(12,1,13)            108.7906         estimate D2E/DX2                !
 ! A7    A(1,2,3)              109.8549         estimate D2E/DX2                !
 ! A8    A(1,2,14)             109.3367         estimate D2E/DX2                !
 ! A9    A(3,2,14)             110.4667         estimate D2E/DX2                !
 ! A10   A(2,3,4)              107.6237         estimate D2E/DX2                !
 ! A11   A(2,3,15)             109.8013         estimate D2E/DX2                !
 ! A12   A(2,3,16)             109.7786         estimate D2E/DX2                !
 ! A13   A(4,3,15)             109.7154         estimate D2E/DX2                !
 ! A14   A(4,3,16)             110.462          estimate D2E/DX2                !
 ! A15   A(15,3,16)            109.4376         estimate D2E/DX2                !
 ! A16   A(3,4,5)              110.4596         estimate D2E/DX2                !
 ! A17   A(3,4,17)             107.542          estimate D2E/DX2                !
 ! A18   A(5,4,17)             109.6967         estimate D2E/DX2                !
 ! A19   A(4,5,6)              112.5003         estimate D2E/DX2                !
 ! A20   A(4,5,18)             108.5443         estimate D2E/DX2                !
 ! A21   A(4,5,19)             110.4409         estimate D2E/DX2                !
 ! A22   A(6,5,18)             108.3926         estimate D2E/DX2                !
 ! A23   A(6,5,19)             109.2182         estimate D2E/DX2                !
 ! A24   A(18,5,19)            107.601          estimate D2E/DX2                !
 ! A25   A(5,6,7)              110.2039         estimate D2E/DX2                !
 ! A26   A(5,6,8)              111.5584         estimate D2E/DX2                !
 ! A27   A(7,6,8)              109.7122         estimate D2E/DX2                !
 ! A28   A(6,7,20)             111.836          estimate D2E/DX2                !
 ! A29   A(6,7,21)             111.1883         estimate D2E/DX2                !
 ! A30   A(6,7,22)             110.7777         estimate D2E/DX2                !
 ! A31   A(20,7,21)            104.8615         estimate D2E/DX2                !
 ! A32   A(20,7,22)            109.074          estimate D2E/DX2                !
 ! A33   A(21,7,22)            108.8991         estimate D2E/DX2                !
 ! A34   A(6,8,9)              120.1083         estimate D2E/DX2                !
 ! A35   A(6,8,23)             117.4617         estimate D2E/DX2                !
 ! A36   A(9,8,23)             122.1921         estimate D2E/DX2                !
 ! A37   L(8,9,10,21,-1)       180.0344         estimate D2E/DX2                !
 ! A38   L(8,9,10,21,-2)       176.1316         estimate D2E/DX2                !
 ! D1    D(11,1,2,3)          -179.5074         estimate D2E/DX2                !
 ! D2    D(11,1,2,14)           59.1132         estimate D2E/DX2                !
 ! D3    D(12,1,2,3)            60.8111         estimate D2E/DX2                !
 ! D4    D(12,1,2,14)          -60.5683         estimate D2E/DX2                !
 ! D5    D(13,1,2,3)           -60.4465         estimate D2E/DX2                !
 ! D6    D(13,1,2,14)          178.1741         estimate D2E/DX2                !
 ! D7    D(1,2,3,4)            179.1977         estimate D2E/DX2                !
 ! D8    D(1,2,3,15)            59.8187         estimate D2E/DX2                !
 ! D9    D(1,2,3,16)           -60.5352         estimate D2E/DX2                !
 ! D10   D(14,2,3,4)           -60.1026         estimate D2E/DX2                !
 ! D11   D(14,2,3,15)         -179.4816         estimate D2E/DX2                !
 ! D12   D(14,2,3,16)           60.1645         estimate D2E/DX2                !
 ! D13   D(2,3,4,5)            178.2222         estimate D2E/DX2                !
 ! D14   D(2,3,4,17)            58.5386         estimate D2E/DX2                !
 ! D15   D(15,3,4,5)           -62.3441         estimate D2E/DX2                !
 ! D16   D(15,3,4,17)          177.9723         estimate D2E/DX2                !
 ! D17   D(16,3,4,5)            58.3879         estimate D2E/DX2                !
 ! D18   D(16,3,4,17)          -61.2958         estimate D2E/DX2                !
 ! D19   D(3,4,5,6)           -178.1459         estimate D2E/DX2                !
 ! D20   D(3,4,5,18)            61.9083         estimate D2E/DX2                !
 ! D21   D(3,4,5,19)           -55.8283         estimate D2E/DX2                !
 ! D22   D(17,4,5,6)           -59.7704         estimate D2E/DX2                !
 ! D23   D(17,4,5,18)         -179.7162         estimate D2E/DX2                !
 ! D24   D(17,4,5,19)           62.5472         estimate D2E/DX2                !
 ! D25   D(4,5,6,7)             60.046          estimate D2E/DX2                !
 ! D26   D(4,5,6,8)           -177.8242         estimate D2E/DX2                !
 ! D27   D(18,5,6,7)          -179.9204         estimate D2E/DX2                !
 ! D28   D(18,5,6,8)           -57.7906         estimate D2E/DX2                !
 ! D29   D(19,5,6,7)           -62.9594         estimate D2E/DX2                !
 ! D30   D(19,5,6,8)            59.1704         estimate D2E/DX2                !
 ! D31   D(5,6,7,20)           -61.0586         estimate D2E/DX2                !
 ! D32   D(5,6,7,21)          -177.9095         estimate D2E/DX2                !
 ! D33   D(5,6,7,22)            60.8502         estimate D2E/DX2                !
 ! D34   D(8,6,7,20)           175.7274         estimate D2E/DX2                !
 ! D35   D(8,6,7,21)            58.8766         estimate D2E/DX2                !
 ! D36   D(8,6,7,22)           -62.3638         estimate D2E/DX2                !
 ! D37   D(5,6,8,9)            176.184          estimate D2E/DX2                !
 ! D38   D(5,6,8,23)             1.6652         estimate D2E/DX2                !
 ! D39   D(7,6,8,9)            -61.4034         estimate D2E/DX2                !
 ! D40   D(7,6,8,23)           124.0777         estimate D2E/DX2                !
 --------------------------------------------------------------------------------
 Trust Radius=3.00D-01 FncErr=1.00D-07 GrdErr=1.00D-06 EigMax=2.50D+02 EigMin=1.00D-04
 Number of steps in this run=    110 maximum allowed number of steps=    138.
 GradGradGradGradGradGradGradGradGradGradGradGradGradGradGradGradGradGrad

                          Input orientation:                          
 ---------------------------------------------------------------------
 Center     Atomic      Atomic             Coordinates (Angstroms)
 Number     Number       Type             X           Y           Z
 ---------------------------------------------------------------------
      1          6           0        1.027350   -0.088060    0.046310
      2          7           0        2.486820   -0.071560    0.076470
      3          6           0        2.946270    0.606070    1.270250
      4          7           0        4.391000    0.577870    1.260730
      5          6           0        4.924050    1.286280    2.424710
      6          7           0        6.408560    1.322970    2.436910
      7          6           0        6.910060    2.007500    1.234160
      8          7           0        6.906680    1.973220    3.602900
      9          6           0        8.230290    2.034720    3.826990
     10          7           0        9.367460    2.163430    4.021080
     11          1           0        0.669030   -0.606190   -0.848630
     12          1           0        0.619310    0.928560    0.030880
     13          1           0        0.623420   -0.617200    0.916150
     14          1           0        2.835190    0.397550   -0.754650
     15          1           0        2.572770    0.086950    2.158150
     16          1           0        2.583190    1.640350    1.272670
     17          1           0        4.699120    1.034850    0.413170
     18          1           0        4.582650    0.772040    3.333090
     19          1           0        4.536850    2.313140    2.459090
     20          1           0        6.609910    1.492310    0.318340
     21          1           0        8.003970    2.011270    1.208410
     22          1           0        6.550750    3.041560    1.197330
     23          1           0        6.220430    2.305680    4.288620
 ---------------------------------------------------------------------
                    Distance matrix (angstroms):
                    1          2          3          4          5
     1  C    0.000000
     2  N    1.459875   0.000000
     3  C    2.379517   1.447545   0.000000
     4  N    3.637639   2.334552   1.445037   0.000000
     5  C    4.767585   3.646649   2.388949   1.463160   0.000000
     6  N    6.055031   4.785022   3.723237   2.451351   1.485013
     7  C    6.356779   5.022727   4.204395   2.896586   2.425243
     8  N    7.173892   6.012653   4.795331   3.709637   2.406416
     9  C    8.407264   7.175672   6.041426   4.842339   3.668484
    10  N    9.509229   8.240045   7.157103   5.907511   4.802258
    11  H    1.094427   2.108554   3.338420   4.438970   5.692222
    12  H    1.095560   2.118941   2.656084   3.982607   4.938539
    13  H    1.095340   2.115430   2.649039   3.967567   4.939070
    14  H    2.036084   1.015966   2.038637   2.552414   3.906598
    15  H    2.622750   2.089475   1.094237   2.086223   2.652916
    16  H    2.629068   2.090650   1.096161   2.096946   2.632905
    17  H    3.857124   2.496354   1.997729   1.011003   2.039633
    18  H    4.917606   3.963551   2.638294   2.090241   1.098249
    19  H    4.889157   3.945414   2.618659   2.113883   1.097974
    20  H    5.808317   4.416340   3.887649   2.578345   2.705802
    21  H    7.377729   6.004866   5.249642   3.887277   3.389824
    22  H    6.451923   5.240551   4.350771   3.276936   2.689539
    23  H    7.120061   6.110100   4.766482   3.937037   2.488762
                    6          7          8          9         10
     6  N    0.000000
     7  C    1.471968   0.000000
     8  N    1.424950   2.368990   0.000000
     9  C    2.399502   2.909728   1.343853   0.000000
    10  N    3.459922   3.718878   2.503296   1.160773   0.000000
    11  H    6.889023   7.079537   8.085651   9.274076  10.346379
    12  H    6.281716   6.495039   7.306276   8.576774   9.694159
    13  H    6.288467   6.819972   7.308095   8.565637   9.686626
    14  H    4.879696   4.811639   6.168307   7.264906   8.282299
    15  H    4.039646   4.832634   4.942478   6.211793   7.345072
    16  H    4.011189   4.342590   4.922737   6.210460   7.338507
    17  H    2.664718   2.551143   3.991020   5.012292   6.007005
    18  H    2.107275   3.368784   2.629971   3.891475   5.030279
    19  H    2.117599   2.688121   2.653289   3.948439   5.079077
    20  H    2.134843   1.092812   3.332819   3.902623   4.665273
    21  H    2.127981   1.094220   2.634213   2.628447   3.129436
    22  H    2.123753   1.095327   2.656088   3.278672   4.083936
    23  H    2.104743   3.145509   1.025515   2.079918   3.161584
                   11         12         13         14         15
    11  H    0.000000
    12  H    1.769595   0.000000
    13  H    1.765404   1.781318   0.000000
    14  H    2.389263   2.410218   2.951816   0.000000
    15  H    3.625658   3.008254   2.416269   2.941044   0.000000
    16  H    3.634675   2.430126   3.010704   2.391251   1.788081
    17  H    4.530649   4.099060   4.426465   2.290020   2.909439
    18  H    5.890902   5.161119   4.842219   4.461331   2.426819
    19  H    5.867157   4.812524   5.126645   4.110141   2.983973
    20  H    6.407775   6.023930   6.375380   4.074103   4.653863
    21  H    8.055052   7.555928   7.840076   5.759686   5.839773
    22  H    7.217109   6.403699   6.971286   4.960484   5.047496
    23  H    8.104836   7.169195   7.158443   6.366740   4.771487
                   16         17         18         19         20
    16  H    0.000000
    17  H    2.362738   0.000000
    18  H    2.999522   2.934036   0.000000
    19  H    2.382651   2.417880   1.772276   0.000000
    20  H    4.140910   1.967074   3.703686   3.090979   0.000000
    21  H    5.433835   3.536642   4.213714   3.698141   1.733478
    22  H    4.208396   2.840832   3.685866   2.485644   1.782217
    23  H    4.771597   4.352988   2.438732   2.486298   4.071411
                   21         22         23
    21  H    0.000000
    22  H    1.781423   0.000000
    23  H    3.571468   3.194793   0.000000
 Stoichiometry    C5H13N5
 Framework group  C1[X(C5H13N5)]
 Deg. of freedom    63
 Full point group                 C1      NOp   1
 Largest Abelian subgroup         C1      NOp   1
 Largest concise Abelian subgroup C1      NOp   1
                         Standard orientation:                         
 ---------------------------------------------------------------------
 Center     Atomic      Atomic             Coordinates (Angstroms)
 Number     Number       Type             X           Y           Z
 ---------------------------------------------------------------------
      1          6           0       -4.697471   -0.195728    0.026952
      2          7           0       -3.425029    0.397950   -0.372638
      3          6           0       -2.329758   -0.419306    0.104711
      4          7           0       -1.099262    0.199699   -0.332146
      5          6           0        0.054715   -0.556621    0.154838
      6          7           0        1.346372    0.065737   -0.231889
      7          6           0        1.441922    1.425553    0.323505
      8          7           0        2.455454   -0.712625    0.209212
      9          6           0        3.707224   -0.347088   -0.115433
     10          7           0        4.803873   -0.027390   -0.321701
     11          1           0       -5.533241    0.410109   -0.336669
     12          1           0       -4.780029   -0.260407    1.117480
     13          1           0       -4.811252   -1.199830   -0.395664
     14          1           0       -3.358490    1.338015    0.006882
     15          1           0       -2.406844   -1.425830   -0.317571
     16          1           0       -2.361151   -0.479342    1.198776
     17          1           0       -1.077733    1.136364    0.047750
     18          1           0        0.015418   -1.567516   -0.272593
     19          1           0        0.014414   -0.656369    1.247529
     20          1           0        0.647923    2.075154   -0.053086
     21          1           0        2.372385    1.913284    0.017447
     22          1           0        1.396714    1.402449    1.417655
     23          1           0        2.252238   -1.590538    0.698757
 ---------------------------------------------------------------------
 Rotational constants (GHZ):           6.3307337           0.4006054           0.3855356
 Standard basis: 6-31G(2df,p) (6D, 7F)
 There are   375 symmetry adapted cartesian basis functions of A   symmetry.
 There are   345 symmetry adapted basis functions of A   symmetry.
   345 basis functions,   531 primitive gaussians,   375 cartesian basis functions
    39 alpha electrons       39 beta electrons
       nuclear repulsion energy       521.6729388307 Hartrees.
 NAtoms=   23 NActive=   23 NUniq=   23 SFac= 1.00D+00 NAtFMM=   60 NAOKFM=F Big=F
 Integral buffers will be    131072 words long.
 Raffenetti 2 integral format.
 Two-electron integral symmetry is turned on.
 One-electron integrals computed using PRISM.
 PrsmSu:  requested number of processors reduced to:  13 ShMem   1 Linda.
 NBasis=   345 RedAO= T EigKep=  1.31D-04  NBF=   345
 NBsUse=   345 1.00D-06 EigRej= -1.00D+00 NBFU=   345
 ExpMin= 1.61D-01 ExpMax= 4.17D+03 ExpMxC= 6.27D+02 IAcc=3 IRadAn=         5 AccDes= 0.00D+00
 Harris functional with IExCor=  402 and IRadAn=       5 diagonalized for initial guess.
 HarFok:  IExCor=  402 AccDes= 0.00D+00 IRadAn=         5 IDoV= 1 UseB2=F ITyADJ=14
 ICtDFT=  3500011 ScaDFX=  1.000000  1.000000  1.000000  1.000000
 FoFCou: FMM=F IPFlag=           0 FMFlag=      100000 FMFlg1=           0
         NFxFlg=           0 DoJE=T BraDBF=F KetDBF=T FulRan=T
         wScrn=  0.000000 ICntrl=       500 IOpCl=  0 I1Cent=   200000004 NGrid=           0
         NMat0=    1 NMatS0=      1 NMatT0=    0 NMatD0=    1 NMtDS0=    0 NMtDT0=    0
 Petite list used in FoFCou.
 Requested convergence on RMS density matrix=1.00D-08 within 128 cycles.
 Requested convergence on MAX density matrix=1.00D-06.
 Requested convergence on             energy=1.00D-06.
 No special actions if energy rises.
 Integral accuracy reduced to 1.0D-05 until final iterations.
 Initial convergence to 1.0D-05 achieved.  Increase integral accuracy.
 SCF Done:  E(RB3LYP) =  -472.030312178     A.U. after   13 cycles
            NFock= 13  Conv=0.87D-08     -V/T= 2.0075

 **********************************************************************

            Population analysis using the SCF density.

 **********************************************************************

 Orbital symmetries:
       Occupied  (A) (A) (A) (A) (A) (A) (A) (A) (A) (A) (A) (A)
                 (A) (A) (A) (A) (A) (A) (A) (A) (A) (A) (A) (A)
                 (A) (A) (A) (A) (A) (A) (A) (A) (A) (A) (A) (A)
                 (A) (A) (A)
       Virtual   (A) (A) (A) (A) (A) (A) (A) (A) (A) (A) (A) (A)
                 (A) (A) (A) (A) (A) (A) (A) (A) (A) (A) (A) (A)
                 (A) (A) (A) (A) (A) (A) (A) (A) (A) (A) (A) (A)
                 (A) (A) (A) (A) (A) (A) (A) (A) (A) (A) (A) (A)
                 (A) (A) (A) (A) (A) (A) (A) (A) (A) (A) (A) (A)
                 (A) (A) (A) (A) (A) (A) (A) (A) (A) (A) (A) (A)
                 (A) (A) (A) (A) (A) (A) (A) (A) (A) (A) (A) (A)
                 (A) (A) (A) (A) (A) (A) (A) (A) (A) (A) (A) (A)
                 (A) (A) (A) (A) (A) (A) (A) (A) (A) (A) (A) (A)
                 (A) (A) (A) (A) (A) (A) (A) (A) (A) (A) (A) (A)
                 (A) (A) (A) (A) (A) (A) (A) (A) (A) (A) (A) (A)
                 (A) (A) (A) (A) (A) (A) (A) (A) (A) (A) (A) (A)
                 (A) (A) (A) (A) (A) (A) (A) (A) (A) (A) (A) (A)
                 (A) (A) (A) (A) (A) (A) (A) (A) (A) (A) (A) (A)
                 (A) (A) (A) (A) (A) (A) (A) (A) (A) (A) (A) (A)
                 (A) (A) (A) (A) (A) (A) (A) (A) (A) (A) (A) (A)
                 (A) (A) (A) (A) (A) (A) (A) (A) (A) (A) (A) (A)
                 (A) (A) (A) (A) (A) (A) (A) (A) (A) (A) (A) (A)
                 (A) (A) (A) (A) (A) (A) (A) (A) (A) (A) (A) (A)
                 (A) (A) (A) (A) (A) (A) (A) (A) (A) (A) (A) (A)
                 (A) (A) (A) (A) (A) (A) (A) (A) (A) (A) (A) (A)
                 (A) (A) (A) (A) (A) (A) (A) (A) (A) (A) (A) (A)
                 (A) (A) (A) (A) (A) (A) (A) (A) (A) (A) (A) (A)
                 (A) (A) (A) (A) (A) (A) (A) (A) (A) (A) (A) (A)
                 (A) (A) (A) (A) (A) (A) (A) (A) (A) (A) (A) (A)
                 (A) (A) (A) (A) (A) (A)
 The electronic state is 1-A.
 Alpha  occ. eigenvalues --  -14.40900 -14.38062 -14.33261 -14.32234 -14.31284
 Alpha  occ. eigenvalues --  -10.25847 -10.24066 -10.23948 -10.21821 -10.20815
 Alpha  occ. eigenvalues --   -1.02168  -0.95134  -0.90221  -0.88197  -0.83356
 Alpha  occ. eigenvalues --   -0.72688  -0.69087  -0.64323  -0.63627  -0.60209
 Alpha  occ. eigenvalues --   -0.54266  -0.51185  -0.49175  -0.48290  -0.47471
 Alpha  occ. eigenvalues --   -0.44105  -0.43536  -0.40887  -0.40228  -0.39710
 Alpha  occ. eigenvalues --   -0.38987  -0.38167  -0.37266  -0.35033  -0.32759
 Alpha  occ. eigenvalues --   -0.29363  -0.24665  -0.23127  -0.21229
 Alpha virt. eigenvalues --    0.01818   0.05532   0.05784   0.08381   0.08422
 Alpha virt. eigenvalues --    0.09481   0.12279   0.12653   0.13855   0.14297
 Alpha virt. eigenvalues --    0.15223   0.16019   0.16131   0.17275   0.18260
 Alpha virt. eigenvalues --    0.19506   0.20412   0.20901   0.22696   0.23491
 Alpha virt. eigenvalues --    0.24398   0.24591   0.29113   0.38580   0.40005
 Alpha virt. eigenvalues --    0.43756   0.44298   0.45126   0.45954   0.48930
 Alpha virt. eigenvalues --    0.49577   0.50951   0.51393   0.53435   0.54196
 Alpha virt. eigenvalues --    0.55884   0.57615   0.58166   0.60498   0.61999
 Alpha virt. eigenvalues --    0.62926   0.63987   0.65089   0.66246   0.68409
 Alpha virt. eigenvalues --    0.69520   0.69822   0.70512   0.71378   0.71671
 Alpha virt. eigenvalues --    0.72407   0.72963   0.73329   0.73858   0.75326
 Alpha virt. eigenvalues --    0.76294   0.77182   0.78057   0.79643   0.80699
 Alpha virt. eigenvalues --    0.81285   0.83032   0.83421   0.84304   0.85101
 Alpha virt. eigenvalues --    0.86375   0.87462   0.88415   0.88552   0.91120
 Alpha virt. eigenvalues --    0.92250   0.93854   0.95766   0.97621   1.00477
 Alpha virt. eigenvalues --    1.06708   1.09369   1.12950   1.14523   1.16805
 Alpha virt. eigenvalues --    1.18322   1.20730   1.22282   1.23928   1.24527
 Alpha virt. eigenvalues --    1.26461   1.28409   1.29757   1.31614   1.33368
 Alpha virt. eigenvalues --    1.35677   1.36486   1.38058   1.40516   1.43996
 Alpha virt. eigenvalues --    1.45267   1.47501   1.51540   1.51713   1.52060
 Alpha virt. eigenvalues --    1.52934   1.57728   1.59620   1.61576   1.61976
 Alpha virt. eigenvalues --    1.63952   1.64862   1.68438   1.69795   1.73602
 Alpha virt. eigenvalues --    1.77644   1.78414   1.79653   1.80761   1.82870
 Alpha virt. eigenvalues --    1.83381   1.85806   1.91206   1.93589   1.94252
 Alpha virt. eigenvalues --    1.97486   1.97830   2.00636   2.01318   2.04098
 Alpha virt. eigenvalues --    2.06816   2.08919   2.22036   2.24105   2.25349
 Alpha virt. eigenvalues --    2.26372   2.27867   2.28746   2.33075   2.34735
 Alpha virt. eigenvalues --    2.39117   2.40808   2.43638   2.44840   2.47106
 Alpha virt. eigenvalues --    2.50114   2.54845   2.55421   2.61817   2.64724
 Alpha virt. eigenvalues --    2.69989   2.70619   2.73814   2.74746   2.77171
 Alpha virt. eigenvalues --    2.77690   2.80011   2.80887   2.82900   2.83802
 Alpha virt. eigenvalues --    2.84345   2.86197   2.87354   2.89224   2.90682
 Alpha virt. eigenvalues --    2.92053   2.93481   2.94245   2.95239   2.96989
 Alpha virt. eigenvalues --    2.98227   3.00157   3.01330   3.03529   3.06248
 Alpha virt. eigenvalues --    3.09121   3.09319   3.10501   3.15789   3.17272
 Alpha virt. eigenvalues --    3.18619   3.24948   3.27302   3.29463   3.31514
 Alpha virt. eigenvalues --    3.31987   3.36985   3.37362   3.38409   3.39989
 Alpha virt. eigenvalues --    3.43648   3.47437   3.48895   3.49698   3.51098
 Alpha virt. eigenvalues --    3.55114   3.57589   3.58774   3.62004   3.64688
 Alpha virt. eigenvalues --    3.64976   3.66979   3.67539   3.68209   3.68880
 Alpha virt. eigenvalues --    3.69112   3.73744   3.74027   3.75930   3.79553
 Alpha virt. eigenvalues --    3.80965   3.85342   3.89605   3.90143   3.92174
 Alpha virt. eigenvalues --    3.97195   4.00653   4.03094   4.04072   4.08727
 Alpha virt. eigenvalues --    4.12066   4.13100   4.14927   4.16635   4.18600
 Alpha virt. eigenvalues --    4.19693   4.20801   4.22178   4.24836   4.27916
 Alpha virt. eigenvalues --    4.31430   4.32108   4.33692   4.35496   4.36465
 Alpha virt. eigenvalues --    4.37685   4.38966   4.42012   4.44486   4.45304
 Alpha virt. eigenvalues --    4.46112   4.47536   4.48593   4.49512   4.51723
 Alpha virt. eigenvalues --    4.52289   4.55088   4.55428   4.57906   4.58590
 Alpha virt. eigenvalues --    4.59289   4.60832   4.61600   4.62675   4.65551
 Alpha virt. eigenvalues --    4.66266   4.67699   4.69798   4.72089   4.73280
 Alpha virt. eigenvalues --    4.78530   4.78750   4.79899   4.81535   4.85006
 Alpha virt. eigenvalues --    4.85691   4.89153   4.90855   4.91860   4.93822
 Alpha virt. eigenvalues --    4.95357   4.98494   5.00196   5.04010   5.08839
 Alpha virt. eigenvalues --    5.09668   5.11357   5.15664   5.17300   5.19507
 Alpha virt. eigenvalues --    5.24191   5.24432   5.29088   5.32833   5.34565
 Alpha virt. eigenvalues --    5.37517   5.39529   5.43310   5.43555   5.50723
 Alpha virt. eigenvalues --    5.53440   5.59228   5.63404   5.69245   5.85469
 Alpha virt. eigenvalues --    6.45905   9.86817  10.55117  11.02049  11.10046
 Alpha virt. eigenvalues --   11.20563  11.42481  11.44826  11.52237  11.57060
 Alpha virt. eigenvalues --   11.70401  12.06469  12.49865  14.74158  18.07765
 Alpha virt. eigenvalues --   24.54597
          Condensed to atoms (all electrons):
               1          2          3          4          5          6
     1  C    4.925588   0.375195  -0.073876   0.003836  -0.000376   0.000000
     2  N    0.375195   6.351769   0.412080  -0.034004   0.002893  -0.000019
     3  C   -0.073876   0.412080   4.805433   0.381475  -0.063435   0.001875
     4  N    0.003836  -0.034004   0.381475   6.411640   0.376736  -0.026261
     5  C   -0.000376   0.002893  -0.063435   0.376736   4.873357   0.381657
     6  N    0.000000  -0.000019   0.001875  -0.026261   0.381657   6.345549
     7  C   -0.000000   0.000011   0.000169  -0.000769  -0.075717   0.370560
     8  N   -0.000000   0.000000  -0.000104   0.001114  -0.041514   0.250094
     9  C    0.000000  -0.000000   0.000002  -0.000084   0.003031  -0.036473
    10  N    0.000000   0.000000   0.000000   0.000000   0.000102  -0.003740
    11  H    0.382904  -0.021731   0.004089  -0.000124   0.000000  -0.000000
    12  H    0.367822  -0.045875  -0.002782  -0.000105   0.000066   0.000000
    13  H    0.381731  -0.024734  -0.004284   0.000272  -0.000007   0.000000
    14  H   -0.043655   0.344677  -0.055678   0.000991  -0.000268   0.000009
    15  H   -0.006218  -0.011107   0.343784  -0.011709  -0.006198   0.000143
    16  H    0.001895  -0.062860   0.362709  -0.059337   0.001971  -0.000137
    17  H   -0.000333   0.001709  -0.051520   0.338724  -0.054841  -0.000705
    18  H   -0.000009   0.000196  -0.005598  -0.010091   0.341566  -0.011405
    19  H    0.000060  -0.000206   0.000354  -0.059537   0.342516  -0.061455
    20  H    0.000001   0.000000   0.000149   0.000343  -0.003243  -0.019918
    21  H   -0.000000  -0.000000  -0.000010   0.000213   0.004306  -0.022070
    22  H    0.000000   0.000001   0.000036  -0.002155  -0.003299  -0.045353
    23  H    0.000000   0.000000   0.000020  -0.000129  -0.005064  -0.039111
               7          8          9         10         11         12
     1  C   -0.000000  -0.000000   0.000000   0.000000   0.382904   0.367822
     2  N    0.000011   0.000000  -0.000000   0.000000  -0.021731  -0.045875
     3  C    0.000169  -0.000104   0.000002   0.000000   0.004089  -0.002782
     4  N   -0.000769   0.001114  -0.000084   0.000000  -0.000124  -0.000105
     5  C   -0.075717  -0.041514   0.003031   0.000102   0.000000   0.000066
     6  N    0.370560   0.250094  -0.036473  -0.003740  -0.000000   0.000000
     7  C    5.006525  -0.070254  -0.004452  -0.000817   0.000000   0.000000
     8  N   -0.070254   6.475989   0.378620   0.026907   0.000000   0.000000
     9  C   -0.004452   0.378620   4.347951   0.958111  -0.000000   0.000000
    10  N   -0.000817   0.026907   0.958111   6.366898   0.000000   0.000000
    11  H    0.000000   0.000000  -0.000000   0.000000   0.583657  -0.040432
    12  H    0.000000   0.000000   0.000000   0.000000  -0.040432   0.663732
    13  H   -0.000000   0.000000   0.000000   0.000000  -0.028208  -0.044024
    14  H   -0.000022   0.000000   0.000000   0.000000  -0.001989  -0.006051
    15  H    0.000001  -0.000009   0.000000  -0.000000   0.000025  -0.002045
    16  H   -0.000096   0.000036   0.000000   0.000000  -0.000319   0.014501
    17  H    0.006583  -0.000039   0.000007   0.000000   0.000002  -0.000019
    18  H    0.006266   0.000039  -0.000038  -0.000001   0.000000   0.000001
    19  H   -0.012886   0.006903   0.000670  -0.000005   0.000000  -0.000001
    20  H    0.373626   0.003690  -0.000296   0.000008   0.000000   0.000000
    21  H    0.385466  -0.005307   0.007247   0.001801  -0.000000   0.000000
    22  H    0.342570   0.008264   0.003361  -0.000227   0.000000  -0.000000
    23  H    0.004424   0.354963  -0.036953   0.000687   0.000000  -0.000000
              13         14         15         16         17         18
     1  C    0.381731  -0.043655  -0.006218   0.001895  -0.000333  -0.000009
     2  N   -0.024734   0.344677  -0.011107  -0.062860   0.001709   0.000196
     3  C   -0.004284  -0.055678   0.343784   0.362709  -0.051520  -0.005598
     4  N    0.000272   0.000991  -0.011709  -0.059337   0.338724  -0.010091
     5  C   -0.000007  -0.000268  -0.006198   0.001971  -0.054841   0.341566
     6  N    0.000000   0.000009   0.000143  -0.000137  -0.000705  -0.011405
     7  C   -0.000000  -0.000022   0.000001  -0.000096   0.006583   0.006266
     8  N    0.000000   0.000000  -0.000009   0.000036  -0.000039   0.000039
     9  C    0.000000   0.000000   0.000000   0.000000   0.000007  -0.000038
    10  N    0.000000   0.000000  -0.000000   0.000000   0.000000  -0.000001
    11  H   -0.028208  -0.001989   0.000025  -0.000319   0.000002   0.000000
    12  H   -0.044024  -0.006051  -0.002045   0.014501  -0.000019   0.000001
    13  H    0.580988   0.005887   0.006333  -0.001828   0.000026  -0.000005
    14  H    0.005887   0.536303   0.006880  -0.007735   0.006896   0.000008
    15  H    0.006333   0.006880   0.619745  -0.065081   0.007084   0.005509
    16  H   -0.001828  -0.007735  -0.065081   0.750823  -0.008761  -0.001840
    17  H    0.000026   0.006896   0.007084  -0.008761   0.538649   0.006832
    18  H   -0.000005   0.000008   0.005509  -0.001840   0.006832   0.612236
    19  H    0.000001  -0.000003  -0.002089   0.015151  -0.006862  -0.065257
    20  H   -0.000000  -0.000020  -0.000014   0.000112   0.001858  -0.000164
    21  H   -0.000000   0.000000   0.000000  -0.000001  -0.000319  -0.000139
    22  H    0.000000   0.000001   0.000000   0.000048   0.000568  -0.000416
    23  H    0.000000   0.000000   0.000000   0.000010   0.000011   0.001029
              19         20         21         22         23
     1  C    0.000060   0.000001  -0.000000   0.000000   0.000000
     2  N   -0.000206   0.000000  -0.000000   0.000001   0.000000
     3  C    0.000354   0.000149  -0.000010   0.000036   0.000020
     4  N   -0.059537   0.000343   0.000213  -0.002155  -0.000129
     5  C    0.342516  -0.003243   0.004306  -0.003299  -0.005064
     6  N   -0.061455  -0.019918  -0.022070  -0.045353  -0.039111
     7  C   -0.012886   0.373626   0.385466   0.342570   0.004424
     8  N    0.006903   0.003690  -0.005307   0.008264   0.354963
     9  C    0.000670  -0.000296   0.007247   0.003361  -0.036953
    10  N   -0.000005   0.000008   0.001801  -0.000227   0.000687
    11  H    0.000000   0.000000  -0.000000   0.000000   0.000000
    12  H   -0.000001   0.000000   0.000000  -0.000000  -0.000000
    13  H    0.000001  -0.000000  -0.000000   0.000000   0.000000
    14  H   -0.000003  -0.000020   0.000000   0.000001   0.000000
    15  H   -0.002089  -0.000014   0.000000   0.000000   0.000000
    16  H    0.015151   0.000112  -0.000001   0.000048   0.000010
    17  H   -0.006862   0.001858  -0.000319   0.000568   0.000011
    18  H   -0.065257  -0.000164  -0.000139  -0.000416   0.001029
    19  H    0.748425   0.000685  -0.000453   0.016466   0.008001
    20  H    0.000685   0.568396  -0.027010  -0.036314  -0.000181
    21  H   -0.000453  -0.027010   0.536607  -0.038964  -0.000076
    22  H    0.016466  -0.036314  -0.038964   0.651856   0.001649
    23  H    0.008001  -0.000181  -0.000076   0.001649   0.432561
 Mulliken charges:
               1
     1  C   -0.314566
     2  N   -0.287996
     3  C   -0.054887
     4  N   -0.311039
     5  C   -0.074239
     6  N   -0.083243
     7  C   -0.331190
     8  N   -0.389394
     9  C    0.379296
    10  N   -0.349727
    11  H    0.122126
    12  H    0.095213
    13  H    0.127854
    14  H    0.213768
    15  H    0.114967
    16  H    0.060738
    17  H    0.214452
    18  H    0.121280
    19  H    0.069523
    20  H    0.138292
    21  H    0.158709
    22  H    0.101907
    23  H    0.278157
 Sum of Mulliken charges =  -0.00000
 Mulliken charges with hydrogens summed into heavy atoms:
               1
     1  C    0.030627
     2  N   -0.074228
     3  C    0.120818
     4  N   -0.096587
     5  C    0.116563
     6  N   -0.083243
     7  C    0.067718
     8  N   -0.111237
     9  C    0.379296
    10  N   -0.349727
 Electronic spatial extent (au):  <R**2>=           2777.4041
 Charge=             -0.0000 electrons
 Dipole moment (field-independent basis, Debye):
    X=             -5.1597    Y=             -0.7004    Z=              3.4479  Tot=              6.2451
 Quadrupole moment (field-independent basis, Debye-Ang):
   XX=            -86.2058   YY=            -52.9385   ZZ=            -65.7521
   XY=             -3.5634   XZ=              1.1640   YZ=              0.4090
 Traceless Quadrupole moment (field-independent basis, Debye-Ang):
   XX=            -17.9070   YY=             15.3603   ZZ=              2.5467
   XY=             -3.5634   XZ=              1.1640   YZ=              0.4090
 Octapole moment (field-independent basis, Debye-Ang**2):
  XXX=           -195.4787  YYY=              0.3097  ZZZ=              3.1389  XYY=              0.8233
  XXY=             -6.1101  XXZ=             25.2256  XZZ=              3.5974  YZZ=             -2.0794
  YYZ=              1.0302  XYZ=             -8.0192
 Hexadecapole moment (field-independent basis, Debye-Ang**3):
 XXXX=          -4120.4002 YYYY=           -231.9765 ZZZZ=           -118.3272 XXXY=            -55.9612
 XXXZ=             72.5528 YYYX=            -23.4778 YYYZ=             -4.1041 ZZZX=             -0.3551
 ZZZY=              0.7399 XXYY=           -550.0143 XXZZ=           -605.0904 YYZZ=            -61.4937
 XXYZ=              2.9952 YYXZ=              9.0271 ZZXY=             -2.5559
 N-N= 5.216729388307D+02 E-N=-2.140788917005D+03  KE= 4.685158841390D+02
 PrsmSu:  requested number of processors reduced to:  13 ShMem   1 Linda.
 Calling FoFJK, ICntrl=      2127 FMM=F ISym2X=0 I1Cent= 0 IOpClX= 0 NMat=1 NMatS=1 NMatT=0.
 ***** Axes restored to original set *****
 -------------------------------------------------------------------
 Center     Atomic                   Forces (Hartrees/Bohr)
 Number     Number              X              Y              Z
 -------------------------------------------------------------------
      1        6           0.001767453    0.000137844   -0.009061843
      2        7          -0.011090774   -0.013142592    0.005724770
      3        6           0.007715343   -0.003020626   -0.016273480
      4        7           0.015593903   -0.001526138    0.018203110
      5        6           0.012191912   -0.002016613    0.002050968
      6        7          -0.004505957   -0.016579006   -0.026038931
      7        6           0.002711896    0.003184380    0.001434671
      8        7           0.000557925    0.007640774    0.012292426
      9        6          -0.030763760   -0.000115477    0.000120864
     10        7           0.007266172   -0.001375471    0.000652003
     11        1           0.001115685   -0.000238985    0.000071730
     12        1          -0.007494330    0.003489903    0.002001064
     13        1           0.002334830    0.000471767    0.000388785
     14        1          -0.000239716    0.000785054    0.001552049
     15        1          -0.001274217   -0.000662689    0.000212878
     16        1          -0.007203741    0.010100551    0.008026177
     17        1           0.001909065    0.002197472   -0.001307305
     18        1           0.001580834   -0.000920449   -0.001377983
     19        1          -0.002971010    0.011131112    0.003330712
     20        1          -0.002222613   -0.003504390    0.004316943
     21        1          -0.000869147    0.000207586    0.005238578
     22        1           0.000064652    0.005860877   -0.002261950
     23        1           0.013825594   -0.002104884   -0.009296233
 -------------------------------------------------------------------
 Cartesian Forces:  Max     0.030763760 RMS     0.008105219

 GradGradGradGradGradGradGradGradGradGradGradGradGradGradGradGradGradGrad
 Berny optimization.
 FormGI is forming the generalized inverse of G from B-inverse, IUseBI=4.
 Internal  Forces:  Max     0.023067164 RMS     0.005867114
 Search for a local minimum.
 Step number   1 out of a maximum of  110
 All quantities printed in internal units (Hartrees-Bohrs-Radians)
 Mixed Optimization -- RFO/linear search
 Second derivative matrix not updated -- first step.
 ITU=  0
     Eigenvalues ---    0.00567   0.00740   0.00856   0.00900   0.00965
     Eigenvalues ---    0.01008   0.01063   0.01096   0.03097   0.03119
     Eigenvalues ---    0.03228   0.04856   0.04856   0.04984   0.05868
     Eigenvalues ---    0.06527   0.06935   0.07086   0.07245   0.07261
     Eigenvalues ---    0.07409   0.09336   0.09969   0.10650   0.10715
     Eigenvalues ---    0.12837   0.13275   0.16000   0.16000   0.16000
     Eigenvalues ---    0.16000   0.16000   0.16000   0.16000   0.16684
     Eigenvalues ---    0.18366   0.21982   0.22013   0.22014   0.23388
     Eigenvalues ---    0.23524   0.33876   0.33907   0.34002   0.34110
     Eigenvalues ---    0.34178   0.34203   0.34204   0.34306   0.34328
     Eigenvalues ---    0.34330   0.34490   0.35506   0.36572   0.36980
     Eigenvalues ---    0.38568   0.38903   0.41724   0.43470   0.44988
     Eigenvalues ---    0.45805   0.56350   1.27289
 RFO step:  Lambda=-1.68546332D-02 EMin= 5.67215472D-03
 Linear search not attempted -- first point.
 Iteration  1 RMS(Cart)=  0.15949549 RMS(Int)=  0.00818500
 Iteration  2 RMS(Cart)=  0.01449909 RMS(Int)=  0.00066963
 Iteration  3 RMS(Cart)=  0.00008358 RMS(Int)=  0.00066880
 Iteration  4 RMS(Cart)=  0.00000006 RMS(Int)=  0.00066880
 Variable       Old X    -DE/DX   Delta X   Delta X   Delta X     New X
                                 (Linear)    (Quad)   (Total)
    R1        2.75876   0.00237   0.00000   0.00613   0.00613   2.76489
    R2        2.06817  -0.00031   0.00000  -0.00086  -0.00086   2.06730
    R3        2.07031   0.00600   0.00000   0.01673   0.01673   2.08704
    R4        2.06989  -0.00078   0.00000  -0.00217  -0.00217   2.06772
    R5        2.73546   0.00774   0.00000   0.01922   0.01922   2.75468
    R6        1.91990  -0.00099   0.00000  -0.00212  -0.00212   1.91778
    R7        2.73072   0.01428   0.00000   0.03518   0.03518   2.76590
    R8        2.06781   0.00092   0.00000   0.00256   0.00256   2.07037
    R9        2.07144   0.01193   0.00000   0.03334   0.03334   2.10478
   R10        2.76497  -0.00805   0.00000  -0.02104  -0.02104   2.74393
   R11        1.91052   0.00267   0.00000   0.00562   0.00562   1.91614
   R12        2.80627  -0.01421   0.00000  -0.03982  -0.03982   2.76645
   R13        2.07539  -0.00120   0.00000  -0.00338  -0.00338   2.07201
   R14        2.07487   0.01156   0.00000   0.03248   0.03248   2.10735
   R15        2.78162  -0.00458   0.00000  -0.01231  -0.01231   2.76931
   R16        2.69276   0.00175   0.00000   0.00404   0.00404   2.69681
   R17        2.06511  -0.00136   0.00000  -0.00375  -0.00375   2.06137
   R18        2.06778  -0.00101   0.00000  -0.00280  -0.00280   2.06498
   R19        2.06987   0.00559   0.00000   0.01557   0.01557   2.08544
   R20        2.53951  -0.02307   0.00000  -0.03975  -0.03975   2.49977
   R21        1.93794  -0.01615   0.00000  -0.03577  -0.03577   1.90218
   R22        2.19354   0.00708   0.00000   0.00549   0.00549   2.19903
    A1        1.92790  -0.00209   0.00000  -0.01099  -0.01146   1.91644
    A2        1.94137   0.00949   0.00000   0.05817   0.05820   1.99957
    A3        1.93662  -0.00518   0.00000  -0.03463  -0.03462   1.90200
    A4        1.88163  -0.00138   0.00000   0.00248   0.00211   1.88374
    A5        1.87542   0.00165   0.00000   0.00048  -0.00004   1.87539
    A6        1.89875  -0.00266   0.00000  -0.01656  -0.01612   1.88264
    A7        1.91733   0.01227   0.00000   0.04760   0.04775   1.96508
    A8        1.90829  -0.00346   0.00000  -0.01403  -0.01371   1.89458
    A9        1.92801  -0.00486   0.00000  -0.02605  -0.02593   1.90208
   A10        1.87839   0.01121   0.00000   0.05697   0.05543   1.93382
   A11        1.91639  -0.00583   0.00000  -0.04437  -0.04358   1.87282
   A12        1.91600   0.00114   0.00000   0.03609   0.03370   1.94970
   A13        1.91490  -0.00379   0.00000  -0.03046  -0.02966   1.88523
   A14        1.92793  -0.00078   0.00000   0.02264   0.01986   1.94778
   A15        1.91005  -0.00185   0.00000  -0.03985  -0.03945   1.87059
   A16        1.92788   0.00458   0.00000   0.02010   0.02005   1.94793
   A17        1.87696   0.00078   0.00000   0.01585   0.01592   1.89288
   A18        1.91457  -0.00294   0.00000  -0.01499  -0.01522   1.89934
   A19        1.96350  -0.00321   0.00000  -0.01390  -0.01469   1.94881
   A20        1.89446  -0.00099   0.00000  -0.02471  -0.02550   1.86895
   A21        1.92756   0.00476   0.00000   0.04782   0.04767   1.97523
   A22        1.89181  -0.00141   0.00000  -0.03100  -0.03178   1.86002
   A23        1.90622   0.00119   0.00000   0.01992   0.01961   1.92583
   A24        1.87799  -0.00036   0.00000   0.00055   0.00099   1.87899
   A25        1.92342   0.01394   0.00000   0.05630   0.05494   1.97836
   A26        1.94706  -0.01528   0.00000  -0.09544  -0.09486   1.85220
   A27        1.91484  -0.00031   0.00000  -0.01334  -0.01222   1.90262
   A28        1.95191  -0.00797   0.00000  -0.04503  -0.04533   1.90658
   A29        1.94060  -0.00623   0.00000  -0.03828  -0.03861   1.90200
   A30        1.93344   0.00670   0.00000   0.04092   0.04129   1.97473
   A31        1.83018   0.00595   0.00000   0.02778   0.02667   1.85685
   A32        1.90370   0.00191   0.00000   0.01635   0.01672   1.92042
   A33        1.90065  -0.00026   0.00000  -0.00152  -0.00119   1.89945
   A34        2.09628   0.00145   0.00000   0.00446   0.00332   2.09960
   A35        2.05009   0.00325   0.00000   0.01687   0.01573   2.06583
   A36        2.13265  -0.00489   0.00000  -0.02913  -0.03029   2.10237
   A37        3.14219  -0.00118   0.00000  -0.01803  -0.01803   3.12417
   A38        3.07408   0.00464   0.00000   0.07087   0.07087   3.14495
    D1       -3.13300   0.00121   0.00000  -0.00192  -0.00197  -3.13497
    D2        1.03172   0.00168   0.00000   0.00918   0.00909   1.04081
    D3        1.06135  -0.00185   0.00000  -0.03565  -0.03594   1.02541
    D4       -1.05712  -0.00138   0.00000  -0.02455  -0.02488  -1.08200
    D5       -1.05499  -0.00140   0.00000  -0.03057  -0.03017  -1.08516
    D6        3.10972  -0.00093   0.00000  -0.01947  -0.01911   3.09062
    D7        3.12759  -0.00265   0.00000  -0.02868  -0.02961   3.09798
    D8        1.04403  -0.00142   0.00000  -0.00054  -0.00034   1.04370
    D9       -1.05654   0.00382   0.00000   0.05383   0.05484  -1.00170
   D10       -1.04899  -0.00212   0.00000  -0.03200  -0.03311  -1.08210
   D11       -3.13254  -0.00089   0.00000  -0.00386  -0.00384  -3.13639
   D12        1.05007   0.00434   0.00000   0.05052   0.05133   1.10140
   D13        3.11056   0.00298   0.00000   0.03584   0.03661  -3.13601
   D14        1.02169   0.00343   0.00000   0.03277   0.03333   1.05502
   D15       -1.08811   0.00044   0.00000  -0.00121  -0.00122  -1.08933
   D16        3.10620   0.00088   0.00000  -0.00428  -0.00449   3.10171
   D17        1.01906  -0.00481   0.00000  -0.05602  -0.05647   0.96259
   D18       -1.06981  -0.00437   0.00000  -0.05909  -0.05975  -1.12956
   D19       -3.10923  -0.00436   0.00000  -0.08913  -0.08896   3.08499
   D20        1.08050   0.00007   0.00000  -0.02509  -0.02534   1.05516
   D21       -0.97439  -0.00163   0.00000  -0.03848  -0.03817  -1.01256
   D22       -1.04319  -0.00243   0.00000  -0.06669  -0.06666  -1.10986
   D23       -3.13664   0.00201   0.00000  -0.00264  -0.00305  -3.13969
   D24        1.09165   0.00030   0.00000  -0.01604  -0.01587   1.07578
   D25        1.04800   0.00406   0.00000   0.08665   0.08691   1.13491
   D26       -3.10362   0.00295   0.00000   0.04378   0.04302  -3.06060
   D27       -3.14020  -0.00013   0.00000   0.02632   0.02719  -3.11301
   D28       -1.00864  -0.00124   0.00000  -0.01655  -0.01671  -1.02534
   D29       -1.09885  -0.00070   0.00000   0.02058   0.02099  -1.07786
   D30        1.03272  -0.00181   0.00000  -0.02229  -0.02290   1.00981
   D31       -1.06567  -0.00690   0.00000  -0.08893  -0.08855  -1.15423
   D32       -3.10511  -0.00525   0.00000  -0.07029  -0.07112   3.10696
   D33        1.06204  -0.00527   0.00000  -0.07034  -0.07059   0.99145
   D34        3.06702   0.00321   0.00000   0.00248   0.00332   3.07034
   D35        1.02759   0.00487   0.00000   0.02112   0.02076   1.04835
   D36       -1.08845   0.00485   0.00000   0.02107   0.02129  -1.06716
   D37        3.07499  -0.00788   0.00000  -0.16056  -0.16158   2.91341
   D38        0.02906  -0.00543   0.00000  -0.06933  -0.07055  -0.04148
   D39       -1.07169  -0.00072   0.00000  -0.16280  -0.16158  -1.23327
   D40        2.16556   0.00172   0.00000  -0.07157  -0.07054   2.09502
         Item               Value     Threshold  Converged?
 Maximum Force            0.023067     0.000450     NO 
 RMS     Force            0.005867     0.000300     NO 
 Maximum Displacement     0.688919     0.001800     NO 
 RMS     Displacement     0.163592     0.001200     NO 
 Predicted change in Energy=-1.004632D-02
 GradGradGradGradGradGradGradGradGradGradGradGradGradGradGradGradGradGrad

                          Input orientation:                          
 ---------------------------------------------------------------------
 Center     Atomic      Atomic             Coordinates (Angstroms)
 Number     Number       Type             X           Y           Z
 ---------------------------------------------------------------------
      1          6           0        0.967558   -0.184723    0.118764
      2          7           0        2.426091   -0.074228    0.084374
      3          6           0        2.960277    0.646968    1.233052
      4          7           0        4.422838    0.683221    1.189710
      5          6           0        4.974217    1.391775    2.330899
      6          7           0        6.437880    1.363110    2.328988
      7          6           0        7.031441    2.080867    1.197588
      8          7           0        6.848123    1.989594    3.543813
      9          6           0        8.101049    1.889710    3.956189
     10          7           0        9.209228    1.798870    4.299450
     11          1           0        0.616988   -0.737770   -0.757597
     12          1           0        0.434355    0.782058    0.146388
     13          1           0        0.674739   -0.755061    1.005457
     14          1           0        2.693031    0.413278   -0.764736
     15          1           0        2.661466    0.095878    2.131570
     16          1           0        2.527038    1.669764    1.315208
     17          1           0        4.707093    1.159053    0.340630
     18          1           0        4.652072    0.853829    3.230380
     19          1           0        4.607155    2.441445    2.414860
     20          1           0        6.779914    1.562598    0.271283
     21          1           0        8.120041    2.044560    1.285410
     22          1           0        6.713838    3.136095    1.138590
     23          1           0        6.138698    2.362419    4.152859
 ---------------------------------------------------------------------
                    Distance matrix (angstroms):
                    1          2          3          4          5
     1  C    0.000000
     2  N    1.463117   0.000000
     3  C    2.429871   1.457716   0.000000
     4  N    3.720109   2.404681   1.463652   0.000000
     5  C    4.840682   3.699862   2.411631   1.452026   0.000000
     6  N    6.099615   4.816501   3.715866   2.412592   1.463944
     7  C    6.562578   5.205086   4.316445   2.959440   2.447735
     8  N    7.144205   5.981759   4.717798   3.623593   2.310860
     9  C    8.361567   7.145149   5.948733   4.757969   3.559015
    10  N    9.451873   8.202823   7.055428   5.815900   4.687882
    11  H    1.093969   2.102869   3.372119   4.505076   5.749714
    12  H    1.104415   2.168889   2.753065   4.123867   5.074858
    13  H    1.094191   2.092645   2.690942   4.018812   4.985100
    14  H    2.028654   1.014844   2.029086   2.623920   3.967899
    15  H    2.645647   2.067691   1.095592   2.081947   2.658553
    16  H    2.702328   2.136971   1.113803   2.140811   2.664130
    17  H    3.979834   2.605690   2.027317   1.013979   2.021554
    18  H    4.933193   3.964042   2.625697   2.060580   1.096463
    19  H    5.041376   4.064087   2.707217   2.150887   1.115164
    20  H    6.071234   4.655095   4.043885   2.678175   2.744401
    21  H    7.582135   6.192965   5.345949   3.941030   3.378665
    22  H    6.714732   5.459150   4.504876   3.356768   2.736884
    23  H    7.035805   6.022729   4.644396   3.813678   2.370170
                    6          7          8          9         10
     6  N    0.000000
     7  C    1.465454   0.000000
     8  N    1.427089   2.355145   0.000000
     9  C    2.385629   2.964875   1.322820   0.000000
    10  N    3.428262   3.800504   2.486399   1.163675   0.000000
    11  H    6.915453   7.274109   8.047838   9.226842  10.287607
    12  H    6.414333   6.805399   7.357789   8.632478   9.761159
    13  H    6.281097   6.963265   7.217137   8.417347   9.497919
    14  H    4.949465   5.045133   6.189762   7.328960   8.368194
    15  H    3.988252   4.889702   4.807150   6.011334   7.104441
    16  H    4.051724   4.524653   4.872448   6.171933   7.319428
    17  H    2.644018   2.643238   3.941344   5.012491   6.029166
    18  H    2.064215   3.361438   2.492157   3.673594   4.775320
    19  H    2.126437   2.736591   2.549636   3.858420   5.014346
    20  H    2.095455   1.090829   3.300974   3.928222   4.709938
    21  H    2.093584   1.092740   2.592524   2.675332   3.214207
    22  H    2.153295   1.103566   2.667882   3.378860   4.243368
    23  H    2.101103   3.099981   1.006588   2.028042   3.125257
                   11         12         13         14         15
    11  H    0.000000
    12  H    1.777757   0.000000
    13  H    1.764084   1.777222   0.000000
    14  H    2.373798   2.463283   2.927816   0.000000
    15  H    3.636226   3.061341   2.437070   2.913817   0.000000
    16  H    3.706889   2.556068   3.067040   2.435667   1.778099
    17  H    4.640367   4.293733   4.512838   2.415463   2.919315
    18  H    5.892287   5.225446   4.833010   4.471340   2.396745
    19  H    6.007771   5.031081   5.260034   4.229321   3.060660
    20  H    6.658224   6.394604   6.571432   4.369999   4.751163
    21  H    8.258998   7.871534   7.959194   6.026327   5.857422
    22  H    7.468196   6.779223   7.185370   5.215676   5.162427
    23  H    8.013304   7.147648   7.034179   6.313043   4.616705
                   16         17         18         19         20
    16  H    0.000000
    17  H    2.441980   0.000000
    18  H    2.974795   2.906346   0.000000
    19  H    2.476209   2.440685   1.785390   0.000000
    20  H    4.380436   2.112876   3.712994   3.176189   0.000000
    21  H    5.605625   3.650335   4.150609   3.711272   1.748336
    22  H    4.439664   2.927877   3.719571   2.559203   1.797910
    23  H    4.645011   4.246254   2.310167   2.317868   4.014660
                   21         22         23
    21  H    0.000000
    22  H    1.786172   0.000000
    23  H    3.499859   3.164676   0.000000
 Stoichiometry    C5H13N5
 Framework group  C1[X(C5H13N5)]
 Deg. of freedom    63
 Full point group                 C1      NOp   1
 Largest Abelian subgroup         C1      NOp   1
 Largest concise Abelian subgroup C1      NOp   1
                         Standard orientation:                         
 ---------------------------------------------------------------------
 Center     Atomic      Atomic             Coordinates (Angstroms)
 Number     Number       Type             X           Y           Z
 ---------------------------------------------------------------------
      1          6           0       -4.723071   -0.335962   -0.073590
      2          7           0       -3.456843    0.311619   -0.417124
      3          6           0       -2.304166   -0.374170    0.153811
      4          7           0       -1.057530    0.270293   -0.261935
      5          6           0        0.103354   -0.403918    0.291389
      6          7           0        1.352575    0.192702   -0.184661
      7          6           0        1.546430    1.573043    0.267705
      8          7           0        2.403688   -0.619447    0.337026
      9          6           0        3.636874   -0.492558   -0.124497
     10          7           0        4.717450   -0.361521   -0.535991
     11          1           0       -5.554261    0.210111   -0.529327
     12          1           0       -4.920310   -0.412706    1.010356
     13          1           0       -4.728933   -1.348462   -0.488394
     14          1           0       -3.477884    1.265581   -0.071550
     15          1           0       -2.304992   -1.396403   -0.240350
     16          1           0       -2.376990   -0.449145    1.262698
     17          1           0       -1.066685    1.229314    0.067231
     18          1           0        0.086287   -1.434314   -0.083079
     19          1           0        0.095091   -0.448761    1.405620
     20          1           0        0.787172    2.210434   -0.187451
     21          1           0        2.511176    1.934259   -0.096808
     22          1           0        1.518829    1.677484    1.365972
     23          1           0        2.159599   -1.391526    0.934967
 ---------------------------------------------------------------------
 Rotational constants (GHZ):           5.5852192           0.4028882           0.3871823
 Standard basis: 6-31G(2df,p) (6D, 7F)
 There are   375 symmetry adapted cartesian basis functions of A   symmetry.
 There are   345 symmetry adapted basis functions of A   symmetry.
   345 basis functions,   531 primitive gaussians,   375 cartesian basis functions
    39 alpha electrons       39 beta electrons
       nuclear repulsion energy       521.0826912823 Hartrees.
 NAtoms=   23 NActive=   23 NUniq=   23 SFac= 1.00D+00 NAtFMM=   60 NAOKFM=F Big=F
 Integral buffers will be    131072 words long.
 Raffenetti 2 integral format.
 Two-electron integral symmetry is turned on.
 One-electron integrals computed using PRISM.
 PrsmSu:  requested number of processors reduced to:  13 ShMem   1 Linda.
 NBasis=   345 RedAO= T EigKep=  1.26D-04  NBF=   345
 NBsUse=   345 1.00D-06 EigRej= -1.00D+00 NBFU=   345
 Initial guess from the checkpoint file:  "CNCNCNpCpNCtN.chk"
 B after Tr=    -0.000000    0.000000    0.000000
         Rot=    0.999000    0.044633   -0.000632    0.002361 Ang=   5.12 deg.
 ExpMin= 1.61D-01 ExpMax= 4.17D+03 ExpMxC= 6.27D+02 IAcc=2 IRadAn=         4 AccDes= 0.00D+00
 Harris functional with IExCor=  402 and IRadAn=       4 diagonalized for initial guess.
 HarFok:  IExCor=  402 AccDes= 0.00D+00 IRadAn=         4 IDoV= 1 UseB2=F ITyADJ=14
 ICtDFT=  3500011 ScaDFX=  1.000000  1.000000  1.000000  1.000000
 FoFCou: FMM=F IPFlag=           0 FMFlag=      100000 FMFlg1=           0
         NFxFlg=           0 DoJE=T BraDBF=F KetDBF=T FulRan=T
         wScrn=  0.000000 ICntrl=       500 IOpCl=  0 I1Cent=   200000004 NGrid=           0
         NMat0=    1 NMatS0=      1 NMatT0=    0 NMatD0=    1 NMtDS0=    0 NMtDT0=    0
 Petite list used in FoFCou.
 Requested convergence on RMS density matrix=1.00D-08 within 128 cycles.
 Requested convergence on MAX density matrix=1.00D-06.
 Requested convergence on             energy=1.00D-06.
 No special actions if energy rises.
 Integral accuracy reduced to 1.0D-05 until final iterations.
 Initial convergence to 1.0D-05 achieved.  Increase integral accuracy.
 SCF Done:  E(RB3LYP) =  -472.039140224     A.U. after   13 cycles
            NFock= 13  Conv=0.97D-08     -V/T= 2.0075
 PrsmSu:  requested number of processors reduced to:  13 ShMem   1 Linda.
 Calling FoFJK, ICntrl=      2127 FMM=F ISym2X=0 I1Cent= 0 IOpClX= 0 NMat=1 NMatS=1 NMatT=0.
 ***** Axes restored to original set *****
 -------------------------------------------------------------------
 Center     Atomic                   Forces (Hartrees/Bohr)
 Number     Number              X              Y              Z
 -------------------------------------------------------------------
      1        6           0.002494051    0.000174714    0.000213016
      2        7           0.000187334    0.000752667    0.001770182
      3        6          -0.000313286   -0.001852725   -0.004027335
      4        7          -0.000325119    0.001837449    0.001363883
      5        6          -0.001256389   -0.007497726   -0.000409437
      6        7          -0.001694096   -0.002232353   -0.007114658
      7        6           0.000206859    0.001839350   -0.000810041
      8        7           0.003937551    0.004551811    0.004165350
      9        6          -0.002051732   -0.005999863    0.002117035
     10        7           0.001034954    0.001891630   -0.000124825
     11        1           0.001245648    0.000295149   -0.000154431
     12        1           0.000100317    0.000184285    0.000840022
     13        1          -0.000669065   -0.000195985    0.000688766
     14        1           0.000797954    0.000056490   -0.001278421
     15        1          -0.000191568    0.000314722    0.001793505
     16        1          -0.000559226    0.000641984    0.001642859
     17        1          -0.000511461    0.000674479   -0.002165817
     18        1          -0.000590465    0.001121013    0.000950051
     19        1           0.000110408    0.001752962   -0.000355206
     20        1          -0.001334332   -0.001142911   -0.000193947
     21        1          -0.000236302    0.000647640    0.001552618
     22        1          -0.000370950   -0.000450525    0.000041099
     23        1          -0.000011084    0.002635742   -0.000504269
 -------------------------------------------------------------------
 Cartesian Forces:  Max     0.007497726 RMS     0.002070047

 GradGradGradGradGradGradGradGradGradGradGradGradGradGradGradGradGradGrad
 Berny optimization.
 Using GEDIIS/GDIIS optimizer.
 FormGI is forming the generalized inverse of G from B-inverse, IUseBI=4.
 Internal  Forces:  Max     0.006992839 RMS     0.001459999
 Search for a local minimum.
 Step number   2 out of a maximum of  110
 All quantities printed in internal units (Hartrees-Bohrs-Radians)
 Mixed Optimization -- RFO/linear search
 Update second derivatives using D2CorX and points    1    2
 DE= -8.83D-03 DEPred=-1.00D-02 R= 8.79D-01
 TightC=F SS=  1.41D+00  RLast= 4.29D-01 DXNew= 5.0454D-01 1.2872D+00
 Trust test= 8.79D-01 RLast= 4.29D-01 DXMaxT set to 5.05D-01
 ITU=  1  0
 Use linear search instead of GDIIS.
     Eigenvalues ---    0.00572   0.00741   0.00853   0.00899   0.00919
     Eigenvalues ---    0.01063   0.01096   0.01124   0.03015   0.03113
     Eigenvalues ---    0.03456   0.04828   0.04872   0.05086   0.05753
     Eigenvalues ---    0.06686   0.06889   0.06971   0.07011   0.07608
     Eigenvalues ---    0.07678   0.09824   0.09888   0.10881   0.11026
     Eigenvalues ---    0.13225   0.13260   0.15382   0.16000   0.16000
     Eigenvalues ---    0.16000   0.16000   0.16000   0.16135   0.16750
     Eigenvalues ---    0.17990   0.21899   0.22044   0.22587   0.23494
     Eigenvalues ---    0.24274   0.33003   0.33880   0.33967   0.34070
     Eigenvalues ---    0.34172   0.34200   0.34224   0.34307   0.34329
     Eigenvalues ---    0.34360   0.34525   0.35468   0.36390   0.37090
     Eigenvalues ---    0.38668   0.39582   0.41992   0.44006   0.45072
     Eigenvalues ---    0.45812   0.56168   1.27181
 RFO step:  Lambda=-3.71378290D-03 EMin= 5.71651451D-03
 Quartic linear search produced a step of  0.04986.
 Iteration  1 RMS(Cart)=  0.10122791 RMS(Int)=  0.01002003
 Iteration  2 RMS(Cart)=  0.02436187 RMS(Int)=  0.00044314
 Iteration  3 RMS(Cart)=  0.00065320 RMS(Int)=  0.00016455
 Iteration  4 RMS(Cart)=  0.00000065 RMS(Int)=  0.00016455
 Variable       Old X    -DE/DX   Delta X   Delta X   Delta X     New X
                                 (Linear)    (Quad)   (Total)
    R1        2.76489  -0.00316   0.00031  -0.00823  -0.00793   2.75696
    R2        2.06730  -0.00042  -0.00004  -0.00131  -0.00135   2.06595
    R3        2.08704   0.00013   0.00083   0.00151   0.00235   2.08939
    R4        2.06772   0.00084  -0.00011   0.00234   0.00223   2.06995
    R5        2.75468  -0.00379   0.00096  -0.00866  -0.00770   2.74698
    R6        1.91778   0.00131  -0.00011   0.00280   0.00270   1.92047
    R7        2.76590  -0.00306   0.00175  -0.00560  -0.00385   2.76205
    R8        2.07037   0.00136   0.00013   0.00419   0.00432   2.07469
    R9        2.10478   0.00093   0.00166   0.00497   0.00663   2.11142
   R10        2.74393  -0.00280  -0.00105  -0.00916  -0.01020   2.73373
   R11        1.91614   0.00199   0.00028   0.00477   0.00506   1.92120
   R12        2.76645  -0.00055  -0.00199  -0.00429  -0.00628   2.76018
   R13        2.07201   0.00040  -0.00017   0.00098   0.00081   2.07282
   R14        2.10735   0.00159   0.00162   0.00689   0.00851   2.11587
   R15        2.76931  -0.00071  -0.00061  -0.00285  -0.00347   2.76584
   R16        2.69681   0.00699   0.00020   0.01725   0.01745   2.71426
   R17        2.06137   0.00102  -0.00019   0.00273   0.00254   2.06391
   R18        2.06498  -0.00013  -0.00014  -0.00058  -0.00072   2.06426
   R19        2.08544  -0.00033   0.00078   0.00007   0.00085   2.08629
   R20        2.49977  -0.00003  -0.00198  -0.00273  -0.00471   2.49506
   R21        1.90218   0.00068  -0.00178  -0.00081  -0.00260   1.89958
   R22        2.19903   0.00080   0.00027   0.00101   0.00129   2.20032
    A1        1.91644  -0.00168  -0.00057  -0.01118  -0.01177   1.90468
    A2        1.99957  -0.00010   0.00290   0.00267   0.00558   2.00515
    A3        1.90200   0.00089  -0.00173   0.00367   0.00195   1.90395
    A4        1.88374   0.00093   0.00011   0.00533   0.00544   1.88918
    A5        1.87539   0.00052  -0.00000   0.00416   0.00413   1.87952
    A6        1.88264  -0.00050  -0.00080  -0.00436  -0.00515   1.87749
    A7        1.96508  -0.00202   0.00238  -0.00502  -0.00264   1.96245
    A8        1.89458   0.00092  -0.00068   0.00538   0.00471   1.89929
    A9        1.90208   0.00045  -0.00129   0.00050  -0.00079   1.90129
   A10        1.93382  -0.00385   0.00276  -0.01314  -0.01046   1.92336
   A11        1.87282   0.00172  -0.00217   0.00735   0.00517   1.87798
   A12        1.94970   0.00178   0.00168   0.01373   0.01529   1.96499
   A13        1.88523   0.00043  -0.00148  -0.00383  -0.00526   1.87997
   A14        1.94778   0.00127   0.00099   0.00689   0.00775   1.95553
   A15        1.87059  -0.00127  -0.00197  -0.01149  -0.01345   1.85714
   A16        1.94793  -0.00018   0.00100   0.00229   0.00326   1.95120
   A17        1.89288  -0.00012   0.00079   0.00324   0.00399   1.89688
   A18        1.89934   0.00065  -0.00076   0.00818   0.00737   1.90672
   A19        1.94881  -0.00147  -0.00073  -0.00804  -0.00883   1.93998
   A20        1.86895   0.00151  -0.00127   0.01475   0.01345   1.88240
   A21        1.97523  -0.00005   0.00238  -0.00311  -0.00079   1.97444
   A22        1.86002   0.00029  -0.00158   0.00351   0.00191   1.86194
   A23        1.92583   0.00030   0.00098  -0.00362  -0.00269   1.92314
   A24        1.87899  -0.00047   0.00005  -0.00219  -0.00213   1.87685
   A25        1.97836  -0.00040   0.00274   0.00417   0.00684   1.98520
   A26        1.85220   0.00116  -0.00473   0.00415  -0.00056   1.85165
   A27        1.90262  -0.00043  -0.00061   0.00018  -0.00038   1.90224
   A28        1.90658  -0.00161  -0.00226  -0.01253  -0.01483   1.89175
   A29        1.90200  -0.00098  -0.00192  -0.00769  -0.00965   1.89234
   A30        1.97473  -0.00009   0.00206   0.00058   0.00265   1.97738
   A31        1.85685   0.00180   0.00133   0.01625   0.01749   1.87434
   A32        1.92042   0.00063   0.00083   0.00321   0.00405   1.92447
   A33        1.89945   0.00037  -0.00006   0.00118   0.00113   1.90059
   A34        2.09960  -0.00002   0.00017  -0.00236  -0.00311   2.09650
   A35        2.06583   0.00037   0.00078  -0.00059  -0.00071   2.06511
   A36        2.10237  -0.00051  -0.00151  -0.00911  -0.01156   2.09081
   A37        3.12417  -0.00109  -0.00090  -0.02238  -0.02328   3.10089
   A38        3.14495  -0.00409   0.00353  -0.07589  -0.07236   3.07260
    D1       -3.13497  -0.00042  -0.00010  -0.02132  -0.02142   3.12680
    D2        1.04081  -0.00032   0.00045  -0.02241  -0.02197   1.01884
    D3        1.02541  -0.00029  -0.00179  -0.02168  -0.02348   1.00193
    D4       -1.08200  -0.00020  -0.00124  -0.02278  -0.02403  -1.10602
    D5       -1.08516  -0.00023  -0.00150  -0.02056  -0.02205  -1.10721
    D6        3.09062  -0.00014  -0.00095  -0.02166  -0.02260   3.06802
    D7        3.09798  -0.00032  -0.00148  -0.00873  -0.01026   3.08772
    D8        1.04370   0.00026  -0.00002  -0.00124  -0.00123   1.04247
    D9       -1.00170  -0.00024   0.00273   0.00059   0.00337  -0.99833
   D10       -1.08210  -0.00016  -0.00165  -0.00485  -0.00656  -1.08866
   D11       -3.13639   0.00042  -0.00019   0.00265   0.00247  -3.13391
   D12        1.10140  -0.00008   0.00256   0.00448   0.00707   1.10847
   D13       -3.13601   0.00025   0.00183   0.00273   0.00458  -3.13143
   D14        1.05502  -0.00036   0.00166  -0.01090  -0.00923   1.04579
   D15       -1.08933   0.00043  -0.00006   0.00195   0.00191  -1.08741
   D16        3.10171  -0.00019  -0.00022  -0.01168  -0.01190   3.08981
   D17        0.96259  -0.00012  -0.00282  -0.01047  -0.01330   0.94929
   D18       -1.12956  -0.00074  -0.00298  -0.02409  -0.02711  -1.15667
   D19        3.08499  -0.00036  -0.00444  -0.05692  -0.06137   3.02362
   D20        1.05516  -0.00080  -0.00126  -0.06558  -0.06685   0.98831
   D21       -1.01256  -0.00118  -0.00190  -0.07070  -0.07260  -1.08516
   D22       -1.10986  -0.00020  -0.00332  -0.04617  -0.04949  -1.15935
   D23       -3.13969  -0.00064  -0.00015  -0.05483  -0.05497   3.08853
   D24        1.07578  -0.00102  -0.00079  -0.05995  -0.06072   1.01506
   D25        1.13491  -0.00095   0.00433  -0.03753  -0.03317   1.10174
   D26       -3.06060  -0.00095   0.00214  -0.03216  -0.03004  -3.09064
   D27       -3.11301   0.00025   0.00136  -0.02203  -0.02063  -3.13364
   D28       -1.02534   0.00025  -0.00083  -0.01665  -0.01749  -1.04283
   D29       -1.07786   0.00001   0.00105  -0.02453  -0.02347  -1.10133
   D30        1.00981   0.00001  -0.00114  -0.01915  -0.02034   0.98948
   D31       -1.15423   0.00043  -0.00442  -0.03032  -0.03470  -1.18893
   D32        3.10696  -0.00029  -0.00355  -0.03856  -0.04216   3.06480
   D33        0.99145  -0.00001  -0.00352  -0.03499  -0.03852   0.95293
   D34        3.07034  -0.00049   0.00017  -0.03822  -0.03800   3.03234
   D35        1.04835  -0.00121   0.00104  -0.04646  -0.04546   1.00289
   D36       -1.06716  -0.00092   0.00106  -0.04290  -0.04182  -1.10899
   D37        2.91341  -0.00320  -0.00806  -0.24936  -0.25736   2.65605
   D38       -0.04148  -0.00216  -0.00352  -0.17597  -0.17965  -0.22113
   D39       -1.23327  -0.00324  -0.00806  -0.24181  -0.24970  -1.48297
   D40        2.09502  -0.00220  -0.00352  -0.16842  -0.17199   1.92303
         Item               Value     Threshold  Converged?
 Maximum Force            0.006993     0.000450     NO 
 RMS     Force            0.001460     0.000300     NO 
 Maximum Displacement     0.573728     0.001800     NO 
 RMS     Displacement     0.119208     0.001200     NO 
 Predicted change in Energy=-2.298018D-03
 GradGradGradGradGradGradGradGradGradGradGradGradGradGradGradGradGradGrad

                          Input orientation:                          
 ---------------------------------------------------------------------
 Center     Atomic      Atomic             Coordinates (Angstroms)
 Number     Number       Type             X           Y           Z
 ---------------------------------------------------------------------
      1          6           0        0.999989   -0.238304    0.152106
      2          7           0        2.444522   -0.045542    0.084133
      3          6           0        2.965193    0.660831    1.243017
      4          7           0        4.420900    0.762590    1.160031
      5          6           0        4.977493    1.449194    2.305242
      6          7           0        6.437325    1.404127    2.288558
      7          6           0        7.035037    2.089974    1.142026
      8          7           0        6.869390    2.049747    3.496663
      9          6           0        8.020169    1.715932    4.051223
     10          7           0        9.068633    1.495266    4.507026
     11          1           0        0.665220   -0.758929   -0.749050
     12          1           0        0.410738    0.691728    0.253581
     13          1           0        0.763607   -0.874992    1.011517
     14          1           0        2.665253    0.486601   -0.753069
     15          1           0        2.722163    0.064415    2.132151
     16          1           0        2.482846    1.657847    1.390284
     17          1           0        4.664119    1.270820    0.313785
     18          1           0        4.656245    0.913868    3.207127
     19          1           0        4.624623    2.507784    2.397592
     20          1           0        6.792398    1.526346    0.238538
     21          1           0        8.121223    2.071515    1.256535
     22          1           0        6.704128    3.138200    1.039204
     23          1           0        6.193916    2.574292    4.024910
 ---------------------------------------------------------------------
                    Distance matrix (angstroms):
                    1          2          3          4          5
     1  C    0.000000
     2  N    1.458921   0.000000
     3  C    2.420859   1.453641   0.000000
     4  N    3.704096   2.390963   1.461616   0.000000
     5  C    4.827440   3.685580   2.408150   1.446626   0.000000
     6  N    6.068494   4.785760   3.701532   2.398148   1.460623
     7  C    6.543900   5.172272   4.314658   2.931891   2.448909
     8  N    7.132398   5.967835   4.717071   3.621011   2.315043
     9  C    8.264689   7.066006   5.878098   4.714084   3.518164
    10  N    9.331324   8.112640   6.971514   5.774133   4.646225
    11  H    1.093254   2.090223   3.357668   4.479369   5.727146
    12  H    1.105656   2.169921   2.739559   4.111943   5.063430
    13  H    1.095369   2.091291   2.694313   4.009927   4.983211
    14  H    2.029269   1.016271   2.026001   2.611210   3.953012
    15  H    2.641609   2.069674   1.097877   2.078021   2.652185
    16  H    2.706906   2.146866   1.117313   2.147220   2.665323
    17  H    3.966036   2.590784   2.030248   1.016654   2.023838
    18  H    4.901924   3.945286   2.604114   2.066125   1.096891
[...]
 .16179887,-0.36060850,-0.00489639,-0.00081068,-0.01126398,0.00010866,0
 .00104196,0.00055709,0.00039937,0.00009974,-0.00052100,-0.00019847,0.0
 0016997,0.00029032,-0.00010289,0.00005028,-0.00010965,0.00001483,0.000
 06717,-0.00009863,-0.00013237,-0.00017756,0.00024834,0.00013003,0.0000
 9227,-0.00004391,-0.00042863,-0.00017083,0.00037000,0.00075598,0.00054
 202,0.00124142,-0.00083793,-0.00058867,0.00167110,-0.01621454,0.155112
 01,0.36706916,0.00176555,0.00201515,0.00193649,-0.00697504,0.01866465,
 0.03316374,-0.04723161,-0.00316504,-0.01171281,-0.00635982,-0.01349392
 ,-0.01776398,0.00066952,-0.00382770,0.00153649,0.00012397,0.00003968,0
 .00022128,0.00011202,-0.00002966,-0.00031034,-0.00013058,0.00010079,-0
 .00006721,-0.00008840,-0.00012693,0.00023439,0.00004712,0.00004980,-0.
 00010634,0.00022738,0.00012978,-0.00026576,-0.00029256,-0.00032620,-0.
 00026526,-0.00009671,-0.00053225,-0.00092158,-0.00664030,0.00102258,0.
 00266792,0.06466159,-0.00085739,0.00065519,0.00082500,0.00416980,-0.00
 558536,-0.01179857,-0.00009720,-0.10124793,-0.09545840,-0.01298603,-0.
 01792375,-0.02524380,0.00079096,-0.00515598,0.00231456,0.00023676,0.00
 065203,0.00020537,-0.00000499,0.00012089,-0.00013380,-0.00014993,0.000
 16040,-0.00019544,-0.00016069,-0.00021009,0.00025927,0.00006837,0.0001
 1293,-0.00007658,-0.00000961,0.00007021,0.00035049,0.00005652,0.000219
 02,0.00001466,0.00034553,0.00051269,-0.00001569,0.00137781,0.00092532,
 -0.00075261,0.00608620,0.11736797,-0.00110840,-0.00081901,0.00043757,0
 .00466262,-0.00659878,-0.00904325,-0.00894367,-0.10320588,-0.24765456,
 -0.00083147,0.00223229,0.00812595,0.00084769,0.00155667,0.00157236,-0.
 00009258,-0.00042649,0.00009371,0.00007519,-0.00004101,-0.00019702,-0.
 00002911,0.00000567,0.00008520,0.00006892,0.00002688,0.00000304,-0.000
 06927,-0.00002742,-0.00005051,0.00006325,0.00044679,0.00048779,0.00000
 338,0.00025348,-0.00047900,0.00084432,0.00054032,0.00026801,0.00206638
 ,0.00028823,0.00122442,0.00454453,0.11558346,0.26348359,0.00316658,0.0
 0534422,-0.00066544,-0.03145832,0.02057711,-0.01587352,-0.09610786,0.0
 6407053,-0.07560594,0.00847828,-0.01419112,0.01420941,0.00075212,0.000
 35945,0.00037054,-0.00088470,-0.00088208,-0.00004819,-0.00013836,-0.00
 006414,0.00006653,0.00000047,0.00035928,-0.00005508,0.00007049,0.00007
 548,-0.00019474,-0.00007947,-0.00009496,-0.00000495,0.00010391,-0.0005
 6005,0.00052203,0.00040814,-0.00235269,0.00080014,-0.00013893,-0.00036
 304,-0.00011140,0.00126253,-0.00131940,-0.00020120,0.00065258,0.000851
 86,-0.00179399,0.11551945,-0.00044132,0.00131652,-0.00105230,0.0087820
 3,-0.00314161,0.00312225,0.05651292,-0.12720978,0.08495979,0.00833572,
 -0.02539880,0.02416287,0.00251585,-0.00006098,0.00249052,0.00014879,0.
 00096177,-0.00015065,-0.00052546,0.00012444,0.00038178,-0.00016785,0.0
 0018559,-0.00060190,-0.00011270,-0.00014655,-0.00001008,0.00006678,0.0
 0009222,0.00003702,0.00021400,0.00013147,0.00002059,0.00136270,0.00048
 774,0.00030691,0.00017762,0.00013178,0.00008812,-0.00008727,0.00046782
 ,0.00018540,-0.00620167,0.01007326,-0.00981697,-0.06798859,0.14647601,
 -0.00051455,-0.00196461,0.00084797,0.00758690,-0.00571493,0.01192381,-
 0.07052747,0.09348722,-0.16528529,-0.00199310,0.00393590,-0.00259821,-
 0.00041749,-0.00073218,-0.00031513,-0.00060265,-0.00099889,-0.00002156
 ,0.00015689,0.00010630,0.00003381,0.00021998,-0.00012875,0.00026011,-0
 .00004389,0.00001619,-0.00003349,0.00005973,0.00000621,-0.00001189,-0.
 00005384,-0.00003605,0.00013272,-0.00125066,0.00002199,-0.00045626,0.0
 0027313,0.00025098,-0.00032132,-0.00047315,-0.00039836,0.00203976,-0.0
 1212785,0.01588494,-0.01873945,0.07871728,-0.10376970,0.17103548,-0.00
 088679,-0.00073763,-0.00045201,0.00286894,0.00116407,-0.00012929,0.007
 46468,-0.01980565,0.01633617,-0.12550690,0.12701781,-0.14493136,-0.006
 99698,0.01137602,0.00339511,-0.00130430,-0.00122601,-0.00383627,0.0004
 9719,0.00011545,-0.00067481,-0.00124675,-0.00002505,-0.00153392,-0.000
 38228,-0.00042225,0.00051038,0.00016528,0.00018988,-0.00025709,0.00001
 425,0.00010810,-0.00006502,0.00006234,0.00068094,-0.00016067,0.0000702
 5,0.00008838,0.00012548,-0.00006398,-0.00007215,0.00034993,0.00014075,
 0.00082241,-0.00034773,-0.00159408,-0.00318763,0.00089664,0.12702807,0
 .00002024,0.00023155,-0.00037552,0.00043886,0.00348847,-0.00096750,0.0
 1910798,-0.02506227,0.01897681,0.11139235,-0.22488133,0.15251477,-0.00
 943857,0.01039723,-0.01454534,0.00016551,-0.00097807,-0.00229438,0.000
 06134,0.00008703,-0.00005003,-0.00107403,0.00059692,-0.00161965,-0.000
 42793,-0.00040069,0.00040309,0.00016731,0.00016436,-0.00016967,0.00000
 496,0.00007239,-0.00005166,0.00031525,0.00030372,-0.00009707,-0.000012
 45,-0.00005151,0.00003127,-0.00011648,-0.00003288,-0.00000813,0.000201
 15,0.00016743,-0.00045550,-0.00420279,-0.00480594,-0.00018145,-0.11568
 474,0.24062263,0.00024376,0.00012523,0.00071991,-0.00203883,-0.0023507
 5,-0.00094737,-0.00005069,0.00805256,-0.00224168,-0.11100434,0.1258835
 2,-0.14798053,-0.01806693,0.02152382,-0.02139886,0.00230974,-0.0035075
 2,-0.00252813,0.00012849,-0.00009566,0.00023151,-0.00127027,0.00025031
 ,-0.00101941,-0.00027255,-0.00015189,0.00029187,0.00013304,0.00001729,
 -0.00001893,-0.00012752,-0.00014973,0.00002355,-0.00024862,-0.00038088
 ,0.00000230,-0.00003017,-0.00013622,-0.00012239,0.00014923,0.00054517,
 -0.00047310,0.00027951,-0.00036683,0.00007607,-0.00000348,0.00058331,0
 .00119939,0.12979473,-0.14957941,0.17338448,0.00029026,0.00019494,0.00
 011695,0.00019055,0.00089379,0.00006834,0.00121576,-0.00012658,-0.0000
 1601,0.01282988,0.00005151,-0.01290234,-0.15135709,-0.00856944,0.11181
 718,-0.02919533,0.00435842,0.02057989,-0.00329702,0.00347228,-0.003870
 85,0.00200246,-0.00086422,0.00171605,-0.00097716,0.00012512,-0.0004199
 0,0.00053976,0.00024365,-0.00028404,0.00001905,0.00003478,0.00001179,0
 .00001259,0.00003516,0.00000383,0.00005131,-0.00000901,-0.00004020,-0.
 00074055,-0.00069812,-0.00040561,0.00005209,0.00000424,0.00013288,-0.0
 0015072,0.00003116,0.00004733,0.00014951,-0.00008923,0.00014304,0.1738
 7317,0.00004320,-0.00015732,0.00018623,-0.00023179,0.00035123,0.000007
 77,0.00180473,0.00124619,-0.00096512,0.00615056,0.00253713,-0.01550412
 ,-0.01292358,-0.05531822,0.01287758,0.02078429,-0.00174058,-0.01342746
 ,0.00167123,-0.00071219,0.00205311,-0.00105471,0.00056565,-0.00097517,
 0.00005618,0.00054866,-0.00042936,-0.00023467,-0.00037380,0.00030676,0
 .00005276,0.00003811,-0.00000077,-0.00001626,-0.00002135,-0.00001981,0
 .00006474,0.00005425,0.00000796,-0.00093009,0.00018475,-0.00023123,0.0
 0009039,-0.00017286,0.00037038,0.00006811,-0.00017681,0.00003102,0.000
 23038,-0.00060627,-0.00011494,0.00281496,0.05421305,-0.00071869,0.0000
 4795,0.00069151,-0.00141004,-0.00066201,0.00025221,0.00264113,0.005786
 65,0.00038781,0.00933801,-0.00888032,-0.03358942,0.12135377,0.00826579
 ,-0.17678919,-0.00632783,0.00080342,0.00492870,-0.00216374,0.00074383,
 -0.00046776,-0.00294865,0.00078629,0.00202807,-0.00002983,0.00008535,0
 .00027554,-0.00019024,0.00011186,-0.00023395,-0.00014374,-0.00016503,-
 0.00002642,0.00001873,-0.00000365,-0.00004789,0.00018429,0.00020454,0.
 00001810,-0.00131150,-0.00062547,0.00073636,-0.00023764,-0.00010489,0.
 00018318,-0.00017140,-0.00071299,0.00035242,0.00129566,-0.00123138,-0.
 00118199,-0.12359709,-0.00573321,0.20541361,0.00014955,0.00021110,-0.0
 0010426,0.00016775,0.00009160,-0.00016665,0.00103334,-0.00092842,-0.00
 331572,-0.00359986,-0.01283384,0.00121101,-0.06590317,-0.05314611,0.01
 296972,-0.00375549,0.03405526,-0.01158648,0.00505635,0.00275178,-0.002
 47058,0.00148732,0.00203272,0.00427186,-0.00049004,-0.00040088,0.00028
 620,0.00032742,0.00012133,-0.00007565,-0.00005725,-0.00000976,0.000037
 61,0.00000887,-0.00005468,0.00002985,-0.00003310,-0.00005549,0.0000257
 5,0.00043779,0.00002866,0.00005726,-0.00064481,-0.00073835,-0.00004931
 ,-0.00003975,0.00017079,0.00007296,-0.00006828,-0.00084753,0.00028202,
 -0.00359598,-0.01946938,0.00504754,0.06897661,-0.00002652,0.00012751,0
 .00009970,-0.00018235,0.00002531,-0.00007441,0.00079851,0.00103055,-0.
 00357063,-0.00664841,-0.01666543,0.00116775,-0.05585141,-0.24892087,0.
 04045823,0.00965208,-0.02319339,0.00880862,-0.00239365,0.00173159,0.00
 148258,0.00007551,0.00181763,-0.00133786,0.00047806,0.00014282,-0.0001
 1848,-0.00022162,-0.00002605,0.00011586,-0.00006684,-0.00003626,0.0000
 3184,0.00000345,-0.00002244,-0.00000454,0.00002242,0.00000707,0.000018
 45,-0.00000011,-0.00010434,0.00007201,-0.00058906,-0.00065325,0.000156
 97,0.00027177,0.00040373,0.00011342,-0.00071557,0.00077278,-0.00025174
 ,-0.00121108,-0.00097942,0.00085645,0.05380366,0.28402646,-0.00012449,
 0.00016380,0.00021680,-0.00023169,-0.00015973,0.00001241,0.00070184,-0
 .00104712,-0.00556591,-0.01177098,-0.03348860,0.00227916,0.01719804,0.
 05133478,-0.06416651,-0.00517555,0.01425640,-0.00296276,0.00108939,-0.
 00155053,-0.00073354,0.00101554,0.00145898,0.00346434,0.00055101,-0.00
 002979,-0.00023955,-0.00021166,-0.00006115,0.00004452,-0.00008049,-0.0
 0004183,0.00003492,0.00001360,-0.00005947,-0.00000581,0.00007209,0.000
 06010,0.00003721,-0.00043807,0.00002087,0.00005830,-0.00087125,-0.0013
 2371,0.00013897,-0.00001473,-0.00025883,0.00009311,-0.00010727,-0.0003
 9203,0.00183133,0.00626364,0.02202469,-0.00342560,-0.00677989,-0.04891
 268,0.06878997,-0.00004981,-0.00019326,-0.00008931,0.00044455,0.000339
 18,-0.00002393,-0.00090903,-0.00115111,0.00015439,-0.00184976,-0.00026
 041,-0.00048623,0.00140829,0.00147288,0.00107566,0.00876712,0.00600990
 ,0.02570596,-0.07300683,-0.02352218,-0.08054163,-0.00349600,0.00028770
 ,0.00587799,-0.00036787,0.00122409,0.00131764,-0.00008991,-0.00050859,
 0.00012058,0.00005705,0.00003869,-0.00001103,0.00000908,0.00008239,-0.
 00001599,-0.00001370,0.00001960,0.00001507,-0.00002105,-0.00003014,0.0
 0002913,0.00005183,0.00010136,0.00006251,0.00006993,0.00011325,-0.0000
 2798,-0.00002518,0.00005849,-0.00021757,0.00024375,-0.00027736,-0.0004
 1181,-0.00028659,0.00006565,-0.00009561,0.07635396,-0.00003184,0.00005
 845,0.00003816,-0.00013309,-0.00030978,0.00000673,-0.00018924,0.000760
 87,0.00014150,-0.00081599,-0.00086244,0.00049816,0.00005912,0.00022006
 ,-0.00092063,0.00255728,0.00021567,0.00302491,-0.02138213,-0.07038086,
 -0.07007282,-0.00064305,0.00160367,0.00111916,0.00036072,0.00047592,-0
 .00015599,-0.00008702,-0.00016204,0.00008350,-0.00001745,-0.00002389,-
 0.00000024,-0.00000740,-0.00002458,0.00001227,-0.00000189,-0.00000392,
 -0.00000946,0.00002926,0.00002586,-0.00002040,-0.00008695,-0.00003441,
 -0.00005106,-0.00001585,-0.00010999,0.00011578,0.00028408,-0.00006890,
 -0.00017721,-0.00006525,-0.00007078,0.00006591,-0.00005875,-0.00022117
 ,-0.00009288,0.02544157,0.07111990,-0.00001152,0.00004286,0.00003969,-
 0.00026010,-0.00014191,-0.00003434,0.00028262,0.00048532,0.00005754,-0
 .00250118,0.00047274,0.00082174,-0.00093090,-0.00051887,-0.00139483,-0
 .00456518,-0.00407937,-0.02149175,-0.06813119,-0.06790119,-0.27520606,
 0.00359824,0.00052079,-0.00387863,0.00008336,-0.00145539,-0.00013587,0
 .00012438,0.00044422,-0.00028577,-0.00002533,-0.00001498,0.00000209,-0
 .00000231,-0.00003043,0.00000015,0.00000503,-0.00000644,0.00000076,0.0
 0000688,0.00001199,-0.00002149,0.00000323,-0.00004264,-0.00000432,-0.0
 0000622,-0.00002760,-0.00004473,-0.00009424,0.00004779,0.00015483,-0.0
 0010304,-0.00013141,-0.00005746,0.00021091,-0.00019470,0.00017877,0.07
 449013,0.07441752,0.30526491,0.00005881,0.00011908,-0.00000160,-0.0001
 6307,-0.00019203,0.00003465,0.00017167,0.00042160,-0.00009626,0.000339
 59,-0.00010567,0.00005668,-0.00144592,-0.00033987,0.00512098,-0.028912
 24,0.01466182,-0.00820039,-0.18135948,0.11521096,-0.06330058,0.0022268
 8,-0.00055854,-0.00143702,-0.00007299,-0.00016052,0.00022078,0.0000781
 4,0.00003125,-0.00006353,-0.00002227,-0.00001607,0.00000829,-0.0000053
 6,-0.00004660,0.00001804,-0.00000561,-0.00002238,-0.00001251,0.0000754
 3,0.00005459,-0.00005594,-0.00007189,-0.00006741,-0.00004577,-0.000007
 65,0.00000747,0.00005662,-0.00006869,-0.00010025,0.00002675,-0.0013609
 7,0.00076247,-0.00046995,-0.00002711,0.00023780,-0.00005052,-0.0047523
 4,0.00430417,-0.00215463,0.20685032,-0.00001063,-0.00000337,0.00000371
 ,-0.00002459,-0.00004624,0.00000739,0.00000279,0.00015314,0.00002785,-
 0.00020957,0.00008579,0.00012192,-0.00099506,0.00060267,0.00007598,-0.
 00285213,0.00404386,-0.00294214,0.12033274,-0.15105960,0.05735936,-0.0
 0092923,0.00009809,0.00051704,0.00025413,0.00030102,-0.00049112,-0.000
 11982,-0.00016077,0.00017072,0.00000064,-0.00000373,-0.00000022,-0.000
 00230,-0.00000136,0.00000202,-0.00000028,0.00000002,-0.00000192,-0.000
 00140,0.00000494,-0.00000581,0.00000621,0.00000204,-0.00000187,-0.0000
 0358,-0.00001655,0.00001616,-0.00005661,-0.00001810,0.00001320,-0.0000
 4030,0.00037513,-0.00002069,-0.00049097,0.00046041,-0.00008746,-0.0081
 2853,0.00641576,-0.00270511,-0.12782136,0.15762767,-0.00003240,0.00001
 701,0.00004317,-0.00012235,-0.00014776,-0.00001792,0.00009070,0.000363
 21,0.00004654,-0.00141707,0.00023659,0.00102606,0.00216560,-0.00048807
 ,-0.00454675,0.02249747,-0.01311713,0.00533994,-0.07236208,0.06001750,
 -0.08021857,-0.00040849,-0.00060502,0.00207663,0.00053433,0.00036606,-
 0.00007756,-0.00018410,-0.00018945,0.00019929,-0.00001194,-0.00001340,
 0.00000014,-0.00000284,-0.00000980,0.00000316,0.00000407,0.00000623,-0
 .00000453,-0.00002278,-0.00001253,0.00001969,-0.00000819,0.00001320,-0
 .00003081,-0.00002453,-0.00004388,0.00002558,0.00015817,0.00001372,-0.
 00007429,0.00127285,-0.00048844,0.00040899,0.00001936,-0.00010842,-0.0
 0008818,-0.01919426,0.01911724,-0.00657652,0.06706308,-0.06300903,0.08
 245473,0.00005085,0.00005621,0.00002350,-0.00015564,0.00004994,-0.0000
 2369,0.00021216,-0.00013890,0.00009828,-0.00015685,0.00040797,-0.00059
 784,0.00421139,-0.00534108,0.00217711,-0.02281678,-0.02846864,0.010639
 89,-0.07292413,-0.06657162,-0.00033049,0.00036176,0.00054988,-0.003900
 10,0.00022531,0.00025575,-0.00036953,-0.00003961,-0.00001742,0.0000915
 4,-0.00001414,-0.00000580,0.00000467,0.00000060,-0.00001241,0.00000076
 ,-0.00000049,-0.00000868,-0.00001404,0.00003235,-0.00003282,0.00000464
 ,-0.00004195,0.00004541,-0.00007105,0.00002863,0.00019764,-0.00001391,
 -0.00023870,-0.00004988,-0.00001000,0.00013790,0.00069418,-0.00012605,
 0.00048372,0.00191926,-0.00072937,-0.00232331,-0.00883941,-0.00015036,
 0.00868604,0.02087953,0.00005247,0.08413916,0.00006677,0.00007854,0.00
 003492,-0.00025216,0.00006082,-0.00004160,0.00044544,-0.00002075,0.000
 06756,-0.00033975,-0.00006731,-0.00031157,0.00175768,0.00201657,0.0003
 5619,-0.00892606,-0.00058393,0.00532740,-0.06599919,-0.25651596,-0.001
 01294,0.00095484,0.00299002,0.00005819,0.00048271,0.00021790,0.0000768
 7,-0.00011727,-0.00000976,0.00003166,-0.00003053,-0.00000754,0.0000075
 6,0.00000103,-0.00002248,-0.00000382,0.00000360,-0.00001500,-0.0000109
 2,0.00003519,-0.00002725,-0.00000171,-0.00000930,-0.00002454,-0.000013
 73,0.00003570,0.00013508,-0.00003310,-0.00022800,-0.00005094,0.0001334
 7,-0.00013677,0.00024348,0.00000340,-0.00201103,0.00051684,-0.00042224
 ,-0.00139197,-0.00861369,0.00078096,-0.00663573,-0.01840752,-0.0017524
 2,0.08343730,0.27870295,-0.00002772,-0.00002693,0.00000022,0.00001751,
 0.00002582,0.00000752,0.00010644,0.00014907,-0.00010189,-0.00058961,0.
 00043821,0.00019113,-0.00256796,0.00071480,-0.00099062,0.01763654,0.02
 144499,-0.00738383,-0.00119436,-0.00047507,-0.05056393,0.00024854,0.00
 318516,0.00457869,-0.00024986,0.00003865,0.00013265,-0.00000940,-0.000
 13945,0.00005595,0.00000085,0.00000062,0.00000008,-0.00000081,0.000005
 12,-0.00000314,0.00000576,0.00000405,0.00000808,-0.00003424,0.00000346
 ,0.00000635,0.00008034,-0.00001502,0.00007490,-0.00001088,-0.00011079,
 -0.00002797,-0.00003462,-0.00000943,0.00010525,-0.00013971,-0.00023394
 ,0.00011038,-0.00005711,-0.00086646,0.00038090,-0.00817358,-0.02789799
 ,0.00294082,0.00295680,0.01073272,0.00021821,-0.00785186,-0.00548507,0
 .05011658,-0.00005737,-0.00008487,-0.00000600,0.00006664,0.00012548,-0
 .00000567,-0.00003820,-0.00022121,0.00012307,-0.00043592,0.00096319,0.
 00032644,0.00124896,-0.00462589,0.00054386,-0.00439466,-0.01024081,-0.
 00771497,0.00168816,0.00364471,-0.00048391,-0.00793845,-0.02378280,-0.
 00272289,-0.01554454,-0.02616158,0.01046538,0.00363013,0.00290563,-0.0
 0231590,0.00001518,0.00000754,-0.00001094,0.00000640,0.00002112,-0.000
 01228,0.00000483,0.00002073,0.00002034,-0.00005720,-0.00004576,0.00002
 449,0.00006927,0.00011435,0.00001068,0.00008672,0.00007580,-0.00004091
 ,-0.00007836,0.00011044,-0.00014934,-0.00093323,-0.00015034,0.00037907
 ,0.00037270,0.00057846,-0.00022356,-0.00021417,-0.00066087,0.00013141,
 -0.00021130,0.00021033,-0.00006705,0.00014174,-0.00114251,-0.00011108,
 0.02257267,0.00004424,0.00008283,0.00001315,-0.00016744,0.00001685,-0.
 00002766,0.00029816,-0.00007077,0.00001066,0.00020176,-0.00068677,0.00
 060419,0.00205093,0.00523721,0.00023758,-0.00077139,-0.00635486,-0.012
 39510,0.00066358,0.00134810,-0.00026142,-0.06148481,-0.38960146,-0.031
 09436,0.00191668,-0.01862076,0.00711014,0.00003769,0.00311299,-0.00345
 637,-0.00001942,-0.00000752,0.00000345,0.00000517,-0.00003491,0.000005
 05,0.00000134,-0.00000865,0.00000018,0.00000791,0.00000829,-0.00001854
 ,-0.00001770,-0.00003121,-0.00000342,0.00002477,0.00007957,-0.00002808
 ,0.00008376,0.00005239,0.00013492,-0.00045001,-0.00002802,0.00037822,-
 0.00222170,-0.00024009,-0.00139157,0.00020879,-0.00000969,0.00002586,0
 .00025524,-0.00045329,-0.00016540,0.00099358,-0.00059553,-0.00148253,0
 .05833886,0.40680532,0.00003710,0.00007274,0.00001705,-0.00021326,0.00
 004548,-0.00000476,0.00031951,-0.00007442,0.00018956,-0.00009931,0.000
 79592,-0.00054103,0.00351304,-0.00482455,0.00251866,-0.00638924,-0.037
 17473,-0.01577015,-0.00453706,-0.00334333,0.00304188,-0.00236486,-0.03
 459045,-0.06332749,0.00468867,0.03321973,0.00115389,0.00182324,-0.0018
 3451,-0.00233863,-0.00001608,-0.00000668,0.00000102,0.00000604,-0.0000
 3703,0.00000004,0.00000646,-0.00000514,0.00000274,-0.00001608,-0.00001
 257,-0.00000375,-0.00000971,0.00007704,-0.00005585,0.00009977,0.000217
 13,-0.00008886,-0.00023798,0.00004070,-0.00003381,-0.00039496,0.000389
 49,0.00003282,0.00008359,0.00205807,-0.00037284,0.00043987,0.00075785,
 -0.00032953,0.00032604,0.00021731,-0.00022697,0.00109545,0.00221091,0.
 00014364,0.00183977,0.04180104,0.07599239\\-0.00000423,-0.00000349,0.0
 0000437,0.00000425,0.00000394,0.00000434,-0.00001628,-0.00000641,-0.00
 000836,0.00001876,-0.00000362,-0.00000602,0.00000282,0.00001451,0.0000
 0913,-0.00000100,0.00000062,0.00000975,-0.00000476,0.00000225,-0.00000
 279,-0.00001189,-0.00000197,-0.00001229,0.00000351,0.00000259,-0.00000
 076,0.00000003,0.00000080,0.00000048,0.00000043,0.00000096,0.00000029,
 -0.00000031,0.00000102,0.00000024,-0.00000009,0.00000086,0.00000064,-0
 .00000530,0.00000385,0.00000283,0.00000449,-0.00000557,-0.00000301,0.0
 0000530,0.00000946,-0.00000256,-0.00000502,-0.00000690,-0.00000033,0.0
 0000428,-0.00000765,0.00000314,0.00000216,-0.00000301,-0.00000007,0.00
 000131,-0.00000018,0.00000030,-0.00000168,-0.00000155,0.00000096,0.000
 00071,-0.00000049,-0.00000130,0.00000252,0.,0.00000104\\\@


 TERENCE, THIS IS STUPID STUFF:
 YOU EAT YOUR VICTUALS FAST ENOUGH;
 THERE CAN'T BE MUCH AMISS, 'TIS CLEAR
 TO SEE THE RATE YOU DRINK YOUR BEER.
 BUT OH, GOOD LORD, THE VERSE YOU MAKE,
 IT GIVES A CHAP THE BELLY-ACHE.
 THE COW, THE OLD COW, SHE IS DEAD;
 IT SLEEPS WELL, THE HORNED HEAD:
 WE POOR LADS, 'TIS OUR TURN NOW
 TO HEAR SUCH TUNES AS KILLED THE COW.
 PRETTY FRIENDSHIP 'TIS TO RHYME
 YOUR FRIENDS TO DEATH BEFORE THEIR TIME.
 MOPING, MELANCHOLY MAD:
 COME PIPE A TUNE TO DANCE TO, LAD.

     -- A. E. HOUSMAN
 Job cpu time:       0 days  2 hours 36 minutes 28.1 seconds.
 Elapsed time:       0 days  0 hours 39 minutes  7.6 seconds.
 File lengths (MBytes):  RWF=    209 Int=      0 D2E=      0 Chk=     11 Scr=      1
 Normal termination of Gaussian 16 at Tue Jun  1 09:45:25 2021.
### All Done ###
