### Starting Gaussian ###
 Entering Gaussian System, Link 0=g16
 Initial command:
 /cluster/software/gaussian/gaussian-16-A.03/avx2/g16/l1.exe "/local/scratch/linjian/Gau-2316.inp" -scrdir="/local/scratch/linjian/"
 Entering Link 1 = /cluster/software/gaussian/gaussian-16-A.03/avx2/g16/l1.exe PID=      2317.
  
 Copyright (c) 1988,1990,1992,1993,1995,1998,2003,2009,2016,
            Gaussian, Inc.  All Rights Reserved.
  
 This is part of the Gaussian(R) 16 program.  It is based on
 the Gaussian(R) 09 system (copyright 2009, Gaussian, Inc.),
 the Gaussian(R) 03 system (copyright 2003, Gaussian, Inc.),
 the Gaussian(R) 98 system (copyright 1998, Gaussian, Inc.),
 the Gaussian(R) 94 system (copyright 1995, Gaussian, Inc.),
 the Gaussian 92(TM) system (copyright 1992, Gaussian, Inc.),
 the Gaussian 90(TM) system (copyright 1990, Gaussian, Inc.),
 the Gaussian 88(TM) system (copyright 1988, Gaussian, Inc.),
 the Gaussian 86(TM) system (copyright 1986, Carnegie Mellon
 University), and the Gaussian 82(TM) system (copyright 1983,
 Carnegie Mellon University). Gaussian is a federally registered
 trademark of Gaussian, Inc.
  
 This software contains proprietary and confidential information,
 including trade secrets, belonging to Gaussian, Inc.
  
 This software is provided under written license and may be
 used, copied, transmitted, or stored only in accord with that
 written license.
  
 The following legend is applicable only to US Government
 contracts under FAR:
  
                    RESTRICTED RIGHTS LEGEND
  
 Use, reproduction and disclosure by the US Government is
 subject to restrictions as set forth in subparagraphs (a)
 and (c) of the Commercial Computer Software - Restricted
 Rights clause in FAR 52.227-19.
  
 Gaussian, Inc.
 340 Quinnipiac St., Bldg. 40, Wallingford CT 06492
  
  
 ---------------------------------------------------------------
 Warning -- This program may not be used in any manner that
 competes with the business of Gaussian, Inc. or will provide
 assistance to any competitor of Gaussian, Inc.  The licensee
 of this program is prohibited from giving any competitor of
 Gaussian, Inc. access to this program.  By using this program,
 the user acknowledges that Gaussian, Inc. is engaged in the
 business of creating and licensing software in the field of
 computational chemistry and represents and warrants to the
 licensee that it is not a competitor of Gaussian, Inc. and that
 it will not use this program in any manner prohibited above.
 ---------------------------------------------------------------
  

 Cite this work as:
 Gaussian 16, Revision A.03,
 M. J. Frisch, G. W. Trucks, H. B. Schlegel, G. E. Scuseria, 
 M. A. Robb, J. R. Cheeseman, G. Scalmani, V. Barone, 
 G. A. Petersson, H. Nakatsuji, X. Li, M. Caricato, A. V. Marenich, 
 J. Bloino, B. G. Janesko, R. Gomperts, B. Mennucci, H. P. Hratchian, 
 J. V. Ortiz, A. F. Izmaylov, J. L. Sonnenberg, D. Williams-Young, 
 F. Ding, F. Lipparini, F. Egidi, J. Goings, B. Peng, A. Petrone, 
 T. Henderson, D. Ranasinghe, V. G. Zakrzewski, J. Gao, N. Rega, 
 G. Zheng, W. Liang, M. Hada, M. Ehara, K. Toyota, R. Fukuda, 
 J. Hasegawa, M. Ishida, T. Nakajima, Y. Honda, O. Kitao, H. Nakai, 
 T. Vreven, K. Throssell, J. A. Montgomery, Jr., J. E. Peralta, 
 F. Ogliaro, M. J. Bearpark, J. J. Heyd, E. N. Brothers, K. N. Kudin, 
 V. N. Staroverov, T. A. Keith, R. Kobayashi, J. Normand, 
 K. Raghavachari, A. P. Rendell, J. C. Burant, S. S. Iyengar, 
 J. Tomasi, M. Cossi, J. M. Millam, M. Klene, C. Adamo, R. Cammi, 
 J. W. Ochterski, R. L. Martin, K. Morokuma, O. Farkas, 
 J. B. Foresman, and D. J. Fox, Gaussian, Inc., Wallingford CT, 2016.
 
 ******************************************
 Gaussian 16:  ES64L-G16RevA.03 25-Dec-2016
                 1-Jun-2021 
 ******************************************
 %chk=CNCpCNpNCCNCN.chk
 %NProcShared=20
 Will use up to   20 processors via shared memory.
 -----------------------------
 # opt freq b3lyp/6-31g(2df,p)
 -----------------------------
 1/18=20,19=15,26=3,38=1/1,3;
 2/9=110,12=2,17=6,18=5,40=1/2;
 3/5=1,6=6,7=104,11=2,25=1,30=1,71=1,74=-5/1,2,3;
 4//1;
 5/5=2,38=5/2;
 6/7=2,8=2,9=2,10=2,28=1/1;
 7//1,2,3,16;
 1/18=20,19=15,26=3/3(2);
 2/9=110/2;
 99//99;
 2/9=110/2;
 3/5=1,6=6,7=104,11=2,25=1,30=1,71=1,74=-5/1,2,3;
 4/5=5,16=3,69=1/1;
 5/5=2,38=5/2;
 7//1,2,3,16;
 1/18=20,19=15,26=3/3(-5);
 2/9=110/2;
 6/7=2,8=2,9=2,10=2,19=2,28=1/1;
 99/9=1/99;
 -------------------
 Title Card Required
 -------------------
 Symbolic Z-matrix:
 Charge =  0 Multiplicity = 1
 C                     1.13851  -0.02108   0.16476 
 N                     2.58799  -0.09295  -0.01392 
 C                     2.98117  -0.86971  -1.19031 
 C                     2.42035  -0.2904   -2.54337 
 N                     0.96215  -0.35554  -2.70986 
 N                     4.44785  -0.87771  -1.1675 
 C                     5.0219   -1.70995  -2.23799 
 C                     6.56053  -1.71615  -2.23732 
 N                     7.0784   -2.54321  -3.33919 
 C                     8.5153   -2.49269  -3.35995 
 N                     8.88343  -3.27183  -4.50913 
 H                     0.89716   0.46083   1.11652 
 H                     0.68266  -1.01784   0.17035 
 H                     0.65479   0.60341  -0.58994 
 H                     2.98965  -0.51786   0.81488 
 H                     2.6279   -1.90148  -1.06338 
 H                     2.82161  -0.85641  -3.38704 
 H                     2.75937   0.74579  -2.65829 
 H                     0.65119  -1.31661  -2.63453 
 H                     0.71149  -0.00657  -3.63428 
 H                     4.75651  -1.23174  -0.26594 
 H                     4.72834  -1.32142  -3.21653 
 H                     4.64838  -2.73732  -2.15112 
 H                     6.92257  -2.11152  -1.28191 
 H                     6.92113  -0.68531  -2.34408 
 H                     6.75877  -2.16925  -4.23359 
 H                     8.93705  -2.93211  -2.45121 
 H                     8.88685  -1.46984  -3.475 
 H                     8.52799  -4.21486  -4.36257 
 H                     9.89783  -3.35461  -4.53333 
 

 GradGradGradGradGradGradGradGradGradGradGradGradGradGradGradGradGradGrad
 Berny optimization.
 Initialization pass.
                           ----------------------------
                           !    Initial Parameters    !
                           ! (Angstroms and Degrees)  !
 --------------------------                            --------------------------
 ! Name  Definition              Value          Derivative Info.                !
 --------------------------------------------------------------------------------
 ! R1    R(1,2)                  1.4622         estimate D2E/DX2                !
 ! R2    R(1,12)                 1.0938         estimate D2E/DX2                !
 ! R3    R(1,13)                 1.0961         estimate D2E/DX2                !
 ! R4    R(1,14)                 1.0925         estimate D2E/DX2                !
 ! R5    R(2,3)                  1.4635         estimate D2E/DX2                !
 ! R6    R(2,15)                 1.0143         estimate D2E/DX2                !
 ! R7    R(3,4)                  1.5751         estimate D2E/DX2                !
 ! R8    R(3,6)                  1.4669         estimate D2E/DX2                !
 ! R9    R(3,16)                 1.0979         estimate D2E/DX2                !
 ! R10   R(4,5)                  1.4691         estimate D2E/DX2                !
 ! R11   R(4,17)                 1.0923         estimate D2E/DX2                !
 ! R12   R(4,18)                 1.0963         estimate D2E/DX2                !
 ! R13   R(5,19)                 1.0129         estimate D2E/DX2                !
 ! R14   R(5,20)                 1.0194         estimate D2E/DX2                !
 ! R15   R(6,7)                  1.4724         estimate D2E/DX2                !
 ! R16   R(6,21)                 1.0166         estimate D2E/DX2                !
 ! R17   R(7,8)                  1.5386         estimate D2E/DX2                !
 ! R18   R(7,22)                 1.093          estimate D2E/DX2                !
 ! R19   R(7,23)                 1.0966         estimate D2E/DX2                !
 ! R20   R(8,9)                  1.4718         estimate D2E/DX2                !
 ! R21   R(8,24)                 1.0955         estimate D2E/DX2                !
 ! R22   R(8,25)                 1.0973         estimate D2E/DX2                !
 ! R23   R(9,10)                 1.4379         estimate D2E/DX2                !
 ! R24   R(9,26)                 1.0208         estimate D2E/DX2                !
 ! R25   R(10,11)                1.4364         estimate D2E/DX2                !
 ! R26   R(10,27)                1.094          estimate D2E/DX2                !
 ! R27   R(10,28)                1.0943         estimate D2E/DX2                !
 ! R28   R(11,29)                1.0184         estimate D2E/DX2                !
 ! R29   R(11,30)                1.0181         estimate D2E/DX2                !
 ! A1    A(2,1,12)             110.2871         estimate D2E/DX2                !
 ! A2    A(2,1,13)             111.6045         estimate D2E/DX2                !
 ! A3    A(2,1,14)             112.4942         estimate D2E/DX2                !
 ! A4    A(12,1,13)            107.7261         estimate D2E/DX2                !
 ! A5    A(12,1,14)            104.5699         estimate D2E/DX2                !
 ! A6    A(13,1,14)            109.8285         estimate D2E/DX2                !
 ! A7    A(1,2,3)              112.9936         estimate D2E/DX2                !
 ! A8    A(1,2,15)             108.2576         estimate D2E/DX2                !
 ! A9    A(3,2,15)             109.1525         estimate D2E/DX2                !
 ! A10   A(2,3,4)              113.556          estimate D2E/DX2                !
 ! A11   A(2,3,6)              105.0117         estimate D2E/DX2                !
 ! A12   A(2,3,16)             108.6266         estimate D2E/DX2                !
 ! A13   A(4,3,6)              111.8003         estimate D2E/DX2                !
 ! A14   A(4,3,16)             109.2918         estimate D2E/DX2                !
 ! A15   A(6,3,16)             108.3483         estimate D2E/DX2                !
 ! A16   A(3,4,5)              115.7506         estimate D2E/DX2                !
 ! A17   A(3,4,17)             110.0058         estimate D2E/DX2                !
 ! A18   A(3,4,18)             109.1218         estimate D2E/DX2                !
 ! A19   A(5,4,17)             104.721          estimate D2E/DX2                !
 ! A20   A(5,4,18)             109.6928         estimate D2E/DX2                !
 ! A21   A(17,4,18)            107.1699         estimate D2E/DX2                !
 ! A22   A(4,5,19)             109.7764         estimate D2E/DX2                !
 ! A23   A(4,5,20)             109.3692         estimate D2E/DX2                !
 ! A24   A(19,5,20)            108.467          estimate D2E/DX2                !
 ! A25   A(3,6,7)              112.4319         estimate D2E/DX2                !
 ! A26   A(3,6,21)             108.6192         estimate D2E/DX2                !
 ! A27   A(7,6,21)             109.2415         estimate D2E/DX2                !
 ! A28   A(6,7,8)              113.0677         estimate D2E/DX2                !
 ! A29   A(6,7,22)             110.1972         estimate D2E/DX2                !
 ! A30   A(6,7,23)             109.8243         estimate D2E/DX2                !
 ! A31   A(8,7,22)             105.688          estimate D2E/DX2                !
 ! A32   A(8,7,23)             109.6821         estimate D2E/DX2                !
 ! A33   A(22,7,23)            108.2077         estimate D2E/DX2                !
 ! A34   A(7,8,9)              110.719          estimate D2E/DX2                !
 ! A35   A(7,8,24)             109.4084         estimate D2E/DX2                !
 ! A36   A(7,8,25)             108.9532         estimate D2E/DX2                !
 ! A37   A(9,8,24)             109.5001         estimate D2E/DX2                !
 ! A38   A(9,8,25)             109.8417         estimate D2E/DX2                !
 ! A39   A(24,8,25)            108.3779         estimate D2E/DX2                !
 ! A40   A(8,9,10)             110.0392         estimate D2E/DX2                !
 ! A41   A(8,9,26)             109.872          estimate D2E/DX2                !
 ! A42   A(10,9,26)            106.7012         estimate D2E/DX2                !
 ! A43   A(9,10,11)            104.3946         estimate D2E/DX2                !
 ! A44   A(9,10,27)            111.0473         estimate D2E/DX2                !
 ! A45   A(9,10,28)            111.9404         estimate D2E/DX2                !
 ! A46   A(11,10,27)           110.359          estimate D2E/DX2                !
 ! A47   A(11,10,28)           109.6261         estimate D2E/DX2                !
 ! A48   A(27,10,28)           109.3831         estimate D2E/DX2                !
 ! A49   A(10,11,29)           107.3197         estimate D2E/DX2                !
 ! A50   A(10,11,30)           108.5718         estimate D2E/DX2                !
 ! A51   A(29,11,30)           106.0152         estimate D2E/DX2                !
 ! D1    D(12,1,2,3)           173.0735         estimate D2E/DX2                !
 ! D2    D(12,1,2,15)           52.0571         estimate D2E/DX2                !
 ! D3    D(13,1,2,3)            53.3694         estimate D2E/DX2                !
 ! D4    D(13,1,2,15)          -67.647          estimate D2E/DX2                !
 ! D5    D(14,1,2,3)           -70.6083         estimate D2E/DX2                !
 ! D6    D(14,1,2,15)          168.3753         estimate D2E/DX2                !
 ! D7    D(1,2,3,4)             59.9801         estimate D2E/DX2                !
 ! D8    D(1,2,3,6)           -177.5836         estimate D2E/DX2                !
 ! D9    D(1,2,3,16)           -61.8418         estimate D2E/DX2                !
 ! D10   D(15,2,3,4)          -179.5125         estimate D2E/DX2                !
 ! D11   D(15,2,3,6)           -57.0762         estimate D2E/DX2                !
 ! D12   D(15,2,3,16)           58.6656         estimate D2E/DX2                !
 ! D13   D(2,3,4,5)            -66.7693         estimate D2E/DX2                !
 ! D14   D(2,3,4,17)           174.815          estimate D2E/DX2                !
 ! D15   D(2,3,4,18)            57.5092         estimate D2E/DX2                !
 ! D16   D(6,3,4,5)            174.6298         estimate D2E/DX2                !
 ! D17   D(6,3,4,17)            56.2141         estimate D2E/DX2                !
 ! D18   D(6,3,4,18)           -61.0917         estimate D2E/DX2                !
 ! D19   D(16,3,4,5)            54.6817         estimate D2E/DX2                !
 ! D20   D(16,3,4,17)          -63.734          estimate D2E/DX2                !
 ! D21   D(16,3,4,18)          178.9602         estimate D2E/DX2                !
 ! D22   D(2,3,6,7)            175.6994         estimate D2E/DX2                !
 ! D23   D(2,3,6,21)            54.6818         estimate D2E/DX2                !
 ! D24   D(4,3,6,7)            -60.7346         estimate D2E/DX2                !
 ! D25   D(4,3,6,21)           178.2477         estimate D2E/DX2                !
 ! D26   D(16,3,6,7)            59.7654         estimate D2E/DX2                !
 ! D27   D(16,3,6,21)          -61.2522         estimate D2E/DX2                !
 ! D28   D(3,4,5,19)           -57.8884         estimate D2E/DX2                !
 ! D29   D(3,4,5,20)          -176.7836         estimate D2E/DX2                !
 ! D30   D(17,4,5,19)           63.4076         estimate D2E/DX2                !
 ! D31   D(17,4,5,20)          -55.4876         estimate D2E/DX2                !
 ! D32   D(18,4,5,19)          178.1299         estimate D2E/DX2                !
 ! D33   D(18,4,5,20)           59.2347         estimate D2E/DX2                !
 ! D34   D(3,6,7,8)            179.3562         estimate D2E/DX2                !
 ! D35   D(3,6,7,22)            61.3336         estimate D2E/DX2                !
 ! D36   D(3,6,7,23)           -57.7789         estimate D2E/DX2                !
 ! D37   D(21,6,7,8)           -59.9836         estimate D2E/DX2                !
 ! D38   D(21,6,7,22)         -178.0062         estimate D2E/DX2                !
 ! D39   D(21,6,7,23)           62.8813         estimate D2E/DX2                !
 ! D40   D(6,7,8,9)           -179.0375         estimate D2E/DX2                !
 ! D41   D(6,7,8,24)            60.1882         estimate D2E/DX2                !
 ! D42   D(6,7,8,25)           -58.1342         estimate D2E/DX2                !
 ! D43   D(22,7,8,9)           -58.4146         estimate D2E/DX2                !
 ! D44   D(22,7,8,24)         -179.1888         estimate D2E/DX2                !
 ! D45   D(22,7,8,25)           62.4887         estimate D2E/DX2                !
 ! D46   D(23,7,8,9)            58.0187         estimate D2E/DX2                !
 ! D47   D(23,7,8,24)          -62.7556         estimate D2E/DX2                !
 ! D48   D(23,7,8,25)          178.922          estimate D2E/DX2                !
 ! D49   D(7,8,9,10)           177.5437         estimate D2E/DX2                !
 ! D50   D(7,8,9,26)            60.3434         estimate D2E/DX2                !
 ! D51   D(24,8,9,10)          -61.7364         estimate D2E/DX2                !
 ! D52   D(24,8,9,26)         -178.9367         estimate D2E/DX2                !
 ! D53   D(25,8,9,10)           57.1687         estimate D2E/DX2                !
 ! D54   D(25,8,9,26)          -60.0316         estimate D2E/DX2                !
 ! D55   D(8,9,10,11)         -177.0219         estimate D2E/DX2                !
 ! D56   D(8,9,10,27)           64.0563         estimate D2E/DX2                !
 ! D57   D(8,9,10,28)          -58.5173         estimate D2E/DX2                !
 ! D58   D(26,9,10,11)         -57.8653         estimate D2E/DX2                !
 ! D59   D(26,9,10,27)        -176.7872         estimate D2E/DX2                !
 ! D60   D(26,9,10,28)          60.6392         estimate D2E/DX2                !
 ! D61   D(9,10,11,29)         -60.3539         estimate D2E/DX2                !
 ! D62   D(9,10,11,30)        -174.5367         estimate D2E/DX2                !
 ! D63   D(27,10,11,29)         59.0343         estimate D2E/DX2                !
 ! D64   D(27,10,11,30)        -55.1485         estimate D2E/DX2                !
 ! D65   D(28,10,11,29)        179.5754         estimate D2E/DX2                !
 ! D66   D(28,10,11,30)         65.3927         estimate D2E/DX2                !
 --------------------------------------------------------------------------------
 Trust Radius=3.00D-01 FncErr=1.00D-07 GrdErr=1.00D-06 EigMax=2.50D+02 EigMin=1.00D-04
 Number of steps in this run=    156 maximum allowed number of steps=    180.
 GradGradGradGradGradGradGradGradGradGradGradGradGradGradGradGradGradGrad

                          Input orientation:                          
 ---------------------------------------------------------------------
 Center     Atomic      Atomic             Coordinates (Angstroms)
 Number     Number       Type             X           Y           Z
 ---------------------------------------------------------------------
      1          6           0        1.138510   -0.021080    0.164760
      2          7           0        2.587990   -0.092950   -0.013920
      3          6           0        2.981170   -0.869710   -1.190310
      4          6           0        2.420350   -0.290400   -2.543370
      5          7           0        0.962150   -0.355540   -2.709860
      6          7           0        4.447850   -0.877710   -1.167500
      7          6           0        5.021900   -1.709950   -2.237990
      8          6           0        6.560530   -1.716150   -2.237320
      9          7           0        7.078400   -2.543210   -3.339190
     10          6           0        8.515300   -2.492690   -3.359950
     11          7           0        8.883430   -3.271830   -4.509130
     12          1           0        0.897160    0.460830    1.116520
     13          1           0        0.682660   -1.017840    0.170350
     14          1           0        0.654790    0.603410   -0.589940
     15          1           0        2.989650   -0.517860    0.814880
     16          1           0        2.627900   -1.901480   -1.063380
     17          1           0        2.821610   -0.856410   -3.387040
     18          1           0        2.759370    0.745790   -2.658290
     19          1           0        0.651190   -1.316610   -2.634530
     20          1           0        0.711490   -0.006570   -3.634280
     21          1           0        4.756510   -1.231740   -0.265940
     22          1           0        4.728340   -1.321420   -3.216530
     23          1           0        4.648380   -2.737320   -2.151120
     24          1           0        6.922570   -2.111520   -1.281910
     25          1           0        6.921130   -0.685310   -2.344080
     26          1           0        6.758770   -2.169250   -4.233590
     27          1           0        8.937050   -2.932110   -2.451210
     28          1           0        8.886850   -1.469840   -3.475000
     29          1           0        8.527990   -4.214860   -4.362570
     30          1           0        9.897830   -3.354610   -4.533330
 ---------------------------------------------------------------------
                    Distance matrix (angstroms):
                    1          2          3          4          5
     1  C    0.000000
     2  N    1.462219   0.000000
     3  C    2.439628   1.463503   0.000000
     4  C    3.008258   2.542677   1.575084   0.000000
     5  N    2.899380   3.159177   2.578729   1.469119   0.000000
     6  N    3.668850   2.325011   1.466879   2.519664   3.847290
     7  C    4.868902   3.672206   2.442993   2.979336   4.305654
     8  C    6.167783   4.833152   3.824200   4.389478   5.780693
     9  N    7.343099   6.101227   4.919917   5.235066   6.526137
    10  C    8.541046   7.217179   6.161818   6.531868   7.876554
    11  N    9.612305   8.363298   7.184805   7.384073   8.630689
    12  H    1.093771   2.107955   3.381553   4.034755   3.913038
    13  H    1.096066   2.125949   2.675161   3.303485   2.968563
    14  H    1.092495   2.134005   2.818257   2.780645   2.346938
    15  H    2.023899   1.014292   2.035843   3.413749   4.069508
    16  H    2.694905   2.091349   1.097935   2.197505   2.806341
    17  H    4.018194   3.466322   2.202557   1.092317   2.041332
    18  H    3.344382   2.779487   2.194083   1.096280   2.108456
    19  H    3.122804   3.480824   2.777462   2.047277   1.012930
    20  H    3.822991   4.078691   3.445206   2.047156   1.019393
    21  H    3.839417   2.462283   2.034050   3.395652   4.597569
    22  H    5.100087   4.043136   2.713340   2.615906   3.920947
    23  H    5.006041   3.975616   2.681550   3.332476   4.424179
    24  H    6.318081   4.946818   4.133415   5.017743   6.375666
    25  H    6.338310   4.955465   4.109559   4.522465   5.979296
    26  H    7.453015   6.285861   5.022013   5.020837   6.261957
    27  H    8.725516   7.369652   6.427742   7.032390   8.384786
    28  H    8.682369   7.317823   6.360583   6.638873   8.039153
    29  H    9.627509   8.437091   7.212522   7.484260   8.652614
    30  H   10.483805   9.192239   8.074076   8.322381   9.600304
                    6          7          8          9         10
     6  N    0.000000
     7  C    1.472449   0.000000
     8  C    2.512153   1.538643   0.000000
     9  N    3.796040   2.477127   1.471848   0.000000
    10  C    4.894808   3.751709   2.384206   1.437938   0.000000
    11  N    6.047534   4.744361   3.602378   2.271075   1.436382
    12  H    4.428977   5.742691   6.932622   8.190564   9.316551
    13  H    3.998266   5.010800   6.390138   7.453128   8.717135
    14  H    4.112736   5.209544   6.555302   7.663052   8.890805
    15  H    2.487101   3.856311   4.847990   6.170593   7.201525
    16  H    2.090733   2.673505   4.108292   5.039651   6.347066
    17  H    2.751630   2.624904   4.005063   4.579066   5.924209
    18  H    2.776540   3.365465   4.548316   5.471304   6.641597
    19  H    4.093829   4.406253   5.936136   6.581043   7.984587
    20  H    4.561170   4.840533   6.251834   6.859968   8.194846
    21  H    1.016572   2.046484   2.715784   4.068906   5.029055
    22  H    2.115201   1.093011   2.114612   2.651528   3.966549
    23  H    2.113260   1.096610   2.169455   2.711860   4.058840
    24  H    2.767601   2.165154   1.095536   2.107852   2.645814
    25  H    2.745628   2.160606   1.097297   2.113473   2.615338
    26  H    4.050844   2.685162   2.056622   1.020765   1.988280
    27  H    5.101116   4.107011   2.678088   2.096266   1.093970
    28  H    5.037846   4.065180   2.646561   2.107382   1.094307
    29  H    6.163813   4.804277   3.825067   2.437833   1.992806
    30  H    6.867760   5.634553   4.369644   3.167574   2.007764
                   11         12         13         14         15
    11  N    0.000000
    12  H   10.457590   0.000000
    13  H    9.707246   1.768534   0.000000
    14  H    9.903941   1.729473   1.790885   0.000000
    15  H    8.406312   2.329664   2.446958   2.946581   0.000000
    16  H    7.272050   3.650744   2.467158   3.223629   2.360747
    17  H    6.621103   5.071556   4.154057   3.827526   4.218884
    18  H    7.554534   4.218794   3.927381   2.954251   3.703073
    19  H    8.666417   4.158145   2.820923   2.804788   4.243209
    20  H    8.843522   4.777346   3.936840   3.105366   5.024585
    21  H    6.260838   4.435152   4.102725   4.505203   2.190797
    22  H    4.768615   6.052246   5.284945   5.215147   4.463297
    23  H    4.876634   5.914160   4.906401   5.435671   4.058885
    24  H    3.950473   6.976748   6.499359   6.865474   4.733301
    25  H    3.902326   7.041137   6.734348   6.633613   5.046147
    26  H    2.409520   8.360590   7.592071   7.630360   6.513095
    27  H    2.086461   9.427649   8.869722   9.195654   7.201910
    28  H    2.077644   9.415131   8.988972   8.965977   7.354339
    29  H    1.018392  10.493430   9.608200   9.971747   8.434869
    30  H    1.018060  11.291167  10.606812  10.800465   9.185502
                   16         17         18         19         20
    16  H    0.000000
    17  H    2.555209   0.000000
    18  H    3.093390   1.761248   0.000000
    19  H    2.591904   2.342814   2.949319   0.000000
    20  H    3.724626   2.288222   2.390066   1.649042   0.000000
    21  H    2.369693   3.691338   3.690871   4.740366   5.404530
    22  H    3.063392   1.970007   2.908923   4.118483   4.247167
    23  H    2.442160   2.898691   3.994701   4.269617   5.015562
    24  H    4.305353   4.777525   5.233629   6.464648   6.967207
    25  H    4.642315   4.233569   4.412145   6.308332   6.378474
    26  H    5.214021   4.235732   5.193672   6.370755   6.450268
    27  H    6.541685   6.525559   7.192605   8.443869   8.810124
    28  H    6.721360   6.096816   6.566738   8.279853   8.306807
    29  H    7.144749   6.692803   7.796768   8.569128   8.907176
    30  H    8.185598   7.591302   8.443143   9.657082   9.818681
                   21         22         23         24         25
    21  H    0.000000
    22  H    2.952087   0.000000
    23  H    2.415029   1.773771   0.000000
    24  H    2.549122   3.030125   2.513780   0.000000
    25  H    3.050054   2.444204   3.068122   1.778281   0.000000
    26  H    4.542050   2.424020   3.018796   2.956785   2.408046
    27  H    5.014337   4.570916   4.303567   2.469567   3.020517
    28  H    5.235883   4.169177   4.617769   3.013269   2.399692
    29  H    6.317076   4.911491   4.703723   4.061019   4.371959
    30  H    7.010732   5.708892   5.797646   4.579211   4.558368
                   26         27         28         29         30
    26  H    0.000000
    27  H    2.916117   0.000000
    28  H    2.365028   1.785749   0.000000
    29  H    2.707637   2.337964   2.907180   0.000000
    30  H    3.368771   2.331701   2.386315   1.626546   0.000000
 Stoichiometry    C6H19N5
 Framework group  C1[X(C6H19N5)]
 Deg. of freedom    84
 Full point group                 C1      NOp   1
 Largest Abelian subgroup         C1      NOp   1
 Largest concise Abelian subgroup C1      NOp   1
                         Standard orientation:                         
 ---------------------------------------------------------------------
 Center     Atomic      Atomic             Coordinates (Angstroms)
 Number     Number       Type             X           Y           Z
 ---------------------------------------------------------------------
      1          6           0        4.256229   -0.826736    0.180450
      2          7           0        2.901096   -1.223838   -0.199036
      3          6           0        1.885557   -0.251418    0.207066
      4          6           0        2.095130    1.177417   -0.421743
      5          7           0        3.291192    1.903012    0.026874
      6          7           0        0.607312   -0.844071   -0.201082
      7          6           0       -0.547886   -0.036332    0.224571
      8          6           0       -1.896261   -0.636811   -0.209860
      9          7           0       -3.011568    0.221383    0.221335
     10          6           0       -4.259515   -0.322984   -0.241221
     11          7           0       -5.244385    0.634340    0.179201
     12          1           0        4.961825   -1.634977   -0.032190
     13          1           0        4.324780   -0.596643    1.249898
     14          1           0        4.623180    0.019545   -0.404955
     15          1           0        2.698486   -2.117698    0.235422
     16          1           0        1.895204   -0.170832    1.301997
     17          1           0        1.259444    1.828789   -0.156226
     18          1           0        2.103638    1.091099   -1.514587
     19          1           0        3.269293    2.010439    1.033853
     20          1           0        3.302807    2.830211   -0.396599
     21          1           0        0.535235   -1.772597    0.206426
     22          1           0       -0.504511    0.955059   -0.233617
     23          1           0       -0.533095    0.088713    1.313928
     24          1           0       -2.009958   -1.633266    0.230990
     25          1           0       -1.905562   -0.738738   -1.302374
     26          1           0       -2.920735    1.146461   -0.200496
     27          1           0       -4.456517   -1.297307    0.215568
     28          1           0       -4.283969   -0.421104   -1.330846
     29          1           0       -5.196368    0.692623    1.194790
     30          1           0       -6.168230    0.265629   -0.037610
 ---------------------------------------------------------------------
 Rotational constants (GHZ):           2.8684486           0.3138271           0.2897152
 Standard basis: 6-31G(2df,p) (6D, 7F)
 There are   436 symmetry adapted cartesian basis functions of A   symmetry.
 There are   403 symmetry adapted basis functions of A   symmetry.
   403 basis functions,   617 primitive gaussians,   436 cartesian basis functions
    45 alpha electrons       45 beta electrons
       nuclear repulsion energy       651.7110617404 Hartrees.
 NAtoms=   30 NActive=   30 NUniq=   30 SFac= 1.00D+00 NAtFMM=   60 NAOKFM=F Big=F
 Integral buffers will be    131072 words long.
 Raffenetti 2 integral format.
 Two-electron integral symmetry is turned on.
 One-electron integrals computed using PRISM.
 PrsmSu:  requested number of processors reduced to:  13 ShMem   1 Linda.
 NBasis=   403 RedAO= T EigKep=  2.74D-04  NBF=   403
 NBsUse=   403 1.00D-06 EigRej= -1.00D+00 NBFU=   403
 ExpMin= 1.61D-01 ExpMax= 4.17D+03 ExpMxC= 6.27D+02 IAcc=3 IRadAn=         5 AccDes= 0.00D+00
 Harris functional with IExCor=  402 and IRadAn=       5 diagonalized for initial guess.
 HarFok:  IExCor=  402 AccDes= 0.00D+00 IRadAn=         5 IDoV= 1 UseB2=F ITyADJ=14
 ICtDFT=  3500011 ScaDFX=  1.000000  1.000000  1.000000  1.000000
 FoFCou: FMM=F IPFlag=           0 FMFlag=      100000 FMFlg1=           0
         NFxFlg=           0 DoJE=T BraDBF=F KetDBF=T FulRan=T
         wScrn=  0.000000 ICntrl=       500 IOpCl=  0 I1Cent=   200000004 NGrid=           0
         NMat0=    1 NMatS0=      1 NMatT0=    0 NMatD0=    1 NMtDS0=    0 NMtDT0=    0
 Petite list used in FoFCou.
 Requested convergence on RMS density matrix=1.00D-08 within 128 cycles.
 Requested convergence on MAX density matrix=1.00D-06.
 Requested convergence on             energy=1.00D-06.
 No special actions if energy rises.
 Integral accuracy reduced to 1.0D-05 until final iterations.
 Initial convergence to 1.0D-05 achieved.  Increase integral accuracy.
 SCF Done:  E(RB3LYP) =  -513.810670114     A.U. after   12 cycles
            NFock= 12  Conv=0.41D-08     -V/T= 2.0076

 **********************************************************************

            Population analysis using the SCF density.

 **********************************************************************

 Orbital symmetries:
       Occupied  (A) (A) (A) (A) (A) (A) (A) (A) (A) (A) (A) (A)
                 (A) (A) (A) (A) (A) (A) (A) (A) (A) (A) (A) (A)
                 (A) (A) (A) (A) (A) (A) (A) (A) (A) (A) (A) (A)
                 (A) (A) (A) (A) (A) (A) (A) (A) (A)
       Virtual   (A) (A) (A) (A) (A) (A) (A) (A) (A) (A) (A) (A)
                 (A) (A) (A) (A) (A) (A) (A) (A) (A) (A) (A) (A)
                 (A) (A) (A) (A) (A) (A) (A) (A) (A) (A) (A) (A)
                 (A) (A) (A) (A) (A) (A) (A) (A) (A) (A) (A) (A)
                 (A) (A) (A) (A) (A) (A) (A) (A) (A) (A) (A) (A)
                 (A) (A) (A) (A) (A) (A) (A) (A) (A) (A) (A) (A)
                 (A) (A) (A) (A) (A) (A) (A) (A) (A) (A) (A) (A)
                 (A) (A) (A) (A) (A) (A) (A) (A) (A) (A) (A) (A)
                 (A) (A) (A) (A) (A) (A) (A) (A) (A) (A) (A) (A)
                 (A) (A) (A) (A) (A) (A) (A) (A) (A) (A) (A) (A)
                 (A) (A) (A) (A) (A) (A) (A) (A) (A) (A) (A) (A)
                 (A) (A) (A) (A) (A) (A) (A) (A) (A) (A) (A) (A)
                 (A) (A) (A) (A) (A) (A) (A) (A) (A) (A) (A) (A)
                 (A) (A) (A) (A) (A) (A) (A) (A) (A) (A) (A) (A)
                 (A) (A) (A) (A) (A) (A) (A) (A) (A) (A) (A) (A)
                 (A) (A) (A) (A) (A) (A) (A) (A) (A) (A) (A) (A)
                 (A) (A) (A) (A) (A) (A) (A) (A) (A) (A) (A) (A)
                 (A) (A) (A) (A) (A) (A) (A) (A) (A) (A) (A) (A)
                 (A) (A) (A) (A) (A) (A) (A) (A) (A) (A) (A) (A)
                 (A) (A) (A) (A) (A) (A) (A) (A) (A) (A) (A) (A)
                 (A) (A) (A) (A) (A) (A) (A) (A) (A) (A) (A) (A)
                 (A) (A) (A) (A) (A) (A) (A) (A) (A) (A) (A) (A)
                 (A) (A) (A) (A) (A) (A) (A) (A) (A) (A) (A) (A)
                 (A) (A) (A) (A) (A) (A) (A) (A) (A) (A) (A) (A)
                 (A) (A) (A) (A) (A) (A) (A) (A) (A) (A) (A) (A)
                 (A) (A) (A) (A) (A) (A) (A) (A) (A) (A) (A) (A)
                 (A) (A) (A) (A) (A) (A) (A) (A) (A) (A) (A) (A)
                 (A) (A) (A) (A) (A) (A) (A) (A) (A) (A) (A) (A)
                 (A) (A) (A) (A) (A) (A) (A) (A) (A) (A) (A) (A)
                 (A) (A) (A) (A) (A) (A) (A) (A) (A) (A)
 The electronic state is 1-A.
 Alpha  occ. eigenvalues --  -14.30817 -14.30732 -14.30405 -14.30166 -14.30108
 Alpha  occ. eigenvalues --  -10.23101 -10.21923 -10.20217 -10.19992 -10.19871
 Alpha  occ. eigenvalues --  -10.17733  -0.92880  -0.92257  -0.87088  -0.85965
 Alpha  occ. eigenvalues --   -0.84351  -0.72294  -0.68095  -0.64890  -0.61825
 Alpha  occ. eigenvalues --   -0.59980  -0.57281  -0.50359  -0.49510  -0.48754
 Alpha  occ. eigenvalues --   -0.48194  -0.47058  -0.44913  -0.43904  -0.42006
 Alpha  occ. eigenvalues --   -0.41424  -0.40801  -0.39791  -0.38478  -0.38039
 Alpha  occ. eigenvalues --   -0.36974  -0.35988  -0.34760  -0.33893  -0.32798
 Alpha  occ. eigenvalues --   -0.23874  -0.22607  -0.22459  -0.21812  -0.20713
 Alpha virt. eigenvalues --    0.07490   0.07775   0.08659   0.09540   0.11862
 Alpha virt. eigenvalues --    0.11956   0.13121   0.14997   0.15268   0.16043
 Alpha virt. eigenvalues --    0.16229   0.16585   0.17402   0.17941   0.19255
 Alpha virt. eigenvalues --    0.19804   0.20256   0.20659   0.21122   0.21931
 Alpha virt. eigenvalues --    0.22596   0.23278   0.24633   0.24779   0.26087
 Alpha virt. eigenvalues --    0.26482   0.28787   0.30292   0.34975   0.41846
 Alpha virt. eigenvalues --    0.44835   0.47842   0.48106   0.49833   0.50661
 Alpha virt. eigenvalues --    0.52321   0.52608   0.53524   0.54951   0.56290
 Alpha virt. eigenvalues --    0.56929   0.57832   0.58394   0.59988   0.60701
 Alpha virt. eigenvalues --    0.61535   0.62789   0.63592   0.64592   0.66936
 Alpha virt. eigenvalues --    0.68257   0.68513   0.69679   0.70589   0.71449
 Alpha virt. eigenvalues --    0.72696   0.73027   0.74221   0.74973   0.75982
 Alpha virt. eigenvalues --    0.76549   0.77588   0.78206   0.78742   0.78950
 Alpha virt. eigenvalues --    0.79153   0.79955   0.80853   0.81576   0.82137
 Alpha virt. eigenvalues --    0.82732   0.83758   0.84761   0.86008   0.86531
 Alpha virt. eigenvalues --    0.86939   0.87739   0.88129   0.88319   0.89092
 Alpha virt. eigenvalues --    0.91163   0.91369   0.91752   0.92721   0.94529
 Alpha virt. eigenvalues --    0.99188   1.03447   1.07509   1.08684   1.10361
 Alpha virt. eigenvalues --    1.13077   1.14983   1.19183   1.20601   1.22565
 Alpha virt. eigenvalues --    1.24013   1.25106   1.26407   1.27506   1.28686
 Alpha virt. eigenvalues --    1.30552   1.33417   1.33803   1.34696   1.35768
 Alpha virt. eigenvalues --    1.37355   1.38670   1.42211   1.43111   1.43907
 Alpha virt. eigenvalues --    1.45973   1.49039   1.50692   1.52027   1.53091
 Alpha virt. eigenvalues --    1.54705   1.55841   1.57199   1.58079   1.60334
 Alpha virt. eigenvalues --    1.63567   1.65051   1.66267   1.68812   1.70152
 Alpha virt. eigenvalues --    1.72413   1.72912   1.75393   1.77805   1.79425
 Alpha virt. eigenvalues --    1.81904   1.84229   1.85620   1.87522   1.88642
 Alpha virt. eigenvalues --    1.89517   1.91359   1.95623   1.97131   1.98454
 Alpha virt. eigenvalues --    1.99180   2.02403   2.03210   2.05246   2.06903
 Alpha virt. eigenvalues --    2.09267   2.11059   2.12916   2.19150   2.22037
 Alpha virt. eigenvalues --    2.22980   2.23458   2.27945   2.30543   2.33218
 Alpha virt. eigenvalues --    2.34222   2.35032   2.35884   2.37759   2.39363
 Alpha virt. eigenvalues --    2.41100   2.46074   2.47135   2.48975   2.51328
 Alpha virt. eigenvalues --    2.51511   2.54488   2.57781   2.59611   2.61357
 Alpha virt. eigenvalues --    2.63285   2.64327   2.67042   2.71313   2.72556
 Alpha virt. eigenvalues --    2.74346   2.76997   2.77491   2.78030   2.78858
 Alpha virt. eigenvalues --    2.81518   2.82145   2.82967   2.83739   2.85417
 Alpha virt. eigenvalues --    2.87286   2.88454   2.89380   2.90354   2.91398
 Alpha virt. eigenvalues --    2.92704   2.93279   2.93869   2.95264   2.96763
 Alpha virt. eigenvalues --    2.97763   2.98754   3.00086   3.02413   3.03077
 Alpha virt. eigenvalues --    3.05794   3.05838   3.06642   3.09590   3.10401
 Alpha virt. eigenvalues --    3.12234   3.16647   3.17355   3.18889   3.22732
 Alpha virt. eigenvalues --    3.23382   3.25909   3.29086   3.29769   3.33180
 Alpha virt. eigenvalues --    3.33330   3.34112   3.35085   3.36827   3.40105
 Alpha virt. eigenvalues --    3.41453   3.44476   3.45073   3.46541   3.48867
 Alpha virt. eigenvalues --    3.50234   3.51675   3.53416   3.57424   3.59423
 Alpha virt. eigenvalues --    3.63107   3.64595   3.66797   3.67476   3.68427
 Alpha virt. eigenvalues --    3.72320   3.73274   3.73631   3.75071   3.76099
 Alpha virt. eigenvalues --    3.79997   3.81986   3.89556   3.94374   3.96007
 Alpha virt. eigenvalues --    3.98059   3.99038   4.01374   4.03813   4.05533
 Alpha virt. eigenvalues --    4.11067   4.14009   4.16709   4.17634   4.20237
 Alpha virt. eigenvalues --    4.21208   4.22090   4.22989   4.25809   4.27804
 Alpha virt. eigenvalues --    4.28791   4.31918   4.33609   4.35199   4.36515
 Alpha virt. eigenvalues --    4.36887   4.38287   4.39618   4.41102   4.43252
 Alpha virt. eigenvalues --    4.44327   4.45225   4.46549   4.47480   4.48148
 Alpha virt. eigenvalues --    4.48592   4.50626   4.51186   4.52289   4.52968
 Alpha virt. eigenvalues --    4.55187   4.56137   4.58226   4.58808   4.59028
 Alpha virt. eigenvalues --    4.59802   4.61526   4.62010   4.62806   4.64935
 Alpha virt. eigenvalues --    4.65679   4.66098   4.67701   4.68926   4.70413
 Alpha virt. eigenvalues --    4.71462   4.72238   4.74168   4.74875   4.76115
 Alpha virt. eigenvalues --    4.77864   4.79391   4.79612   4.81723   4.84422
 Alpha virt. eigenvalues --    4.85485   4.86332   4.87627   4.90753   4.91836
 Alpha virt. eigenvalues --    4.92750   4.93244   4.94077   4.95380   4.97088
 Alpha virt. eigenvalues --    4.99631   5.00481   5.02528   5.04502   5.06711
 Alpha virt. eigenvalues --    5.07843   5.10120   5.12137   5.14881   5.16517
 Alpha virt. eigenvalues --    5.20503   5.23581   5.26429   5.28211   5.33513
 Alpha virt. eigenvalues --    5.37517   5.38931   5.41319   5.42859   5.46521
 Alpha virt. eigenvalues --    5.49962   5.55019   5.55993   5.61071   5.65917
 Alpha virt. eigenvalues --    5.79736   5.86581   9.06231  10.27556  10.73800
 Alpha virt. eigenvalues --   10.95775  11.21117  11.42192  11.46137  11.47834
 Alpha virt. eigenvalues --   11.49654  11.63808  11.89156  12.00966  12.53600
 Alpha virt. eigenvalues --   14.32642  15.44412  17.13392
          Condensed to atoms (all electrons):
               1          2          3          4          5          6
     1  C    4.962338   0.373392  -0.062536  -0.008517  -0.022356   0.003579
     2  N    0.373392   6.389264   0.393288  -0.009931  -0.002253  -0.031712
     3  C   -0.062536   0.393288   4.724581   0.333837  -0.017562   0.373816
     4  C   -0.008517  -0.009931   0.333837   4.954816   0.349956  -0.012688
     5  N   -0.022356  -0.002253  -0.017562   0.349956   6.571933   0.000998
     6  N    0.003579  -0.031712   0.373816  -0.012688   0.000998   6.463650
     7  C   -0.000311   0.002868  -0.054752  -0.011028  -0.000009   0.342130
     8  C    0.000001  -0.000072   0.001631   0.000414  -0.000008  -0.035622
     9  N    0.000000   0.000000  -0.000065   0.000003  -0.000000   0.001516
    10  C    0.000000  -0.000000  -0.000001   0.000000  -0.000000  -0.000100
    11  N   -0.000000   0.000000  -0.000000  -0.000000   0.000000   0.000000
    12  H    0.361331  -0.019655   0.004048   0.000049   0.001021  -0.000106
    13  H    0.360838  -0.047300  -0.003408  -0.002519   0.000652  -0.000126
    14  H    0.381538  -0.020045  -0.003150   0.000541   0.018219   0.000120
    15  H   -0.046135   0.343623  -0.052763   0.006211  -0.000168  -0.000530
    16  H    0.000674  -0.071112   0.360650  -0.085276  -0.000993  -0.063670
    17  H   -0.000196   0.002040  -0.032193   0.381025  -0.045829  -0.004709
    18  H    0.001235  -0.001703  -0.011852   0.340225  -0.021971   0.000264
    19  H    0.001051  -0.000518  -0.001743  -0.055943   0.341712  -0.000087
    20  H    0.000570   0.000067   0.003970  -0.044815   0.342259  -0.000045
    21  H   -0.000340   0.000309  -0.048013   0.005715  -0.000080   0.340636
    22  H   -0.000004   0.000165  -0.007150   0.000317  -0.000410  -0.020971
    23  H    0.000041  -0.000079  -0.000994  -0.002394   0.000047  -0.043412
    24  H    0.000000   0.000005  -0.000170  -0.000002   0.000000  -0.003012
    25  H    0.000000   0.000005   0.000293  -0.000007   0.000000   0.008278
    26  H    0.000000   0.000000   0.000010  -0.000011   0.000000  -0.000045
    27  H    0.000000   0.000000   0.000000  -0.000000  -0.000000  -0.000003
    28  H    0.000000   0.000000   0.000000   0.000000   0.000000   0.000020
    29  H    0.000000   0.000000   0.000000   0.000000   0.000000   0.000000
    30  H    0.000000  -0.000000   0.000000   0.000000  -0.000000  -0.000000
               7          8          9         10         11         12
     1  C   -0.000311   0.000001   0.000000   0.000000  -0.000000   0.361331
     2  N    0.002868  -0.000072   0.000000  -0.000000   0.000000  -0.019655
     3  C   -0.054752   0.001631  -0.000065  -0.000001  -0.000000   0.004048
     4  C   -0.011028   0.000414   0.000003   0.000000  -0.000000   0.000049
     5  N   -0.000009  -0.000008  -0.000000  -0.000000   0.000000   0.001021
     6  N    0.342130  -0.035622   0.001516  -0.000100   0.000000  -0.000106
     7  C    4.871832   0.424292  -0.033275   0.002231  -0.000092   0.000002
     8  C    0.424292   4.890252   0.348977  -0.065232   0.004036  -0.000000
     9  N   -0.033275   0.348977   6.419555   0.384001  -0.058771   0.000000
    10  C    0.002231  -0.065232   0.384001   4.801438   0.391993  -0.000000
    11  N   -0.000092   0.004036  -0.058771   0.391993   6.562940   0.000000
    12  H    0.000002  -0.000000   0.000000  -0.000000   0.000000   0.631035
    13  H    0.000058   0.000000   0.000000   0.000000  -0.000000  -0.039843
    14  H    0.000002   0.000000   0.000000   0.000000   0.000000  -0.028707
    15  H   -0.000425  -0.000006  -0.000000   0.000000   0.000000  -0.006675
    16  H    0.001249  -0.000005   0.000020   0.000000   0.000000  -0.000217
    17  H   -0.000702   0.000196   0.000014   0.000000   0.000000   0.000011
    18  H    0.000944  -0.000104   0.000001   0.000000   0.000000  -0.000053
    19  H   -0.000012  -0.000001   0.000000  -0.000000   0.000000  -0.000080
    20  H   -0.000009  -0.000000   0.000000  -0.000000   0.000000  -0.000025
    21  H   -0.050632  -0.001450  -0.000072   0.000006   0.000000  -0.000019
    22  H    0.355106  -0.020879  -0.003660  -0.000027   0.000001   0.000000
    23  H    0.348344  -0.041059   0.007814   0.000109   0.000005   0.000000
    24  H   -0.023199   0.350889  -0.020461  -0.003922   0.000237  -0.000000
    25  H   -0.034816   0.352189  -0.040783  -0.005637   0.000009   0.000000
    26  H   -0.000668  -0.047132   0.334258  -0.051372   0.012345  -0.000000
    27  H    0.000254  -0.000683  -0.037068   0.373233  -0.036989   0.000000
    28  H    0.000026  -0.005346  -0.032489   0.347304  -0.030115   0.000000
    29  H    0.000010  -0.000319   0.011290  -0.056487   0.334334   0.000000
    30  H    0.000003  -0.000469   0.005820  -0.046717   0.331332  -0.000000
              13         14         15         16         17         18
     1  C    0.360838   0.381538  -0.046135   0.000674  -0.000196   0.001235
     2  N   -0.047300  -0.020045   0.343623  -0.071112   0.002040  -0.001703
     3  C   -0.003408  -0.003150  -0.052763   0.360650  -0.032193  -0.011852
     4  C   -0.002519   0.000541   0.006211  -0.085276   0.381025   0.340225
     5  N    0.000652   0.018219  -0.000168  -0.000993  -0.045829  -0.021971
     6  N   -0.000126   0.000120  -0.000530  -0.063670  -0.004709   0.000264
     7  C    0.000058   0.000002  -0.000425   0.001249  -0.000702   0.000944
     8  C    0.000000   0.000000  -0.000006  -0.000005   0.000196  -0.000104
     9  N    0.000000   0.000000  -0.000000   0.000020   0.000014   0.000001
    10  C    0.000000   0.000000   0.000000   0.000000   0.000000   0.000000
    11  N   -0.000000   0.000000   0.000000   0.000000   0.000000   0.000000
    12  H   -0.039843  -0.028707  -0.006675  -0.000217   0.000011  -0.000053
    13  H    0.686044  -0.042141  -0.004094   0.015204   0.000030   0.000294
    14  H   -0.042141   0.533457   0.004992  -0.001008   0.000238  -0.000740
    15  H   -0.004094   0.004992   0.550059  -0.007452  -0.000233  -0.000130
    16  H    0.015204  -0.001008  -0.007452   0.803467  -0.001334   0.007378
    17  H    0.000030   0.000238  -0.000233  -0.001334   0.654763  -0.044149
    18  H    0.000294  -0.000740  -0.000130   0.007378  -0.044149   0.604895
    19  H    0.001543  -0.001267  -0.000010   0.006623  -0.003965   0.006389
    20  H   -0.000052   0.000184   0.000012  -0.000227  -0.004450  -0.002575
    21  H   -0.000008   0.000004   0.008080  -0.006686  -0.000103  -0.000179
    22  H    0.000001  -0.000001  -0.000005  -0.001129   0.006321   0.000191
    23  H    0.000001   0.000001  -0.000028   0.014774   0.001170   0.000236
    24  H    0.000000  -0.000000   0.000001  -0.000015  -0.000002   0.000001
    25  H   -0.000000   0.000000   0.000001   0.000032   0.000047   0.000021
    26  H    0.000000  -0.000000   0.000000   0.000001  -0.000014   0.000001
    27  H   -0.000000   0.000000   0.000000   0.000000  -0.000000   0.000000
    28  H   -0.000000  -0.000000   0.000000  -0.000000   0.000000  -0.000000
    29  H   -0.000000  -0.000000  -0.000000  -0.000000   0.000000  -0.000000
    30  H   -0.000000   0.000000   0.000000  -0.000000  -0.000000  -0.000000
              19         20         21         22         23         24
     1  C    0.001051   0.000570  -0.000340  -0.000004   0.000041   0.000000
     2  N   -0.000518   0.000067   0.000309   0.000165  -0.000079   0.000005
     3  C   -0.001743   0.003970  -0.048013  -0.007150  -0.000994  -0.000170
     4  C   -0.055943  -0.044815   0.005715   0.000317  -0.002394  -0.000002
     5  N    0.341712   0.342259  -0.000080  -0.000410   0.000047   0.000000
     6  N   -0.000087  -0.000045   0.340636  -0.020971  -0.043412  -0.003012
     7  C   -0.000012  -0.000009  -0.050632   0.355106   0.348344  -0.023199
     8  C   -0.000001  -0.000000  -0.001450  -0.020879  -0.041059   0.350889
     9  N    0.000000   0.000000  -0.000072  -0.003660   0.007814  -0.020461
    10  C   -0.000000  -0.000000   0.000006  -0.000027   0.000109  -0.003922
    11  N    0.000000   0.000000   0.000000   0.000001   0.000005   0.000237
    12  H   -0.000080  -0.000025  -0.000019   0.000000   0.000000  -0.000000
    13  H    0.001543  -0.000052  -0.000008   0.000001   0.000001   0.000000
    14  H   -0.001267   0.000184   0.000004  -0.000001   0.000001  -0.000000
    15  H   -0.000010   0.000012   0.008080  -0.000005  -0.000028   0.000001
    16  H    0.006623  -0.000227  -0.006686  -0.001129   0.014774  -0.000015
    17  H   -0.003965  -0.004450  -0.000103   0.006321   0.001170  -0.000002
    18  H    0.006389  -0.002575  -0.000179   0.000191   0.000236   0.000001
    19  H    0.512674  -0.030070  -0.000002  -0.000039   0.000055   0.000000
    20  H   -0.030070   0.506836   0.000004  -0.000027  -0.000001   0.000000
    21  H   -0.000002   0.000004   0.539791   0.006292  -0.006014   0.004692
    22  H   -0.000039  -0.000027   0.006292   0.630980  -0.053940   0.006050
    23  H    0.000055  -0.000001  -0.006014  -0.053940   0.691422  -0.006999
    24  H    0.000000   0.000000   0.004692   0.006050  -0.006999   0.642011
    25  H    0.000000   0.000000  -0.000484  -0.008472   0.007604  -0.052056
    26  H    0.000000   0.000000   0.000014   0.005174  -0.000354   0.006530
    27  H   -0.000000  -0.000000  -0.000004   0.000004  -0.000011   0.005862
    28  H    0.000000   0.000000   0.000002  -0.000029   0.000030  -0.001839
    29  H    0.000000   0.000000   0.000000   0.000001   0.000008  -0.000050
    30  H   -0.000000  -0.000000   0.000000   0.000000   0.000000  -0.000004
              25         26         27         28         29         30
     1  C    0.000000   0.000000   0.000000   0.000000   0.000000   0.000000
     2  N    0.000005   0.000000   0.000000   0.000000   0.000000  -0.000000
     3  C    0.000293   0.000010   0.000000   0.000000   0.000000   0.000000
     4  C   -0.000007  -0.000011  -0.000000   0.000000   0.000000   0.000000
     5  N    0.000000   0.000000  -0.000000   0.000000   0.000000  -0.000000
     6  N    0.008278  -0.000045  -0.000003   0.000020   0.000000  -0.000000
     7  C   -0.034816  -0.000668   0.000254   0.000026   0.000010   0.000003
     8  C    0.352189  -0.047132  -0.000683  -0.005346  -0.000319  -0.000469
     9  N   -0.040783   0.334258  -0.037068  -0.032489   0.011290   0.005820
    10  C   -0.005637  -0.051372   0.373233   0.347304  -0.056487  -0.046717
    11  N    0.000009   0.012345  -0.036989  -0.030115   0.334334   0.331332
    12  H    0.000000  -0.000000   0.000000   0.000000   0.000000  -0.000000
    13  H   -0.000000   0.000000  -0.000000  -0.000000  -0.000000  -0.000000
    14  H    0.000000  -0.000000   0.000000  -0.000000  -0.000000   0.000000
    15  H    0.000001   0.000000   0.000000   0.000000  -0.000000   0.000000
    16  H    0.000032   0.000001   0.000000  -0.000000  -0.000000  -0.000000
    17  H    0.000047  -0.000014  -0.000000   0.000000   0.000000  -0.000000
    18  H    0.000021   0.000001   0.000000  -0.000000  -0.000000  -0.000000
    19  H    0.000000   0.000000  -0.000000   0.000000   0.000000  -0.000000
    20  H    0.000000   0.000000  -0.000000   0.000000   0.000000  -0.000000
    21  H   -0.000484   0.000014  -0.000004   0.000002   0.000000   0.000000
    22  H   -0.008472   0.005174   0.000004  -0.000029   0.000001   0.000000
    23  H    0.007604  -0.000354  -0.000011   0.000030   0.000008   0.000000
    24  H   -0.052056   0.006530   0.005862  -0.001839  -0.000050  -0.000004
    25  H    0.674729  -0.005865  -0.002080   0.014018   0.000098   0.000034
    26  H   -0.005865   0.530165   0.008753  -0.008689  -0.001354  -0.000476
    27  H   -0.002080   0.008753   0.685158  -0.065016  -0.008428  -0.005423
    28  H    0.014018  -0.008689  -0.065016   0.690791   0.008939   0.001528
    29  H    0.000098  -0.001354  -0.008428   0.008939   0.513777  -0.027693
    30  H    0.000034  -0.000476  -0.005423   0.001528  -0.027693   0.524708
 Mulliken charges:
               1
     1  C   -0.306194
     2  N   -0.300644
     3  C    0.100225
     4  C   -0.139977
     5  N   -0.515158
     6  N   -0.318170
     7  C   -0.139418
     8  C   -0.154493
     9  N   -0.286625
    10  C   -0.070820
    11  N   -0.511264
    12  H    0.097880
    13  H    0.074824
    14  H    0.157762
    15  H    0.205676
    16  H    0.029054
    17  H    0.092023
    18  H    0.121378
    19  H    0.223687
    20  H    0.228393
    21  H    0.208542
    22  H    0.106141
    23  H    0.083621
    24  H    0.095453
    25  H    0.092841
    26  H    0.218728
    27  H    0.082439
    28  H    0.080865
    29  H    0.225872
    30  H    0.217357
 Sum of Mulliken charges =  -0.00000
 Mulliken charges with hydrogens summed into heavy atoms:
               1
     1  C    0.024273
     2  N   -0.094968
     3  C    0.129278
     4  C    0.073424
     5  N   -0.063078
     6  N   -0.109628
     7  C    0.050344
     8  C    0.033801
     9  N   -0.067897
    10  C    0.092485
    11  N   -0.068034
 Electronic spatial extent (au):  <R**2>=           3787.3210
 Charge=             -0.0000 electrons
 Dipole moment (field-independent basis, Debye):
    X=             -1.1523    Y=             -0.0849    Z=              1.6369  Tot=              2.0036
 Quadrupole moment (field-independent basis, Debye-Ang):
   XX=            -69.9709   YY=            -64.1769   ZZ=            -71.0941
   XY=              7.4373   XZ=              3.2078   YZ=             -3.1690
 Traceless Quadrupole moment (field-independent basis, Debye-Ang):
   XX=             -1.5570   YY=              4.2371   ZZ=             -2.6801
   XY=              7.4373   XZ=              3.2078   YZ=             -3.1690
 Octapole moment (field-independent basis, Debye-Ang**2):
  XXX=            -81.5092  YYY=              6.5940  ZZZ=              2.8052  XYY=             22.2539
  XXY=            -27.4721  XXZ=             18.6031  XZZ=             -4.9605  YZZ=              7.0244
  YYZ=              5.2056  XYZ=             -5.5316
 Hexadecapole moment (field-independent basis, Debye-Ang**3):
 XXXX=          -3965.8396 YYYY=           -421.9951 ZZZZ=           -146.1675 XXXY=            131.9162
 XXXZ=            -61.3415 YYYX=             42.9756 YYYZ=            -13.0255 ZZZX=             -7.2107
 ZZZY=              0.2480 XXYY=           -797.4666 XXZZ=           -712.2540 YYZZ=           -104.9439
 XXYZ=              9.0229 YYXZ=              1.8299 ZZXY=             11.2751
 N-N= 6.517110617404D+02 E-N=-2.498480515148D+03  KE= 5.099246916440D+02
 PrsmSu:  requested number of processors reduced to:  13 ShMem   1 Linda.
 Calling FoFJK, ICntrl=      2127 FMM=F ISym2X=0 I1Cent= 0 IOpClX= 0 NMat=1 NMatS=1 NMatT=0.
 ***** Axes restored to original set *****
 -------------------------------------------------------------------
 Center     Atomic                   Forces (Hartrees/Bohr)
 Number     Number              X              Y              Z
 -------------------------------------------------------------------
      1        6          -0.001562503    0.007340698    0.010772068
      2        7          -0.011418159    0.011652986   -0.010393559
      3        6           0.002950362    0.010297393    0.006572455
      4        6           0.003194145   -0.006093712   -0.000605585
      5        7          -0.005513574    0.008819648    0.007883625
      6        7           0.004267377    0.004733882   -0.023934847
      7        6           0.008810659    0.000029036    0.008495861
      8        6          -0.012303990   -0.001125352   -0.006306435
      9        7          -0.011770728    0.005615574    0.020484837
     10        6          -0.003283178   -0.008912180   -0.007261017
     11        7           0.016944951   -0.008085351   -0.016001600
     12        1           0.004498576   -0.002316610    0.004809267
     13        1          -0.007431484   -0.002524157   -0.001968718
     14        1           0.004260070   -0.006540341   -0.002423646
     15        1           0.001781324   -0.001320617   -0.001071545
     16        1          -0.009244428   -0.010485522   -0.006978017
     17        1           0.014521816   -0.001720977    0.003181580
     18        1          -0.001157620   -0.000389861    0.003978332
     19        1          -0.001127093   -0.001264196   -0.003003285
     20        1           0.001692068   -0.004649977    0.003716919
     21        1          -0.000722360   -0.000147286   -0.001360092
     22        1          -0.003940963    0.000439181    0.001929334
     23        1           0.001314865   -0.006269000   -0.005786855
     24        1           0.003183584   -0.001039479   -0.000448236
     25        1          -0.000423338    0.004810303    0.005920226
     26        1           0.000035294   -0.001321487    0.003269901
     27        1          -0.004082423    0.004768112    0.011229069
     28        1           0.006989308    0.005073143    0.000745565
     29        1          -0.000005849    0.001191012   -0.001130504
     30        1          -0.000456709   -0.000564861   -0.004315099
 -------------------------------------------------------------------
 Cartesian Forces:  Max     0.023934847 RMS     0.006978673

 GradGradGradGradGradGradGradGradGradGradGradGradGradGradGradGradGradGrad
 Berny optimization.
 FormGI is forming the generalized inverse of G from B-inverse, IUseBI=4.
 Internal  Forces:  Max     0.025428149 RMS     0.005997075
 Search for a local minimum.
 Step number   1 out of a maximum of  156
 All quantities printed in internal units (Hartrees-Bohrs-Radians)
 Mixed Optimization -- RFO/linear search
 Second derivative matrix not updated -- first step.
 ITU=  0
     Eigenvalues ---    0.00230   0.00255   0.00733   0.00741   0.00777
     Eigenvalues ---    0.00807   0.00852   0.00869   0.01190   0.01211
     Eigenvalues ---    0.02822   0.02878   0.03298   0.03772   0.04085
     Eigenvalues ---    0.04299   0.04333   0.04549   0.04780   0.05118
     Eigenvalues ---    0.05268   0.05480   0.05522   0.06300   0.06977
     Eigenvalues ---    0.07055   0.07079   0.07413   0.08935   0.09039
     Eigenvalues ---    0.09311   0.09931   0.10535   0.10957   0.11052
     Eigenvalues ---    0.12535   0.12610   0.12853   0.13163   0.16000
     Eigenvalues ---    0.16000   0.16000   0.16000   0.16000   0.16000
     Eigenvalues ---    0.16000   0.17582   0.17991   0.21899   0.21970
     Eigenvalues ---    0.22016   0.22018   0.23448   0.23462   0.23567
     Eigenvalues ---    0.25624   0.28640   0.33912   0.33983   0.34060
     Eigenvalues ---    0.34097   0.34121   0.34181   0.34320   0.34358
     Eigenvalues ---    0.34381   0.34467   0.34526   0.34546   0.35449
     Eigenvalues ---    0.35520   0.35846   0.36116   0.36529   0.36688
     Eigenvalues ---    0.39870   0.40086   0.44216   0.44435   0.44596
     Eigenvalues ---    0.44649   0.44890   0.45261   0.45486
 RFO step:  Lambda=-2.56374764D-02 EMin= 2.30000000D-03
 Linear search not attempted -- first point.
 Maximum step size (   0.300) exceeded in Quadratic search.
    -- Step size scaled by   0.983
 Iteration  1 RMS(Cart)=  0.11878836 RMS(Int)=  0.00443075
 Iteration  2 RMS(Cart)=  0.00994900 RMS(Int)=  0.00054808
 Iteration  3 RMS(Cart)=  0.00005183 RMS(Int)=  0.00054757
 Iteration  4 RMS(Cart)=  0.00000004 RMS(Int)=  0.00054757
 Variable       Old X    -DE/DX   Delta X   Delta X   Delta X     New X
                                 (Linear)    (Quad)   (Total)
    R1        2.76319   0.00140   0.00000   0.00351   0.00351   2.76671
    R2        2.06693   0.00217   0.00000   0.00578   0.00578   2.07270
    R3        2.07126   0.00538   0.00000   0.01441   0.01441   2.08567
    R4        2.06452  -0.00395   0.00000  -0.01047  -0.01047   2.05405
    R5        2.76562   0.00577   0.00000   0.01451   0.01451   2.78012
    R6        1.91673   0.00038   0.00000   0.00079   0.00079   1.91752
    R7        2.97648  -0.01910   0.00000  -0.06660  -0.06660   2.90987
    R8        2.77200   0.00434   0.00000   0.01102   0.01102   2.78302
    R9        2.07480   0.01202   0.00000   0.03240   0.03240   2.10720
   R10        2.77623   0.00381   0.00000   0.00975   0.00975   2.78598
   R11        2.06418   0.00377   0.00000   0.00999   0.00999   2.07416
   R12        2.07167  -0.00114   0.00000  -0.00307  -0.00307   2.06860
   R13        1.91416   0.00132   0.00000   0.00270   0.00270   1.91686
   R14        1.92637  -0.00538   0.00000  -0.01125  -0.01125   1.91512
   R15        2.78253  -0.00443   0.00000  -0.01146  -0.01146   2.77106
   R16        1.92104  -0.00137   0.00000  -0.00285  -0.00285   1.91820
   R17        2.90761  -0.00517   0.00000  -0.01629  -0.01629   2.89132
   R18        2.06549  -0.00051   0.00000  -0.00136  -0.00136   2.06413
   R19        2.07229   0.00497   0.00000   0.01333   0.01333   2.08562
   R20        2.78139  -0.00246   0.00000  -0.00636  -0.00636   2.77503
   R21        2.07026   0.00104   0.00000   0.00277   0.00277   2.07304
   R22        2.07359   0.00380   0.00000   0.01023   0.01023   2.08382
   R23        2.71731   0.01611   0.00000   0.03732   0.03732   2.75463
   R24        1.92897  -0.00336   0.00000  -0.00706  -0.00706   1.92190
   R25        2.71437   0.02543   0.00000   0.05861   0.05861   2.77298
   R26        2.06730   0.00584   0.00000   0.01555   0.01555   2.08285
   R27        2.06794   0.00704   0.00000   0.01876   0.01876   2.08670
   R28        1.92448  -0.00126   0.00000  -0.00263  -0.00263   1.92185
   R29        1.92385  -0.00031   0.00000  -0.00064  -0.00064   1.92322
    A1        1.92487  -0.00662   0.00000  -0.03072  -0.03066   1.89421
    A2        1.94787   0.00871   0.00000   0.04284   0.04315   1.99102
    A3        1.96339  -0.00570   0.00000  -0.03137  -0.03129   1.93210
    A4        1.88018  -0.00052   0.00000  -0.00070  -0.00042   1.87976
    A5        1.82509   0.00791   0.00000   0.04820   0.04800   1.87309
    A6        1.91687  -0.00381   0.00000  -0.02766  -0.02737   1.88950
    A7        1.97211   0.02327   0.00000   0.08495   0.08546   2.05757
    A8        1.88945  -0.00740   0.00000  -0.03354  -0.03262   1.85683
    A9        1.90507  -0.00831   0.00000  -0.04089  -0.04016   1.86491
   A10        1.98193   0.00255   0.00000   0.00752   0.00750   1.98942
   A11        1.83280   0.00181   0.00000   0.00680   0.00654   1.83934
   A12        1.89589   0.00134   0.00000   0.03091   0.03070   1.92660
   A13        1.95128  -0.00679   0.00000  -0.04307  -0.04316   1.90812
   A14        1.90750  -0.00200   0.00000  -0.02259  -0.02258   1.88492
   A15        1.89103   0.00350   0.00000   0.02455   0.02362   1.91466
   A16        2.02023  -0.00547   0.00000  -0.02099  -0.02095   1.99928
   A17        1.91996  -0.00792   0.00000  -0.05060  -0.05056   1.86940
   A18        1.90454   0.00030   0.00000  -0.02210  -0.02278   1.88175
   A19        1.82773   0.01267   0.00000   0.09875   0.09875   1.92647
   A20        1.91450   0.00084   0.00000  -0.00302  -0.00400   1.91050
   A21        1.87047   0.00021   0.00000   0.00306   0.00117   1.87164
   A22        1.91596   0.00117   0.00000   0.00002  -0.00007   1.91589
   A23        1.90885  -0.00124   0.00000  -0.01277  -0.01286   1.89599
   A24        1.89311  -0.00204   0.00000  -0.02336  -0.02354   1.86956
   A25        1.96231   0.01985   0.00000   0.07084   0.07131   2.03362
   A26        1.89576  -0.00640   0.00000  -0.03237  -0.03151   1.86425
   A27        1.90662  -0.00772   0.00000  -0.04234  -0.04166   1.86496
   A28        1.97340  -0.01074   0.00000  -0.04190  -0.04178   1.93163
   A29        1.92330  -0.00151   0.00000  -0.02036  -0.02003   1.90327
   A30        1.91680   0.00920   0.00000   0.05552   0.05547   1.97226
   A31        1.84460   0.00769   0.00000   0.03640   0.03611   1.88072
   A32        1.91431  -0.00169   0.00000  -0.01591  -0.01540   1.89891
   A33        1.88858  -0.00296   0.00000  -0.01473  -0.01452   1.87406
   A34        1.93241  -0.00217   0.00000  -0.00575  -0.00594   1.92648
   A35        1.90954   0.00314   0.00000   0.00974   0.00952   1.91906
   A36        1.90159  -0.00191   0.00000  -0.00603  -0.00629   1.89530
   A37        1.91114  -0.00303   0.00000  -0.02919  -0.02906   1.88208
   A38        1.91710   0.00581   0.00000   0.04841   0.04850   1.96560
   A39        1.89155  -0.00182   0.00000  -0.01736  -0.01706   1.87449
   A40        1.92055   0.01553   0.00000   0.06096   0.06081   1.98135
   A41        1.91763  -0.00470   0.00000  -0.01484  -0.01527   1.90236
   A42        1.86229  -0.00342   0.00000  -0.00262  -0.00269   1.85959
   A43        1.82203   0.01742   0.00000   0.07992   0.07927   1.90129
   A44        1.93814  -0.01220   0.00000  -0.06654  -0.06921   1.86893
   A45        1.95373  -0.00015   0.00000   0.00671   0.00647   1.96020
   A46        1.92613   0.00527   0.00000   0.05847   0.05966   1.98578
   A47        1.91334  -0.00893   0.00000  -0.03871  -0.03874   1.87460
   A48        1.90910  -0.00074   0.00000  -0.03382  -0.03432   1.87477
   A49        1.87308   0.00072   0.00000   0.00867   0.00836   1.88144
   A50        1.89493   0.00705   0.00000   0.04204   0.04175   1.93668
   A51        1.85031  -0.00127   0.00000   0.00438   0.00374   1.85405
    D1        3.02070  -0.00114   0.00000  -0.02351  -0.02378   2.99693
    D2        0.90857  -0.00043   0.00000  -0.00307  -0.00319   0.90538
    D3        0.93147  -0.00174   0.00000  -0.03006  -0.03013   0.90134
    D4       -1.18066  -0.00103   0.00000  -0.00962  -0.00955  -1.19021
    D5       -1.23235   0.00092   0.00000  -0.00262  -0.00250  -1.23485
    D6        2.93870   0.00164   0.00000   0.01782   0.01809   2.95679
    D7        1.04685   0.00437   0.00000   0.09279   0.09313   1.13999
    D8       -3.09942  -0.00130   0.00000   0.04842   0.04848  -3.05094
    D9       -1.07934   0.00426   0.00000   0.09433   0.09449  -0.98485
   D10       -3.13308   0.00440   0.00000   0.07725   0.07721  -3.05587
   D11       -0.99617  -0.00127   0.00000   0.03288   0.03256  -0.96361
   D12        1.02391   0.00428   0.00000   0.07879   0.07857   1.10248
   D13       -1.16534   0.00129   0.00000  -0.01202  -0.01213  -1.17748
   D14        3.05110  -0.00558   0.00000  -0.08845  -0.08801   2.96309
   D15        1.00372  -0.00143   0.00000  -0.04989  -0.04993   0.95379
   D16        3.04787   0.00202   0.00000   0.00475   0.00477   3.05263
   D17        0.98112  -0.00484   0.00000  -0.07168  -0.07110   0.91002
   D18       -1.06625  -0.00069   0.00000  -0.03312  -0.03303  -1.09928
   D19        0.95438   0.00328   0.00000   0.01638   0.01584   0.97022
   D20       -1.11237  -0.00358   0.00000  -0.06005  -0.06003  -1.17240
   D21        3.12344   0.00057   0.00000  -0.02149  -0.02196   3.10149
   D22        3.06653  -0.00145   0.00000  -0.05308  -0.05305   3.01348
   D23        0.95438  -0.00010   0.00000  -0.02311  -0.02295   0.93143
   D24       -1.06002  -0.00111   0.00000  -0.06468  -0.06450  -1.12452
   D25        3.11101   0.00024   0.00000  -0.03471  -0.03440   3.07661
   D26        1.04310  -0.00550   0.00000  -0.10329  -0.10369   0.93941
   D27       -1.06905  -0.00415   0.00000  -0.07332  -0.07359  -1.14264
   D28       -1.01034  -0.00088   0.00000  -0.03150  -0.03134  -1.04169
   D29       -3.08546   0.00165   0.00000   0.00472   0.00477  -3.08069
   D30        1.10667  -0.00498   0.00000  -0.03646  -0.03690   1.06977
   D31       -0.96844  -0.00245   0.00000  -0.00024  -0.00079  -0.96923
   D32        3.10895   0.00217   0.00000   0.01656   0.01700   3.12596
   D33        1.03384   0.00470   0.00000   0.05278   0.05311   1.08696
   D34        3.13036   0.00264   0.00000   0.04145   0.04218  -3.11065
   D35        1.07047   0.00085   0.00000   0.03623   0.03612   1.10660
   D36       -1.00843  -0.00030   0.00000   0.03242   0.03236  -0.97607
   D37       -1.04691   0.00217   0.00000   0.01758   0.01794  -1.02897
   D38       -3.10679   0.00038   0.00000   0.01236   0.01188  -3.09491
   D39        1.09748  -0.00077   0.00000   0.00855   0.00812   1.10560
   D40       -3.12479  -0.00053   0.00000  -0.00990  -0.00960  -3.13440
   D41        1.05048   0.00258   0.00000   0.02372   0.02404   1.07453
   D42       -1.01463   0.00407   0.00000   0.04258   0.04284  -0.97179
   D43       -1.01953  -0.00351   0.00000  -0.03513  -0.03526  -1.05479
   D44       -3.12744  -0.00040   0.00000  -0.00151  -0.00161  -3.12905
   D45        1.09063   0.00109   0.00000   0.01735   0.01719   1.10782
   D46        1.01262  -0.00365   0.00000  -0.04056  -0.04072   0.97190
   D47       -1.09529  -0.00055   0.00000  -0.00694  -0.00707  -1.10236
   D48        3.12278   0.00095   0.00000   0.01193   0.01173   3.13451
   D49        3.09872   0.00092   0.00000   0.02176   0.02171   3.12044
   D50        1.05319  -0.00133   0.00000  -0.00241  -0.00234   1.05085
   D51       -1.07750   0.00148   0.00000   0.01123   0.01140  -1.06610
   D52       -3.12303  -0.00077   0.00000  -0.01294  -0.01265  -3.13569
   D53        0.99778   0.00092   0.00000   0.00149   0.00119   0.99897
   D54       -1.04775  -0.00134   0.00000  -0.02268  -0.02287  -1.07062
   D55       -3.08961   0.00332   0.00000   0.02534   0.02385  -3.06577
   D56        1.11799  -0.00688   0.00000  -0.05674  -0.05535   1.06264
   D57       -1.02132   0.00301   0.00000   0.03036   0.03002  -0.99130
   D58       -1.00994   0.00420   0.00000   0.03940   0.03820  -0.97174
   D59       -3.08552  -0.00601   0.00000  -0.04268  -0.04099  -3.12651
   D60        1.05835   0.00388   0.00000   0.04442   0.04438   1.10273
   D61       -1.05338   0.00316   0.00000   0.01902   0.01759  -1.03578
   D62       -3.04624   0.00080   0.00000  -0.01120  -0.01298  -3.05922
   D63        1.03034   0.00137   0.00000   0.01556   0.01734   1.04768
   D64       -0.96252  -0.00099   0.00000  -0.01466  -0.01323  -0.97576
   D65        3.13418  -0.00194   0.00000  -0.01420  -0.01402   3.12016
   D66        1.14132  -0.00430   0.00000  -0.04442  -0.04460   1.09672
         Item               Value     Threshold  Converged?
 Maximum Force            0.025428     0.000450     NO 
 RMS     Force            0.005997     0.000300     NO 
 Maximum Displacement     0.413192     0.001800     NO 
 RMS     Displacement     0.121571     0.001200     NO 
 Predicted change in Energy=-1.535106D-02
 GradGradGradGradGradGradGradGradGradGradGradGradGradGradGradGradGradGrad

                          Input orientation:                          
 ---------------------------------------------------------------------
 Center     Atomic      Atomic             Coordinates (Angstroms)
 Number     Number       Type             X           Y           Z
 ---------------------------------------------------------------------
      1          6           0        1.168990   -0.008510    0.319136
      2          7           0        2.577449   -0.097493   -0.070544
      3          6           0        2.910473   -0.873412   -1.275289
      4          6           0        2.352031   -0.274891   -2.579520
      5          7           0        0.882516   -0.313767   -2.691358
      6          7           0        4.381844   -0.887832   -1.336448
      7          6           0        4.986098   -1.743220   -2.362835
      8          6           0        6.512938   -1.691284   -2.278977
      9          7           0        7.111243   -2.542168   -3.315540
     10          6           0        8.568781   -2.521344   -3.315551
     11          7           0        9.056378   -3.316824   -4.448123
     12          1           0        1.109418    0.470254    1.304158
     13          1           0        0.658605   -0.984603    0.389002
     14          1           0        0.616128    0.615778   -0.378057
     15          1           0        3.061997   -0.536559    0.705386
     16          1           0        2.527802   -1.916739   -1.183441
     17          1           0        2.813242   -0.824230   -3.410326
     18          1           0        2.695592    0.762323   -2.646076
     19          1           0        0.560150   -1.274426   -2.645071
     20          1           0        0.617367    0.046363   -3.600788
     21          1           0        4.709712   -1.229174   -0.438481
     22          1           0        4.693998   -1.376805   -3.349504
     23          1           0        4.661646   -2.795789   -2.292797
     24          1           0        6.847211   -2.065009   -1.303268
     25          1           0        6.833733   -0.639127   -2.356635
     26          1           0        6.816771   -2.207138   -4.229534
     27          1           0        8.897962   -2.898109   -2.333446
     28          1           0        8.973442   -1.500375   -3.430443
     29          1           0        8.703774   -4.264274   -4.337241
     30          1           0       10.071529   -3.387557   -4.433161
 ---------------------------------------------------------------------
                    Distance matrix (angstroms):
                    1          2          3          4          5
     1  C    0.000000
     2  N    1.464078   0.000000
     3  C    2.514560   1.471179   0.000000
     4  C    3.142094   2.525321   1.539839   0.000000
     5  N    3.039461   3.128616   2.535954   1.474277   0.000000
     6  N    3.719758   2.341578   1.472712   2.457858   3.796133
     7  C    4.977199   3.710069   2.499509   3.023451   4.357827
     8  C    6.175735   4.785961   3.828062   4.405638   5.811133
     9  N    7.412198   6.087834   4.959218   5.322817   6.644729
    10  C    8.618712   7.231956   6.236570   6.651036   8.021327
    11  N    9.791967   8.455993   7.335482   7.595612   8.883502
    12  H    1.096828   2.089798   3.420933   4.145152   4.078029
    13  H    1.103691   2.163356   2.802345   3.490488   3.160502
    14  H    1.086954   2.109526   2.878667   2.941613   2.507265
    15  H    2.002874   1.014709   2.014821   3.370925   4.041986
    16  H    2.783064   2.133228   1.115080   2.162313   2.747781
    17  H    4.156664   3.426060   2.137815   1.097601   2.122544
    18  H    3.423036   2.717831   2.144961   1.094658   2.108853
    19  H    3.280207   3.476041   2.749752   2.052853   1.014361
    20  H    3.958928   4.040451   3.392973   2.038443   1.013440
    21  H    3.821089   2.441849   2.015956   3.324660   4.534408
    22  H    5.268476   4.107067   2.781499   2.700352   4.011310
    23  H    5.175884   4.069778   2.792394   3.430957   4.538844
    24  H    6.253285   4.860205   4.113222   5.003997   6.369555
    25  H    6.296566   4.861639   4.076294   4.502000   5.969496
    26  H    7.577717   6.302353   5.075978   5.137123   6.416091
    27  H    8.667352   7.274136   6.408519   7.056276   8.429371
    28  H    8.786039   7.359737   6.465088   6.787413   8.210808
    29  H    9.826818   8.549774   7.378065   7.703857   8.915577
    30  H   10.642251   9.274599   8.220329   8.527329   9.844797
                    6          7          8          9         10
     6  N    0.000000
     7  C    1.466384   0.000000
     8  C    2.464844   1.530022   0.000000
     9  N    3.755430   2.462155   1.468481   0.000000
    10  C    4.910769   3.787976   2.447443   1.457686   0.000000
    11  N    6.118317   4.836511   3.717078   2.380418   1.467399
    12  H    4.418820   5.777106   6.834408   8.150963   9.270031
    13  H    4.104760   5.184140   6.472304   7.601722   8.868831
    14  H    4.166529   5.347976   6.611232   7.796662   9.039640
    15  H    2.456517   3.817352   4.706251   6.048695   7.101547
    16  H    2.125919   2.732087   4.139123   5.093618   6.434662
    17  H    2.601062   2.581295   3.964780   4.629591   6.001283
    18  H    2.698440   3.406522   4.552700   5.555702   6.762028
    19  H    4.057991   4.459647   5.978585   6.706230   8.132805
    20  H    4.491240   4.880671   6.286840   6.996591   8.360589
    21  H    1.015065   2.010913   2.617746   3.970992   4.983939
    22  H    2.094977   1.092291   2.133886   2.683710   4.040429
    23  H    2.152486   1.103665   2.155784   2.666619   4.048092
    24  H    2.732194   2.165634   1.097003   2.084858   2.687253
    25  H    2.667283   2.152397   1.102712   2.148971   2.733615
    26  H    4.004920   2.655400   2.040366   1.017028   2.000907
    27  H    5.042870   4.078885   2.673524   2.069677   1.102198
    28  H    5.083581   4.134933   2.723307   2.136895   1.104232
    29  H    6.251736   4.906639   3.956829   2.558452   2.024816
    30  H    6.943398   5.731640   4.492374   3.275218   2.063403
                   11         12         13         14         15
    11  N    0.000000
    12  H   10.515935   0.000000
    13  H    9.967931   1.776895   0.000000
    14  H   10.162117   1.759079   1.775219   0.000000
    15  H    8.379806   2.277008   2.465185   2.912731   0.000000
    16  H    7.432409   3.727961   2.614450   3.273649   2.399568
    17  H    6.801970   5.177361   4.370706   4.011930   4.133246
    18  H    7.768296   4.266802   4.051267   3.080512   3.612983
    19  H    8.922348   4.352243   3.049474   2.952178   4.246087
    20  H    9.123920   4.947757   4.121046   3.272649   4.985896
    21  H    6.271286   4.345913   4.141982   4.490537   2.122053
    22  H    4.899081   6.157712   5.514948   5.424842   4.451020
    23  H    4.922457   6.018592   5.147502   5.627720   4.080699
    24  H    4.041977   6.793268   6.506143   6.846095   4.549581
    25  H    4.060115   6.884760   6.766837   6.644409   4.859268
    26  H    2.508989   8.388328   7.794131   7.826282   6.422040
    27  H    2.161545   9.232521   8.885957   9.206503   6.990701
    28  H    2.083756   9.388435   9.164644   9.145483   7.278682
    29  H    1.016998  10.579007   9.890317  10.242073   8.435259
    30  H    1.017722  11.318965  10.845764  11.039708   9.146934
                   16         17         18         19         20
    16  H    0.000000
    17  H    2.496812   0.000000
    18  H    3.056931   1.764955   0.000000
    19  H    2.533887   2.421718   2.951010   0.000000
    20  H    3.653368   2.369826   2.396474   1.631304   0.000000
[...]
 6,-0.00000479,-0.00061953,0.00049181,-0.00000280,-0.00010862,0.0004585
 3,0.00056333,0.00005393,0.00009998,0.00019530,0.09577043,0.20540316,0.
 00000801,0.00001832,0.00000263,-0.00007459,-0.00001771,-0.00005946,0.0
 0012679,0.00039420,0.00014789,-0.00006430,-0.00007084,-0.00003190,-0.0
 0001242,0.00003278,0.00000139,-0.00105182,0.00080059,0.00032875,0.0091
 3954,0.01197160,0.00670683,-0.05822127,-0.08331549,-0.10354418,0.00347
 572,0.00160236,0.00306331,-0.00110371,-0.00064615,0.00017798,0.0002786
 6,0.00044300,0.00000722,0.00000002,-0.00000547,-0.00000102,-0.00000736
 ,-0.00001008,0.00000052,-0.00000778,-0.00000581,0.00000089,0.00006589,
 0.00002110,-0.00000056,0.00004606,-0.00012866,-0.00009932,-0.00000164,
 -0.00001493,-0.00000530,0.00000183,-0.00001057,0.00003042,0.00000525,0
 .00000332,-0.00000446,-0.00000973,-0.00000198,-0.00000567,-0.00043995,
 -0.00025538,0.00030437,0.00325594,0.00054123,-0.00030410,-0.00076336,0
 .00020150,0.00131299,0.06124390,0.08982091,0.10653096,0.00004841,0.000
 19169,-0.00015463,-0.00002706,0.00006739,0.00002267,-0.00010763,-0.000
 17454,0.00008109,-0.00005260,-0.00001638,0.00001081,0.00000333,0.00002
 764,-0.00002617,0.00197336,-0.00101905,-0.00089050,0.00176571,-0.00703
 193,0.03023931,-0.05511043,0.00627757,-0.03381340,-0.00801386,0.013608
 11,-0.01739954,0.00403780,0.00082469,-0.00444802,-0.00036743,0.0001519
 0,0.00066422,0.00001657,-0.00000089,0.00000200,-0.00000140,-0.00003356
 ,-0.00000232,-0.00006539,-0.00003110,0.00003434,0.00009825,0.00000081,
 -0.00033735,0.00002738,-0.00002547,-0.00002917,0.00000304,0.00002431,-
 0.00003629,-0.00000039,-0.00000430,-0.00000287,0.00000014,-0.00000640,
 0.00000837,-0.00000505,0.00000297,-0.00000469,-0.00013331,0.00001441,0
 .00007501,0.00158253,0.00005748,-0.00077453,-0.00500668,-0.00038204,0.
 00342860,-0.00160047,0.00242571,-0.01653507,0.06067995,-0.00000459,-0.
 00002154,-0.00000248,0.00007833,0.00002091,-0.00015327,-0.00016175,0.0
 0006093,0.00016416,-0.00003286,-0.00002059,0.00000912,0.00001848,0.000
 00461,-0.00001455,0.00016731,0.00048195,-0.00103044,-0.00047620,-0.001
 06593,0.00664408,0.00458552,-0.06343431,0.05067091,0.01551334,-0.01797
 515,0.02950509,-0.00464961,-0.00039345,0.00249463,0.00029620,0.0000326
 1,-0.00067240,0.00000627,-0.00000177,-0.00000833,0.00001059,0.00000549
 ,0.00000867,0.00000335,0.00000189,0.00000186,0.00003121,-0.00006337,0.
 00000691,-0.00000437,-0.00003448,-0.00002632,0.00000423,0.00002131,-0.
 00001190,0.00000280,-0.00000346,-0.00000765,-0.00000953,0.00000048,0.0
 0000498,-0.00000346,-0.00000017,0.00000536,-0.00010321,0.00010282,-0.0
 0013709,0.00065405,0.00009643,0.00025172,-0.00029931,-0.00003905,0.000
 87187,-0.00370580,0.00598282,-0.02240007,-0.01293050,0.07401674,-0.000
 04971,-0.00006815,0.00013494,-0.00019359,-0.00007386,0.00023884,0.0005
 0207,-0.00012438,0.00001067,0.00015875,0.00007400,-0.00017880,-0.00005
 339,-0.00007937,0.00009668,-0.00113893,-0.00060321,0.00190565,-0.00260
 058,0.00420817,-0.01719793,-0.02998906,0.04883850,-0.26063273,-0.00331
 307,0.00818372,0.00252204,0.00085881,-0.00025709,0.00202692,-0.0001878
 3,-0.00000425,0.00050292,-0.00002554,-0.00000452,0.00001590,-0.0000048
 7,0.00001637,-0.00000687,0.00003645,0.00001522,-0.00003103,-0.00010343
 ,0.00000971,0.00016145,0.00000098,0.00000686,0.00000642,0.00000259,-0.
 00004547,0.00009625,-0.00000333,-0.00000090,0.00000522,0.00000930,0.00
 002023,-0.00002840,0.00002539,-0.00000461,-0.00000954,-0.00003744,0.00
 021186,-0.00037189,-0.00003522,0.00021404,0.00128568,0.00309326,0.0008
 4336,-0.00021210,-0.00205122,0.00258361,-0.01540466,0.03727094,-0.0644
 9642,0.28403910,-0.00001166,0.00001745,0.00002424,-0.00000725,-0.00003
 858,-0.00004963,-0.00004351,-0.00004011,0.00005351,0.00000098,0.000010
 03,-0.00002844,0.00001718,-0.00001892,0.00000249,-0.00030676,-0.000263
 19,-0.00007774,0.00216813,0.00149184,0.00066685,0.00986461,0.01967499,
 0.00962621,-0.13395904,-0.12696641,-0.06613890,-0.02204556,-0.03216994
 ,-0.01871367,0.00347535,0.00052829,-0.00080494,0.00000121,0.00000046,-
 0.00000792,-0.00000411,-0.00000777,-0.00000546,0.00000483,-0.00000460,
 -0.00000359,0.00000799,0.00002171,0.00003894,-0.00007226,-0.00003043,-
 0.00001957,0.00000147,0.00000300,0.00000425,0.00000745,-0.00001143,-0.
 00000512,-0.00000648,0.00000679,-0.00000300,0.00000404,-0.00000110,0.0
 0000654,0.00009007,-0.00026305,-0.00017413,-0.00071648,-0.00055264,-0.
 00048994,-0.00009398,-0.00010597,0.00001065,-0.00197657,0.00416320,0.0
 0027143,0.00021092,0.00005951,-0.00018883,0.14790231,0.00004599,0.0000
 2116,-0.00000900,-0.00008617,0.00000211,0.00009243,0.00020685,0.000130
 53,-0.00006086,0.00002219,-0.00001914,0.00001172,-0.00004760,0.0000175
 1,0.00001831,-0.00004771,0.00039780,0.00045655,-0.00064141,0.00046170,
 -0.00045934,-0.01341206,-0.02692885,-0.01592636,-0.12047030,-0.2571413
 7,-0.12138263,-0.00551799,-0.00347910,-0.00335763,0.00054479,0.0012889
 0,0.00026490,-0.00000759,-0.00000759,0.00001910,-0.00001293,-0.0000134
 5,-0.00000563,-0.00000664,-0.00000262,-0.00000330,0.00001677,-0.000006
 06,-0.00004241,0.00004916,-0.00000929,0.00000340,-0.00000281,-0.000011
 62,0.00001102,-0.00000586,0.00000679,0.00000738,0.00001012,0.00000045,
 -0.00000546,-0.00000462,-0.00000129,-0.00001265,-0.00028402,0.00019502
 ,0.00015292,0.00107569,0.00043381,-0.00025905,0.00007222,0.00007792,0.
 00020221,0.00365793,-0.00348194,0.00111546,-0.00093821,0.00140678,0.00
 040599,0.13422257,0.28622894,-0.00001933,-0.00001635,-0.00002749,0.000
 03024,0.00005318,-0.00003140,0.00004229,-0.00004256,0.00004633,-0.0000
 3182,-0.00001998,0.00004862,0.00000420,0.00003406,-0.00003137,0.000406
 39,0.00041575,-0.00026935,-0.00036503,-0.00114619,0.00036251,-0.001463
 06,0.01011362,-0.00262429,-0.08689835,-0.16223501,-0.10073390,0.014999
 55,0.01383421,0.00164171,-0.00093314,0.00070848,-0.00065453,0.00000617
 ,-0.00000366,-0.00000756,0.00002176,0.00001464,0.00001529,-0.00000658,
 0.00000638,0.00001352,-0.00001697,-0.00003729,-0.00002813,0.00002742,0
 .00000429,0.00000858,0.00000469,0.00000966,-0.00002458,-0.00000173,0.0
 0000590,0.00000053,-0.00000134,-0.00001109,0.00001463,-0.00000867,0.00
 000121,0.00000059,-0.00016582,0.00014932,0.00006956,0.00056745,-0.0000
 5472,0.00028553,0.00004537,-0.00014130,-0.00048132,0.00030251,-0.00064
 543,0.00090813,0.00080707,0.00064552,0.00132508,0.07171109,0.13797349,
 0.09825855,0.00001287,-0.00000531,-0.00000803,-0.00002609,0.00001973,0
 .00004806,0.00007682,0.00002902,-0.00004464,0.00000048,-0.00002005,0.0
 0001013,-0.00002094,0.00001815,0.00000462,-0.00013083,0.00015338,0.000
 10026,-0.00001198,0.00015557,0.00007724,0.00084603,-0.00343815,-0.0008
 7754,-0.02440439,-0.02781541,-0.01080115,-0.09812386,-0.07326357,-0.04
 984324,0.00900019,0.01965027,0.00826483,-0.00000378,-0.00000374,0.0000
 0823,0.00000061,0.00000239,0.00000293,-0.00000361,0.00000161,0.0000005
 3,-0.00000012,-0.00001408,-0.00002907,0.00001684,0.00000250,0.00000715
 ,-0.00000020,-0.00000473,0.00000181,-0.00000304,0.00000665,0.00000569,
 0.00000506,-0.00000276,0.00000079,-0.00000461,0.00000006,-0.00000718,-
 0.00006943,0.00004586,0.00003266,0.00026755,0.00020299,0.00002386,0.00
 002551,-0.00001275,-0.00000174,0.00007745,0.00127483,0.00047084,-0.000
 17361,0.00038460,-0.00000267,-0.00673138,0.00027855,0.00141120,0.11596
 949,-0.00001541,-0.00001920,0.00000059,0.00001579,0.00002921,0.0000117
 1,-0.00000049,0.00001697,-0.00000733,-0.00001805,-0.00001625,-0.000000
 80,0.00000607,0.00001139,-0.00000193,-0.00015729,0.00008851,0.00002406
 ,0.00025378,0.00064665,0.00027805,0.00082152,-0.00002022,-0.00014980,-
 0.00711942,-0.00362966,-0.00004980,-0.07786696,-0.16696058,-0.07848775
 ,-0.00325901,-0.03467054,-0.01143031,-0.00000123,-0.00000110,-0.000000
 07,0.00000722,0.00001103,0.00000629,0.00000098,0.00000221,0.00000123,-
 0.00000959,-0.00001965,-0.00001099,0.00000813,0.00000642,0.00000315,0.
 00000103,-0.00000186,-0.00000270,-0.00000024,0.00000514,0.00000661,0.0
 0000111,-0.00000261,0.00000295,-0.00000350,-0.00000075,-0.00000164,-0.
 00004656,-0.00000577,0.00002691,0.00031211,-0.00004693,-0.00012610,0.0
 0000564,-0.00003588,-0.00002852,-0.00038169,0.00073921,0.00010708,-0.0
 0016924,0.00017200,-0.00028404,-0.00029124,0.00056663,-0.00037705,0.08
 619403,0.19552804,-0.00001639,-0.00000952,0.00000364,0.00002785,0.0000
 0869,-0.00001368,-0.00004932,0.00000906,0.00001130,-0.00001426,-0.0000
 0277,-0.00000940,0.00001472,0.00000057,-0.00000163,-0.00006479,-0.0000
 4137,-0.00002812,0.00007156,0.00045646,0.00017318,0.00006056,0.0003160
 6,0.00032039,0.01005335,0.01150936,0.00759088,-0.05582091,-0.08219738,
 -0.11285114,0.00342808,0.00256636,0.00681191,0.00000199,0.00000155,-0.
 00000439,0.00000407,0.00000640,0.00000239,0.00000199,0.00000027,0.0000
 0012,-0.00000403,-0.00000473,0.00000764,0.00000546,0.00000678,-0.00000
 369,-0.00000058,-0.00000086,-0.00000306,0.00000048,0.00000187,0.000005
 39,-0.00000026,-0.00000010,0.00000056,-0.00000027,-0.00000112,0.000001
 42,-0.00001407,-0.00002053,0.00002872,0.00008698,-0.00006631,-0.000109
 94,0.00001431,0.00000690,-0.00003218,-0.00045025,0.00006164,0.00019595
 ,0.00001502,-0.00029979,-0.00025876,0.00333982,0.00099276,0.00076725,0
 .05244124,0.08899904,0.11296216,0.00004691,0.00001935,-0.00001500,-0.0
 0007291,-0.00000530,0.00006894,0.00018810,0.00008758,-0.00008468,-0.00
 000349,-0.00003929,0.00003294,-0.00005348,0.00003607,0.00000674,-0.000
 41886,0.00013848,-0.00011873,-0.00002022,0.00008123,-0.00003902,0.0041
 7668,-0.00532911,0.00183003,-0.01300628,-0.00540159,0.03970666,-0.0518
 4863,-0.00020926,-0.01065016,-0.00012193,0.00698432,-0.01748891,-0.000
 00685,-0.00000868,0.00001438,-0.00000792,-0.00001100,-0.00000069,-0.00
 001072,-0.00000025,0.00000064,0.00001558,-0.00000136,-0.00004156,-0.00
 000668,-0.00000688,0.00000647,0.00000103,-0.00000565,0.00000404,-0.000
 00208,0.00000466,0.00000294,0.00000670,-0.00000291,0.00000100,-0.00001
 087,0.00000140,-0.00001223,-0.00000955,-0.00002709,0.00001032,0.000044
 83,-0.00002996,-0.00001043,0.00011351,0.00014211,-0.00034661,-0.000318
 15,0.00039625,-0.00007449,0.00013658,0.00086760,-0.00215476,0.00157347
 ,0.00117370,0.00015858,0.00166489,0.00143513,-0.01506985,0.05848731,0.
 00000602,0.00000440,0.00000076,-0.00001771,0.00000320,0.00000622,0.000
 03489,0.00002363,0.00000117,-0.00000212,-0.00000833,0.00000700,-0.0000
 0832,0.00000773,-0.00000105,-0.00007769,-0.00002734,0.00002257,0.00008
 215,0.00010801,-0.00005188,-0.00053306,0.00095799,-0.00157639,-0.00116
 794,0.00190979,0.00495572,0.00039346,-0.06125498,0.03296433,0.00396961
 ,-0.01361237,0.03405839,-0.00000151,-0.00000203,0.00000067,-0.00000002
 ,-0.00000169,0.00000039,-0.00000213,0.00000007,0.00000085,0.00000060,-
 0.00000375,-0.00000824,-0.00000224,-0.00000391,-0.00000020,0.00000123,
 0.,-0.00000014,-0.00000076,0.00000056,-0.00000006,0.00000035,-0.000000
 63,0.00000118,-0.00000256,0.00000035,-0.00000153,-0.00000429,-0.000002
 24,-0.00000564,-0.00001031,-0.00002558,0.00000550,0.00009301,-0.000085
 47,0.00000712,-0.00014670,0.00011901,-0.00010144,-0.00071424,0.0004446
 2,0.00056251,0.00031778,0.00007375,0.00078702,-0.00218789,0.00523397,-
 0.02257392,-0.00373307,0.07029169,-0.00006190,-0.00002517,0.00001607,0
 .00012121,0.00000469,-0.00005562,-0.00024627,-0.00009848,0.00003901,0.
 00000605,0.00005332,-0.00006916,0.00006176,-0.00005563,0.00001138,0.00
 054242,-0.00016725,0.00002112,0.00000015,-0.00017215,0.00048649,-0.001
 51459,0.00221333,0.00138689,0.01493729,0.00395569,-0.01444225,-0.01488
 551,0.04142343,-0.26203785,-0.00156482,0.00378498,-0.00295463,0.000007
 39,0.00001089,-0.00001294,0.00000974,0.00001555,0.00000042,0.00001628,
 0.00000035,-0.00000536,-0.00002571,-0.00000957,0.00004515,0.00001135,0
 .00001242,-0.00000476,-0.00000350,0.00000294,0.00000946,0.00000432,-0.
 00000522,-0.00000346,-0.00000715,0.00000913,-0.00000785,0.00001659,-0.
 00000312,0.00001232,0.00000443,0.00003317,-0.00003765,-0.00001388,0.00
 000247,-0.00001604,-0.00032867,-0.00003536,0.00027015,-0.00020729,-0.0
 0024085,-0.00022981,0.00151310,-0.00180030,0.00014948,0.00049079,-0.00
 048678,0.00158111,-0.00223063,0.00139252,-0.01722839,0.00473795,-0.050
 79236,0.29136605,-0.00001322,-0.00000075,0.00001021,0.00003089,-0.0000
 1156,-0.00002264,-0.00008440,-0.00000485,0.00000546,-0.00000498,0.0000
 1888,-0.00001503,0.00002308,-0.00002125,0.00000233,0.00011440,-0.00009
 637,0.00004870,-0.00007414,0.00011192,0.00000088,-0.00060836,0.0007488
 6,0.00076908,0.00133058,-0.00147922,0.00018522,-0.00155107,-0.00112041
 ,-0.02018151,-0.05796167,0.03597272,-0.06959772,0.00000049,0.00000563,
 -0.00000313,-0.00000195,-0.00000023,-0.00000454,0.00000613,-0.00000190
 ,-0.00000292,-0.00000402,0.00000611,0.00001640,-0.00000052,-0.00000095
 ,-0.00000337,-0.00000015,0.00000096,0.00000284,0.00000184,-0.00000398,
 -0.00000392,-0.00000407,0.00000471,-0.00000359,0.00000452,-0.00000077,
 0.00000676,0.00001195,0.00000764,-0.00001770,-0.00003006,-0.00000660,-
 0.00000598,-0.00003588,-0.00000821,0.00009967,-0.00003187,-0.00016434,
 -0.00006758,0.00026540,-0.00051933,0.00029549,-0.00021898,0.00025954,-
 0.00086971,0.00055018,0.00044690,0.00147083,-0.00117146,0.00367512,-0.
 00045338,0.05509408,0.00003290,0.00002140,-0.00000398,-0.00005000,-0.0
 0002290,0.00002511,0.00007386,0.00003369,-0.00001995,0.00001245,-0.000
 00576,0.00000977,-0.00002453,0.00000409,0.00000690,-0.00012546,0.00000
 579,0.00003403,0.00003621,0.00003976,-0.00016402,-0.00002124,-0.000228
 86,-0.00006769,-0.00148199,0.00170307,-0.00107838,0.00806484,-0.014075
 65,0.04024486,0.02343870,-0.03751225,0.03603780,-0.00000306,-0.0000018
 4,0.00000795,-0.00001063,-0.00001330,-0.00000654,-0.00000467,-0.000002
 15,-0.00000198,0.00001358,0.00001584,-0.00000722,-0.00000874,-0.000007
 52,0.,-0.00000106,-0.00000236,0.00000488,-0.00000071,-0.00000177,-0.00
 000201,0.00000234,0.00000131,-0.00000333,-0.00000131,0.00000073,-0.000
 00411,0.00001826,-0.00001116,-0.00001106,-0.00004199,-0.00000529,-0.00
 001439,0.00004468,0.00001637,-0.00000514,-0.00000469,-0.00014196,0.000
 00043,-0.00023839,0.00017280,-0.00014255,-0.00020455,0.00006758,-0.000
 46607,-0.00129700,0.00200617,0.00070000,0.00388802,-0.00524627,0.00041
 175,-0.02955606,0.05544576,0.00000653,0.00000498,-0.00000148,-0.000008
 48,-0.00000568,0.00000061,0.00001263,0.00000332,0.00000011,0.00000474,
 -0.00000106,-0.00000069,-0.00000691,0.00000036,0.00000109,-0.00001753,
 0.00000764,-0.00000863,0.00000726,-0.00001561,0.00004844,0.00007434,-0
 .00015627,0.00019531,-0.00117171,-0.00071133,0.00088690,-0.00157937,-0
 .00289996,-0.00601997,-0.04022913,0.07836160,-0.40392057,0.00000056,-0
 .00000094,0.00000066,-0.00000205,-0.00000245,-0.00000077,-0.00000133,-
 0.00000066,-0.00000023,0.00000339,0.00000386,0.00000256,-0.00000197,-0
 .00000149,-0.00000139,-0.00000063,-0.00000031,0.00000092,0.,-0.0000004
 7,0.00000036,0.00000177,0.00000077,-0.00000003,0.00000002,0.00000016,-
 0.00000166,0.00000187,-0.00000368,0.00000089,-0.00000427,-0.00000039,-
 0.00001247,-0.00000366,0.00001401,-0.00001346,0.00002328,0.00000411,0.
 00002263,0.00018371,-0.00007093,-0.00010904,-0.00007891,0.00020650,-0.
 00027824,0.00112810,-0.00054866,0.00182632,-0.00032937,0.00173849,0.00
 196981,0.05079162,-0.07578093,0.42304967,0.00004112,0.00001703,-0.0000
 0620,-0.00008337,-0.00000240,0.00004792,0.00013868,0.00008749,-0.00001
 985,0.00000722,-0.00003125,0.00002913,-0.00004293,0.00002422,0.0000040
 6,-0.00038151,0.00001216,0.00009436,0.00013248,0.00040909,-0.00024490,
 -0.00065950,-0.00108064,0.00030777,-0.00262101,0.00669916,-0.00048318,
 -0.01478392,-0.01178940,0.00702935,-0.34587205,0.01968948,0.17287692,-
 0.00000666,-0.00000696,0.00001238,-0.00000863,-0.00001102,-0.00000240,
 -0.00000737,-0.00000086,-0.00000018,0.00001376,0.00000170,-0.00002799,
 -0.00000657,-0.00000802,0.00000456,0.00000111,-0.00000316,0.00000243,-
 0.00000206,0.00000288,0.00000115,0.00000562,-0.00000142,0.00000065,-0.
 00000740,0.00000124,-0.00000974,0.00001217,-0.00000814,-0.00001465,-0.
 00000691,-0.00001384,-0.00001261,-0.00000167,-0.00000578,0.00002836,0.
 00004129,0.00014314,0.00004518,-0.00018410,0.00021712,-0.00012054,0.00
 086400,-0.00015010,0.00023558,0.00119388,-0.00016951,0.00046667,0.0006
 3451,0.00003834,-0.00093752,0.00436325,-0.00254976,-0.00880455,0.35722
 659,0.00001481,0.00001007,-0.00000649,-0.00001602,-0.00001018,0.000010
 22,0.00003775,-0.00003864,-0.00001937,0.00002022,0.00000479,-0.0000032
 0,-0.00001603,-0.00000130,0.00000463,0.00011698,0.00004279,-0.00005076
 ,0.00013262,-0.00045934,0.00018449,0.00167443,0.00087103,-0.00030303,0
 .00129384,-0.00572360,0.00098790,0.03333698,-0.00295508,-0.01905679,-0
 .01639247,-0.03176599,0.03579118,0.00000062,-0.00000153,0.00000182,-0.
 00000287,-0.00000589,-0.00000153,-0.00000331,0.00000046,0.00000014,0.0
 0000441,0.00000623,-0.00000178,-0.00000574,-0.00000292,0.00000124,-0.0
 0000153,-0.00000042,0.00000390,-0.00000075,-0.00000183,-0.00000191,0.0
 0000223,-0.00000005,-0.00000163,0.00000186,0.00000117,-0.00000268,0.00
 001087,-0.00000276,-0.00001146,-0.00001635,0.00000694,0.00002436,-0.00
 001144,0.00000454,-0.00003171,-0.00010276,0.00009793,-0.00008929,0.000
 04157,0.00002807,-0.00000534,0.00045230,-0.00027507,0.00043998,-0.0003
 5472,0.00036745,-0.00042537,-0.00044452,0.00109582,0.00056556,-0.00826
 220,-0.00225531,-0.00014500,-0.01151078,0.04096259,0.00002678,0.000012
 78,-0.00000317,-0.00004398,-0.00000820,0.00001925,0.00005960,0.0000573
 6,-0.00001875,0.00000151,-0.00001694,0.00002096,-0.00002535,0.00001530
 ,-0.00000004,-0.00020258,-0.00000113,0.00004769,0.00001318,0.00025970,
 -0.00010108,-0.00054140,0.00018158,0.00137623,-0.00097136,0.00130720,0
 .00048480,-0.00407086,-0.00331447,0.00177185,0.13847698,0.01847469,-0.
 12145303,-0.00000344,-0.00000302,0.00000554,-0.00000603,-0.00000862,-0
 .00000273,-0.00000486,-0.00000034,0.00000005,0.00000846,0.00000721,-0.
 00001428,-0.00000628,-0.00000744,0.00000089,0.00000083,-0.00000137,0.0
 0000053,-0.00000130,-0.00000020,-0.00000081,0.00000186,-0.00000151,-0.
 00000016,-0.00000446,0.00000119,-0.00000420,0.00001439,-0.00001038,-0.
 00001007,-0.00001669,-0.00000730,-0.00000041,0.00000405,0.00000686,0.0
 0001490,-0.00005602,0.00005499,-0.00005237,0.00009830,-0.00015296,-0.0
 0008149,0.00054297,0.00007695,-0.00015535,-0.00019428,0.00064729,-0.00
 016484,-0.00014516,-0.00000703,-0.00025914,0.03754728,0.00029586,-0.01
 763765,-0.17050214,-0.01785807,0.13621688\\0.00001541,0.00001150,0.000
 00021,-0.00000828,-0.00001927,0.00001896,0.00001614,0.00001702,-0.0000
 1880,-0.00000438,0.00000213,-0.00000670,-0.00000069,0.00001154,-0.0000
 0059,0.00000119,-0.00001982,0.00000093,-0.00000752,0.00000320,0.000005
 65,0.00000386,-0.00000141,-0.00000405,0.00000025,0.00000296,-0.0000014
 4,-0.00000090,0.00000039,0.00000419,0.00000096,-0.00000009,-0.00000051
 ,0.00000028,-0.00000159,-0.00000183,-0.00000296,-0.00000298,-0.0000012
 7,-0.00000075,-0.00000461,-0.00000121,0.00000112,0.00000415,0.00000092
 ,-0.00000060,-0.00000150,0.00000237,-0.00000436,0.00000765,-0.00000232
 ,-0.00000317,-0.00000383,0.00000199,0.00000348,-0.00000326,0.00000219,
 -0.00000191,-0.00000142,-0.00000501,-0.00000822,-0.00000773,0.00000614
 ,-0.00000031,0.00000404,0.00000104,-0.00000134,0.00000395,-0.00000183,
 0.00000002,-0.00000110,0.00000050,-0.00000089,0.00000096,0.00000039,0.
 00000057,0.00000056,-0.00000024,-0.00000014,-0.00000145,0.00000033,0.0
 0000134,-0.00000075,0.00000107,0.00000062,0.00000180,-0.00000072,0.000
 00118,-0.00000106,-0.00000037\\\@


 ASKING FOR EFFICIENCY AND ADAPTABILITY IN THE SAME PROGRAM IS LIKE
 ASKING FOR A BEAUTIFUL AND MODEST WIFE ...
 WE'LL PROBABLY HAVE TO SETTLE FOR ONE OR THE OTHER.

             -- THE PSYCHOLOGY OF COMPUTER PROGRAMMING
                GERALD M. WEINBERG
 Job cpu time:       0 days  3 hours 36 minutes  3.1 seconds.
 Elapsed time:       0 days  0 hours 54 minutes 50.3 seconds.
 File lengths (MBytes):  RWF=    355 Int=      0 D2E=      0 Chk=     14 Scr=      1
 Normal termination of Gaussian 16 at Tue Jun  1 05:04:23 2021.
### All Done ###
