### Starting Gaussian ###
 Entering Gaussian System, Link 0=g16
 Initial command:
 /cluster/software/gaussian/gaussian-16-A.03/avx2/g16/l1.exe "/local/scratch/cz9n3/Gau-22132.inp" -scrdir="/local/scratch/cz9n3/"
 Entering Link 1 = /cluster/software/gaussian/gaussian-16-A.03/avx2/g16/l1.exe PID=     22133.
  
 Copyright (c) 1988,1990,1992,1993,1995,1998,2003,2009,2016,
            Gaussian, Inc.  All Rights Reserved.
  
 This is part of the Gaussian(R) 16 program.  It is based on
 the Gaussian(R) 09 system (copyright 2009, Gaussian, Inc.),
 the Gaussian(R) 03 system (copyright 2003, Gaussian, Inc.),
 the Gaussian(R) 98 system (copyright 1998, Gaussian, Inc.),
 the Gaussian(R) 94 system (copyright 1995, Gaussian, Inc.),
 the Gaussian 92(TM) system (copyright 1992, Gaussian, Inc.),
 the Gaussian 90(TM) system (copyright 1990, Gaussian, Inc.),
 the Gaussian 88(TM) system (copyright 1988, Gaussian, Inc.),
 the Gaussian 86(TM) system (copyright 1986, Carnegie Mellon
 University), and the Gaussian 82(TM) system (copyright 1983,
 Carnegie Mellon University). Gaussian is a federally registered
 trademark of Gaussian, Inc.
  
 This software contains proprietary and confidential information,
 including trade secrets, belonging to Gaussian, Inc.
  
 This software is provided under written license and may be
 used, copied, transmitted, or stored only in accord with that
 written license.
  
 The following legend is applicable only to US Government
 contracts under FAR:
  
                    RESTRICTED RIGHTS LEGEND
  
 Use, reproduction and disclosure by the US Government is
 subject to restrictions as set forth in subparagraphs (a)
 and (c) of the Commercial Computer Software - Restricted
 Rights clause in FAR 52.227-19.
  
 Gaussian, Inc.
 340 Quinnipiac St., Bldg. 40, Wallingford CT 06492
  
  
 ---------------------------------------------------------------
 Warning -- This program may not be used in any manner that
 competes with the business of Gaussian, Inc. or will provide
 assistance to any competitor of Gaussian, Inc.  The licensee
 of this program is prohibited from giving any competitor of
 Gaussian, Inc. access to this program.  By using this program,
 the user acknowledges that Gaussian, Inc. is engaged in the
 business of creating and licensing software in the field of
 computational chemistry and represents and warrants to the
 licensee that it is not a competitor of Gaussian, Inc. and that
 it will not use this program in any manner prohibited above.
 ---------------------------------------------------------------
  

 Cite this work as:
 Gaussian 16, Revision A.03,
 M. J. Frisch, G. W. Trucks, H. B. Schlegel, G. E. Scuseria, 
 M. A. Robb, J. R. Cheeseman, G. Scalmani, V. Barone, 
 G. A. Petersson, H. Nakatsuji, X. Li, M. Caricato, A. V. Marenich, 
 J. Bloino, B. G. Janesko, R. Gomperts, B. Mennucci, H. P. Hratchian, 
 J. V. Ortiz, A. F. Izmaylov, J. L. Sonnenberg, D. Williams-Young, 
 F. Ding, F. Lipparini, F. Egidi, J. Goings, B. Peng, A. Petrone, 
 T. Henderson, D. Ranasinghe, V. G. Zakrzewski, J. Gao, N. Rega, 
 G. Zheng, W. Liang, M. Hada, M. Ehara, K. Toyota, R. Fukuda, 
 J. Hasegawa, M. Ishida, T. Nakajima, Y. Honda, O. Kitao, H. Nakai, 
 T. Vreven, K. Throssell, J. A. Montgomery, Jr., J. E. Peralta, 
 F. Ogliaro, M. J. Bearpark, J. J. Heyd, E. N. Brothers, K. N. Kudin, 
 V. N. Staroverov, T. A. Keith, R. Kobayashi, J. Normand, 
 K. Raghavachari, A. P. Rendell, J. C. Burant, S. S. Iyengar, 
 J. Tomasi, M. Cossi, J. M. Millam, M. Klene, C. Adamo, R. Cammi, 
 J. W. Ochterski, R. L. Martin, K. Morokuma, O. Farkas, 
 J. B. Foresman, and D. J. Fox, Gaussian, Inc., Wallingford CT, 2016.
 
 ******************************************
 Gaussian 16:  ES64L-G16RevA.03 25-Dec-2016
                 1-Jun-2021 
 ******************************************
 %chk=CNCpCppCpNCN.chk
 %NProcShared=20
 Will use up to   20 processors via shared memory.
 -----------------------------
 # opt freq b3lyp/6-31g(2df,p)
 -----------------------------
 1/18=20,19=15,26=3,38=1/1,3;
 2/9=110,12=2,17=6,18=5,40=1/2;
 3/5=1,6=6,7=104,11=2,25=1,30=1,71=1,74=-5/1,2,3;
 4//1;
 5/5=2,38=5/2;
 6/7=2,8=2,9=2,10=2,28=1/1;
 7//1,2,3,16;
 1/18=20,19=15,26=3/3(2);
 2/9=110/2;
 99//99;
 2/9=110/2;
 3/5=1,6=6,7=104,11=2,25=1,30=1,71=1,74=-5/1,2,3;
 4/5=5,16=3,69=1/1;
 5/5=2,38=5/2;
 7//1,2,3,16;
 1/18=20,19=15,26=3/3(-5);
 2/9=110/2;
 6/7=2,8=2,9=2,10=2,19=2,28=1/1;
 99/9=1/99;
 -------------------
 Title Card Required
 -------------------
 Symbolic Z-matrix:
 Charge =  0 Multiplicity = 1
 C                     1.02694  -0.05486  -0.0727 
 N                     2.47951   0.14362  -0.06653 
 C                     2.90425   1.54826  -0.02443 
 C                     2.38994   2.28734  -1.27591 
 C                     2.3893    2.19386   1.27625 
 N                     4.3761    1.5248   -0.0004 
 C                     4.96416   2.8476    0.02401 
 N                     6.39288   2.67739  -0.01506 
 H                     0.79048  -1.12256  -0.10546 
 H                     0.54493   0.39672  -0.9451 
 H                     0.54904   0.33405   0.8309 
 H                     2.87467  -0.30353  -0.88705 
 H                     1.29777   2.31396  -1.32023 
 H                     2.75514   1.81027  -2.19439 
 H                     2.69748   3.33607  -1.29556 
 H                     1.29765   2.22147   1.32407 
 H                     2.70378   3.23616   1.37628 
 H                     2.7528    1.64733   2.15703 
 H                     4.73023   1.04964  -0.82032 
 H                     4.71349   3.39495   0.93402 
 H                     4.68474   3.4486   -0.84196 
 H                     6.66372   2.19592   0.83794 
 H                     6.80972   3.60836   0.05454 
 

 GradGradGradGradGradGradGradGradGradGradGradGradGradGradGradGradGradGrad
 Berny optimization.
 Initialization pass.
                           ----------------------------
                           !    Initial Parameters    !
                           ! (Angstroms and Degrees)  !
 --------------------------                            --------------------------
 ! Name  Definition              Value          Derivative Info.                !
 --------------------------------------------------------------------------------
 ! R1    R(1,2)                  1.4661         estimate D2E/DX2                !
 ! R2    R(1,9)                  1.0941         estimate D2E/DX2                !
 ! R3    R(1,10)                 1.0942         estimate D2E/DX2                !
 ! R4    R(1,11)                 1.0937         estimate D2E/DX2                !
 ! R5    R(2,3)                  1.4681         estimate D2E/DX2                !
 ! R6    R(2,12)                 1.0146         estimate D2E/DX2                !
 ! R7    R(3,4)                  1.5417         estimate D2E/DX2                !
 ! R8    R(3,5)                  1.5407         estimate D2E/DX2                !
 ! R9    R(3,6)                  1.4722         estimate D2E/DX2                !
 ! R10   R(4,13)                 1.0934         estimate D2E/DX2                !
 ! R11   R(4,14)                 1.0975         estimate D2E/DX2                !
 ! R12   R(4,15)                 1.0931         estimate D2E/DX2                !
 ! R13   R(5,16)                 1.093          estimate D2E/DX2                !
 ! R14   R(5,17)                 1.0933         estimate D2E/DX2                !
 ! R15   R(5,18)                 1.0985         estimate D2E/DX2                !
 ! R16   R(6,7)                  1.4478         estimate D2E/DX2                !
 ! R17   R(6,19)                 1.0117         estimate D2E/DX2                !
 ! R18   R(7,8)                  1.4394         estimate D2E/DX2                !
 ! R19   R(7,20)                 1.0911         estimate D2E/DX2                !
 ! R20   R(7,21)                 1.0905         estimate D2E/DX2                !
 ! R21   R(8,22)                 1.0163         estimate D2E/DX2                !
 ! R22   R(8,23)                 1.0224         estimate D2E/DX2                !
 ! A1    A(2,1,9)              110.2663         estimate D2E/DX2                !
 ! A2    A(2,1,10)             112.5771         estimate D2E/DX2                !
 ! A3    A(2,1,11)             112.4155         estimate D2E/DX2                !
 ! A4    A(9,1,10)             106.4793         estimate D2E/DX2                !
 ! A5    A(9,1,11)             106.1008         estimate D2E/DX2                !
 ! A6    A(10,1,11)            108.631          estimate D2E/DX2                !
 ! A7    A(1,2,3)              114.6018         estimate D2E/DX2                !
 ! A8    A(1,2,12)             108.834          estimate D2E/DX2                !
 ! A9    A(3,2,12)             109.4022         estimate D2E/DX2                !
 ! A10   A(2,3,4)              109.8086         estimate D2E/DX2                !
 ! A11   A(2,3,5)              109.1741         estimate D2E/DX2                !
 ! A12   A(2,3,6)              105.9303         estimate D2E/DX2                !
 ! A13   A(4,3,5)              111.8949         estimate D2E/DX2                !
 ! A14   A(4,3,6)              110.7562         estimate D2E/DX2                !
 ! A15   A(5,3,6)              109.0894         estimate D2E/DX2                !
 ! A16   A(3,4,13)             112.197          estimate D2E/DX2                !
 ! A17   A(3,4,14)             111.096          estimate D2E/DX2                !
 ! A18   A(3,4,15)             112.3752         estimate D2E/DX2                !
 ! A19   A(13,4,14)            108.0011         estimate D2E/DX2                !
 ! A20   A(13,4,15)            104.8893         estimate D2E/DX2                !
 ! A21   A(14,4,15)            107.9616         estimate D2E/DX2                !
 ! A22   A(3,5,16)             112.4157         estimate D2E/DX2                !
 ! A23   A(3,5,17)             112.3701         estimate D2E/DX2                !
 ! A24   A(3,5,18)             110.9671         estimate D2E/DX2                !
 ! A25   A(16,5,17)            105.0222         estimate D2E/DX2                !
 ! A26   A(16,5,18)            107.9379         estimate D2E/DX2                !
 ! A27   A(17,5,18)            107.8055         estimate D2E/DX2                !
 ! A28   A(3,6,7)              113.0651         estimate D2E/DX2                !
 ! A29   A(3,6,19)             110.1338         estimate D2E/DX2                !
 ! A30   A(7,6,19)             107.4942         estimate D2E/DX2                !
 ! A31   A(6,7,8)              107.1375         estimate D2E/DX2                !
 ! A32   A(6,7,20)             112.2761         estimate D2E/DX2                !
 ! A33   A(6,7,21)             112.7102         estimate D2E/DX2                !
 ! A34   A(8,7,20)             108.0591         estimate D2E/DX2                !
 ! A35   A(8,7,21)             107.3349         estimate D2E/DX2                !
 ! A36   A(20,7,21)            109.0846         estimate D2E/DX2                !
 ! A37   A(7,8,22)             107.3243         estimate D2E/DX2                !
 ! A38   A(7,8,23)             107.1676         estimate D2E/DX2                !
 ! A39   A(22,8,23)            105.4028         estimate D2E/DX2                !
 ! D1    D(9,1,2,3)            179.9569         estimate D2E/DX2                !
 ! D2    D(9,1,2,12)            57.1228         estimate D2E/DX2                !
 ! D3    D(10,1,2,3)            61.2052         estimate D2E/DX2                !
 ! D4    D(10,1,2,12)          -61.6289         estimate D2E/DX2                !
 ! D5    D(11,1,2,3)           -61.8724         estimate D2E/DX2                !
 ! D6    D(11,1,2,12)          175.2935         estimate D2E/DX2                !
 ! D7    D(1,2,3,4)            -61.3521         estimate D2E/DX2                !
 ! D8    D(1,2,3,5)             61.6649         estimate D2E/DX2                !
 ! D9    D(1,2,3,6)            179.0089         estimate D2E/DX2                !
 ! D10   D(12,2,3,4)            61.1749         estimate D2E/DX2                !
 ! D11   D(12,2,3,5)          -175.8081         estimate D2E/DX2                !
 ! D12   D(12,2,3,6)           -58.4641         estimate D2E/DX2                !
 ! D13   D(2,3,4,13)            63.0429         estimate D2E/DX2                !
 ! D14   D(2,3,4,14)           -57.9653         estimate D2E/DX2                !
 ! D15   D(2,3,4,15)          -179.0469         estimate D2E/DX2                !
 ! D16   D(5,3,4,13)           -58.356          estimate D2E/DX2                !
 ! D17   D(5,3,4,14)          -179.3642         estimate D2E/DX2                !
 ! D18   D(5,3,4,15)            59.5542         estimate D2E/DX2                !
 ! D19   D(6,3,4,13)           179.6896         estimate D2E/DX2                !
 ! D20   D(6,3,4,14)            58.6813         estimate D2E/DX2                !
 ! D21   D(6,3,4,15)           -62.4003         estimate D2E/DX2                !
 ! D22   D(2,3,5,16)           -63.5609         estimate D2E/DX2                !
 ! D23   D(2,3,5,17)           178.2126         estimate D2E/DX2                !
 ! D24   D(2,3,5,18)            57.4266         estimate D2E/DX2                !
 ! D25   D(4,3,5,16)            58.2034         estimate D2E/DX2                !
 ! D26   D(4,3,5,17)           -60.0232         estimate D2E/DX2                !
 ! D27   D(4,3,5,18)           179.1909         estimate D2E/DX2                !
 ! D28   D(6,3,5,16)          -178.8913         estimate D2E/DX2                !
 ! D29   D(6,3,5,17)            62.8821         estimate D2E/DX2                !
 ! D30   D(6,3,5,18)           -57.9038         estimate D2E/DX2                !
 ! D31   D(2,3,6,7)            179.2097         estimate D2E/DX2                !
 ! D32   D(2,3,6,19)            58.9377         estimate D2E/DX2                !
 ! D33   D(4,3,6,7)             60.194          estimate D2E/DX2                !
 ! D34   D(4,3,6,19)           -60.078          estimate D2E/DX2                !
 ! D35   D(5,3,6,7)            -63.3895         estimate D2E/DX2                !
 ! D36   D(5,3,6,19)           176.3384         estimate D2E/DX2                !
 ! D37   D(3,6,7,8)           -177.4688         estimate D2E/DX2                !
 ! D38   D(3,6,7,20)            64.0493         estimate D2E/DX2                !
 ! D39   D(3,6,7,21)           -59.6252         estimate D2E/DX2                !
 ! D40   D(19,6,7,8)           -55.7011         estimate D2E/DX2                !
 ! D41   D(19,6,7,20)         -174.183          estimate D2E/DX2                !
 ! D42   D(19,6,7,21)           62.1425         estimate D2E/DX2                !
 ! D43   D(6,7,8,22)           -64.1188         estimate D2E/DX2                !
 ! D44   D(6,7,8,23)          -176.9219         estimate D2E/DX2                !
 ! D45   D(20,7,8,22)           57.0647         estimate D2E/DX2                !
 ! D46   D(20,7,8,23)          -55.7384         estimate D2E/DX2                !
 ! D47   D(21,7,8,22)          174.5838         estimate D2E/DX2                !
 ! D48   D(21,7,8,23)           61.7807         estimate D2E/DX2                !
 --------------------------------------------------------------------------------
 Trust Radius=3.00D-01 FncErr=1.00D-07 GrdErr=1.00D-06 EigMax=2.50D+02 EigMin=1.00D-04
 Number of steps in this run=    119 maximum allowed number of steps=    138.
 GradGradGradGradGradGradGradGradGradGradGradGradGradGradGradGradGradGrad

                          Input orientation:                          
 ---------------------------------------------------------------------
 Center     Atomic      Atomic             Coordinates (Angstroms)
 Number     Number       Type             X           Y           Z
 ---------------------------------------------------------------------
      1          6           0        1.026940   -0.054860   -0.072700
      2          7           0        2.479510    0.143620   -0.066530
      3          6           0        2.904250    1.548260   -0.024430
      4          6           0        2.389940    2.287340   -1.275910
      5          6           0        2.389300    2.193860    1.276250
      6          7           0        4.376100    1.524800   -0.000400
      7          6           0        4.964160    2.847600    0.024010
      8          7           0        6.392880    2.677390   -0.015060
      9          1           0        0.790480   -1.122560   -0.105460
     10          1           0        0.544930    0.396720   -0.945100
     11          1           0        0.549040    0.334050    0.830900
     12          1           0        2.874670   -0.303530   -0.887050
     13          1           0        1.297770    2.313960   -1.320230
     14          1           0        2.755140    1.810270   -2.194390
     15          1           0        2.697480    3.336070   -1.295560
     16          1           0        1.297650    2.221470    1.324070
     17          1           0        2.703780    3.236160    1.376280
     18          1           0        2.752800    1.647330    2.157030
     19          1           0        4.730230    1.049640   -0.820320
     20          1           0        4.713490    3.394950    0.934020
     21          1           0        4.684740    3.448600   -0.841960
     22          1           0        6.663720    2.195920    0.837940
     23          1           0        6.809720    3.608360    0.054540
 ---------------------------------------------------------------------
                    Distance matrix (angstroms):
                    1          2          3          4          5
     1  C    0.000000
     2  N    1.466080   0.000000
     3  C    2.469133   1.468057   0.000000
     4  C    2.965027   2.462957   1.541738   0.000000
     5  C    2.955069   2.452484   1.540695   2.553871   0.000000
     6  N    3.703704   2.347144   1.472233   2.480569   2.454557
     7  C    4.892374   3.673308   2.435952   2.937736   2.936901
     8  N    6.021779   4.662307   3.666819   4.214903   4.234375
     9  H    1.094061   2.111291   3.407032   3.944064   3.932428
    10  H    1.094230   2.139753   2.782098   2.662319   3.400854
    11  H    1.093678   2.137372   2.784405   3.412170   2.654013
    12  H    2.034480   1.014568   2.043065   2.664354   3.339522
    13  H    2.690908   2.771038   2.201402   1.093393   2.819144
    14  H    3.311639   2.716888   2.190801   1.097530   3.510886
    15  H    3.972971   3.427793   2.203359   1.093070   2.830870
    16  H    2.684386   2.765506   2.202913   2.820874   1.093046
    17  H    3.967638   3.419912   2.202540   2.834231   1.093295
    18  H    3.293591   2.698157   2.188954   3.510891   1.098454
    19  H    3.936142   2.540632   2.053355   2.686340   3.344368
    20  H    5.148332   4.069756   2.757216   3.392562   2.638484
    21  H    5.123036   4.048114   2.729431   2.608245   3.366041
    22  H    6.137472   4.747380   3.911107   4.768848   4.296834
    23  H    6.846599   5.547053   4.416214   4.801005   4.799323
                    6          7          8          9         10
     6  N    0.000000
     7  C    1.447829   0.000000
     8  N    2.322946   1.439354   0.000000
     9  H    4.458276   5.761817   6.770131   0.000000
    10  H    4.104009   5.145443   6.345467   1.753141   0.000000
    11  H    4.093328   5.144151   6.352744   1.748364   1.777110
    12  H    2.526506   3.889167   4.692979   2.371822   2.433394
    13  H    3.441052   3.941341   5.272162   3.680038   2.093633
    14  H    2.742735   3.298048   4.328340   4.101830   2.905835
    15  H    2.788531   2.667903   3.966046   4.993232   3.660064
    16  H    3.422926   3.940240   5.287958   3.671963   3.007563
    17  H    2.760553   2.662505   3.982149   4.985450   4.255803
    18  H    2.702706   3.298566   4.362245   4.079443   4.007733
    19  H    1.011659   2.000069   2.462198   4.555338   4.237760
    20  H    2.117648   1.091121   2.058154   6.072761   5.467849
    21  H    2.122378   1.090496   2.048480   6.050058   5.144185
    22  H    2.527137   1.993909   1.016256   6.811554   6.622382
    23  H    3.204176   1.996442   1.022402   7.657575   7.110661
                   11         12         13         14         15
    11  H    0.000000
    12  H    2.960813   0.000000
    13  H    3.017946   3.086343   0.000000
    14  H    4.024734   2.488288   1.772509   0.000000
    15  H    4.260252   3.666738   1.733351   1.771803   0.000000
    16  H    2.089495   3.708324   2.645917   3.830525   3.172431
    17  H    3.655487   4.204910   3.177811   3.845190   2.673715
    18  H    2.887886   3.617614   3.827903   4.354470   3.843863
    19  H    4.552027   2.297526   3.691910   2.523412   3.096076
    20  H    5.169370   4.514013   4.232886   4.016627   3.006458
    21  H    5.440854   4.166157   3.603847   2.869939   2.041475
    22  H    6.391864   4.855898   5.784898   4.961930   4.645732
    23  H    7.107739   5.627974   5.826410   4.972970   4.336753
                   16         17         18         19         20
    16  H    0.000000
    17  H    1.734798   0.000000
    18  H    1.772264   1.770976   0.000000
    19  H    4.213573   3.703029   3.623821   0.000000
    20  H    3.632789   2.063914   2.897281   2.928902   0.000000
    21  H    4.203560   2.981597   3.996362   2.399489   1.777023
    22  H    5.388106   4.129532   4.163682   2.793236   2.291354
    23  H    5.823924   4.329466   4.972394   3.411262   2.283245
                   21         22         23
    21  H    0.000000
    22  H    2.882296   0.000000
    23  H    2.311877   1.621733   0.000000
 Stoichiometry    C5H15N3
 Framework group  C1[X(C5H15N3)]
 Deg. of freedom    63
 Full point group                 C1      NOp   1
 Largest Abelian subgroup         C1      NOp   1
 Largest concise Abelian subgroup C1      NOp   1
                         Standard orientation:                         
 ---------------------------------------------------------------------
 Center     Atomic      Atomic             Coordinates (Angstroms)
 Number     Number       Type             X           Y           Z
 ---------------------------------------------------------------------
      1          6           0        2.857556   -0.365564   -0.282357
      2          7           0        1.479436   -0.800301   -0.529705
      3          6           0        0.449917    0.081784    0.033505
      4          6           0        0.596529    0.143289    1.567023
      5          6           0        0.569890    1.475818   -0.611490
      6          7           0       -0.842683   -0.513583   -0.343583
      7          6           0       -1.978267    0.233184    0.155414
      8          7           0       -3.162785   -0.487058   -0.231764
      9          1           0        3.563665   -1.071186   -0.730104
     10          1           0        3.098618   -0.319716    0.784004
     11          1           0        3.074942    0.607481   -0.731867
     12          1           0        1.360039   -1.737194   -0.159134
     13          1           0        1.552142    0.577289    1.873544
     14          1           0        0.520258   -0.857265    2.011597
     15          1           0       -0.162237    0.777682    2.032450
     16          1           0        1.522034    1.960906   -0.381577
     17          1           0       -0.195344    2.168396   -0.250873
     18          1           0        0.477597    1.412583   -1.704232
     19          1           0       -0.912769   -1.454193    0.022195
     20          1           0       -2.035782    1.234591   -0.274030
     21          1           0       -1.986108    0.310693    1.243123
     22          1           0       -3.202507   -0.480621   -1.247224
     23          1           0       -3.966075    0.066085    0.074932
 ---------------------------------------------------------------------
 Rotational constants (GHZ):           3.9818277           1.0723414           1.0600673
 Standard basis: 6-31G(2df,p) (6D, 7F)
 There are   323 symmetry adapted cartesian basis functions of A   symmetry.
 There are   299 symmetry adapted basis functions of A   symmetry.
   299 basis functions,   457 primitive gaussians,   323 cartesian basis functions
    33 alpha electrons       33 beta electrons
       nuclear repulsion energy       427.3448759768 Hartrees.
 NAtoms=   23 NActive=   23 NUniq=   23 SFac= 1.00D+00 NAtFMM=   60 NAOKFM=F Big=F
 Integral buffers will be    131072 words long.
 Raffenetti 2 integral format.
 Two-electron integral symmetry is turned on.
 One-electron integrals computed using PRISM.
 PrsmSu:  requested number of processors reduced to:  13 ShMem   1 Linda.
 NBasis=   299 RedAO= T EigKep=  2.57D-04  NBF=   299
 NBsUse=   299 1.00D-06 EigRej= -1.00D+00 NBFU=   299
 ExpMin= 1.61D-01 ExpMax= 4.17D+03 ExpMxC= 6.27D+02 IAcc=3 IRadAn=         5 AccDes= 0.00D+00
 Harris functional with IExCor=  402 and IRadAn=       5 diagonalized for initial guess.
 HarFok:  IExCor=  402 AccDes= 0.00D+00 IRadAn=         5 IDoV= 1 UseB2=F ITyADJ=14
 ICtDFT=  3500011 ScaDFX=  1.000000  1.000000  1.000000  1.000000
 FoFCou: FMM=F IPFlag=           0 FMFlag=      100000 FMFlg1=           0
         NFxFlg=           0 DoJE=T BraDBF=F KetDBF=T FulRan=T
         wScrn=  0.000000 ICntrl=       500 IOpCl=  0 I1Cent=   200000004 NGrid=           0
         NMat0=    1 NMatS0=      1 NMatT0=    0 NMatD0=    1 NMtDS0=    0 NMtDT0=    0
 Petite list used in FoFCou.
 Requested convergence on RMS density matrix=1.00D-08 within 128 cycles.
 Requested convergence on MAX density matrix=1.00D-06.
 Requested convergence on             energy=1.00D-06.
 No special actions if energy rises.
 Integral accuracy reduced to 1.0D-05 until final iterations.
 Initial convergence to 1.0D-05 achieved.  Increase integral accuracy.
 SCF Done:  E(RB3LYP) =  -363.814298584     A.U. after   12 cycles
            NFock= 12  Conv=0.37D-08     -V/T= 2.0076

 **********************************************************************

            Population analysis using the SCF density.

 **********************************************************************

 Orbital symmetries:
       Occupied  (A) (A) (A) (A) (A) (A) (A) (A) (A) (A) (A) (A)
                 (A) (A) (A) (A) (A) (A) (A) (A) (A) (A) (A) (A)
                 (A) (A) (A) (A) (A) (A) (A) (A) (A)
       Virtual   (A) (A) (A) (A) (A) (A) (A) (A) (A) (A) (A) (A)
                 (A) (A) (A) (A) (A) (A) (A) (A) (A) (A) (A) (A)
                 (A) (A) (A) (A) (A) (A) (A) (A) (A) (A) (A) (A)
                 (A) (A) (A) (A) (A) (A) (A) (A) (A) (A) (A) (A)
                 (A) (A) (A) (A) (A) (A) (A) (A) (A) (A) (A) (A)
                 (A) (A) (A) (A) (A) (A) (A) (A) (A) (A) (A) (A)
                 (A) (A) (A) (A) (A) (A) (A) (A) (A) (A) (A) (A)
                 (A) (A) (A) (A) (A) (A) (A) (A) (A) (A) (A) (A)
                 (A) (A) (A) (A) (A) (A) (A) (A) (A) (A) (A) (A)
                 (A) (A) (A) (A) (A) (A) (A) (A) (A) (A) (A) (A)
                 (A) (A) (A) (A) (A) (A) (A) (A) (A) (A) (A) (A)
                 (A) (A) (A) (A) (A) (A) (A) (A) (A) (A) (A) (A)
                 (A) (A) (A) (A) (A) (A) (A) (A) (A) (A) (A) (A)
                 (A) (A) (A) (A) (A) (A) (A) (A) (A) (A) (A) (A)
                 (A) (A) (A) (A) (A) (A) (A) (A) (A) (A) (A) (A)
                 (A) (A) (A) (A) (A) (A) (A) (A) (A) (A) (A) (A)
                 (A) (A) (A) (A) (A) (A) (A) (A) (A) (A) (A) (A)
                 (A) (A) (A) (A) (A) (A) (A) (A) (A) (A) (A) (A)
                 (A) (A) (A) (A) (A) (A) (A) (A) (A) (A) (A) (A)
                 (A) (A) (A) (A) (A) (A) (A) (A) (A) (A) (A) (A)
                 (A) (A) (A) (A) (A) (A) (A) (A) (A) (A) (A) (A)
                 (A) (A) (A) (A) (A) (A) (A) (A) (A) (A) (A) (A)
                 (A) (A)
 The electronic state is 1-A.
 Alpha  occ. eigenvalues --  -14.30387 -14.30219 -14.30066 -10.23704 -10.21645
 Alpha  occ. eigenvalues --  -10.19347 -10.16794 -10.16645  -0.93607  -0.89111
 Alpha  occ. eigenvalues --   -0.83416  -0.73614  -0.68759  -0.67016  -0.62144
 Alpha  occ. eigenvalues --   -0.55606  -0.50443  -0.49748  -0.45196  -0.45100
 Alpha  occ. eigenvalues --   -0.42685  -0.41933  -0.40798  -0.39707  -0.39069
 Alpha  occ. eigenvalues --   -0.37434  -0.36143  -0.35023  -0.34660  -0.33619
 Alpha  occ. eigenvalues --   -0.23699  -0.22192  -0.20949
 Alpha virt. eigenvalues --    0.07554   0.08870   0.10990   0.12420   0.12818
 Alpha virt. eigenvalues --    0.14026   0.14926   0.16090   0.16705   0.17267
 Alpha virt. eigenvalues --    0.17879   0.19350   0.19854   0.21329   0.22754
 Alpha virt. eigenvalues --    0.23201   0.23760   0.24684   0.25345   0.27888
 Alpha virt. eigenvalues --    0.28252   0.33449   0.42031   0.47626   0.48580
 Alpha virt. eigenvalues --    0.49166   0.50222   0.51343   0.52952   0.53538
 Alpha virt. eigenvalues --    0.56988   0.57469   0.57765   0.59617   0.62163
 Alpha virt. eigenvalues --    0.63828   0.65936   0.66505   0.68467   0.69943
 Alpha virt. eigenvalues --    0.70361   0.72237   0.73581   0.73748   0.74273
 Alpha virt. eigenvalues --    0.74910   0.75026   0.76110   0.76690   0.78078
 Alpha virt. eigenvalues --    0.78791   0.80820   0.81859   0.82724   0.84463
 Alpha virt. eigenvalues --    0.85927   0.87000   0.87469   0.88048   0.89924
 Alpha virt. eigenvalues --    0.91893   0.93170   0.94367   0.96215   0.98703
 Alpha virt. eigenvalues --    1.03652   1.09846   1.12251   1.15639   1.18654
 Alpha virt. eigenvalues --    1.20376   1.25958   1.27734   1.28550   1.31207
 Alpha virt. eigenvalues --    1.35565   1.36449   1.38884   1.39376   1.42377
 Alpha virt. eigenvalues --    1.43149   1.46204   1.48059   1.51480   1.52528
 Alpha virt. eigenvalues --    1.52687   1.55796   1.56146   1.58611   1.58990
 Alpha virt. eigenvalues --    1.62999   1.68373   1.69711   1.71205   1.74744
 Alpha virt. eigenvalues --    1.75309   1.80484   1.83770   1.86190   1.87238
 Alpha virt. eigenvalues --    1.89715   1.91378   1.93807   1.96896   1.98633
 Alpha virt. eigenvalues --    1.98900   1.99259   2.02471   2.04220   2.09467
 Alpha virt. eigenvalues --    2.09645   2.11212   2.21911   2.26614   2.28584
 Alpha virt. eigenvalues --    2.29934   2.31934   2.33549   2.34486   2.36655
 Alpha virt. eigenvalues --    2.42035   2.44207   2.47262   2.48414   2.51593
 Alpha virt. eigenvalues --    2.52819   2.56524   2.57528   2.60113   2.63394
 Alpha virt. eigenvalues --    2.71964   2.72995   2.74132   2.76356   2.81719
 Alpha virt. eigenvalues --    2.82534   2.83646   2.86735   2.87444   2.88471
 Alpha virt. eigenvalues --    2.90657   2.91127   2.91697   2.92876   2.93882
 Alpha virt. eigenvalues --    2.94939   2.98084   2.98177   2.99438   3.02546
 Alpha virt. eigenvalues --    3.03684   3.06737   3.08543   3.09103   3.12504
 Alpha virt. eigenvalues --    3.14018   3.15312   3.20955   3.21850   3.26143
 Alpha virt. eigenvalues --    3.29780   3.31544   3.34858   3.35163   3.38486
 Alpha virt. eigenvalues --    3.42055   3.43325   3.44225   3.47383   3.47914
 Alpha virt. eigenvalues --    3.52509   3.54714   3.55698   3.59535   3.61096
 Alpha virt. eigenvalues --    3.64611   3.64970   3.67131   3.76945   3.81953
 Alpha virt. eigenvalues --    3.84007   3.86594   3.92831   3.94283   3.95283
 Alpha virt. eigenvalues --    3.96217   4.01164   4.02812   4.05348   4.12759
 Alpha virt. eigenvalues --    4.16660   4.17822   4.20592   4.23843   4.24652
 Alpha virt. eigenvalues --    4.25422   4.28469   4.33226   4.35006   4.36489
 Alpha virt. eigenvalues --    4.38882   4.40640   4.41842   4.42925   4.43597
 Alpha virt. eigenvalues --    4.46262   4.46546   4.48400   4.50231   4.53144
 Alpha virt. eigenvalues --    4.55779   4.56185   4.56901   4.61791   4.62030
 Alpha virt. eigenvalues --    4.63250   4.65590   4.66306   4.68512   4.70428
 Alpha virt. eigenvalues --    4.72927   4.74159   4.75784   4.76455   4.76687
 Alpha virt. eigenvalues --    4.77319   4.81176   4.82795   4.86159   4.89218
 Alpha virt. eigenvalues --    4.90968   4.93314   4.94277   4.95997   4.97280
 Alpha virt. eigenvalues --    4.98940   5.02478   5.05640   5.08673   5.11338
 Alpha virt. eigenvalues --    5.13330   5.16821   5.21249   5.26852   5.28113
 Alpha virt. eigenvalues --    5.31158   5.36161   5.44530   5.45364   5.53529
 Alpha virt. eigenvalues --    5.56003   5.68726   5.70069   5.72889   5.91360
 Alpha virt. eigenvalues --    9.45484  11.02814  11.18373  11.42611  11.47353
 Alpha virt. eigenvalues --   11.51101  11.73320  12.01072  12.46850  14.17160
 Alpha virt. eigenvalues --   17.56384
          Condensed to atoms (all electrons):
               1          2          3          4          5          6
     1  C    4.949745   0.373314  -0.070139   0.000837  -0.012030   0.003213
     2  N    0.373314   6.397396   0.421148  -0.086473  -0.022332  -0.027300
     3  C   -0.070139   0.421148   4.467245   0.393583   0.346107   0.401968
     4  C    0.000837  -0.086473   0.393583   5.218886  -0.088708  -0.078906
     5  C   -0.012030  -0.022332   0.346107  -0.088708   5.098976  -0.020287
     6  N    0.003213  -0.027300   0.401968  -0.078906  -0.020287   6.438327
     7  C   -0.000333   0.003073  -0.068519   0.000763  -0.011953   0.367278
     8  N    0.000001  -0.000029   0.002019   0.000271   0.000505  -0.049107
     9  H    0.380614  -0.021238   0.002814   0.000163   0.000346  -0.000090
    10  H    0.362113  -0.046574   0.002452   0.003198  -0.001218  -0.000072
    11  H    0.384229  -0.022874  -0.006329  -0.001109   0.002440   0.000149
    12  H   -0.044405   0.339314  -0.050994  -0.007981   0.008004  -0.000638
    13  H   -0.002223  -0.003608  -0.013937   0.355539  -0.001825   0.004611
    14  H    0.000042  -0.001089  -0.015688   0.353375   0.005492  -0.001039
    15  H    0.000150   0.005190  -0.013121   0.352212  -0.001479  -0.002559
    16  H    0.000780  -0.005261  -0.019015  -0.001240   0.366292   0.002253
    17  H    0.000045   0.002389  -0.018352  -0.001313   0.366612  -0.005756
    18  H    0.000889   0.000103  -0.009105   0.006096   0.357135   0.000211
    19  H   -0.000210  -0.000880  -0.045419  -0.007950   0.007580   0.327765
    20  H   -0.000003   0.000193  -0.003590  -0.001844   0.000234  -0.034875
    21  H    0.000033  -0.000162  -0.000574   0.005177  -0.000965  -0.036664
    22  H    0.000000  -0.000011   0.000206   0.000051  -0.000074   0.010165
    23  H   -0.000000   0.000001  -0.000341   0.000047   0.000010   0.005183
               7          8          9         10         11         12
     1  C   -0.000333   0.000001   0.380614   0.362113   0.384229  -0.044405
     2  N    0.003073  -0.000029  -0.021238  -0.046574  -0.022874   0.339314
     3  C   -0.068519   0.002019   0.002814   0.002452  -0.006329  -0.050994
     4  C    0.000763   0.000271   0.000163   0.003198  -0.001109  -0.007981
     5  C   -0.011953   0.000505   0.000346  -0.001218   0.002440   0.008004
     6  N    0.367278  -0.049107  -0.000090  -0.000072   0.000149  -0.000638
     7  C    4.842596   0.393185   0.000001   0.000040  -0.000005  -0.000346
     8  N    0.393185   6.552214  -0.000000   0.000000   0.000000  -0.000001
     9  H    0.000001  -0.000000   0.595174  -0.041589  -0.029095  -0.002694
    10  H    0.000040   0.000000  -0.041589   0.672209  -0.046870  -0.005396
    11  H   -0.000005   0.000000  -0.029095  -0.046870   0.582429   0.005759
    12  H   -0.000346  -0.000001  -0.002694  -0.005396   0.005759   0.541671
    13  H    0.000221  -0.000003  -0.000061   0.005044   0.000365   0.000044
    14  H    0.000103  -0.000045  -0.000042   0.000270   0.000063   0.004896
    15  H   -0.004205   0.000072   0.000002  -0.000767   0.000025  -0.000019
    16  H   -0.000057  -0.000007  -0.000044   0.000339   0.002875  -0.000026
    17  H    0.000556  -0.000115  -0.000004   0.000012  -0.000215  -0.000210
    18  H    0.000922  -0.000046  -0.000070   0.000185   0.000345  -0.000163
    19  H   -0.046541   0.010581  -0.000009   0.000008   0.000010   0.006480
    20  H    0.383818  -0.038069   0.000000   0.000000  -0.000001   0.000004
    21  H    0.337503  -0.028718   0.000000  -0.000005   0.000000   0.000003
    22  H   -0.060477   0.336027   0.000000  -0.000000   0.000000   0.000002
    23  H   -0.051367   0.335051   0.000000   0.000000  -0.000000   0.000000
              13         14         15         16         17         18
     1  C   -0.002223   0.000042   0.000150   0.000780   0.000045   0.000889
     2  N   -0.003608  -0.001089   0.005190  -0.005261   0.002389   0.000103
     3  C   -0.013937  -0.015688  -0.013121  -0.019015  -0.018352  -0.009105
     4  C    0.355539   0.353375   0.352212  -0.001240  -0.001313   0.006096
     5  C   -0.001825   0.005492  -0.001479   0.366292   0.366612   0.357135
     6  N    0.004611  -0.001039  -0.002559   0.002253  -0.005756   0.000211
     7  C    0.000221   0.000103  -0.004205  -0.000057   0.000556   0.000922
     8  N   -0.000003  -0.000045   0.000072  -0.000007  -0.000115  -0.000046
     9  H   -0.000061  -0.000042   0.000002  -0.000044  -0.000004  -0.000070
    10  H    0.005044   0.000270  -0.000767   0.000339   0.000012   0.000185
    11  H    0.000365   0.000063   0.000025   0.002875  -0.000215   0.000345
    12  H    0.000044   0.004896  -0.000019  -0.000026  -0.000210  -0.000163
    13  H    0.605588  -0.031492  -0.031965   0.001606   0.000196  -0.000123
    14  H   -0.031492   0.613013  -0.031339  -0.000035  -0.000036  -0.000197
    15  H   -0.031965  -0.031339   0.608715   0.000212   0.001399  -0.000155
    16  H    0.001606  -0.000035   0.000212   0.600027  -0.029460  -0.031556
    17  H    0.000196  -0.000036   0.001399  -0.029460   0.596994  -0.031686
    18  H   -0.000123  -0.000197  -0.000155  -0.031556  -0.031686   0.577150
    19  H   -0.000053   0.004313   0.000043  -0.000166   0.000035  -0.000157
    20  H    0.000010   0.000064   0.000402  -0.000065   0.004685   0.000236
    21  H   -0.000755   0.000345   0.003883  -0.000017  -0.000089   0.000188
    22  H   -0.000000  -0.000001  -0.000000  -0.000001  -0.000032   0.000063
    23  H   -0.000001   0.000000  -0.000003  -0.000000  -0.000017   0.000005
              19         20         21         22         23
     1  C   -0.000210  -0.000003   0.000033   0.000000  -0.000000
     2  N   -0.000880   0.000193  -0.000162  -0.000011   0.000001
     3  C   -0.045419  -0.003590  -0.000574   0.000206  -0.000341
     4  C   -0.007950  -0.001844   0.005177   0.000051   0.000047
     5  C    0.007580   0.000234  -0.000965  -0.000074   0.000010
     6  N    0.327765  -0.034875  -0.036664   0.010165   0.005183
     7  C   -0.046541   0.383818   0.337503  -0.060477  -0.051367
     8  N    0.010581  -0.038069  -0.028718   0.336027   0.335051
     9  H   -0.000009   0.000000   0.000000   0.000000   0.000000
    10  H    0.000008   0.000000  -0.000005  -0.000000   0.000000
    11  H    0.000010  -0.000001   0.000000   0.000000  -0.000000
    12  H    0.006480   0.000004   0.000003   0.000002   0.000000
    13  H   -0.000053   0.000010  -0.000755  -0.000000  -0.000001
    14  H    0.004313   0.000064   0.000345  -0.000001   0.000000
    15  H    0.000043   0.000402   0.003883  -0.000000  -0.000003
    16  H   -0.000166  -0.000065  -0.000017  -0.000001  -0.000000
    17  H    0.000035   0.004685  -0.000089  -0.000032  -0.000017
    18  H   -0.000157   0.000236   0.000188   0.000063   0.000005
    19  H    0.536210   0.008265  -0.007834  -0.001275  -0.000439
    20  H    0.008265   0.669683  -0.064738  -0.008907  -0.004497
    21  H   -0.007834  -0.064738   0.702610   0.009352   0.000866
    22  H   -0.001275  -0.008907   0.009352   0.518011  -0.028161
    23  H   -0.000439  -0.004497   0.000866  -0.028161   0.525897
 Mulliken charges:
               1
     1  C   -0.326662
     2  N   -0.304291
     3  C    0.297580
     4  C   -0.414676
     5  C   -0.398864
     6  N   -0.303831
     7  C   -0.086256
     8  N   -0.513784
     9  H    0.115820
    10  H    0.096620
    11  H    0.127810
    12  H    0.206696
    13  H    0.112823
    14  H    0.099026
    15  H    0.113304
    16  H    0.112567
    17  H    0.114359
    18  H    0.129732
    19  H    0.209640
    20  H    0.088996
    21  H    0.080561
    22  H    0.225062
    23  H    0.217768
 Sum of Mulliken charges =  -0.00000
 Mulliken charges with hydrogens summed into heavy atoms:
               1
     1  C    0.013589
     2  N   -0.097595
     3  C    0.297580
     4  C   -0.089523
     5  C   -0.042206
     6  N   -0.094191
     7  C    0.083301
     8  N   -0.070955
 Electronic spatial extent (au):  <R**2>=           1276.2120
 Charge=             -0.0000 electrons
 Dipole moment (field-independent basis, Debye):
    X=              0.0901    Y=              1.0153    Z=              1.1004  Tot=              1.5000
 Quadrupole moment (field-independent basis, Debye-Ang):
   XX=            -48.3041   YY=            -50.6110   ZZ=            -54.0559
   XY=             -4.6079   XZ=              1.8785   YZ=             -1.6371
 Traceless Quadrupole moment (field-independent basis, Debye-Ang):
   XX=              2.6862   YY=              0.3793   ZZ=             -3.0656
   XY=             -4.6079   XZ=              1.8785   YZ=             -1.6371
 Octapole moment (field-independent basis, Debye-Ang**2):
  XXX=            -15.8832  YYY=             -9.0508  ZZZ=             -3.1129  XYY=              5.0405
  XXY=             13.4515  XXZ=             -7.4041  XZZ=             -7.8832  YZZ=              0.7999
  YYZ=              0.4123  XYZ=             -2.1737
 Hexadecapole moment (field-independent basis, Debye-Ang**3):
 XXXX=          -1083.8616 YYYY=           -243.8441 ZZZZ=           -252.3087 XXXY=            -56.5839
 XXXZ=             14.8427 YYYX=            -11.8609 YYYZ=              0.2446 ZZZX=              9.0468
 ZZZY=             -2.5490 XXYY=           -249.1411 XXZZ=           -227.0801 YYZZ=            -85.2287
 XXYZ=              5.6383 YYXZ=              0.5947 ZZXY=              3.5203
 N-N= 4.273448759768D+02 E-N=-1.699782467453D+03  KE= 3.610529717908D+02
 PrsmSu:  requested number of processors reduced to:  13 ShMem   1 Linda.
 Calling FoFJK, ICntrl=      2127 FMM=F ISym2X=0 I1Cent= 0 IOpClX= 0 NMat=1 NMatS=1 NMatT=0.
 ***** Axes restored to original set *****
 -------------------------------------------------------------------
 Center     Atomic                   Forces (Hartrees/Bohr)
 Number     Number              X              Y              Z
 -------------------------------------------------------------------
      1        6           0.002704550   -0.006711117   -0.004988087
      2        7          -0.007573289   -0.003778906    0.013370649
      3        6          -0.000387258   -0.004462119   -0.004998837
      4        6          -0.006135382    0.010531443   -0.001287473
      5        6          -0.001858136    0.002344646    0.004983013
      6        7          -0.011096876    0.006650700    0.013900762
      7        6           0.008769239   -0.003261157    0.000449281
      8        7           0.021279804    0.004448953   -0.002873279
      9        1           0.003604245   -0.001480417    0.000314556
     10        1          -0.006522198    0.002107897   -0.001250712
     11        1           0.003498181    0.000684310   -0.000639715
     12        1           0.000299343    0.000537778   -0.000667833
     13        1          -0.000510081   -0.001987040   -0.000191887
     14        1           0.000521822   -0.000425894    0.001716417
     15        1           0.001355557    0.000408697   -0.000679509
     16        1           0.000366913   -0.001919664   -0.002244699
     17        1           0.001273004   -0.001295690   -0.002321615
     18        1           0.000238250   -0.000223491   -0.004887173
     19        1           0.001673244   -0.001637022   -0.003926742
     20        1          -0.014059909   -0.001002421    0.002161341
     21        1          -0.001243281    0.007699185   -0.003353056
     22        1           0.001667052   -0.002185163   -0.000004760
     23        1           0.002135207   -0.005043507   -0.002580642
 -------------------------------------------------------------------
 Cartesian Forces:  Max     0.021279804 RMS     0.005324069

 GradGradGradGradGradGradGradGradGradGradGradGradGradGradGradGradGradGrad
 Berny optimization.
 FormGI is forming the generalized inverse of G from B-inverse, IUseBI=4.
 Internal  Forces:  Max     0.033470025 RMS     0.005989330
 Search for a local minimum.
 Step number   1 out of a maximum of  119
 All quantities printed in internal units (Hartrees-Bohrs-Radians)
 Mixed Optimization -- RFO/linear search
 Second derivative matrix not updated -- first step.
 ITU=  0
     Eigenvalues ---    0.00230   0.00230   0.00736   0.00792   0.00818
     Eigenvalues ---    0.01059   0.01171   0.02627   0.02885   0.04609
     Eigenvalues ---    0.05251   0.05254   0.05260   0.05270   0.05283
     Eigenvalues ---    0.05473   0.05938   0.06824   0.06850   0.06901
     Eigenvalues ---    0.07321   0.09384   0.11089   0.11372   0.12789
     Eigenvalues ---    0.15589   0.16000   0.16000   0.16000   0.16000
     Eigenvalues ---    0.16000   0.16000   0.16000   0.16000   0.16000
     Eigenvalues ---    0.16000   0.16000   0.16065   0.21949   0.23374
     Eigenvalues ---    0.23443   0.28366   0.28457   0.33854   0.33957
     Eigenvalues ---    0.34328   0.34348   0.34391   0.34423   0.34435
     Eigenvalues ---    0.34460   0.34463   0.34683   0.34755   0.35474
     Eigenvalues ---    0.35974   0.36213   0.38531   0.39674   0.43957
     Eigenvalues ---    0.44941   0.45216   0.45696
 RFO step:  Lambda=-1.73657962D-02 EMin= 2.30000000D-03
 Linear search not attempted -- first point.
 Iteration  1 RMS(Cart)=  0.14754092 RMS(Int)=  0.00646051
 Iteration  2 RMS(Cart)=  0.01736999 RMS(Int)=  0.00037081
 Iteration  3 RMS(Cart)=  0.00016087 RMS(Int)=  0.00036485
 Iteration  4 RMS(Cart)=  0.00000005 RMS(Int)=  0.00036485
 Variable       Old X    -DE/DX   Delta X   Delta X   Delta X     New X
                                 (Linear)    (Quad)   (Total)
    R1        2.77049  -0.00250   0.00000  -0.00658  -0.00658   2.76391
    R2        2.06748   0.00066   0.00000   0.00182   0.00182   2.06929
    R3        2.06780   0.00474   0.00000   0.01315   0.01315   2.08094
    R4        2.06675  -0.00181   0.00000  -0.00502  -0.00502   2.06173
    R5        2.77422   0.00925   0.00000   0.02452   0.02452   2.79874
    R6        1.91726   0.00042   0.00000   0.00089   0.00089   1.91815
    R7        2.91346   0.00604   0.00000   0.02006   0.02006   2.93352
    R8        2.91149  -0.00424   0.00000  -0.01404  -0.01404   2.89745
    R9        2.78212   0.00909   0.00000   0.02444   0.02444   2.80656
   R10        2.06621   0.00047   0.00000   0.00130   0.00130   2.06751
   R11        2.07403  -0.00108   0.00000  -0.00302  -0.00302   2.07101
   R12        2.06560   0.00079   0.00000   0.00217   0.00217   2.06777
   R13        2.06556  -0.00051   0.00000  -0.00142  -0.00142   2.06414
   R14        2.06603  -0.00108   0.00000  -0.00299  -0.00299   2.06304
   R15        2.07578  -0.00373   0.00000  -0.01048  -0.01048   2.06530
   R16        2.73600   0.00803   0.00000   0.01994   0.01994   2.75594
   R17        1.91176   0.00454   0.00000   0.00956   0.00956   1.92132
   R18        2.71998   0.02537   0.00000   0.06127   0.06127   2.78126
   R19        2.06192   0.00453   0.00000   0.01244   0.01244   2.07436
   R20        2.06074   0.00722   0.00000   0.01980   0.01980   2.08053
   R21        1.92045   0.00148   0.00000   0.00316   0.00316   1.92361
   R22        1.93206  -0.00390   0.00000  -0.00853  -0.00853   1.92353
    A1        1.92451  -0.00583   0.00000  -0.03380  -0.03421   1.89030
    A2        1.96484   0.00908   0.00000   0.05660   0.05692   2.02176
    A3        1.96202  -0.00558   0.00000  -0.03586  -0.03613   1.92589
    A4        1.85841   0.00049   0.00000   0.01144   0.01165   1.87006
    A5        1.85181   0.00347   0.00000   0.00903   0.00794   1.85975
    A6        1.89597  -0.00163   0.00000  -0.00755  -0.00718   1.88878
    A7        2.00018   0.02062   0.00000   0.08360   0.08359   2.08377
    A8        1.89951  -0.00599   0.00000  -0.01823  -0.01813   1.88138
    A9        1.90943  -0.00694   0.00000  -0.02601  -0.02615   1.88328
   A10        1.91652   0.00573   0.00000   0.04169   0.04206   1.95858
   A11        1.90545   0.00074   0.00000  -0.00568  -0.00581   1.89964
   A12        1.84883  -0.00731   0.00000  -0.05613  -0.05658   1.79225
   A13        1.95294  -0.00596   0.00000  -0.02216  -0.02221   1.93073
   A14        1.93306   0.00412   0.00000   0.03376   0.03421   1.96727
   A15        1.90397   0.00261   0.00000   0.00629   0.00594   1.90991
   A16        1.95821  -0.00067   0.00000  -0.00195  -0.00204   1.95616
   A17        1.93899  -0.00240   0.00000  -0.01830  -0.01835   1.92064
   A18        1.96132   0.00085   0.00000   0.00775   0.00772   1.96904
   A19        1.88498   0.00086   0.00000  -0.00055  -0.00067   1.88431
   A20        1.83066   0.00123   0.00000   0.01583   0.01577   1.84644
   A21        1.88429   0.00037   0.00000  -0.00116  -0.00115   1.88313
   A22        1.96202  -0.00262   0.00000  -0.01436  -0.01447   1.94755
   A23        1.96123  -0.00234   0.00000  -0.01194  -0.01202   1.94921
   A24        1.93674  -0.00333   0.00000  -0.02044  -0.02062   1.91613
   A25        1.83298   0.00312   0.00000   0.02064   0.02061   1.85359
   A26        1.88387   0.00292   0.00000   0.01417   0.01397   1.89784
   A27        1.88156   0.00298   0.00000   0.01610   0.01597   1.89753
   A28        1.97336   0.03347   0.00000   0.13740   0.13685   2.11021
   A29        1.92220  -0.00924   0.00000  -0.02552  -0.02631   1.89589
   A30        1.87613  -0.01034   0.00000  -0.02953  -0.03039   1.84574
   A31        1.86990  -0.00130   0.00000   0.00159   0.00179   1.87169
   A32        1.95959  -0.00946   0.00000  -0.07069  -0.07107   1.88852
   A33        1.96716   0.00462   0.00000   0.02228   0.02202   1.98919
   A34        1.88599   0.01213   0.00000   0.09446   0.09495   1.98094
   A35        1.87335  -0.00285   0.00000  -0.01268  -0.01271   1.86064
   A36        1.90389  -0.00235   0.00000  -0.02747  -0.02829   1.87560
   A37        1.87316   0.00243   0.00000   0.02091   0.02027   1.89344
   A38        1.87043   0.00743   0.00000   0.04909   0.04848   1.91891
   A39        1.83963  -0.00130   0.00000   0.01032   0.00897   1.84860
    D1        3.14084   0.00195   0.00000   0.01250   0.01204  -3.13030
    D2        0.99698   0.00112   0.00000   0.00173   0.00112   0.99810
    D3        1.06823  -0.00062   0.00000  -0.01583  -0.01580   1.05243
    D4       -1.07563  -0.00145   0.00000  -0.02659  -0.02673  -1.10236
    D5       -1.07988  -0.00113   0.00000  -0.02159  -0.02092  -1.10080
    D6        3.05945  -0.00196   0.00000  -0.03236  -0.03185   3.02760
    D7       -1.07080   0.00177   0.00000   0.01120   0.01092  -1.05987
    D8        1.07626  -0.00145   0.00000   0.00694   0.00675   1.08300
    D9        3.12429  -0.00196   0.00000  -0.01880  -0.01811   3.10619
   D10        1.06770   0.00325   0.00000   0.02671   0.02628   1.09398
   D11       -3.06843   0.00002   0.00000   0.02245   0.02211  -3.04632
   D12       -1.02039  -0.00049   0.00000  -0.00329  -0.00275  -1.02314
   D13        1.10031   0.00026   0.00000  -0.01003  -0.01044   1.08987
   D14       -1.01169   0.00131   0.00000   0.00499   0.00454  -1.00715
   D15       -3.12496   0.00196   0.00000   0.01413   0.01373  -3.11123
   D16       -1.01850  -0.00065   0.00000  -0.01684  -0.01685  -1.03535
   D17       -3.13050   0.00040   0.00000  -0.00182  -0.00187  -3.13237
   D18        1.03942   0.00104   0.00000   0.00732   0.00732   1.04673
   D19        3.13617  -0.00277   0.00000  -0.03344  -0.03298   3.10319
   D20        1.02418  -0.00172   0.00000  -0.01842  -0.01801   1.00618
   D21       -1.08909  -0.00108   0.00000  -0.00928  -0.00882  -1.09791
   D22       -1.10935  -0.00316   0.00000  -0.02542  -0.02564  -1.13498
   D23        3.11040  -0.00374   0.00000  -0.03377  -0.03391   3.07648
   D24        1.00228  -0.00360   0.00000  -0.03172  -0.03188   0.97040
   D25        1.01584   0.00066   0.00000   0.00874   0.00872   1.02456
   D26       -1.04760   0.00008   0.00000   0.00039   0.00044  -1.04716
   D27        3.12747   0.00022   0.00000   0.00244   0.00248   3.12995
   D28       -3.12224   0.00371   0.00000   0.04115   0.04125  -3.08099
   D29        1.09750   0.00313   0.00000   0.03280   0.03297   1.13047
   D30       -1.01061   0.00327   0.00000   0.03484   0.03501  -0.97560
   D31        3.12780   0.00334   0.00000   0.03262   0.03234  -3.12305
   D32        1.02866   0.00056   0.00000  -0.00405  -0.00462   1.02404
   D33        1.05058  -0.00139   0.00000  -0.00217  -0.00162   1.04897
   D34       -1.04856  -0.00417   0.00000  -0.03884  -0.03858  -1.08714
   D35       -1.10636   0.00159   0.00000  -0.00107  -0.00091  -1.10726
   D36        3.07769  -0.00119   0.00000  -0.03774  -0.03787   3.03982
   D37       -3.09741   0.00242   0.00000   0.01574   0.01535  -3.08207
   D38        1.11787  -0.00617   0.00000  -0.06030  -0.05983   1.05805
   D39       -1.04066   0.00073   0.00000   0.01392   0.01355  -1.02710
   D40       -0.97217   0.00483   0.00000   0.05023   0.05003  -0.92214
   D41       -3.04007  -0.00376   0.00000  -0.02580  -0.02514  -3.06521
   D42        1.08459   0.00314   0.00000   0.04841   0.04824   1.13283
   D43       -1.11908   0.00424   0.00000   0.03500   0.03520  -1.08388
   D44       -3.08787   0.00112   0.00000  -0.00957  -0.01012  -3.09799
   D45        0.99597  -0.00099   0.00000   0.00442   0.00488   1.00085
   D46       -0.97282  -0.00411   0.00000  -0.04015  -0.04044  -1.01326
   D47        3.04706   0.00106   0.00000   0.01473   0.01520   3.06226
   D48        1.07828  -0.00206   0.00000  -0.02983  -0.03012   1.04815
         Item               Value     Threshold  Converged?
 Maximum Force            0.033470     0.000450     NO 
 RMS     Force            0.005989     0.000300     NO 
 Maximum Displacement     0.487927     0.001800     NO 
 RMS     Displacement     0.158794     0.001200     NO 
 Predicted change in Energy=-9.532766D-03
 GradGradGradGradGradGradGradGradGradGradGradGradGradGradGradGradGradGrad

                          Input orientation:                          
 ---------------------------------------------------------------------
 Center     Atomic      Atomic             Coordinates (Angstroms)
 Number     Number       Type             X           Y           Z
 ---------------------------------------------------------------------
      1          6           0        1.082821   -0.194787   -0.052043
      2          7           0        2.487511    0.212697   -0.053352
      3          6           0        2.826076    1.654494   -0.046737
      4          6           0        2.273124    2.393049   -1.295168
      5          6           0        2.280296    2.285394    1.239728
      6          7           0        4.310415    1.640814    0.000874
      7          6           0        5.069964    2.885012    0.044781
      8          7           0        6.496819    2.526768    0.001481
      9          1           0        1.042132   -1.289037   -0.045850
     10          1           0        0.482997    0.147544   -0.909734
     11          1           0        0.591667    0.139760    0.862928
     12          1           0        2.931935   -0.208488   -0.862919
     13          1           0        1.180359    2.363613   -1.339957
     14          1           0        2.661470    1.928881   -2.208844
     15          1           0        2.543563    3.453127   -1.315458
     16          1           0        1.188734    2.258060    1.268997
     17          1           0        2.561053    3.337032    1.323802
     18          1           0        2.668384    1.748170    2.108766
     19          1           0        4.656673    1.134503   -0.809974
     20          1           0        4.782924    3.430145    0.953291
     21          1           0        4.886714    3.551440   -0.812208
     22          1           0        6.715167    1.970820    0.825756
     23          1           0        7.067920    3.366409    0.071781
 ---------------------------------------------------------------------
                    Distance matrix (angstroms):
                    1          2          3          4          5
     1  C    0.000000
     2  N    1.462600   0.000000
     3  C    2.541419   1.481030   0.000000
     4  C    3.107905   2.518333   1.552352   0.000000
     5  C    3.042026   2.451748   1.533265   2.537190   0.000000
     6  N    3.713435   2.316341   1.485165   2.529058   2.464066
     7  C    5.039033   3.717521   2.560778   3.140033   3.093491
     8  N    6.059795   4.629523   3.773267   4.420269   4.401203
     9  H    1.095024   2.084318   3.441923   4.078467   3.995287
    10  H    1.101186   2.180759   2.916451   2.897483   3.524326
    11  H    1.091021   2.106920   2.848595   3.544288   2.756300
    12  H    2.019141   1.015041   2.036680   2.718247   3.326440
    13  H    2.865946   2.826736   2.209899   1.094079   2.805486
    14  H    3.413780   2.760742   2.185656   1.095933   3.487842
    15  H    4.127622   3.477993   2.219131   1.094219   2.821681
    16  H    2.787979   2.760242   2.185483   2.787304   1.092296
    17  H    4.068399   3.415177   2.186218   2.798751   1.091712
    18  H    3.310316   2.658035   2.163293   3.486956   1.092909
    19  H    3.887659   2.475372   2.050367   2.738733   3.342603
    20  H    5.276514   4.078507   2.825287   3.525653   2.766884
    21  H    5.392743   4.180819   2.903546   2.899306   3.550595
    22  H    6.097845   4.662286   3.998292   4.940480   4.465245
    23  H    6.965548   5.562527   4.575799   5.079965   5.045199
                    6          7          8          9         10
     6  N    0.000000
     7  C    1.458379   0.000000
     8  N    2.359084   1.471777   0.000000
     9  H    4.389520   5.801235   6.657043   0.000000
    10  H    4.208110   5.426334   6.531239   1.767114   0.000000
    11  H    4.101876   5.316100   6.427342   1.752216   1.776006
    12  H    2.462979   3.868440   4.575720   2.325197   2.475126
    13  H    3.481022   4.161537   5.485511   3.877586   2.362704
    14  H    2.772158   3.434219   4.466868   4.201880   3.099451
    15  H    2.852888   2.925014   4.268572   5.133646   3.916302
    16  H    3.425495   4.117732   5.463933   3.785791   3.114356
    17  H    2.772645   2.852167   4.230286   5.058022   4.413596
    18  H    2.674135   3.364526   4.438895   4.063458   4.055769
    19  H    1.016720   1.991406   2.446017   4.418409   4.289943
    20  H    2.081362   1.097704   2.158581   6.104301   5.721512
    21  H    2.154928   1.100971   2.074724   6.228831   5.566754
    22  H    2.563624   2.037734   1.017930   6.600735   6.721325
    23  H    3.253696   2.055310   1.017888   7.615585   7.394976
                   11         12         13         14         15
    11  H    0.000000
    12  H    2.928597   0.000000
    13  H    3.185087   3.148220   0.000000
    14  H    4.113493   2.540278   1.771340   0.000000
    15  H    4.419690   3.709858   1.745270   1.770696   0.000000
    16  H    2.237985   3.696982   2.611102   3.791133   3.153277
    17  H    3.783310   4.182107   3.154278   3.804282   2.641870
    18  H    2.907206   3.567756   3.806138   4.321396   3.827240
    19  H    4.506926   2.186584   3.725098   2.562950   3.177541
    20  H    5.329299   4.468158   4.401699   4.093099   3.187866
    21  H    5.735248   4.238018   3.927661   3.087880   2.398601
    22  H    6.391512   4.681224   5.956400   5.063894   4.917755
    23  H    7.278669   5.546163   6.136936   5.165708   4.733049
                   16         17         18         19         20
    16  H    0.000000
    17  H    1.746551   0.000000
    18  H    1.776109   1.775436   0.000000
    19  H    4.196558   3.714264   3.584540   0.000000
    20  H    3.793633   2.254475   2.938612   2.897415   0.000000
    21  H    4.436136   3.164997   4.087158   2.427861   1.772702
    22  H    5.551615   4.401279   4.251135   2.759065   2.424760
    23  H    6.101359   4.677635   5.111157   3.401913   2.449965
                   21         22         23
    21  H    0.000000
    22  H    2.919679   0.000000
    23  H    2.360790   1.624986   0.000000
 Stoichiometry    C5H15N3
 Framework group  C1[X(C5H15N3)]
 Deg. of freedom    63
 Full point group                 C1      NOp   1
 Largest Abelian subgroup         C1      NOp   1
 Largest concise Abelian subgroup C1      NOp   1
                         Standard orientation:                         
 ---------------------------------------------------------------------
 Center     Atomic      Atomic             Coordinates (Angstroms)
 Number     Number       Type             X           Y           Z
 ---------------------------------------------------------------------
      1          6           0        2.860311   -0.694500   -0.054050
      2          7           0        1.421488   -0.953880   -0.012697
      3          6           0        0.477432    0.187135    0.004424
      4          6           0        0.678645    1.096916    1.246039
      5          6           0        0.650424    0.992394   -1.288840
      6          7           0       -0.846892   -0.485012   -0.005510
      7          6           0       -2.081116    0.291795   -0.017016
      8          7           0       -3.198351   -0.663275    0.058852
      9          1           0        3.382846   -1.656625   -0.072746
     10          1           0        3.268835   -0.119565    0.791626
     11          1           0        3.126291   -0.178268   -0.977677
     12          1           0        1.232956   -1.527152    0.803467
     13          1           0        1.671432    1.556378    1.262673
     14          1           0        0.562286    0.510271    2.164395
     15          1           0       -0.034039    1.926332    1.284319
     16          1           0        1.639165    1.453061   -1.346185
     17          1           0       -0.070615    1.809462   -1.354710
     18          1           0        0.517787    0.336975   -2.153296
     19          1           0       -0.909661   -1.090899    0.808543
     20          1           0       -2.091306    0.905947   -0.926778
     21          1           0       -2.189642    0.971877    0.841965
     22          1           0       -3.169450   -1.259928   -0.765376
     23          1           0       -4.084780   -0.165141    0.011923
 ---------------------------------------------------------------------
 Rotational constants (GHZ):           3.6784207           1.0487664           1.0124147
 Standard basis: 6-31G(2df,p) (6D, 7F)
 There are   323 symmetry adapted cartesian basis functions of A   symmetry.
 There are   299 symmetry adapted basis functions of A   symmetry.
   299 basis functions,   457 primitive gaussians,   323 cartesian basis functions
    33 alpha electrons       33 beta electrons
       nuclear repulsion energy       421.3829311057 Hartrees.
 NAtoms=   23 NActive=   23 NUniq=   23 SFac= 1.00D+00 NAtFMM=   60 NAOKFM=F Big=F
 Integral buffers will be    131072 words long.
 Raffenetti 2 integral format.
 Two-electron integral symmetry is turned on.
 One-electron integrals computed using PRISM.
 PrsmSu:  requested number of processors reduced to:  13 ShMem   1 Linda.
 NBasis=   299 RedAO= T EigKep=  2.86D-04  NBF=   299
 NBsUse=   299 1.00D-06 EigRej= -1.00D+00 NBFU=   299
 Initial guess from the checkpoint file:  "CNCpCppCpNCN.chk"
 B after Tr=     0.000000   -0.000000   -0.000000
         Rot=    0.958371    0.285409   -0.001691    0.008031 Ang=  33.18 deg.
 ExpMin= 1.61D-01 ExpMax= 4.17D+03 ExpMxC= 6.27D+02 IAcc=2 IRadAn=         4 AccDes= 0.00D+00
 Harris functional with IExCor=  402 and IRadAn=       4 diagonalized for initial guess.
 HarFok:  IExCor=  402 AccDes= 0.00D+00 IRadAn=         4 IDoV= 1 UseB2=F ITyADJ=14
 ICtDFT=  3500011 ScaDFX=  1.000000  1.000000  1.000000  1.000000
 FoFCou: FMM=F IPFlag=           0 FMFlag=      100000 FMFlg1=           0
         NFxFlg=           0 DoJE=T BraDBF=F KetDBF=T FulRan=T
         wScrn=  0.000000 ICntrl=       500 IOpCl=  0 I1Cent=   200000004 NGrid=           0
         NMat0=    1 NMatS0=      1 NMatT0=    0 NMatD0=    1 NMtDS0=    0 NMtDT0=    0
 Petite list used in FoFCou.
 Requested convergence on RMS density matrix=1.00D-08 within 128 cycles.
 Requested convergence on MAX density matrix=1.00D-06.
 Requested convergence on             energy=1.00D-06.
 No special actions if energy rises.
 Integral accuracy reduced to 1.0D-05 until final iterations.
 Initial convergence to 1.0D-05 achieved.  Increase integral accuracy.
 SCF Done:  E(RB3LYP) =  -363.820635312     A.U. after   11 cycles
            NFock= 11  Conv=0.48D-08     -V/T= 2.0083
 PrsmSu:  requested number of processors reduced to:  13 ShMem   1 Linda.
 Calling FoFJK, ICntrl=      2127 FMM=F ISym2X=0 I1Cent= 0 IOpClX= 0 NMat=1 NMatS=1 NMatT=0.
 ***** Axes restored to original set *****
 -------------------------------------------------------------------
 Center     Atomic                   Forces (Hartrees/Bohr)
 Number     Number              X              Y              Z
 -------------------------------------------------------------------
      1        6           0.003035393    0.001067890   -0.000207307
      2        7          -0.002303763    0.000245981   -0.000417473
      3        6           0.002945223   -0.001099303    0.000028997
      4        6           0.000726176   -0.000122641    0.000498644
      5        6           0.000415619    0.000249213    0.002133495
      6        7          -0.000327105    0.000896615   -0.002013077
      7        6           0.000208551   -0.002026272    0.000448436
      8        7          -0.003541659   -0.000371535    0.001997422
      9        1           0.001007721    0.000166459   -0.000273984
     10        1          -0.000899422    0.001822151   -0.000568986
     11        1          -0.000882417    0.001135060    0.001055719
     12        1           0.001588216   -0.000306424    0.000130836
     13        1          -0.000688304   -0.002313609    0.000794987
     14        1           0.000071111    0.000111752   -0.000273734
     15        1           0.002603073    0.000149227    0.001317240
     16        1          -0.000555856   -0.001151225   -0.001010086
     17        1           0.001484485    0.000783459   -0.000959764
     18        1           0.000119362   -0.000119617   -0.000525138
     19        1           0.000023935   -0.001938276    0.000130202
     20        1          -0.001275620    0.001272872    0.001308668
     21        1          -0.000112440    0.002431682   -0.001086897
     22        1          -0.001445752   -0.000520201   -0.000696570
     23        1          -0.002196529   -0.000363258   -0.001811632
 -------------------------------------------------------------------
 Cartesian Forces:  Max     0.003541659 RMS     0.001304839

 GradGradGradGradGradGradGradGradGradGradGradGradGradGradGradGradGradGrad
 Berny optimization.
 Using GEDIIS/GDIIS optimizer.
 FormGI is forming the generalized inverse of G from B-inverse, IUseBI=4.
 Internal  Forces:  Max     0.010852405 RMS     0.002206835
 Search for a local minimum.
 Step number   2 out of a maximum of  119
 All quantities printed in internal units (Hartrees-Bohrs-Radians)
 Mixed Optimization -- RFO/linear search
 Update second derivatives using D2CorX and points    1    2
 DE= -6.34D-03 DEPred=-9.53D-03 R= 6.65D-01
 TightC=F SS=  1.41D+00  RLast= 3.16D-01 DXNew= 5.0454D-01 9.4693D-01
 Trust test= 6.65D-01 RLast= 3.16D-01 DXMaxT set to 5.05D-01
 ITU=  1  0
 Use linear search instead of GDIIS.
     Eigenvalues ---    0.00230   0.00230   0.00736   0.00791   0.00817
     Eigenvalues ---    0.01059   0.01171   0.02370   0.02417   0.04511
     Eigenvalues ---    0.04826   0.05209   0.05310   0.05386   0.05402
     Eigenvalues ---    0.05469   0.05818   0.06674   0.06868   0.07315
     Eigenvalues ---    0.07608   0.09331   0.11973   0.12167   0.12479
     Eigenvalues ---    0.15198   0.15466   0.16000   0.16000   0.16000
     Eigenvalues ---    0.16000   0.16000   0.16000   0.16000   0.16000
     Eigenvalues ---    0.16000   0.16153   0.16829   0.21654   0.23415
     Eigenvalues ---    0.27309   0.28412   0.29249   0.33798   0.33956
     Eigenvalues ---    0.34186   0.34348   0.34405   0.34422   0.34445
     Eigenvalues ---    0.34455   0.34468   0.34539   0.34713   0.35773
     Eigenvalues ---    0.36125   0.36930   0.38707   0.43312   0.44064
     Eigenvalues ---    0.44985   0.45243   0.45649
 RFO step:  Lambda=-1.09700992D-03 EMin= 2.29998653D-03
 Quartic linear search produced a step of -0.19325.
 Iteration  1 RMS(Cart)=  0.04708976 RMS(Int)=  0.00061300
 Iteration  2 RMS(Cart)=  0.00114703 RMS(Int)=  0.00007724
 Iteration  3 RMS(Cart)=  0.00000041 RMS(Int)=  0.00007724
 Variable       Old X    -DE/DX   Delta X   Delta X   Delta X     New X
                                 (Linear)    (Quad)   (Total)
    R1        2.76391  -0.00334   0.00127  -0.00902  -0.00775   2.75616
    R2        2.06929  -0.00021  -0.00035  -0.00004  -0.00039   2.06891
    R3        2.08094   0.00150  -0.00254   0.00672   0.00418   2.08512
    R4        2.06173   0.00163   0.00097   0.00258   0.00355   2.06529
    R5        2.79874  -0.00437  -0.00474  -0.00377  -0.00851   2.79023
    R6        1.91815   0.00072  -0.00017   0.00150   0.00132   1.91947
    R7        2.93352  -0.00388  -0.00388  -0.00612  -0.01000   2.92353
    R8        2.89745  -0.00092   0.00271  -0.00601  -0.00330   2.89415
    R9        2.80656  -0.00871  -0.00472  -0.01376  -0.01849   2.78807
   R10        2.06751   0.00072  -0.00025   0.00199   0.00174   2.06925
   R11        2.07101   0.00021   0.00058  -0.00025   0.00034   2.07135
   R12        2.06777   0.00076  -0.00042   0.00231   0.00189   2.06966
   R13        2.06414   0.00056   0.00027   0.00095   0.00123   2.06537
   R14        2.06304   0.00106   0.00058   0.00175   0.00233   2.06536
   R15        2.06530  -0.00032   0.00202  -0.00331  -0.00128   2.06401
   R16        2.75594  -0.00399  -0.00385  -0.00343  -0.00729   2.74865
   R17        1.92132   0.00087  -0.00185   0.00388   0.00204   1.92336
   R18        2.78126  -0.00664  -0.01184   0.00156  -0.01028   2.77098
   R19        2.07436   0.00205  -0.00240   0.00779   0.00538   2.07974
   R20        2.08053   0.00234  -0.00383   0.01024   0.00641   2.08695
   R21        1.92361  -0.00059  -0.00061  -0.00028  -0.00089   1.92272
   R22        1.92353  -0.00166   0.00165  -0.00513  -0.00348   1.92005
    A1        1.89030  -0.00101   0.00661  -0.01093  -0.00424   1.88606
    A2        2.02176  -0.00039  -0.01100   0.01019  -0.00088   2.02088
    A3        1.92589   0.00003   0.00698  -0.00924  -0.00222   1.92367
    A4        1.87006   0.00111  -0.00225   0.00965   0.00736   1.87742
    A5        1.85975   0.00087  -0.00153   0.00869   0.00737   1.86712
    A6        1.88878  -0.00048   0.00139  -0.00758  -0.00628   1.88250
    A7        2.08377  -0.00755  -0.01615  -0.00720  -0.02340   2.06037
    A8        1.88138   0.00297   0.00350   0.00436   0.00774   1.88912
    A9        1.88328   0.00162   0.00505  -0.00632  -0.00126   1.88202
   A10        1.95858  -0.00086  -0.00813   0.00702  -0.00112   1.95747
   A11        1.89964  -0.00030   0.00112   0.00333   0.00448   1.90412
   A12        1.79225   0.00244   0.01093   0.00910   0.02015   1.81240
   A13        1.93073   0.00119   0.00429  -0.00712  -0.00290   1.92783
   A14        1.96727  -0.00170  -0.00661  -0.00707  -0.01382   1.95345
   A15        1.90991  -0.00072  -0.00115  -0.00403  -0.00527   1.90465
   A16        1.95616  -0.00200   0.00040  -0.00910  -0.00869   1.94747
   A17        1.92064   0.00097   0.00355  -0.00115   0.00240   1.92304
   A18        1.96904  -0.00292  -0.00149  -0.01247  -0.01398   1.95506
   A19        1.88431   0.00041   0.00013   0.00135   0.00150   1.88581
   A20        1.84644   0.00313  -0.00305   0.02236   0.01931   1.86574
   A21        1.88313   0.00065   0.00022   0.00045   0.00065   1.88378
   A22        1.94755  -0.00156   0.00280  -0.01090  -0.00810   1.93945
   A23        1.94921  -0.00171   0.00232  -0.01128  -0.00896   1.94024
   A24        1.91613  -0.00006   0.00398  -0.00564  -0.00163   1.91450
   A25        1.85359   0.00186  -0.00398   0.01495   0.01095   1.86454
   A26        1.89784   0.00079  -0.00270   0.00701   0.00434   1.90218
   A27        1.89753   0.00083  -0.00309   0.00729   0.00421   1.90175
   A28        2.11021  -0.01085  -0.02645  -0.00424  -0.03055   2.07966
   A29        1.89589   0.00275   0.00508   0.00122   0.00655   1.90243
   A30        1.84574   0.00412   0.00587   0.00804   0.01410   1.85984
   A31        1.87169  -0.00498  -0.00035  -0.01886  -0.01922   1.85247
   A32        1.88852   0.00111   0.01373  -0.01386  -0.00004   1.88848
   A33        1.98919   0.00203  -0.00426   0.01502   0.01080   1.99999
   A34        1.98094   0.00204  -0.01835   0.02975   0.01129   1.99223
   A35        1.86064   0.00113   0.00246  -0.00059   0.00190   1.86254
   A36        1.87560  -0.00117   0.00547  -0.00939  -0.00381   1.87179
   A37        1.89344  -0.00122  -0.00392   0.00051  -0.00328   1.89016
   A38        1.91891  -0.00200  -0.00937   0.00316  -0.00609   1.91282
   A39        1.84860   0.00201  -0.00173   0.01561   0.01414   1.86274
    D1       -3.13030  -0.00076  -0.00233  -0.02758  -0.02984   3.12304
    D2        0.99810   0.00009  -0.00022  -0.01730  -0.01739   0.98071
    D3        1.05243  -0.00118   0.00305  -0.03862  -0.03558   1.01685
    D4       -1.10236  -0.00033   0.00517  -0.02834  -0.02313  -1.12548
    D5       -1.10080  -0.00027   0.00404  -0.02855  -0.02466  -1.12546
    D6        3.02760   0.00058   0.00616  -0.01828  -0.01221   3.01539
    D7       -1.05987  -0.00014  -0.00211   0.03216   0.03008  -1.02979
    D8        1.08300   0.00058  -0.00130   0.03016   0.02881   1.11182
    D9        3.10619   0.00083   0.00350   0.03142   0.03477   3.14096
   D10        1.09398  -0.00034  -0.00508   0.02707   0.02214   1.11612
   D11       -3.04632   0.00038  -0.00427   0.02508   0.02086  -3.02546
   D12       -1.02314   0.00063   0.00053   0.02634   0.02682  -0.99632
   D13        1.08987  -0.00079   0.00202  -0.01379  -0.01170   1.07817
   D14       -1.00715  -0.00066  -0.00088  -0.00873  -0.00951  -1.01666
   D15       -3.11123  -0.00021  -0.00265  -0.00011  -0.00268  -3.11392
   D16       -1.03535  -0.00065   0.00326  -0.01788  -0.01461  -1.04996
   D17       -3.13237  -0.00052   0.00036  -0.01282  -0.01243   3.13839
   D18        1.04673  -0.00008  -0.00141  -0.00420  -0.00560   1.04114
   D19        3.10319   0.00062   0.00637  -0.00227   0.00400   3.10719
   D20        1.00618   0.00076   0.00348   0.00279   0.00618   1.01236
   D21       -1.09791   0.00120   0.00170   0.01141   0.01301  -1.08489
   D22       -1.13498   0.00102   0.00495   0.00092   0.00591  -1.12907
   D23        3.07648   0.00085   0.00655  -0.00317   0.00339   3.07988
   D24        0.97040   0.00096   0.00616  -0.00116   0.00501   0.97542
   D25        1.02456   0.00052  -0.00169   0.00730   0.00563   1.03019
   D26       -1.04716   0.00035  -0.00009   0.00321   0.00311  -1.04405
   D27        3.12995   0.00046  -0.00048   0.00521   0.00473   3.13468
   D28       -3.08099  -0.00133  -0.00797  -0.00945  -0.01743  -3.09842
   D29        1.13047  -0.00150  -0.00637  -0.01354  -0.01994   1.11053
   D30       -0.97560  -0.00139  -0.00677  -0.01153  -0.01833  -0.99393
   D31       -3.12305  -0.00067  -0.00625  -0.02035  -0.02656   3.13358
   D32        1.02404  -0.00053   0.00089  -0.02945  -0.02849   0.99554
   D33        1.04897  -0.00029   0.00031  -0.03081  -0.03052   1.01845
   D34       -1.08714  -0.00014   0.00746  -0.03991  -0.03245  -1.11958
   D35       -1.10726  -0.00010   0.00018  -0.01370  -0.01357  -1.12084
   D36        3.03982   0.00005   0.00732  -0.02280  -0.01550   3.02432
   D37       -3.08207   0.00056  -0.00297   0.00593   0.00310  -3.07896
   D38        1.05805   0.00041   0.01156  -0.01064   0.00085   1.05890
   D39       -1.02710  -0.00017  -0.00262   0.00142  -0.00113  -1.02823
   D40       -0.92214   0.00007  -0.00967   0.01179   0.00216  -0.91997
   D41       -3.06521  -0.00008   0.00486  -0.00479  -0.00009  -3.06530
   D42        1.13283  -0.00065  -0.00932   0.00728  -0.00208   1.13076
   D43       -1.08388   0.00046  -0.00680   0.00375  -0.00306  -1.08694
   D44       -3.09799  -0.00017   0.00196  -0.01689  -0.01480  -3.11279
   D45        1.00085  -0.00029  -0.00094  -0.00833  -0.00939   0.99146
   D46       -1.01326  -0.00092   0.00781  -0.02897  -0.02112  -1.03438
   D47        3.06226   0.00017  -0.00294  -0.00330  -0.00633   3.05593
   D48        1.04815  -0.00046   0.00582  -0.02394  -0.01807   1.03009
         Item               Value     Threshold  Converged?
 Maximum Force            0.010852     0.000450     NO 
 RMS     Force            0.002207     0.000300     NO 
 Maximum Displacement     0.158402     0.001800     NO 
 RMS     Displacement     0.047159     0.001200     NO 
 Predicted change in Energy=-9.209485D-04
 GradGradGradGradGradGradGradGradGradGradGradGradGradGradGradGradGradGrad

                          Input orientation:                          
 ---------------------------------------------------------------------
 Center     Atomic      Atomic             Coordinates (Angstroms)
 Number     Number       Type             X           Y           Z
 ---------------------------------------------------------------------
      1          6           0        1.070962   -0.159761   -0.077677
      2          7           0        2.485656    0.192572   -0.036168
      3          6           0        2.844491    1.624794   -0.025747
      4          6           0        2.306860    2.370004   -1.270343
      5          6           0        2.306530    2.266842    1.256410
      6          7           0        4.319200    1.618915    0.018462
      7          6           0        5.032876    2.886268    0.029371
      8          7           0        6.459717    2.550936   -0.013337
      9          1           0        0.993549   -1.251628   -0.099178
     10          1           0        0.503958    0.231367   -0.939658
     11          1           0        0.570770    0.177757    0.833543
     12          1           0        2.943826   -0.237078   -0.834423
     13          1           0        1.213188    2.341128   -1.315851
     14          1           0        2.697113    1.908990   -2.185016
     15          1           0        2.597897    3.425838   -1.274223
     16          1           0        1.213939    2.248691    1.277533
     17          1           0        2.607066    3.315144    1.328984
     18          1           0        2.687783    1.727302    2.126185
     19          1           0        4.672539    1.093853   -0.778641
     20          1           0        4.728311    3.444595    0.927550
     21          1           0        4.832576    3.534003   -0.842376
     22          1           0        6.688612    2.021308    0.824712
     23          1           0        7.011303    3.403580    0.019827
 ---------------------------------------------------------------------
                    Distance matrix (angstroms):
                    1          2          3          4          5
     1  C    0.000000
     2  N    1.458499   0.000000
     3  C    2.516493   1.476526   0.000000
[...]
 0905,0.01524612,0.03664820,-0.07365682,-0.07022446,0.00094404,-0.00174
 018,0.00249993,-0.00150703,0.00039062,-0.00126068,0.00074195,0.0003752
 2,-0.00129861,-0.00013634,0.00002709,0.00035858,0.00000182,-0.00002196
 ,0.00001611,0.00003887,-0.00003982,0.00008096,0.00006284,-0.00000902,-
 0.00001617,0.00021722,-0.00048172,-0.00028490,-0.00176554,0.00023006,0
 .00334564,-0.04113496,0.07733075,0.00027626,0.00019659,0.00007946,-0.0
 0047164,-0.00165821,0.00173598,0.01325430,-0.01042585,-0.02348738,0.09
 541333,-0.06967079,-0.22732931,-0.00266727,0.00489317,-0.00315704,0.00
 089499,0.00009684,0.00305099,-0.00026309,-0.00027207,-0.00058358,-0.00
 007839,-0.00005610,0.00035038,-0.00000099,0.00005165,0.00002568,-0.000
 04925,-0.00011021,-0.00014254,-0.00022407,-0.00013376,0.00012143,-0.00
 010466,0.00143534,0.00057252,-0.00180792,0.00156803,0.00326823,-0.1049
 9119,0.07546682,0.24944294,-0.00060635,0.00012406,-0.00018364,0.000313
 39,0.00243013,-0.00175366,0.00183201,0.00937137,0.00317716,-0.05759121
 ,-0.05513594,-0.00703552,0.00006081,-0.00022225,0.00039217,0.00019381,
 -0.00084460,0.00032253,-0.00136600,0.00098741,-0.00049136,0.00011713,-
 0.00023251,0.00005392,0.00022406,-0.00002798,0.00006149,0.00062367,0.0
 0025670,-0.00002029,0.00019784,-0.00007295,0.00003120,0.00011544,-0.00
 043466,-0.00021100,-0.00666156,-0.03172925,-0.00413964,0.00248940,0.01
 472201,0.00138973,0.06110854,0.00219669,0.00039293,-0.00013096,0.00106
 625,-0.00434362,0.00459702,-0.00588425,-0.01487937,-0.00572833,-0.0541
 1015,-0.29210006,-0.03016005,-0.00005487,0.00040973,-0.00099192,0.0005
 4439,0.00085400,0.00025973,-0.00069547,-0.00116702,0.00031977,-0.00018
 278,0.00074568,-0.00037512,-0.00018042,-0.00003530,-0.00001034,-0.0003
 8979,0.00048362,-0.00038622,-0.00024591,-0.00003182,0.00010436,-0.0005
 9776,0.00083512,0.00028264,-0.00028815,-0.00210185,-0.00039485,-0.0024
 4547,-0.00911092,-0.00075239,0.06115789,0.31857736,-0.00172613,-0.0000
 2317,0.00026446,-0.00114954,0.00668919,-0.00391133,0.00790262,0.021858
 95,0.00548758,-0.00699926,-0.03101098,-0.05129466,0.00015247,-0.000037
 90,0.00113303,0.00082856,-0.00105528,0.00040174,-0.00128766,0.00029915
 ,0.00109662,0.00023140,-0.00016587,-0.00027543,0.00020883,0.00001866,0
 .00003913,0.00048214,-0.00039813,0.00014135,0.00010278,-0.00001313,-0.
 00006913,0.00010942,0.00012867,-0.00017265,-0.00016406,-0.00270010,-0.
 00117817,-0.00673693,-0.02612404,-0.00297374,0.00848432,0.03321026,0.0
 5239879,-0.00070061,-0.00135572,0.00043381,0.00022145,-0.00011765,0.00
 020700,-0.01128556,-0.00045477,-0.00491017,0.00012151,-0.00001071,-0.0
 0075957,-0.30554984,0.02515876,-0.01514618,-0.00178987,0.00185878,0.00
 295132,0.00070353,0.00108586,-0.00014809,-0.00041782,-0.00002678,0.000
 07239,0.00044758,-0.00022630,-0.00042298,0.00025741,-0.00007491,0.0002
 3563,0.00013963,-0.00030778,-0.00096522,-0.00001320,0.00021381,0.00006
 662,0.00081996,-0.00005490,0.00037515,0.00039692,0.00003596,-0.0000181
 3,-0.00012219,-0.00000369,0.00008387,0.33488793,0.00065219,-0.00074036
 ,-0.00063984,-0.00031752,0.00014044,0.00021541,0.01024379,-0.00167366,
 0.00363195,-0.00018558,0.00005040,0.00055475,0.02373660,-0.04833922,0.
 00156917,0.00208917,-0.00044304,-0.00198465,0.00018764,-0.00093372,-0.
 00040839,-0.00021039,0.00030990,0.00000491,-0.00018594,0.00008053,0.00
 017766,-0.00027145,-0.00001333,-0.00022600,-0.00020275,-0.00147696,0.0
 0002304,-0.00014216,0.00007668,-0.00006045,-0.00019561,0.00031485,-0.0
 0000143,-0.00001485,-0.00016827,0.00002160,-0.00017397,-0.00008342,0.0
 0001012,-0.02578934,0.05004766,0.00003280,-0.00102318,0.00054639,-0.00
 055676,0.00072158,0.00100247,0.02584777,0.00064264,0.00520521,0.000079
 79,0.00009251,0.00078365,-0.01796840,0.00241938,-0.05134234,0.00385862
 ,-0.00346254,-0.00329183,-0.00014381,-0.00118597,-0.00006049,0.0002207
 3,0.00026820,-0.00002667,-0.00008195,0.00009063,-0.00017113,-0.0003550
 6,-0.00004124,-0.00022895,-0.00018291,-0.00018778,-0.00024082,0.000015
 53,0.00012875,-0.00003963,-0.00017211,0.00006742,-0.00084012,-0.000203
 12,-0.00008008,0.00043310,-0.00002503,0.00010154,-0.00006852,0.0177812
 7,-0.00059221,0.05108607,-0.00075631,-0.00065682,0.00050405,-0.0012517
 2,0.00137365,0.00317893,0.00396283,0.01241391,0.00209096,-0.00021563,-
 0.00031617,-0.00058393,-0.08480265,-0.09421118,-0.02040897,0.00087976,
 -0.00032391,-0.00081274,-0.00088105,0.00060978,0.00100340,0.00018196,-
 0.00019193,-0.00010517,0.00026123,-0.00009649,-0.00028377,0.00019337,0
 .00003793,0.00021403,-0.00001600,0.00003486,-0.00069475,0.00045020,0.0
 0092474,0.00051534,0.00007514,-0.00010160,-0.00000822,-0.00004458,0.00
 015545,-0.00008235,0.00028465,0.00009720,-0.00009537,-0.01179581,-0.02
 962136,-0.00590225,0.09154571,0.00072957,0.00021009,0.00025438,0.00124
 503,0.00043371,-0.00268489,-0.00496653,-0.01166123,-0.00002105,0.00021
 967,-0.00000639,0.00047917,-0.09258431,-0.26236888,-0.04630395,-0.0000
 8594,0.00055392,0.00066058,0.00019978,-0.00077402,-0.00021425,-0.00037
 704,0.00047843,0.00005394,-0.00005758,-0.00000440,-0.00009079,-0.00014
 385,0.00002349,-0.00013463,0.00019892,0.00013183,-0.00005420,-0.000457
 21,-0.00069746,-0.00042901,0.00009568,0.00005594,0.00011766,0.00012126
 ,0.00019462,-0.00007579,-0.00009531,0.00066750,-0.00011588,0.00152168,
 0.00339765,0.00116622,0.10262552,0.28511301,0.00108099,0.00072685,-0.0
 0043149,0.00283973,-0.00142092,-0.00509774,-0.01289938,-0.02593604,-0.
 00459489,-0.00027978,-0.00039100,0.00108963,-0.01888376,-0.04463481,-0
 .05566574,-0.00108438,0.00141436,0.00111742,0.00063907,-0.00106833,-0.
 00047031,-0.00040105,0.00048049,0.00008741,-0.00007547,-0.00003916,0.0
 0011793,-0.00014690,0.00003004,0.00008783,-0.00024045,0.00001180,0.000
 28154,-0.00022494,-0.00195255,-0.00017919,0.00011398,-0.00005295,-0.00
 003517,0.00017970,0.00029701,0.00027448,0.00002137,0.00054561,-0.00062
 015,-0.00090130,-0.00165591,-0.00129172,0.01934479,0.05132107,0.059580
 87,0.00004912,0.00049380,-0.00084011,0.00023694,-0.00024616,-0.0008023
 3,0.00155634,-0.00828209,0.00945428,-0.00083496,0.00084141,0.00167377,
 -0.06239710,0.04011813,-0.04923326,0.00130095,-0.00043695,-0.00047324,
 -0.00019243,-0.00063407,0.00005426,-0.00005879,0.00006971,0.00002134,0
 .00002656,-0.00004998,0.00027145,0.00008822,-0.00009736,0.00016594,-0.
 00038531,-0.00029476,0.00010178,-0.00008448,-0.00017168,-0.00001169,0.
 00026274,0.00001202,0.00033214,0.00066484,-0.00016149,0.00064193,-0.00
 012375,0.00019644,-0.00009291,-0.00574794,0.01969730,-0.02380018,0.002
 54369,-0.00796786,0.01054547,0.06309432,-0.00066551,-0.00000223,-0.000
 18567,-0.00030636,0.00097144,0.00053025,-0.00227237,0.00674086,-0.0098
 4641,0.00079497,-0.00070644,-0.00189116,0.03975099,-0.14928958,0.12671
 767,-0.00094783,0.00025591,-0.00033370,0.00000647,-0.00055402,0.000032
 46,-0.00015297,0.00012137,0.00005556,0.00003383,0.00002251,0.00003985,
 0.00016773,-0.00003989,-0.00008949,-0.00015647,-0.00011567,-0.00033399
 ,0.00008050,0.00016624,0.00019964,0.00005232,-0.00008455,0.00001675,-0
 .00006406,0.00068050,-0.00066357,0.00010183,0.00022749,-0.00019899,-0.
 00049203,-0.00153757,0.00001867,0.00771760,-0.01664204,0.02168980,-0.0
 4343129,0.15952667,-0.00033311,-0.00000732,-0.00048926,-0.00025004,0.0
 0081807,0.00251718,-0.00803456,0.01941194,-0.02429135,0.00360635,-0.00
 363211,-0.00421822,-0.04674849,0.12398450,-0.19598964,-0.00151642,-0.0
 0037499,0.00254496,0.00003765,0.00012515,0.00003321,0.00009910,-0.0000
 2507,0.00004809,-0.00006717,-0.00005091,0.00021504,0.00019165,0.000004
 27,0.00018602,-0.00056072,-0.00031319,-0.00000879,0.00024041,0.0001093
 8,0.00047389,-0.00005358,-0.00010802,0.00025477,-0.00057629,0.00096252
 ,-0.00177771,0.00010230,-0.00004675,0.00036293,0.00013902,-0.00016566,
 -0.00061940,0.00196217,-0.00448635,0.00536217,0.05190037,-0.13601029,0
 .21508447,-0.00018438,-0.00090917,0.00044438,0.00278209,0.00185048,-0.
 00014719,-0.01669151,0.02754973,0.02037330,-0.00088998,-0.00068372,0.0
 0073689,-0.00552805,-0.00053511,-0.00195550,-0.11143234,0.10512761,0.0
 7423867,0.00894680,-0.01670432,-0.00993111,0.00187935,0.00108352,-0.00
 004165,0.00003010,0.00002433,0.00000283,0.00077548,0.00004427,0.000058
 29,0.00029541,0.00008395,-0.00015886,-0.00206233,-0.00069177,-0.001923
 27,-0.00001423,0.00007996,-0.00047917,0.00009429,0.00004464,-0.0006758
 3,0.00011716,-0.00019466,0.00007657,-0.00063529,0.00056817,0.00155794,
 0.00021005,-0.00003695,-0.00025538,0.00011466,-0.00009249,0.00006161,0
 .12449501,-0.00045962,-0.00043412,0.00037761,-0.00257682,-0.00017099,0
 .00148671,0.00041890,0.00117251,-0.00136866,-0.00007795,-0.00033908,-0
 .00009511,-0.00166148,-0.00000809,0.00086408,0.10825257,-0.26792859,-0
 .14466946,0.01168431,-0.03026221,-0.01900018,0.00076030,0.00284826,0.0
 0024990,-0.00006110,-0.00005361,-0.00003348,0.00029488,-0.00002868,0.0
 0001007,-0.00000333,0.00001346,-0.00002142,-0.00032151,0.00125199,-0.0
 0088163,-0.00022150,0.00021376,-0.00000058,0.00023196,-0.00006101,0.00
 038660,-0.00013871,0.00007807,0.00003238,-0.00064253,0.00030138,0.0004
 2519,-0.00005750,-0.00003132,-0.00003653,0.00002084,0.00003361,0.00000
 889,-0.11297957,0.29545236,0.00020026,0.00055630,-0.00057826,-0.001815
 22,0.00088113,0.00173447,-0.00805063,0.00526622,-0.00425826,-0.0020510
 3,-0.00013909,0.00068458,0.00329964,-0.00018777,0.00053489,0.09347383,
 -0.17908387,-0.11275763,-0.00066988,0.01398203,0.00085386,-0.00054663,
 0.00008125,-0.00078603,0.00004401,0.00001995,0.00004056,-0.00039660,-0
 .00000050,-0.00004524,0.00005116,-0.00006820,0.00006712,-0.00026523,-0
 .00031584,-0.00008784,-0.00020669,0.00008253,-0.00084428,0.00001314,-0
 .00017182,-0.00034291,0.00010684,0.00001132,0.00007111,0.00092116,-0.0
 0046493,-0.00085465,-0.00029041,0.00021472,0.00030997,-0.00000277,0.00
 006376,0.00007512,-0.08295379,0.15954963,0.11410040,-0.00011771,0.0001
 1186,0.00004127,0.00001060,0.00001485,0.00008231,0.00019119,0.00035314
 ,-0.00047504,-0.00028033,-0.00014133,-0.00031160,-0.00031391,-0.000327
 14,0.00050134,0.00976529,-0.01525253,-0.00892603,-0.08090760,0.0635033
 3,0.04897475,-0.02905711,0.02727384,0.01299417,0.00003525,0.00000050,-
 0.00001549,-0.00003621,-0.00002663,0.00002696,-0.00002959,-0.00000203,
 -0.00000850,0.00009278,0.00005508,0.00009309,-0.00005687,-0.00007607,-
 0.00007571,-0.00003589,-0.00011629,0.00000153,-0.00026705,-0.00030973,
 -0.00016025,0.00012139,0.00003339,-0.00011181,-0.00080014,-0.00030201,
 0.00058659,-0.00005368,-0.00003594,-0.00005799,-0.00218415,-0.00354719
 ,0.00026661,0.09860249,0.00005054,0.00015807,-0.00017294,-0.00116585,0
 .00002478,0.00026426,0.00260856,-0.00112731,-0.00076882,-0.00051225,-0
 .00028917,0.00017016,-0.00027217,-0.00069562,-0.00036540,0.00858666,-0
 .03263508,-0.01437929,0.05794812,-0.16955374,-0.08755426,0.00812633,-0
 .00017867,-0.00033718,-0.00003942,0.00000489,0.00002817,-0.00019471,-0
 .00001148,-0.00001869,-0.00007816,-0.00003109,0.00008951,0.00037532,0.
 00009714,0.00034834,-0.00007261,0.00028361,-0.00004868,0.00013418,0.00
 015692,0.00021298,-0.00017645,0.00042684,-0.00038148,0.00000207,0.0004
 5969,0.00023273,-0.00039929,0.00080672,0.00061667,0.00018055,0.0001988
 9,-0.00002207,-0.00386068,-0.00399931,-0.00032862,-0.07041017,0.198641
 71,0.00006507,-0.00003371,-0.00005444,-0.00022283,0.00010382,-0.000147
 28,0.00090884,-0.00064224,0.00060923,0.00012924,-0.00088997,-0.0005027
 6,0.00010886,0.00007572,-0.00033962,-0.00356827,0.00572217,0.00592390,
 0.04742188,-0.09349804,-0.12755934,-0.00439292,0.00774088,0.00943442,-
 0.00002882,0.00000608,0.00001147,-0.00001461,0.00000576,-0.00001709,0.
 00000441,-0.00000078,0.00002450,0.00000836,-0.00001017,0.00002056,0.00
 000652,0.00031135,0.00012530,-0.00002670,0.00023800,0.00026956,-0.0003
 8557,0.00037572,-0.00031768,-0.00011597,0.00006255,0.00007816,0.000554
 89,0.00029240,0.00005084,0.00012384,0.00016586,-0.00001913,0.00023339,
 0.00184866,0.00113155,-0.05442315,0.09920665,0.12868248,0.00012276,0.0
 0005837,-0.00005363,-0.00038083,0.00015983,-0.00036911,0.00395582,-0.0
 0050190,0.00134991,-0.00081697,0.00007000,-0.00010885,-0.00020103,0.00
 022279,0.00003681,-0.00296916,-0.01311008,0.01942469,-0.04969625,0.002
 08097,0.00035601,-0.00824851,0.01274912,-0.03695658,-0.00002913,-0.000
 01869,-0.00002251,-0.00012059,-0.00001559,-0.00000909,-0.00001553,0.00
 000835,-0.00000066,0.00005055,-0.00007584,0.00005971,0.00035290,0.0000
 8000,0.00000060,-0.00040968,-0.00017151,-0.00052883,-0.00092497,0.0003
 5706,-0.00015564,-0.00016394,0.00006243,0.00005172,0.00005484,-0.00004
 943,-0.00001241,-0.00000492,-0.00004943,-0.00020862,-0.00008202,0.0009
 8732,-0.00087015,0.00251899,-0.00122269,0.01234758,0.06284620,0.000221
 73,0.00006471,-0.00021156,-0.00059990,0.00006044,-0.00023484,0.0052541
 9,-0.00035030,0.00110822,-0.00101743,0.00051129,-0.00011162,-0.0003895
 8,-0.00032910,-0.00038519,-0.00968663,-0.01777905,0.03177511,0.0036843
 8,-0.06395866,0.04411126,0.00361362,-0.00090438,0.00784503,-0.00005380
 ,-0.00003410,-0.00000774,-0.00016566,0.00000221,-0.00001550,-0.0000121
 1,0.00001695,0.00003203,-0.00001009,-0.00005451,0.00006246,0.00001492,
 0.00011325,-0.00047948,-0.00020271,-0.00016242,-0.00050242,0.00009821,
 0.00019525,-0.00011350,-0.00024525,0.00033251,0.00016228,-0.00008356,0
 .00028364,0.00015265,0.00016232,0.00005268,-0.00022167,-0.00019249,0.0
 0157354,0.00040942,0.00055939,0.00603825,-0.02242635,-0.00205449,0.072
 92201,-0.00019582,0.00003344,0.00002099,0.00070142,-0.00022473,0.00026
 358,-0.00348795,0.00095212,-0.00030985,0.00004078,0.00022369,0.0001062
 1,0.00026887,-0.00033507,-0.00003776,0.00723644,0.01177654,-0.00152345
 ,-0.00689310,0.04494509,-0.26155603,-0.00503599,0.00368258,-0.00806616
 ,0.00005054,0.00003337,0.00002758,0.00017194,-0.00003922,0.00003538,0.
 00002331,-0.00003512,0.00002087,-0.00014766,0.00006330,-0.00010694,0.0
 0016375,-0.00077740,0.00062634,-0.00026080,0.00058323,0.00021870,0.000
 09160,-0.00078256,-0.00049794,0.00017746,-0.00003291,-0.00010650,-0.00
 010028,0.00013737,0.00003785,-0.00001705,0.00003023,0.00023414,0.00059
 614,0.00022984,0.00156815,0.00069449,0.00232026,-0.01960279,0.00858351
 ,-0.06212224,0.28796451,-0.00010676,0.00000324,0.00002216,0.00018629,-
 0.00000621,0.00006190,-0.00102053,0.00009361,0.00031339,0.00016401,0.0
 0012037,0.00000760,0.00004793,-0.00005246,0.00000253,0.00342232,0.0007
 1224,0.00162221,-0.00637079,0.00971427,-0.04342168,-0.05515344,-0.0124
 9936,-0.01375558,0.00002513,0.00002560,0.00001414,0.00005370,-0.000013
 47,0.00000836,0.00000339,-0.00001854,0.00000134,-0.00001923,0.00001016
 ,-0.00001184,0.00002117,-0.00018075,0.00015306,0.00001459,0.00010682,0
 .00011027,0.00004377,-0.00018853,-0.00007875,0.00009955,-0.00000487,0.
 00001343,-0.00006704,0.00007722,-0.00001242,-0.00005650,-0.00004599,0.
 00005667,0.00002403,0.00002661,-0.00012828,0.00158182,0.00009007,0.000
 23146,-0.00684237,0.00080861,-0.00189348,0.06226730,-0.00005217,-0.000
 03647,0.00001836,0.00010478,-0.00012862,0.00003515,-0.00055077,-0.0001
 1561,0.00044188,0.00033235,0.00002380,-0.00001061,-0.00004967,0.000180
 21,0.00002948,0.00035882,0.00026052,-0.00061365,0.00772466,-0.00381797
 ,0.00986201,-0.01307789,-0.03484939,0.04367771,-0.00000399,-0.00000646
 ,-0.00000844,0.00004366,-0.00000452,0.00001160,0.00000334,0.00001114,-
 0.00001317,-0.00004274,0.00001827,-0.00005179,0.00004102,-0.00004366,0
 .00007956,-0.00000507,-0.00001985,0.00001827,0.00003685,-0.00004651,0.
 00008667,-0.00000960,-0.00010515,-0.00001017,0.00006989,-0.00014793,-0
 .00010239,-0.00003859,-0.00002487,0.00004456,-0.00030880,-0.00001836,-
 0.00102410,-0.00168341,0.00035957,0.00105383,0.00092137,0.00082082,-0.
 00033619,0.00311670,0.04637028,-0.00001572,-0.00000416,0.00002466,0.00
 008870,-0.00002795,0.00000474,-0.00029535,0.00000103,0.00023110,0.0002
 5717,0.00003659,-0.00000280,0.00001194,0.00005119,0.00004791,0.0009458
 3,-0.00149571,0.00120780,0.00289394,-0.00086361,-0.01228701,-0.0324935
 2,0.09288189,-0.40841612,0.00000309,-0.00000183,-0.00000233,0.00001906
 ,-0.00000096,0.00000086,0.00000182,-0.00000149,-0.00000454,-0.00002839
 ,0.00001919,-0.00002478,0.00005565,-0.00006978,0.00009249,0.00001622,0
 .00005906,0.00000541,0.00000574,-0.00003766,-0.00004286,0.00001981,-0.
 00002452,-0.00002507,-0.00001355,-0.00004683,0.00000946,-0.00000413,0.
 00000878,0.00001191,-0.00030087,0.00010781,-0.00057890,0.00077319,0.00
 037272,0.00221553,-0.00315548,0.00093409,0.00135395,0.03233187,-0.0860
 8170,0.42434195,0.00007404,-0.00015635,-0.00013319,-0.00070237,-0.0001
 5647,0.00015387,0.00091299,-0.00172571,-0.00066608,-0.00006862,-0.0001
 4560,0.00008418,0.00008123,-0.00010503,-0.00012472,-0.00903832,0.00229
 671,-0.00121695,-0.01909138,-0.03263283,0.00933870,-0.15632342,-0.1569
 2425,0.03025048,-0.00007306,-0.00002139,0.00000942,-0.00004026,0.00000
 879,-0.00001030,-0.00000562,0.00000472,0.00001384,0.00000310,-0.000003
 07,0.00000098,0.00000701,0.00012998,-0.00006037,0.00000158,-0.00001913
 ,-0.00001874,-0.00005861,0.00015569,-0.00001648,0.00000519,0.00004513,
 0.00004379,-0.00001249,0.00008969,0.00006593,0.00000149,0.00000649,0.0
 0000969,-0.00006018,0.00007112,-0.00012938,0.00122044,0.00030205,0.001
 03449,0.00100384,0.00029634,-0.00076812,0.00168171,0.00306926,-0.00111
 700,0.18048173,0.00009786,0.00003161,-0.00004585,-0.00006761,-0.000091
 31,0.00002262,0.00092101,0.00060986,-0.00039415,-0.00034079,-0.0000162
 5,0.00004920,-0.00007712,0.00005295,0.00000348,-0.00207455,-0.00003956
 ,0.00024121,0.01427500,0.00225145,-0.00339811,-0.19668571,-0.28325876,
 0.09288622,-0.00001678,-0.00002193,-0.00000379,-0.00004035,0.00000740,
 0.00000092,-0.00000992,0.00001060,0.00000931,0.00001782,0.00000359,0.0
 0002467,-0.00006565,0.00004656,-0.00010738,0.00002578,-0.00001912,-0.0
 0002674,-0.00000187,0.00000633,0.00000439,-0.00006495,0.00000301,0.000
 04546,-0.00000073,-0.00001686,0.00000425,0.00001975,-0.00000132,-0.000
 00487,0.00073308,0.00039643,0.00066649,0.00032509,0.00086439,0.0002918
 2,-0.00048793,0.00058498,-0.00032562,-0.00189531,-0.00867925,-0.005816
 15,0.18541388,0.28727518,0.00004251,-0.00005226,-0.00009883,-0.0003842
 8,-0.00017610,0.00003561,-0.00013516,-0.00060951,0.00112357,0.00012564
 ,0.00000371,0.00006563,-0.00016652,0.00007927,-0.00006877,-0.00294229,
 0.00090099,0.00017902,-0.00003282,-0.01054294,0.00164570,0.01581776,0.
 06049450,-0.05873226,-0.00004067,-0.00002923,-0.00000308,-0.00004378,0
 .00000350,0.00000177,-0.00000316,0.00001614,0.00000644,0.00000761,-0.0
 0000933,0.00000919,-0.00000790,-0.00002802,-0.00002637,0.00000980,-0.0
 0001967,-0.00005465,0.00000534,-0.00001083,0.00002554,-0.00007689,-0.0
 0001424,0.00007276,0.00001321,-0.00003989,-0.00002101,-0.00000887,-0.0
 0001600,0.00000960,0.00044259,0.00052968,-0.00003780,-0.00047073,0.000
 51498,-0.00001738,0.00024100,0.00023955,-0.00067083,0.02435165,0.03289
 311,-0.00816337,-0.03674405,-0.08412742,0.06471953\\0.00000110,-0.0000
 0787,0.00000209,0.00000159,0.00000300,-0.00001551,-0.00001483,-0.00000
 626,-0.00001009,0.00000503,0.00000266,0.00001117,-0.00001530,0.0000055
 5,0.00000890,0.00000450,-0.00000645,0.00000785,0.00003881,0.00002233,-
 0.00001009,-0.00001398,0.00000433,-0.00000237,0.00000114,0.00000178,0.
 00000059,-0.00000123,0.00000252,-0.00000142,-0.00000052,0.00000305,0.0
 0000014,0.00000186,0.00000090,0.00000552,-0.00000334,-0.00000227,-0.00
 000184,-0.00000122,0.00000034,-0.00000219,-0.00000085,-0.00000328,-0.0
 0000375,0.00000166,-0.00000453,0.00000074,0.00000613,-0.00000139,-0.00
 000562,0.00000078,0.00000101,0.00000030,-0.00000401,-0.00000451,0.0000
 0406,-0.00000066,-0.00000547,0.00000474,-0.00000658,-0.00000203,0.0000
 0372,-0.00000021,0.00000007,0.00000179,0.00000014,-0.00000346,0.000001
 27\\\@


 IF YOU GIVE A BOY AND A PIG EVERYTHING THEY WANT,
 YOU'LL GET A BAD BOY AND A GOOD PIG.
 Job cpu time:       0 days  2 hours  0 minutes 31.2 seconds.
 Elapsed time:       0 days  0 hours 30 minutes  8.9 seconds.
 File lengths (MBytes):  RWF=    156 Int=      0 D2E=      0 Chk=      9 Scr=      1
 Normal termination of Gaussian 16 at Tue Jun  1 14:13:39 2021.
### All Done ###
