### Starting Gaussian ###
 Entering Gaussian System, Link 0=g16
 Initial command:
 /cluster/software/gaussian/gaussian-16-A.03/avx2/g16/l1.exe "/local/scratch/cz9n3/Gau-27254.inp" -scrdir="/local/scratch/cz9n3/"
 Entering Link 1 = /cluster/software/gaussian/gaussian-16-A.03/avx2/g16/l1.exe PID=     27255.
  
 Copyright (c) 1988,1990,1992,1993,1995,1998,2003,2009,2016,
            Gaussian, Inc.  All Rights Reserved.
  
 This is part of the Gaussian(R) 16 program.  It is based on
 the Gaussian(R) 09 system (copyright 2009, Gaussian, Inc.),
 the Gaussian(R) 03 system (copyright 2003, Gaussian, Inc.),
 the Gaussian(R) 98 system (copyright 1998, Gaussian, Inc.),
 the Gaussian(R) 94 system (copyright 1995, Gaussian, Inc.),
 the Gaussian 92(TM) system (copyright 1992, Gaussian, Inc.),
 the Gaussian 90(TM) system (copyright 1990, Gaussian, Inc.),
 the Gaussian 88(TM) system (copyright 1988, Gaussian, Inc.),
 the Gaussian 86(TM) system (copyright 1986, Carnegie Mellon
 University), and the Gaussian 82(TM) system (copyright 1983,
 Carnegie Mellon University). Gaussian is a federally registered
 trademark of Gaussian, Inc.
  
 This software contains proprietary and confidential information,
 including trade secrets, belonging to Gaussian, Inc.
  
 This software is provided under written license and may be
 used, copied, transmitted, or stored only in accord with that
 written license.
  
 The following legend is applicable only to US Government
 contracts under FAR:
  
                    RESTRICTED RIGHTS LEGEND
  
 Use, reproduction and disclosure by the US Government is
 subject to restrictions as set forth in subparagraphs (a)
 and (c) of the Commercial Computer Software - Restricted
 Rights clause in FAR 52.227-19.
  
 Gaussian, Inc.
 340 Quinnipiac St., Bldg. 40, Wallingford CT 06492
  
  
 ---------------------------------------------------------------
 Warning -- This program may not be used in any manner that
 competes with the business of Gaussian, Inc. or will provide
 assistance to any competitor of Gaussian, Inc.  The licensee
 of this program is prohibited from giving any competitor of
 Gaussian, Inc. access to this program.  By using this program,
 the user acknowledges that Gaussian, Inc. is engaged in the
 business of creating and licensing software in the field of
 computational chemistry and represents and warrants to the
 licensee that it is not a competitor of Gaussian, Inc. and that
 it will not use this program in any manner prohibited above.
 ---------------------------------------------------------------
  

 Cite this work as:
 Gaussian 16, Revision A.03,
 M. J. Frisch, G. W. Trucks, H. B. Schlegel, G. E. Scuseria, 
 M. A. Robb, J. R. Cheeseman, G. Scalmani, V. Barone, 
 G. A. Petersson, H. Nakatsuji, X. Li, M. Caricato, A. V. Marenich, 
 J. Bloino, B. G. Janesko, R. Gomperts, B. Mennucci, H. P. Hratchian, 
 J. V. Ortiz, A. F. Izmaylov, J. L. Sonnenberg, D. Williams-Young, 
 F. Ding, F. Lipparini, F. Egidi, J. Goings, B. Peng, A. Petrone, 
 T. Henderson, D. Ranasinghe, V. G. Zakrzewski, J. Gao, N. Rega, 
 G. Zheng, W. Liang, M. Hada, M. Ehara, K. Toyota, R. Fukuda, 
 J. Hasegawa, M. Ishida, T. Nakajima, Y. Honda, O. Kitao, H. Nakai, 
 T. Vreven, K. Throssell, J. A. Montgomery, Jr., J. E. Peralta, 
 F. Ogliaro, M. J. Bearpark, J. J. Heyd, E. N. Brothers, K. N. Kudin, 
 V. N. Staroverov, T. A. Keith, R. Kobayashi, J. Normand, 
 K. Raghavachari, A. P. Rendell, J. C. Burant, S. S. Iyengar, 
 J. Tomasi, M. Cossi, J. M. Millam, M. Klene, C. Adamo, R. Cammi, 
 J. W. Ochterski, R. L. Martin, K. Morokuma, O. Farkas, 
 J. B. Foresman, and D. J. Fox, Gaussian, Inc., Wallingford CT, 2016.
 
 ******************************************
 Gaussian 16:  ES64L-G16RevA.03 25-Dec-2016
                 1-Jun-2021 
 ******************************************
 %chk=CNCpdNpNCNdCCtN.chk
 %NProcShared=20
 Will use up to   20 processors via shared memory.
 -----------------------------
 # opt freq b3lyp/6-31g(2df,p)
 -----------------------------
 1/18=20,19=15,26=3,38=1/1,3;
 2/9=110,12=2,17=6,18=5,40=1/2;
 3/5=1,6=6,7=104,11=2,25=1,30=1,71=1,74=-5/1,2,3;
 4//1;
 5/5=2,38=5/2;
 6/7=2,8=2,9=2,10=2,28=1/1;
 7//1,2,3,16;
 1/18=20,19=15,26=3/3(2);
 2/9=110/2;
 99//99;
 2/9=110/2;
 3/5=1,6=6,7=104,11=2,25=1,30=1,71=1,74=-5/1,2,3;
 4/5=5,16=3,69=1/1;
 5/5=2,38=5/2;
 7//1,2,3,16;
 1/18=20,19=15,26=3/3(-5);
 2/9=110/2;
 6/7=2,8=2,9=2,10=2,19=2,28=1/1;
 99/9=1/99;
 -------------------
 Title Card Required
 -------------------
 Symbolic Z-matrix:
 Charge =  0 Multiplicity = 1
 C                     1.11057   0.11336  -0.04056 
 N                     2.55793   0.20156  -0.14439 
 C                     3.23113   0.96895  -1.04777 
 N                     2.63844   1.71153  -1.92195 
 N                     4.58987   0.92686  -0.99822 
 C                     5.43393   1.69346  -1.90068 
 N                     6.87868   1.49558  -1.66774 
 C                     7.63291   2.17091  -2.46274 
 C                     9.05467   1.99728  -2.25834 
 N                     10.21292   1.90191  -2.14607 
 H                     0.79542  -0.56636   0.75962 
 H                     0.67601  -0.25901  -0.97534 
 H                     0.67601   1.09605   0.17574 
 H                     3.07566  -0.36122   0.51813 
 H                     1.63081   1.61567  -1.8091 
 H                     5.08859   0.36065  -0.33168 
 H                     5.19707   2.75996  -1.78717 
 H                     5.19707   1.40897  -2.93479 
 H                     7.32508   2.85684  -3.27022 
 

 GradGradGradGradGradGradGradGradGradGradGradGradGradGradGradGradGradGrad
 Berny optimization.
 Initialization pass.
                           ----------------------------
                           !    Initial Parameters    !
                           ! (Angstroms and Degrees)  !
 --------------------------                            --------------------------
 ! Name  Definition              Value          Derivative Info.                !
 --------------------------------------------------------------------------------
 ! R1    R(1,2)                  1.4538         estimate D2E/DX2                !
 ! R2    R(1,11)                 1.0962         estimate D2E/DX2                !
 ! R3    R(1,12)                 1.096          estimate D2E/DX2                !
 ! R4    R(1,13)                 1.096          estimate D2E/DX2                !
 ! R5    R(2,3)                  1.3632         estimate D2E/DX2                !
 ! R6    R(2,14)                 1.0118         estimate D2E/DX2                !
 ! R7    R(3,4)                  1.2911         estimate D2E/DX2                !
 ! R8    R(3,5)                  1.3603         estimate D2E/DX2                !
 ! R9    R(4,15)                 1.0185         estimate D2E/DX2                !
 ! R10   R(5,6)                  1.4541         estimate D2E/DX2                !
 ! R11   R(5,16)                 1.0068         estimate D2E/DX2                !
 ! R12   R(6,7)                  1.4767         estimate D2E/DX2                !
 ! R13   R(6,17)                 1.0984         estimate D2E/DX2                !
 ! R14   R(6,18)                 1.0984         estimate D2E/DX2                !
 ! R15   R(7,8)                  1.2872         estimate D2E/DX2                !
 ! R16   R(8,9)                  1.4468         estimate D2E/DX2                !
 ! R17   R(8,19)                 1.1033         estimate D2E/DX2                !
 ! R18   R(9,10)                 1.1676         estimate D2E/DX2                !
 ! A1    A(2,1,11)             112.0853         estimate D2E/DX2                !
 ! A2    A(2,1,12)             110.7588         estimate D2E/DX2                !
 ! A3    A(2,1,13)             110.7588         estimate D2E/DX2                !
 ! A4    A(11,1,12)            107.3323         estimate D2E/DX2                !
 ! A5    A(11,1,13)            107.3318         estimate D2E/DX2                !
 ! A6    A(12,1,13)            108.4041         estimate D2E/DX2                !
 ! A7    A(1,2,3)              124.9715         estimate D2E/DX2                !
 ! A8    A(1,2,14)             115.4001         estimate D2E/DX2                !
 ! A9    A(3,2,14)             119.6284         estimate D2E/DX2                !
 ! A10   A(2,3,4)              123.079          estimate D2E/DX2                !
 ! A11   A(2,3,5)              116.8549         estimate D2E/DX2                !
 ! A12   A(4,3,5)              120.0661         estimate D2E/DX2                !
 ! A13   A(3,4,15)             108.9671         estimate D2E/DX2                !
 ! A14   A(3,5,6)              122.7428         estimate D2E/DX2                !
 ! A15   A(3,5,16)             122.4333         estimate D2E/DX2                !
 ! A16   A(6,5,16)             114.824          estimate D2E/DX2                !
 ! A17   A(5,6,7)              113.5371         estimate D2E/DX2                !
 ! A18   A(5,6,17)             108.8189         estimate D2E/DX2                !
 ! A19   A(5,6,18)             108.8192         estimate D2E/DX2                !
 ! A20   A(7,6,17)             108.9527         estimate D2E/DX2                !
 ! A21   A(7,6,18)             108.9524         estimate D2E/DX2                !
 ! A22   A(17,6,18)            107.5952         estimate D2E/DX2                !
 ! A23   A(6,7,8)              113.9239         estimate D2E/DX2                !
 ! A24   A(7,8,9)              115.1865         estimate D2E/DX2                !
 ! A25   A(7,8,19)             127.9301         estimate D2E/DX2                !
 ! A26   A(9,8,19)             116.8833         estimate D2E/DX2                !
 ! A27   L(8,9,10,16,-1)       183.4343         estimate D2E/DX2                !
 ! A28   L(8,9,10,16,-2)       179.9999         estimate D2E/DX2                !
 ! D1    D(11,1,2,3)          -179.9998         estimate D2E/DX2                !
 ! D2    D(11,1,2,14)           -0.0001         estimate D2E/DX2                !
 ! D3    D(12,1,2,3)            60.1574         estimate D2E/DX2                !
 ! D4    D(12,1,2,14)         -119.843          estimate D2E/DX2                !
 ! D5    D(13,1,2,3)           -60.1574         estimate D2E/DX2                !
 ! D6    D(13,1,2,14)          119.8422         estimate D2E/DX2                !
 ! D7    D(1,2,3,4)             -0.0002         estimate D2E/DX2                !
 ! D8    D(1,2,3,5)            180.0            estimate D2E/DX2                !
 ! D9    D(14,2,3,4)          -179.9998         estimate D2E/DX2                !
 ! D10   D(14,2,3,5)             0.0003         estimate D2E/DX2                !
 ! D11   D(2,3,4,15)             0.0003         estimate D2E/DX2                !
 ! D12   D(5,3,4,15)          -179.9999         estimate D2E/DX2                !
 ! D13   D(2,3,5,6)            179.9997         estimate D2E/DX2                !
 ! D14   D(2,3,5,16)             0.0004         estimate D2E/DX2                !
 ! D15   D(4,3,5,6)             -0.0001         estimate D2E/DX2                !
 ! D16   D(4,3,5,16)          -179.9994         estimate D2E/DX2                !
 ! D17   D(3,5,6,7)           -179.9997         estimate D2E/DX2                !
 ! D18   D(3,5,6,17)            58.4858         estimate D2E/DX2                !
 ! D19   D(3,5,6,18)           -58.4855         estimate D2E/DX2                !
 ! D20   D(16,5,6,7)            -0.0004         estimate D2E/DX2                !
 ! D21   D(16,5,6,17)         -121.5149         estimate D2E/DX2                !
 ! D22   D(16,5,6,18)          121.5139         estimate D2E/DX2                !
 ! D23   D(5,6,7,8)           -179.9995         estimate D2E/DX2                !
 ! D24   D(17,6,7,8)           -58.5599         estimate D2E/DX2                !
 ! D25   D(18,6,7,8)            58.5606         estimate D2E/DX2                !
 ! D26   D(6,7,8,9)            179.9998         estimate D2E/DX2                !
 ! D27   D(6,7,8,19)            -0.0002         estimate D2E/DX2                !
 ! D28   D(7,8,9,19)           180.0            estimate D2E/DX2                !
 --------------------------------------------------------------------------------
 Trust Radius=3.00D-01 FncErr=1.00D-07 GrdErr=1.00D-06 EigMax=2.50D+02 EigMin=1.00D-04
 Number of steps in this run=     84 maximum allowed number of steps=    114.
 GradGradGradGradGradGradGradGradGradGradGradGradGradGradGradGradGradGrad

                          Input orientation:                          
 ---------------------------------------------------------------------
 Center     Atomic      Atomic             Coordinates (Angstroms)
 Number     Number       Type             X           Y           Z
 ---------------------------------------------------------------------
      1          6           0        1.110570    0.113360   -0.040560
      2          7           0        2.557930    0.201560   -0.144390
      3          6           0        3.231130    0.968950   -1.047770
      4          7           0        2.638440    1.711530   -1.921950
      5          7           0        4.589870    0.926860   -0.998220
      6          6           0        5.433930    1.693460   -1.900680
      7          7           0        6.878680    1.495580   -1.667740
      8          6           0        7.632910    2.170910   -2.462740
      9          6           0        9.054670    1.997280   -2.258340
     10          7           0       10.212920    1.901910   -2.146070
     11          1           0        0.795420   -0.566360    0.759620
     12          1           0        0.676010   -0.259010   -0.975340
     13          1           0        0.676010    1.096050    0.175740
     14          1           0        3.075660   -0.361220    0.518130
     15          1           0        1.630810    1.615670   -1.809100
     16          1           0        5.088590    0.360650   -0.331680
     17          1           0        5.197070    2.759960   -1.787170
     18          1           0        5.197070    1.408970   -2.934790
     19          1           0        7.325080    2.856840   -3.270220
 ---------------------------------------------------------------------
                    Distance matrix (angstroms):
                    1          2          3          4          5
     1  C    0.000000
     2  N    1.453758   0.000000
     3  C    2.498656   1.363151   0.000000
     4  N    2.903130   2.333712   1.291084   0.000000
     5  N    3.699246   2.320316   1.360295   2.297186   0.000000
     6  C    4.964696   3.685335   2.470769   2.795629   1.454148
     7  N    6.150556   4.760668   3.737154   4.253339   2.451602
     8  C    7.255438   5.916799   4.777292   5.044622   3.598968
     9  C    8.460285   7.064066   6.036270   6.431393   4.761107
    10  N    9.512353   8.093008   7.128960   7.580186   5.821252
    11  H    1.096187   2.124471   3.399488   3.971942   4.440446
    12  H    1.096045   2.108133   2.835801   2.937725   4.089635
    13  H    1.096042   2.108132   2.835801   2.937729   4.089634
    14  H    2.097365   1.011780   2.060477   3.231322   2.500260
    15  H    2.378091   2.372871   1.886503   1.018451   3.144522
    16  H    3.996317   2.542563   2.081579   3.218240   1.006773
    17  H    5.172487   4.026065   2.760317   2.768386   2.085998
    18  H    5.172490   4.026069   2.760323   2.768389   2.086007
    19  H    7.521803   6.288644   5.026315   5.009407   4.045761
                    6          7          8          9         10
     6  C    0.000000
     7  N    1.476726   0.000000
     8  C    2.319350   1.287229   0.000000
     9  C    3.651025   2.309858   1.446834   0.000000
    10  N    4.789824   3.392795   2.613253   1.167580   0.000000
    11  H    5.805149   6.866566   8.039124   9.159451  10.159956
    12  H    5.225533   6.483141   7.517668   8.771481   9.848494
    13  H    5.225536   6.483144   7.517670   8.771482   9.848496
    14  H    3.953959   4.763265   6.005480   7.001419   7.947339
    15  H    3.805018   5.251147   6.063064   7.447224   8.593491
    16  H    2.087439   2.505503   3.780479   4.703229   5.650332
    17  H    1.098367   2.107305   2.595514   3.960399   5.101354
    18  H    1.098372   2.107304   2.595515   3.960400   5.101355
    19  H    2.608743   2.149475   1.103306   2.180419   3.242719
                   11         12         13         14         15
    11  H    0.000000
    12  H    1.766015   0.000000
    13  H    1.766007   1.777969   0.000000
    14  H    2.302150   2.828289   2.828283   0.000000
    15  H    3.472384   2.263012   2.263015   3.378119   0.000000
    16  H    4.525659   4.502126   4.502127   2.301122   3.964100
    17  H    6.076600   5.496656   5.202076   4.422279   3.745409
    18  H    6.076604   5.202075   5.496663   4.422286   3.745412
    19  H    8.402045   7.693187   7.693189   6.539501   6.008335
                   16         17         18         19
    16  H    0.000000
    17  H    2.808364   0.000000
    18  H    2.808367   1.772627   0.000000
    19  H    4.457339   2.595621   2.595625   0.000000
 Stoichiometry    C5H9N5
 Framework group  C1[X(C5H9N5)]
 Deg. of freedom    51
 Full point group                 C1      NOp   1
 Largest Abelian subgroup         C1      NOp   1
 Largest concise Abelian subgroup C1      NOp   1
                         Standard orientation:                         
 ---------------------------------------------------------------------
 Center     Atomic      Atomic             Coordinates (Angstroms)
 Number     Number       Type             X           Y           Z
 ---------------------------------------------------------------------
      1          6           0        4.337422   -0.475079    0.000001
      2          7           0        2.918783   -0.792690    0.000000
      3          6           0        1.912301    0.126643   -0.000002
      4          7           0        2.121612    1.400647   -0.000000
      5          7           0        0.640125   -0.354989   -0.000003
      6          6           0       -0.528483    0.510402    0.000001
      7          7           0       -1.808116   -0.226661    0.000005
      8          6           0       -2.847729    0.532393   -0.000001
      9          6           0       -4.117067   -0.161948   -0.000001
     10          7           0       -5.173136   -0.659906   -0.000001
     11          1           0        4.961535   -1.376250   -0.000001
     12          1           0        4.605088    0.107481    0.888986
     13          1           0        4.605090    0.107475   -0.888983
     14          1           0        2.694960   -1.779402   -0.000004
     15          1           0        3.125691    1.571143   -0.000001
     16          1           0        0.436014   -1.340854    0.000004
     17          1           0       -0.489810    1.157986   -0.886311
     18          1           0       -0.489812    1.157990    0.886316
     19          1           0       -2.882303    1.635157   -0.000006
 ---------------------------------------------------------------------
 Rotational constants (GHZ):           6.9742801           0.3956258           0.3761583
 Standard basis: 6-31G(2df,p) (6D, 7F)
 There are   355 symmetry adapted cartesian basis functions of A   symmetry.
 There are   325 symmetry adapted basis functions of A   symmetry.
   325 basis functions,   503 primitive gaussians,   355 cartesian basis functions
    37 alpha electrons       37 beta electrons
       nuclear repulsion energy       467.3467691117 Hartrees.
 NAtoms=   19 NActive=   19 NUniq=   19 SFac= 1.00D+00 NAtFMM=   60 NAOKFM=F Big=F
 Integral buffers will be    131072 words long.
 Raffenetti 2 integral format.
 Two-electron integral symmetry is turned on.
 One-electron integrals computed using PRISM.
 PrsmSu:  requested number of processors reduced to:  13 ShMem   1 Linda.
 NBasis=   325 RedAO= T EigKep=  1.49D-04  NBF=   325
 NBsUse=   325 1.00D-06 EigRej= -1.00D+00 NBFU=   325
 ExpMin= 1.61D-01 ExpMax= 4.17D+03 ExpMxC= 6.27D+02 IAcc=3 IRadAn=         5 AccDes= 0.00D+00
 Harris functional with IExCor=  402 and IRadAn=       5 diagonalized for initial guess.
 HarFok:  IExCor=  402 AccDes= 0.00D+00 IRadAn=         5 IDoV= 1 UseB2=F ITyADJ=14
 ICtDFT=  3500011 ScaDFX=  1.000000  1.000000  1.000000  1.000000
 FoFCou: FMM=F IPFlag=           0 FMFlag=      100000 FMFlg1=           0
         NFxFlg=           0 DoJE=T BraDBF=F KetDBF=T FulRan=T
         wScrn=  0.000000 ICntrl=       500 IOpCl=  0 I1Cent=   200000004 NGrid=           0
         NMat0=    1 NMatS0=      1 NMatT0=    0 NMatD0=    1 NMtDS0=    0 NMtDT0=    0
 Petite list used in FoFCou.
 Requested convergence on RMS density matrix=1.00D-08 within 128 cycles.
 Requested convergence on MAX density matrix=1.00D-06.
 Requested convergence on             energy=1.00D-06.
 No special actions if energy rises.
 Integral accuracy reduced to 1.0D-05 until final iterations.
 EnCoef did     9 forward-backward iterations
 Initial convergence to 1.0D-05 achieved.  Increase integral accuracy.
 SCF Done:  E(RB3LYP) =  -469.673297960     A.U. after   14 cycles
            NFock= 14  Conv=0.71D-08     -V/T= 2.0077

 **********************************************************************

            Population analysis using the SCF density.

 **********************************************************************

 Orbital symmetries:
       Occupied  (A) (A) (A) (A) (A) (A) (A) (A) (A) (A) (A) (A)
                 (A) (A) (A) (A) (A) (A) (A) (A) (A) (A) (A) (A)
                 (A) (A) (A) (A) (A) (A) (A) (A) (A) (A) (A) (A)
                 (A)
       Virtual   (A) (A) (A) (A) (A) (A) (A) (A) (A) (A) (A) (A)
                 (A) (A) (A) (A) (A) (A) (A) (A) (A) (A) (A) (A)
                 (A) (A) (A) (A) (A) (A) (A) (A) (A) (A) (A) (A)
                 (A) (A) (A) (A) (A) (A) (A) (A) (A) (A) (A) (A)
                 (A) (A) (A) (A) (A) (A) (A) (A) (A) (A) (A) (A)
                 (A) (A) (A) (A) (A) (A) (A) (A) (A) (A) (A) (A)
                 (A) (A) (A) (A) (A) (A) (A) (A) (A) (A) (A) (A)
                 (A) (A) (A) (A) (A) (A) (A) (A) (A) (A) (A) (A)
                 (A) (A) (A) (A) (A) (A) (A) (A) (A) (A) (A) (A)
                 (A) (A) (A) (A) (A) (A) (A) (A) (A) (A) (A) (A)
                 (A) (A) (A) (A) (A) (A) (A) (A) (A) (A) (A) (A)
                 (A) (A) (A) (A) (A) (A) (A) (A) (A) (A) (A) (A)
                 (A) (A) (A) (A) (A) (A) (A) (A) (A) (A) (A) (A)
                 (A) (A) (A) (A) (A) (A) (A) (A) (A) (A) (A) (A)
                 (A) (A) (A) (A) (A) (A) (A) (A) (A) (A) (A) (A)
                 (A) (A) (A) (A) (A) (A) (A) (A) (A) (A) (A) (A)
                 (A) (A) (A) (A) (A) (A) (A) (A) (A) (A) (A) (A)
                 (A) (A) (A) (A) (A) (A) (A) (A) (A) (A) (A) (A)
                 (A) (A) (A) (A) (A) (A) (A) (A) (A) (A) (A) (A)
                 (A) (A) (A) (A) (A) (A) (A) (A) (A) (A) (A) (A)
                 (A) (A) (A) (A) (A) (A) (A) (A) (A) (A) (A) (A)
                 (A) (A) (A) (A) (A) (A) (A) (A) (A) (A) (A) (A)
                 (A) (A) (A) (A) (A) (A) (A) (A) (A) (A) (A) (A)
                 (A) (A) (A) (A) (A) (A) (A) (A) (A) (A) (A) (A)
 The electronic state is 1-A.
 Alpha  occ. eigenvalues --  -14.38008 -14.35046 -14.34927 -14.34688 -14.26263
 Alpha  occ. eigenvalues --  -10.28844 -10.27174 -10.26031 -10.23796 -10.22855
 Alpha  occ. eigenvalues --   -0.98952  -0.96262  -0.91185  -0.89756  -0.83290
 Alpha  occ. eigenvalues --   -0.74950  -0.70568  -0.64640  -0.59548  -0.56378
 Alpha  occ. eigenvalues --   -0.54494  -0.49760  -0.48589  -0.48348  -0.45153
 Alpha  occ. eigenvalues --   -0.44019  -0.43254  -0.39926  -0.39715  -0.37523
 Alpha  occ. eigenvalues --   -0.36669  -0.34541  -0.31246  -0.30771  -0.25258
 Alpha  occ. eigenvalues --   -0.24238  -0.21300
 Alpha virt. eigenvalues --   -0.08311   0.01511   0.05950   0.07553   0.09084
 Alpha virt. eigenvalues --    0.09323   0.10259   0.11724   0.12165   0.13531
 Alpha virt. eigenvalues --    0.16464   0.16541   0.17618   0.18710   0.19961
 Alpha virt. eigenvalues --    0.20440   0.22632   0.28715   0.30660   0.34490
 Alpha virt. eigenvalues --    0.36620   0.40084   0.40557   0.43166   0.46140
 Alpha virt. eigenvalues --    0.47815   0.49131   0.50602   0.50986   0.52134
 Alpha virt. eigenvalues --    0.52868   0.52915   0.54912   0.56212   0.58575
 Alpha virt. eigenvalues --    0.60394   0.62216   0.62460   0.63780   0.63895
 Alpha virt. eigenvalues --    0.65605   0.66533   0.66743   0.67848   0.69947
 Alpha virt. eigenvalues --    0.70944   0.71389   0.72472   0.72602   0.73857
 Alpha virt. eigenvalues --    0.74092   0.75725   0.76091   0.78095   0.78245
 Alpha virt. eigenvalues --    0.80296   0.80309   0.81627   0.82238   0.84193
 Alpha virt. eigenvalues --    0.84470   0.86715   0.88191   0.88842   0.89932
 Alpha virt. eigenvalues --    0.92374   0.93214   0.96825   0.97498   0.98692
 Alpha virt. eigenvalues --    1.03024   1.03852   1.08720   1.11757   1.15139
 Alpha virt. eigenvalues --    1.16233   1.18114   1.20563   1.22319   1.23633
 Alpha virt. eigenvalues --    1.24747   1.25729   1.30242   1.30351   1.30989
 Alpha virt. eigenvalues --    1.33664   1.35742   1.37332   1.37534   1.38445
 Alpha virt. eigenvalues --    1.40404   1.43422   1.45977   1.46246   1.50959
 Alpha virt. eigenvalues --    1.55088   1.55544   1.56036   1.57565   1.62736
 Alpha virt. eigenvalues --    1.66945   1.67603   1.69517   1.70821   1.74342
 Alpha virt. eigenvalues --    1.75458   1.80763   1.81435   1.84109   1.87026
 Alpha virt. eigenvalues --    1.89640   1.90778   1.92959   1.96998   1.99605
 Alpha virt. eigenvalues --    2.02777   2.04413   2.12725   2.17282   2.17565
 Alpha virt. eigenvalues --    2.20194   2.20649   2.25042   2.29225   2.34578
 Alpha virt. eigenvalues --    2.38869   2.41094   2.41744   2.44357   2.46772
 Alpha virt. eigenvalues --    2.50624   2.52202   2.53000   2.58016   2.64127
 Alpha virt. eigenvalues --    2.67435   2.67781   2.73982   2.74700   2.75299
 Alpha virt. eigenvalues --    2.78929   2.80275   2.83342   2.84380   2.84514
 Alpha virt. eigenvalues --    2.85385   2.89551   2.90661   2.93744   2.94991
 Alpha virt. eigenvalues --    2.96581   3.02050   3.03085   3.04395   3.07700
 Alpha virt. eigenvalues --    3.08881   3.10319   3.10569   3.13294   3.13395
 Alpha virt. eigenvalues --    3.14765   3.18286   3.20486   3.22169   3.26260
 Alpha virt. eigenvalues --    3.28996   3.29027   3.30293   3.33690   3.36279
 Alpha virt. eigenvalues --    3.42730   3.43170   3.47051   3.48949   3.49667
 Alpha virt. eigenvalues --    3.54077   3.59793   3.59810   3.63945   3.65981
 Alpha virt. eigenvalues --    3.66012   3.66528   3.67478   3.71595   3.71674
 Alpha virt. eigenvalues --    3.75801   3.76656   3.78711   3.81543   3.84248
 Alpha virt. eigenvalues --    3.85345   3.88946   3.89655   3.93519   3.95505
 Alpha virt. eigenvalues --    3.98812   4.01515   4.03976   4.05213   4.07484
 Alpha virt. eigenvalues --    4.09761   4.10765   4.13987   4.14987   4.15360
 Alpha virt. eigenvalues --    4.20207   4.21261   4.23091   4.24170   4.26232
 Alpha virt. eigenvalues --    4.27857   4.28905   4.30527   4.31491   4.33204
 Alpha virt. eigenvalues --    4.34935   4.35010   4.37194   4.38434   4.40850
 Alpha virt. eigenvalues --    4.42790   4.43548   4.43978   4.45829   4.48575
 Alpha virt. eigenvalues --    4.51286   4.52560   4.54429   4.54598   4.56394
 Alpha virt. eigenvalues --    4.57918   4.58210   4.62028   4.62462   4.65911
 Alpha virt. eigenvalues --    4.68750   4.70766   4.70885   4.73097   4.74961
 Alpha virt. eigenvalues --    4.78671   4.78773   4.82429   4.83269   4.84020
 Alpha virt. eigenvalues --    4.86776   4.89456   4.89815   4.93904   4.98576
 Alpha virt. eigenvalues --    5.00856   5.02835   5.06255   5.08320   5.10968
 Alpha virt. eigenvalues --    5.14816   5.15434   5.19029   5.20641   5.25123
 Alpha virt. eigenvalues --    5.31679   5.32881   5.33162   5.36674   5.49214
 Alpha virt. eigenvalues --    5.51696   5.62652   5.70280   5.84130   5.87321
 Alpha virt. eigenvalues --    5.97112   6.20568   6.30103   9.85214  10.30334
 Alpha virt. eigenvalues --   10.58853  11.06651  11.15740  11.22612  11.38639
 Alpha virt. eigenvalues --   11.40366  11.43834  11.48957  11.87077  12.99275
 Alpha virt. eigenvalues --   16.58442  18.85449  19.85647
          Condensed to atoms (all electrons):
               1          2          3          4          5          6
     1  C    4.899615   0.398966  -0.049121  -0.006261   0.002354  -0.000206
     2  N    0.398966   6.320083   0.478850  -0.054666  -0.037709   0.002495
     3  C   -0.049121   0.478850   4.317295   0.613251   0.358324  -0.036201
     4  N   -0.006261  -0.054666   0.613251   6.684666  -0.028595   0.000048
     5  N    0.002354  -0.037709   0.358324  -0.028595   6.440239   0.392195
     6  C   -0.000206   0.002495  -0.036201   0.000048   0.392195   4.786063
     7  N    0.000000   0.000010   0.002570   0.000451  -0.030139   0.344632
     8  C   -0.000000   0.000000  -0.000087   0.000030   0.001710  -0.096217
     9  C   -0.000000   0.000000   0.000001   0.000000   0.000026   0.004380
    10  N   -0.000000   0.000000  -0.000000   0.000000   0.000000  -0.000051
    11  H    0.376799  -0.017069   0.002711   0.000676  -0.000028   0.000000
    12  H    0.374900  -0.037035  -0.002460   0.003600   0.000053   0.000000
    13  H    0.374900  -0.037035  -0.002460   0.003599   0.000053   0.000000
    14  H   -0.045542   0.349105  -0.044073   0.007743   0.002224  -0.000435
    15  H    0.010052  -0.018847  -0.083634   0.354646   0.006248  -0.000676
    16  H   -0.000056  -0.001106  -0.038311   0.003503   0.351948  -0.046607
    17  H    0.000002   0.000039  -0.000738   0.007950  -0.039726   0.355006
    18  H    0.000002   0.000039  -0.000738   0.007950  -0.039726   0.355005
    19  H    0.000000  -0.000000   0.000001  -0.000007  -0.000175  -0.006393
               7          8          9         10         11         12
     1  C    0.000000  -0.000000  -0.000000  -0.000000   0.376799   0.374900
     2  N    0.000010   0.000000   0.000000   0.000000  -0.017069  -0.037035
     3  C    0.002570  -0.000087   0.000001  -0.000000   0.002711  -0.002460
     4  N    0.000451   0.000030   0.000000   0.000000   0.000676   0.003600
     5  N   -0.030139   0.001710   0.000026   0.000000  -0.000028   0.000053
     6  C    0.344632  -0.096217   0.004380  -0.000051   0.000000   0.000000
     7  N    6.364048   0.645665  -0.040326  -0.006475  -0.000000  -0.000000
     8  C    0.645665   4.777674   0.398841  -0.010896  -0.000000  -0.000000
     9  C   -0.040326   0.398841   4.415360   0.994381  -0.000000   0.000000
    10  N   -0.006475  -0.010896   0.994381   6.330688  -0.000000  -0.000000
    11  H   -0.000000  -0.000000  -0.000000  -0.000000   0.570111  -0.030305
    12  H   -0.000000  -0.000000   0.000000  -0.000000  -0.030305   0.600541
    13  H   -0.000000  -0.000000   0.000000  -0.000000  -0.030306  -0.052214
    14  H   -0.000031  -0.000000  -0.000000  -0.000000  -0.005314   0.003572
    15  H   -0.000009  -0.000001  -0.000000  -0.000000  -0.000009   0.002812
    16  H    0.008194   0.000507  -0.000064  -0.000000  -0.000021   0.000010
    17  H   -0.025457  -0.005903  -0.000557   0.000005  -0.000000  -0.000000
    18  H   -0.025457  -0.005903  -0.000557   0.000005  -0.000000  -0.000000
    19  H   -0.049338   0.380413  -0.062107   0.000742   0.000000  -0.000000
              13         14         15         16         17         18
     1  C    0.374900  -0.045542   0.010052  -0.000056   0.000002   0.000002
     2  N   -0.037035   0.349105  -0.018847  -0.001106   0.000039   0.000039
     3  C   -0.002460  -0.044073  -0.083634  -0.038311  -0.000738  -0.000738
     4  N    0.003599   0.007743   0.354646   0.003503   0.007950   0.007950
     5  N    0.000053   0.002224   0.006248   0.351948  -0.039726  -0.039726
     6  C    0.000000  -0.000435  -0.000676  -0.046607   0.355006   0.355005
     7  N   -0.000000  -0.000031  -0.000009   0.008194  -0.025457  -0.025457
     8  C   -0.000000  -0.000000  -0.000001   0.000507  -0.005903  -0.005903
     9  C    0.000000  -0.000000  -0.000000  -0.000064  -0.000557  -0.000557
    10  N   -0.000000  -0.000000  -0.000000  -0.000000   0.000005   0.000005
    11  H   -0.030306  -0.005314  -0.000009  -0.000021  -0.000000  -0.000000
    12  H   -0.052214   0.003572   0.002812   0.000010  -0.000000  -0.000000
    13  H    0.600541   0.003572   0.002812   0.000010  -0.000000  -0.000000
    14  H    0.003572   0.491641   0.000688   0.004602  -0.000012  -0.000012
    15  H    0.002812   0.000688   0.525506  -0.000288  -0.000078  -0.000078
    16  H    0.000010   0.004602  -0.000288   0.465728   0.004608   0.004608
    17  H   -0.000000  -0.000012  -0.000078   0.004608   0.604814  -0.046883
    18  H   -0.000000  -0.000012  -0.000078   0.004608  -0.046883   0.604815
    19  H   -0.000000  -0.000000   0.000000   0.000092   0.005061   0.005061
              19
     1  C    0.000000
     2  N   -0.000000
     3  C    0.000001
     4  N   -0.000007
     5  N   -0.000175
     6  C   -0.006393
     7  N   -0.049338
     8  C    0.380413
     9  C   -0.062107
    10  N    0.000742
    11  H    0.000000
    12  H   -0.000000
    13  H   -0.000000
    14  H   -0.000000
    15  H    0.000000
    16  H    0.000092
    17  H    0.005061
    18  H    0.005061
    19  H    0.571424
 Mulliken charges:
               1
     1  C   -0.336405
     2  N   -0.346121
     3  C    0.484820
     4  N   -0.598584
     5  N   -0.379275
     6  C   -0.053037
     7  N   -0.188336
     8  C   -0.085834
     9  C    0.290621
    10  N   -0.308398
    11  H    0.132755
    12  H    0.136529
    13  H    0.136529
    14  H    0.232272
    15  H    0.200854
    16  H    0.242644
    17  H    0.141870
    18  H    0.141869
    19  H    0.155227
 Sum of Mulliken charges =  -0.00000
 Mulliken charges with hydrogens summed into heavy atoms:
               1
     1  C    0.069408
     2  N   -0.113850
     3  C    0.484820
     4  N   -0.397730
     5  N   -0.136631
     6  C    0.230702
     7  N   -0.188336
     8  C    0.069393
     9  C    0.290621
    10  N   -0.308398
 Electronic spatial extent (au):  <R**2>=           2742.8988
 Charge=             -0.0000 electrons
 Dipole moment (field-independent basis, Debye):
    X=              4.1370    Y=             -0.9058    Z=             -0.0000  Tot=              4.2350
 Quadrupole moment (field-independent basis, Debye-Ang):
   XX=            -69.2671   YY=            -57.6338   ZZ=            -59.5473
   XY=            -16.8419   XZ=             -0.0000   YZ=              0.0000
 Traceless Quadrupole moment (field-independent basis, Debye-Ang):
   XX=             -7.1177   YY=              4.5156   ZZ=              2.6021
   XY=            -16.8419   XZ=             -0.0000   YZ=              0.0000
 Octapole moment (field-independent basis, Debye-Ang**2):
  XXX=            215.4174  YYY=            -16.4012  ZZZ=             -0.0000  XYY=              6.5449
  XXY=             27.1267  XXZ=             -0.0002  XZZ=             -0.2662  YZZ=              0.3278
  YYZ=             -0.0000  XYZ=              0.0001
 Hexadecapole moment (field-independent basis, Debye-Ang**3):
 XXXX=          -3973.3741 YYYY=           -240.1878 ZZZZ=            -68.1973 XXXY=           -232.5414
 XXXZ=             -0.0007 YYYX=            -52.3255 YYYZ=              0.0000 ZZZX=             -0.0000
 ZZZY=              0.0000 XXYY=           -582.3223 XXZZ=           -572.5469 YYZZ=            -54.4764
 XXYZ=              0.0002 YYXZ=             -0.0001 ZZXY=             -0.4130
 N-N= 4.673467691117D+02 E-N=-2.027532995782D+03  KE= 4.660625815295D+02
 PrsmSu:  requested number of processors reduced to:  13 ShMem   1 Linda.
 Calling FoFJK, ICntrl=      2127 FMM=F ISym2X=0 I1Cent= 0 IOpClX= 0 NMat=1 NMatS=1 NMatT=0.
 ***** Axes restored to original set *****
 -------------------------------------------------------------------
 Center     Atomic                   Forces (Hartrees/Bohr)
 Number     Number              X              Y              Z
 -------------------------------------------------------------------
      1        6           0.002931169    0.005422463   -0.006385391
      2        7           0.002740585   -0.023491583    0.027654867
      3        6          -0.018983482    0.012100741   -0.014245981
      4        7           0.003704117    0.001992698   -0.002345497
      5        7           0.030063885   -0.005703597    0.006714140
      6        6          -0.006585226    0.003763673   -0.004434355
      7        7          -0.014377738    0.012081868   -0.014221867
      8        6           0.003725383   -0.018219193    0.021447713
      9        6           0.021214981    0.004864004   -0.005726312
     10        7          -0.023896006    0.001130349   -0.001330545
     11        1           0.007655266    0.000958639   -0.001129250
     12        1          -0.002043539    0.000196907   -0.000794719
     13        1          -0.002044260    0.000754724   -0.000322844
     14        1          -0.000601462    0.003589485   -0.004225579
     15        1           0.002486280    0.002961233   -0.003486023
     16        1          -0.003203184   -0.000448433    0.000527721
     17        1          -0.000844664    0.000457543   -0.002201841
     18        1          -0.000844702    0.002099261   -0.000804505
     19        1          -0.001097404   -0.004510783    0.005310269
 -------------------------------------------------------------------
 Cartesian Forces:  Max     0.030063885 RMS     0.010119119

 GradGradGradGradGradGradGradGradGradGradGradGradGradGradGradGradGradGrad
 Berny optimization.
 FormGI is forming the generalized inverse of G from B-inverse, IUseBI=4.
 Internal  Forces:  Max     0.027398643 RMS     0.007743108
 Search for a local minimum.
 Step number   1 out of a maximum of   84
 All quantities printed in internal units (Hartrees-Bohrs-Radians)
 Mixed Optimization -- RFO/linear search
 Second derivative matrix not updated -- first step.
 ITU=  0
     Eigenvalues ---    0.00677   0.00976   0.00981   0.01482   0.01516
     Eigenvalues ---    0.02138   0.02179   0.02217   0.02399   0.03133
     Eigenvalues ---    0.03184   0.04766   0.04766   0.05895   0.07269
     Eigenvalues ---    0.07372   0.07476   0.11707   0.14159   0.16000
     Eigenvalues ---    0.16000   0.16000   0.16000   0.16000   0.16000
     Eigenvalues ---    0.16000   0.22000   0.22000   0.22000   0.22113
     Eigenvalues ---    0.25000   0.25000   0.25000   0.33319   0.33863
     Eigenvalues ---    0.33863   0.34107   0.34123   0.34124   0.34947
     Eigenvalues ---    0.37707   0.37757   0.38663   0.44586   0.45676
     Eigenvalues ---    0.46517   0.52316   0.52888   0.69731   0.70868
     Eigenvalues ---    1.22959
 RFO step:  Lambda=-1.46612829D-02 EMin= 6.76840614D-03
 Linear search not attempted -- first point.
 Iteration  1 RMS(Cart)=  0.11330075 RMS(Int)=  0.00265578
 Iteration  2 RMS(Cart)=  0.00563577 RMS(Int)=  0.00021480
 Iteration  3 RMS(Cart)=  0.00000325 RMS(Int)=  0.00021479
 Iteration  4 RMS(Cart)=  0.00000000 RMS(Int)=  0.00021479
 Variable       Old X    -DE/DX   Delta X   Delta X   Delta X     New X
                                 (Linear)    (Quad)   (Total)
    R1        2.74720  -0.00753   0.00000  -0.01920  -0.01920   2.72800
    R2        2.07149  -0.00362   0.00000  -0.01018  -0.01018   2.06132
    R3        2.07123   0.00142   0.00000   0.00399   0.00399   2.07522
    R4        2.07122   0.00142   0.00000   0.00400   0.00400   2.07522
    R5        2.57598   0.01262   0.00000   0.02346   0.02346   2.59944
    R6        1.91199  -0.00507   0.00000  -0.01076  -0.01076   1.90123
    R7        2.43979   0.00396   0.00000   0.00556   0.00556   2.44535
    R8        2.57058   0.00448   0.00000   0.00825   0.00825   2.57883
    R9        1.92459  -0.00312   0.00000  -0.00679  -0.00679   1.91781
   R10        2.74794  -0.01108   0.00000  -0.02829  -0.02829   2.71965
   R11        1.90252  -0.00099   0.00000  -0.00205  -0.00205   1.90047
   R12        2.79061  -0.01263   0.00000  -0.03469  -0.03469   2.75592
   R13        2.07561   0.00040   0.00000   0.00113   0.00113   2.07674
   R14        2.07562   0.00040   0.00000   0.00112   0.00112   2.07674
   R15        2.43251  -0.02098   0.00000  -0.02900  -0.02900   2.40351
   R16        2.73412  -0.00435   0.00000  -0.01084  -0.01084   2.72328
   R17        2.08495  -0.00638   0.00000  -0.01835  -0.01835   2.06659
   R18        2.20641  -0.02393   0.00000  -0.01923  -0.01923   2.18718
    A1        1.95626  -0.01127   0.00000  -0.06925  -0.06909   1.88717
    A2        1.93311   0.00379   0.00000   0.02402   0.02376   1.95687
    A3        1.93311   0.00378   0.00000   0.02402   0.02376   1.95687
    A4        1.87330   0.00288   0.00000   0.01200   0.01215   1.88545
    A5        1.87329   0.00288   0.00000   0.01201   0.01216   1.88545
    A6        1.89201  -0.00192   0.00000  -0.00190  -0.00249   1.88952
    A7        2.18116  -0.00690   0.00000  -0.02939  -0.02939   2.15177
    A8        2.01411   0.00567   0.00000   0.02740   0.02740   2.04151
    A9        2.08791   0.00123   0.00000   0.00200   0.00200   2.08991
   A10        2.14813   0.02197   0.00000   0.08303   0.08303   2.23116
   A11        2.03950  -0.01395   0.00000  -0.05269  -0.05269   1.98681
   A12        2.09555  -0.00803   0.00000  -0.03033  -0.03033   2.06522
   A13        1.90183   0.00801   0.00000   0.04588   0.04588   1.94772
   A14        2.14227  -0.00956   0.00000  -0.04073  -0.04073   2.10154
   A15        2.13686   0.00181   0.00000   0.00334   0.00334   2.14020
   A16        2.00406   0.00775   0.00000   0.03739   0.03739   2.04144
   A17        1.98160  -0.02740   0.00000  -0.11913  -0.11888   1.86272
   A18        1.89925   0.00752   0.00000   0.03095   0.03080   1.93005
   A19        1.89925   0.00752   0.00000   0.03095   0.03079   1.93005
   A20        1.90158   0.00848   0.00000   0.03309   0.03300   1.93458
   A21        1.90158   0.00848   0.00000   0.03310   0.03300   1.93458
   A22        1.87789  -0.00363   0.00000  -0.00394  -0.00514   1.87275
   A23        1.98835   0.00980   0.00000   0.03704   0.03704   2.02538
   A24        2.01038   0.01587   0.00000   0.06765   0.06765   2.07803
   A25        2.23280  -0.01106   0.00000  -0.05172  -0.05172   2.18108
   A26        2.04000  -0.00481   0.00000  -0.01593  -0.01593   2.02407
   A27        3.20153  -0.00283   0.00000  -0.04542  -0.04542   3.15611
   A28        3.14159   0.00000   0.00000   0.00000   0.00000   3.14159
    D1       -3.14159  -0.00000   0.00000  -0.00000  -0.00000  -3.14159
    D2       -0.00000  -0.00000   0.00000  -0.00000  -0.00000  -0.00001
    D3        1.04994   0.00130   0.00000   0.01467   0.01496   1.06490
    D4       -2.09166   0.00130   0.00000   0.01467   0.01496  -2.07670
    D5       -1.04994  -0.00130   0.00000  -0.01467  -0.01496  -1.06490
    D6        2.09164  -0.00130   0.00000  -0.01467  -0.01496   2.07669
    D7       -0.00000   0.00000   0.00000   0.00000   0.00000  -0.00000
    D8        3.14159  -0.00000   0.00000  -0.00000  -0.00000   3.14159
    D9       -3.14159   0.00000   0.00000   0.00000   0.00000  -3.14159
   D10        0.00001  -0.00000   0.00000  -0.00000  -0.00000   0.00001
   D11        0.00001  -0.00000   0.00000  -0.00000  -0.00000   0.00000
   D12       -3.14159   0.00000   0.00000   0.00000   0.00000  -3.14159
   D13        3.14159   0.00000   0.00000   0.00000   0.00000   3.14159
   D14        0.00001   0.00000   0.00000   0.00000   0.00000   0.00001
   D15       -0.00000  -0.00000   0.00000  -0.00000  -0.00000  -0.00000
   D16       -3.14158  -0.00000   0.00000  -0.00000  -0.00000  -3.14158
   D17       -3.14159  -0.00000   0.00000  -0.00000  -0.00000  -3.14159
   D18        1.02077   0.00202   0.00000   0.01485   0.01517   1.03594
   D19       -1.02076  -0.00202   0.00000  -0.01485  -0.01517  -1.03593
   D20       -0.00001  -0.00000   0.00000  -0.00000  -0.00000  -0.00001
   D21       -2.12083   0.00202   0.00000   0.01485   0.01516  -2.10567
   D22        2.12082  -0.00202   0.00000  -0.01485  -0.01517   2.10565
   D23       -3.14158  -0.00000   0.00000  -0.00000  -0.00000  -3.14159
   D24       -1.02206  -0.00259   0.00000  -0.01623  -0.01677  -1.03883
   D25        1.02207   0.00259   0.00000   0.01623   0.01677   1.03884
   D26        3.14159   0.00000   0.00000   0.00001   0.00001  -3.14159
   D27       -0.00000   0.00000   0.00000   0.00000   0.00000   0.00000
   D28        3.14159  -0.00000   0.00000  -0.00000  -0.00000   3.14159
         Item               Value     Threshold  Converged?
 Maximum Force            0.027399     0.000450     NO 
 RMS     Force            0.007743     0.000300     NO 
 Maximum Displacement     0.355135     0.001800     NO 
 RMS     Displacement     0.114699     0.001200     NO 
 Predicted change in Energy=-7.781691D-03
 GradGradGradGradGradGradGradGradGradGradGradGradGradGradGradGradGradGrad

                          Input orientation:                          
 ---------------------------------------------------------------------
 Center     Atomic      Atomic             Coordinates (Angstroms)
 Number     Number       Type             X           Y           Z
 ---------------------------------------------------------------------
      1          6           0        1.185543    0.082169   -0.003842
      2          7           0        2.616971    0.203262   -0.146395
      3          6           0        3.216587    1.004756   -1.089924
      4          7           0        2.642815    1.755663   -1.973904
      5          7           0        4.580408    0.973816   -1.053497
      6          6           0        5.351903    1.760363   -1.979438
      7          7           0        6.755930    1.505022   -1.678849
      8          6           0        7.602627    2.119481   -2.402193
      9          6           0        9.008611    1.914782   -2.161226
     10          7           0       10.141383    1.761011   -1.980208
     11          1           0        0.983349   -0.611789    0.813098
     12          1           0        0.711641   -0.314272   -0.911699
     13          1           0        0.711640    1.042187    0.240562
     14          1           0        3.185584   -0.334081    0.486182
     15          1           0        1.631403    1.701540   -1.910188
     16          1           0        5.092610    0.413490   -0.393885
     17          1           0        5.116331    2.828110   -1.869237
     18          1           0        5.116330    1.478931   -3.015307
     19          1           0        7.351107    2.808509   -3.213318
 ---------------------------------------------------------------------
                    Distance matrix (angstroms):
                    1          2          3          4          5
     1  C    0.000000
     2  N    1.443597   0.000000
     3  C    2.481104   1.375565   0.000000
     4  N    2.967384   2.398001   1.294024   0.000000
     5  N    3.663593   2.296012   1.364658   2.283134   0.000000
     6  C    4.906920   3.642041   2.433465   2.709098   1.439176
     7  N    5.988270   4.601519   3.622713   4.131295   2.325111
     8  C    7.147146   5.798042   4.711901   4.991546   3.502191
     9  C    8.319445   6.916785   5.960149   6.370539   4.660629
    10  N    9.323712   7.899762   7.022630   7.498573   5.692356
    11  H    1.090803   2.062438   3.349934   4.015723   4.351683
    12  H    1.098158   2.117502   2.836609   3.023631   4.080029
    13  H    1.098158   2.117503   2.836609   3.023631   4.080028
    14  H    2.100846   1.006087   2.068225   3.273171   2.454941
    15  H    2.540730   2.515382   1.916024   1.014860   3.155967
    16  H    3.940441   2.496845   2.086511   3.209266   1.005686
    17  H    5.144996   4.013080   2.746084   2.698033   2.095484
    18  H    5.144993   4.013077   2.746082   2.698032   2.095484
    19  H    7.466448   6.213323   4.985638   4.981230   3.963294
                    6          7          8          9         10
     6  C    0.000000
     7  N    1.458371   0.000000
     8  C    2.318070   1.271882   0.000000
     9  C    3.664479   2.339906   1.441096   0.000000
    10  N    4.789481   3.408466   2.598433   1.157405   0.000000
    11  H    5.701720   6.634258   7.849380   8.923844   9.864194
    12  H    5.193862   6.358599   7.458580   8.681573   9.714348
    13  H    5.193863   6.358601   7.458580   8.681575   9.714350
    14  H    3.893445   4.562568   5.820047   6.780398   7.671742
    15  H    3.721608   5.133509   6.006018   7.384557   8.510475
    16  H    2.096492   2.368377   3.639217   4.551092   5.460984
    17  H    1.098964   2.115442   2.639671   4.008649   5.138304
    18  H    1.098965   2.115441   2.639675   4.008650   5.138303
    19  H    2.572526   2.099503   1.093593   2.157073   3.225438
                   11         12         13         14         15
    11  H    0.000000
    12  H    1.771232   0.000000
    13  H    1.771231   1.779800   0.000000
    14  H    2.243621   2.841629   2.841627   0.000000
    15  H    3.631494   2.430318   2.430316   3.507395   0.000000
    16  H    4.403864   4.471091   4.471094   2.229378   3.992267
    17  H    6.009106   5.494792   5.200199   4.390356   3.662725
    18  H    6.009103   5.200195   5.494790   4.390355   3.662725
    19  H    8.273983   7.689716   7.689714   6.396386   5.969802
                   16         17         18         19
    16  H    0.000000
    17  H    2.829773   0.000000
    18  H    2.829767   1.770243   0.000000
    19  H    4.334297   2.607904   2.607914   0.000000
 Stoichiometry    C5H9N5
 Framework group  C1[X(C5H9N5)]
 Deg. of freedom    51
 Full point group                 C1      NOp   1
 Largest Abelian subgroup         C1      NOp   1
 Largest concise Abelian subgroup C1      NOp   1
                         Standard orientation:                         
 ---------------------------------------------------------------------
 Center     Atomic      Atomic             Coordinates (Angstroms)
 Number     Number       Type             X           Y           Z
 ---------------------------------------------------------------------
      1          6           0        4.252587   -0.597208    0.000001
      2          7           0        2.829911   -0.842084    0.000000
      3          6           0        1.890835    0.163059   -0.000000
      4          7           0        2.095725    1.440760    0.000002
      5          7           0        0.602224   -0.286133   -0.000004
      6          6           0       -0.494205    0.646107    0.000001
      7          7           0       -1.718665   -0.146070    0.000001
      8          6           0       -2.808276    0.510002   -0.000003
      9          6           0       -4.057751   -0.208031    0.000000
     10          7           0       -5.069523   -0.770084    0.000002
     11          1           0        4.762889   -1.561284   -0.000001
     12          1           0        4.576481   -0.041221    0.889902
     13          1           0        4.576483   -0.041219   -0.889898
     14          1           0        2.532345   -1.803160   -0.000007
     15          1           0        3.086584    1.660168    0.000001
     16          1           0        0.369042   -1.264412    0.000003
     17          1           0       -0.448869    1.295900   -0.885118
     18          1           0       -0.448867    1.295894    0.885125
     19          1           0       -2.882926    1.601044   -0.000008
 ---------------------------------------------------------------------
 Rotational constants (GHZ):           6.2314050           0.4120209           0.3883537
 Standard basis: 6-31G(2df,p) (6D, 7F)
 There are   355 symmetry adapted cartesian basis functions of A   symmetry.
 There are   325 symmetry adapted basis functions of A   symmetry.
   325 basis functions,   503 primitive gaussians,   355 cartesian basis functions
    37 alpha electrons       37 beta electrons
       nuclear repulsion energy       470.7998223500 Hartrees.
 NAtoms=   19 NActive=   19 NUniq=   19 SFac= 1.00D+00 NAtFMM=   60 NAOKFM=F Big=F
 Integral buffers will be    131072 words long.
 Raffenetti 2 integral format.
 Two-electron integral symmetry is turned on.
 One-electron integrals computed using PRISM.
 PrsmSu:  requested number of processors reduced to:  13 ShMem   1 Linda.
 NBasis=   325 RedAO= T EigKep=  1.46D-04  NBF=   325
 NBsUse=   325 1.00D-06 EigRej= -1.00D+00 NBFU=   325
 Initial guess from the checkpoint file:  "CNCpdNpNCNdCCtN.chk"
 B after Tr=     0.000000    0.000000    0.000000
         Rot=    0.999999   -0.000000   -0.000000    0.001170 Ang=  -0.13 deg.
 ExpMin= 1.61D-01 ExpMax= 4.17D+03 ExpMxC= 6.27D+02 IAcc=2 IRadAn=         4 AccDes= 0.00D+00
 Harris functional with IExCor=  402 and IRadAn=       4 diagonalized for initial guess.
 HarFok:  IExCor=  402 AccDes= 0.00D+00 IRadAn=         4 IDoV= 1 UseB2=F ITyADJ=14
 ICtDFT=  3500011 ScaDFX=  1.000000  1.000000  1.000000  1.000000
 FoFCou: FMM=F IPFlag=           0 FMFlag=      100000 FMFlg1=           0
         NFxFlg=           0 DoJE=T BraDBF=F KetDBF=T FulRan=T
         wScrn=  0.000000 ICntrl=       500 IOpCl=  0 I1Cent=   200000004 NGrid=           0
         NMat0=    1 NMatS0=      1 NMatT0=    0 NMatD0=    1 NMtDS0=    0 NMtDT0=    0
 Petite list used in FoFCou.
 Requested convergence on RMS density matrix=1.00D-08 within 128 cycles.
 Requested convergence on MAX density matrix=1.00D-06.
 Requested convergence on             energy=1.00D-06.
 No special actions if energy rises.
 Integral accuracy reduced to 1.0D-05 until final iterations.
 Initial convergence to 1.0D-05 achieved.  Increase integral accuracy.
 SCF Done:  E(RB3LYP) =  -469.680488230     A.U. after   12 cycles
            NFock= 12  Conv=0.90D-08     -V/T= 2.0074
 PrsmSu:  requested number of processors reduced to:  13 ShMem   1 Linda.
 Calling FoFJK, ICntrl=      2127 FMM=F ISym2X=0 I1Cent= 0 IOpClX= 0 NMat=1 NMatS=1 NMatT=0.
 ***** Axes restored to original set *****
 -------------------------------------------------------------------
 Center     Atomic                   Forces (Hartrees/Bohr)
 Number     Number              X              Y              Z
 -------------------------------------------------------------------
      1        6           0.000370645    0.000733117   -0.000863035
      2        7          -0.002761409   -0.002228306    0.002623135
      3        6          -0.006368563    0.003699187   -0.004354664
      4        7           0.002100250   -0.004329375    0.005096621
      5        7           0.005186761   -0.000278625    0.000328345
      6        6           0.001750398   -0.003479259    0.004095241
      7        7          -0.000235732    0.006085406   -0.007163791
      8        6           0.002554434   -0.005611022    0.006605155
      9        6           0.000476995    0.000207993   -0.000244717
     10        7          -0.001199101    0.000747792   -0.000880326
     11        1          -0.001083951   -0.000303356    0.000356957
     12        1          -0.000001721    0.000259509    0.000003665
     13        1          -0.000001681   -0.000045434   -0.000255563
     14        1           0.000561584    0.001667468   -0.001962884
     15        1          -0.000710909   -0.000347087    0.000408531
     16        1           0.000039145    0.001263937   -0.001488092
     17        1          -0.000170277    0.000405412   -0.000829307
     18        1          -0.000170183    0.000752968   -0.000533948
     19        1          -0.000336686    0.000799672   -0.000941323
 -------------------------------------------------------------------
 Cartesian Forces:  Max     0.007163791 RMS     0.002622063

 GradGradGradGradGradGradGradGradGradGradGradGradGradGradGradGradGradGrad
 Berny optimization.
 Using GEDIIS/GDIIS optimizer.
 FormGI is forming the generalized inverse of G from B-inverse, IUseBI=4.
 Internal  Forces:  Max     0.007842362 RMS     0.001939741
 Search for a local minimum.
 Step number   2 out of a maximum of   84
 All quantities printed in internal units (Hartrees-Bohrs-Radians)
 Mixed Optimization -- RFO/linear search
 Update second derivatives using D2CorX and points    1    2
 DE= -7.19D-03 DEPred=-7.78D-03 R= 9.24D-01
 TightC=F SS=  1.41D+00  RLast= 2.45D-01 DXNew= 5.0454D-01 7.3562D-01
 Trust test= 9.24D-01 RLast= 2.45D-01 DXMaxT set to 5.05D-01
 ITU=  1  0
 Use linear search instead of GDIIS.
     Eigenvalues ---    0.00677   0.00976   0.00981   0.01475   0.01506
     Eigenvalues ---    0.02113   0.02179   0.02217   0.02412   0.03133
     Eigenvalues ---    0.03184   0.04766   0.04825   0.06661   0.07183
     Eigenvalues ---    0.07577   0.07639   0.10935   0.13682   0.15733
     Eigenvalues ---    0.16000   0.16000   0.16000   0.16000   0.16000
     Eigenvalues ---    0.16409   0.20046   0.21993   0.22000   0.22702
     Eigenvalues ---    0.24461   0.25000   0.28675   0.33475   0.33861
     Eigenvalues ---    0.33863   0.34120   0.34123   0.34169   0.35063
     Eigenvalues ---    0.37742   0.38058   0.38628   0.44621   0.45581
     Eigenvalues ---    0.46533   0.51791   0.53419   0.69526   0.71076
     Eigenvalues ---    1.22328
 RFO step:  Lambda=-8.50600955D-04 EMin= 6.76840614D-03
 Quartic linear search produced a step of -0.03251.
 Iteration  1 RMS(Cart)=  0.02065839 RMS(Int)=  0.00018939
 Iteration  2 RMS(Cart)=  0.00027989 RMS(Int)=  0.00000809
 Iteration  3 RMS(Cart)=  0.00000001 RMS(Int)=  0.00000809
 Variable       Old X    -DE/DX   Delta X   Delta X   Delta X     New X
                                 (Linear)    (Quad)   (Total)
    R1        2.72800   0.00058   0.00062  -0.00034   0.00028   2.72829
    R2        2.06132   0.00066   0.00033   0.00090   0.00123   2.06255
    R3        2.07522  -0.00010  -0.00013   0.00011  -0.00002   2.07520
    R4        2.07522  -0.00010  -0.00013   0.00011  -0.00002   2.07520
    R5        2.59944   0.00116  -0.00076   0.00435   0.00359   2.60303
    R6        1.90123  -0.00181   0.00035  -0.00484  -0.00449   1.89674
    R7        2.44535  -0.00709  -0.00018  -0.00930  -0.00948   2.43587
    R8        2.57883   0.00784  -0.00027   0.01510   0.01483   2.59366
    R9        1.91781   0.00075   0.00022   0.00099   0.00121   1.91902
   R10        2.71965   0.00131   0.00092   0.00067   0.00159   2.72124
   R11        1.90047  -0.00166   0.00007  -0.00364  -0.00357   1.89690
   R12        2.75592   0.00028   0.00113  -0.00253  -0.00140   2.75452
   R13        2.07674   0.00035  -0.00004   0.00110   0.00106   2.07780
   R14        2.07674   0.00035  -0.00004   0.00110   0.00106   2.07780
   R15        2.40351  -0.00345   0.00094  -0.00743  -0.00649   2.39702
   R16        2.72328  -0.00103   0.00035  -0.00360  -0.00325   2.72003
   R17        2.06659   0.00128   0.00060   0.00195   0.00255   2.06914
   R18        2.18718  -0.00141   0.00063  -0.00291  -0.00229   2.18489
    A1        1.88717   0.00157   0.00225   0.00422   0.00645   1.89362
    A2        1.95687  -0.00028  -0.00077  -0.00013  -0.00090   1.95597
    A3        1.95687  -0.00028  -0.00077  -0.00013  -0.00090   1.95597
    A4        1.88545  -0.00042  -0.00040   0.00009  -0.00031   1.88514
    A5        1.88545  -0.00042  -0.00040   0.00010  -0.00031   1.88514
    A6        1.88952  -0.00019   0.00008  -0.00409  -0.00400   1.88552
    A7        2.15177  -0.00229   0.00096  -0.01285  -0.01189   2.13988
    A8        2.04151   0.00297  -0.00089   0.01864   0.01775   2.05925
    A9        2.08991  -0.00068  -0.00006  -0.00579  -0.00585   2.08405
   A10        2.23116  -0.00476  -0.00270  -0.01036  -0.01306   2.21810
   A11        1.98681   0.00381   0.00171   0.00964   0.01136   1.99817
   A12        2.06522   0.00094   0.00099   0.00072   0.00170   2.06692
   A13        1.94772  -0.00091  -0.00149  -0.00100  -0.00249   1.94523
   A14        2.10154   0.00159   0.00132   0.00301   0.00434   2.10587
   A15        2.14020   0.00018  -0.00011   0.00270   0.00259   2.14280
   A16        2.04144  -0.00177  -0.00122  -0.00571  -0.00693   2.03451
   A17        1.86272   0.00220   0.00386   0.00023   0.00407   1.86679
   A18        1.93005  -0.00016  -0.00100   0.00389   0.00289   1.93294
   A19        1.93005  -0.00016  -0.00100   0.00389   0.00289   1.93294
   A20        1.93458  -0.00065  -0.00107   0.00141   0.00033   1.93491
   A21        1.93458  -0.00065  -0.00107   0.00141   0.00033   1.93491
   A22        1.87275  -0.00060   0.00017  -0.01054  -0.01033   1.86242
   A23        2.02538   0.00669  -0.00120   0.02937   0.02817   2.05355
   A24        2.07803   0.00365  -0.00220   0.02251   0.02031   2.09834
   A25        2.18108  -0.00187   0.00168  -0.01328  -0.01159   2.16949
   A26        2.02407  -0.00178   0.00052  -0.00923  -0.00871   2.01535
   A27        3.15611   0.00193   0.00148   0.03362   0.03509   3.19121
   A28        3.14159  -0.00000  -0.00000  -0.00000  -0.00000   3.14159
    D1       -3.14159  -0.00000   0.00000  -0.00000  -0.00000  -3.14159
    D2       -0.00001  -0.00000   0.00000  -0.00000  -0.00000  -0.00001
    D3        1.06490  -0.00033  -0.00049  -0.00276  -0.00326   1.06164
    D4       -2.07670  -0.00033  -0.00049  -0.00277  -0.00326  -2.07996
    D5       -1.06490   0.00033   0.00049   0.00277   0.00326  -1.06164
    D6        2.07669   0.00033   0.00049   0.00276   0.00326   2.07994
    D7       -0.00000  -0.00000  -0.00000  -0.00000  -0.00000  -0.00000
    D8        3.14159   0.00000   0.00000   0.00000   0.00000   3.14159
    D9       -3.14159   0.00000  -0.00000   0.00000   0.00000  -3.14159
   D10        0.00001   0.00000   0.00000   0.00000   0.00000   0.00001
   D11        0.00000  -0.00000   0.00000  -0.00000  -0.00000   0.00000
   D12       -3.14159  -0.00000  -0.00000  -0.00000  -0.00000  -3.14159
   D13        3.14159  -0.00000  -0.00000  -0.00000  -0.00000   3.14159
   D14        0.00001   0.00000  -0.00000   0.00000   0.00000   0.00001
   D15       -0.00000   0.00000   0.00000   0.00000   0.00000  -0.00000
   D16       -3.14158   0.00000   0.00000   0.00000   0.00000  -3.14158
   D17       -3.14159  -0.00000   0.00000   0.00000   0.00000  -3.14159
   D18        1.03594  -0.00047  -0.00049  -0.00408  -0.00459   1.03135
   D19       -1.03593   0.00047   0.00049   0.00408   0.00459  -1.03134
   D20       -0.00001  -0.00000   0.00000  -0.00000  -0.00000  -0.00001
   D21       -2.10567  -0.00047  -0.00049  -0.00408  -0.00459  -2.11026
   D22        2.10565   0.00047   0.00049   0.00408   0.00459   2.11023
   D23       -3.14159   0.00000   0.00000   0.00000   0.00000  -3.14158
   D24       -1.03883   0.00080   0.00054   0.00568   0.00624  -1.03259
   D25        1.03884  -0.00080  -0.00055  -0.00567  -0.00623   1.03261
   D26       -3.14159  -0.00000  -0.00000  -0.00000  -0.00000  -3.14159
   D27        0.00000   0.00000  -0.00000   0.00000   0.00000   0.00000
   D28        3.14159   0.00000   0.00000   0.00000   0.00000  -3.14159
         Item               Value     Threshold  Converged?
 Maximum Force            0.007842     0.000450     NO 
 RMS     Force            0.001940     0.000300     NO 
 Maximum Displacement     0.062720     0.001800     NO 
 RMS     Displacement     0.020549     0.001200     NO 
 Predicted change in Energy=-4.356251D-04
 GradGradGradGradGradGradGradGradGradGradGradGradGradGradGradGradGradGrad

                          Input orientation:                          
 ---------------------------------------------------------------------
 Center     Atomic      Atomic             Coordinates (Angstroms)
 Number     Number       Type             X           Y           Z
 ---------------------------------------------------------------------
      1          6           0        1.174953    0.086407   -0.008830
      2          7           0        2.609100    0.194017   -0.135511
      3          6           0        3.212833    0.995582   -1.079125
      4          7           0        2.629296    1.739688   -1.955099
      5          7           0        4.584863    0.972192   -1.051587
      6          6           0        5.351494    1.761372   -1.980629
      7          7           0        6.758085    1.513837   -1.689232
      8          6           0        7.621005    2.115736   -2.397784
      9          6           0        9.025496    1.911807   -2.157721
     10          7           0       10.164827    1.784423   -2.007766
     11          1           0        0.950159   -0.605062    0.805180
     12          1           0        0.707990   -0.302568   -0.923473
     13          1           0        0.707989    1.051916    0.227107
     14          1           0        3.179016   -0.340878    0.494187
     15          1           0        1.618410    1.677090   -1.881406
     16          1           0        5.105826    0.416692   -0.397659
     17          1           0        5.111790    2.829248   -1.875099
     18          1           0        5.111786    1.484530   -3.017381
     19          1           0        7.377853    2.806921   -3.211442
 ---------------------------------------------------------------------
                    Distance matrix (angstroms):
                    1          2          3          4          5
     1  C    0.000000
     2  N    1.443747   0.000000
     3  C    2.474891   1.377464   0.000000
     4  N    2.938778   2.387553   1.289007   0.000000
     5  N    3.674159   2.312659   1.372506   2.286838   0.000000
     6  C    4.912942   3.658112   2.443975   2.722404   1.440016
     7  N    6.002722   4.622776   3.634506   4.143501   2.328705
     8  C    7.167766   5.824953   4.735567   5.025390   3.512564
     9  C    8.341514   6.943362   5.982466   6.401724   4.671792
    10  N    9.364659   7.945045   7.057965   7.535848   5.719265
    11  H    1.091455   2.067730   3.351471   3.992053   4.375658
    12  H    1.098148   2.117003   2.825537   2.987721   4.083083
    13  H    1.098148   2.117003   2.825536   2.987720   4.083082
    14  H    2.109945   1.003711   2.064602   3.260360   2.467787
    15  H    2.496691   2.495820   1.910573   1.015499   3.159956
    16  H    3.963842   2.520307   2.093546   3.210785   1.003795
    17  H    5.148284   4.029152   2.757162   2.712253   2.098686
    18  H    5.148280   4.029149   2.757160   2.712251   2.098687
    19  H    7.492255   6.247369   5.017481   5.026547   3.978944
                    6          7          8          9         10
     6  C    0.000000
     7  N    1.457630   0.000000
     8  C    2.334582   1.268448   0.000000
     9  C    3.681343   2.349258   1.439379   0.000000
    10  N    4.813465   3.432283   2.594785   1.156195   0.000000
    11  H    5.721231   6.666620   7.884282   8.962393   9.926349
    12  H    5.190333   6.363126   7.470714   8.695271   9.744896
    13  H    5.190333   6.363127   7.470713   8.695271   9.744896
    14  H    3.906895   4.584433   5.842065   6.803568   7.718693
    15  H    3.735353   5.145857   6.040712   7.415953   8.548024
    16  H    2.091485   2.366822   3.635021   4.549396   5.482392
    17  H    1.099525   2.115454   2.660538   4.029724   5.161632
    18  H    1.099525   2.115453   2.660545   4.029728   5.161635
    19  H    2.591178   2.091244   1.094943   2.150881   3.203368
                   11         12         13         14         15
    11  H    0.000000
    12  H    1.771550   0.000000
    13  H    1.771550   1.777206   0.000000
    14  H    2.265902   2.849070   2.849066   0.000000
    15  H    3.587829   2.380240   2.380239   3.485846   0.000000
    16  H    4.445264   4.487179   4.487183   2.254307   3.994018
    17  H    6.024745   5.487014   5.193422   4.404411   3.678479
    18  H    6.024741   5.193418   5.487010   4.404410   3.678477
    19  H    8.312046   7.706542   7.706538   6.424216   6.018030
                   16         17         18         19
    16  H    0.000000
    17  H    2.829009   0.000000
    18  H    2.829003   1.764391   0.000000
    19  H    4.335052   2.630846   2.630862   0.000000
 Stoichiometry    C5H9N5
 Framework group  C1[X(C5H9N5)]
 Deg. of freedom    51
 Full point group                 C1      NOp   1
 Largest Abelian subgroup         C1      NOp   1
 Largest concise Abelian subgroup C1      NOp   1
                         Standard orientation:                         
 ---------------------------------------------------------------------
 Center     Atomic      Atomic             Coordinates (Angstroms)
 Number     Number       Type             X           Y           Z
 ---------------------------------------------------------------------
      1          6           0        4.263358   -0.581485   -0.000000
      2          7           0        2.844579   -0.848824   -0.000000
      3          6           0        1.900289    0.154035   -0.000001
      4          7           0        2.116034    1.424858    0.000001
      5          7           0        0.600934   -0.288063   -0.000003
      6          6           0       -0.493218    0.648141    0.000002
      7          7           0       -1.722722   -0.134806    0.000005
      8          6           0       -2.822874    0.496562   -0.000003
      9          6           0       -4.070382   -0.221446   -0.000001
     10          7           0       -5.099824   -0.747789    0.000001
     11          1           0        4.795297   -1.534540   -0.000002
     12          1           0        4.576963   -0.017602    0.888604
     13          1           0        4.576963   -0.017600   -0.888603
     14          1           0        2.545841   -1.807047   -0.000008
     15          1           0        3.110006    1.632843    0.000001
     16          1           0        0.358389   -1.262115    0.000007
     17          1           0       -0.445827    1.302697   -0.882192
     18          1           0       -0.445823    1.302693    0.882199
     19          1           0       -2.907858    1.588201   -0.000014
 ---------------------------------------------------------------------
 Rotational constants (GHZ):           6.3474473           0.4082839           0.3854585
 Standard basis: 6-31G(2df,p) (6D, 7F)
 There are   355 symmetry adapted cartesian basis functions of A   symmetry.
 There are   325 symmetry adapted basis functions of A   symmetry.
   325 basis functions,   503 primitive gaussians,   355 cartesian basis functions
    37 alpha electrons       37 beta electrons
       nuclear repulsion energy       470.1635170893 Hartrees.
 NAtoms=   19 NActive=   19 NUniq=   19 SFac= 1.00D+00 NAtFMM=   60 NAOKFM=F Big=F
 Integral buffers will be    131072 words long.
 Raffenetti 2 integral format.
 Two-electron integral symmetry is turned on.
 One-electron integrals computed using PRISM.
 PrsmSu:  requested number of processors reduced to:  13 ShMem   1 Linda.
 NBasis=   325 RedAO= T EigKep=  1.45D-04  NBF=   325
 NBsUse=   325 1.00D-06 EigRej= -1.00D+00 NBFU=   325
 Initial guess from the checkpoint file:  "CNCpdNpNCNdCCtN.chk"
 B after Tr=    -0.000000   -0.000000   -0.000000
         Rot=    1.000000    0.000000   -0.000000    0.000251 Ang=   0.03 deg.
 ExpMin= 1.61D-01 ExpMax= 4.17D+03 ExpMxC= 6.27D+02 IAcc=2 IRadAn=         4 AccDes= 0.00D+00
 Harris functional with IExCor=  402 and IRadAn=       4 diagonalized for initial guess.
 HarFok:  IExCor=  402 AccDes= 0.00D+00 IRadAn=         4 IDoV= 1 UseB2=F ITyADJ=14
 ICtDFT=  3500011 ScaDFX=  1.000000  1.000000  1.000000  1.000000
 FoFCou: FMM=F IPFlag=           0 FMFlag=      100000 FMFlg1=           0
         NFxFlg=           0 DoJE=T BraDBF=F KetDBF=T FulRan=T
         wScrn=  0.000000 ICntrl=       500 IOpCl=  0 I1Cent=   200000004 NGrid=           0
         NMat0=    1 NMatS0=      1 NMatT0=    0 NMatD0=    1 NMtDS0=    0 NMtDT0=    0
 Petite list used in FoFCou.
 Requested convergence on RMS density matrix=1.00D-08 within 128 cycles.
 Requested convergence on MAX density matrix=1.00D-06.
 Requested convergence on             energy=1.00D-06.
 No special actions if energy rises.
 Integral accuracy reduced to 1.0D-05 until final iterations.
 Initial convergence to 1.0D-05 achieved.  Increase integral accuracy.
 SCF Done:  E(RB3LYP) =  -469.680940654     A.U. after   11 cycles
            NFock= 11  Conv=0.71D-08     -V/T= 2.0074
 PrsmSu:  requested number of processors reduced to:  13 ShMem   1 Linda.
 Calling FoFJK, ICntrl=      2127 FMM=F ISym2X=0 I1Cent= 0 IOpClX= 0 NMat=1 NMatS=1 NMatT=0.
 ***** Axes restored to original set *****
 -------------------------------------------------------------------
 Center     Atomic                   Forces (Hartrees/Bohr)
 Number     Number              X              Y              Z
 -------------------------------------------------------------------
      1        6           0.000423160    0.000041904   -0.000049092
      2        7          -0.000360027   -0.000052363    0.000061492
      3        6          -0.001136262    0.001472261   -0.001733332
      4        7           0.000351366   -0.000986744    0.001161601
      5        7          -0.000487712   -0.000064890    0.000076819
      6        6           0.002393124   -0.001358643    0.001599549
      7        7          -0.001192344    0.001257103   -0.001480002
      8        6          -0.001052190   -0.001907419    0.002245608
      9        6          -0.001656289    0.000827259   -0.000973937
     10        7           0.001424702   -0.000291574    0.000343258
     11        1          -0.000422180   -0.000074858    0.000088113
     12        1           0.000152063   -0.000064170   -0.000010317
     13        1           0.000152111    0.000020425    0.000061637
     14        1           0.000403857   -0.000098907    0.000116554
     15        1           0.000115781    0.000109795   -0.000129225
     16        1           0.000385149   -0.000009311    0.000010759
     17        1           0.000013017    0.000285779   -0.000134647
     18        1           0.000013056    0.000086597   -0.000303914
     19        1           0.000479614    0.000807757   -0.000950925
 -------------------------------------------------------------------
 Cartesian Forces:  Max     0.002393124 RMS     0.000876676

 GradGradGradGradGradGradGradGradGradGradGradGradGradGradGradGradGradGrad
 Berny optimization.
 Using GEDIIS/GDIIS optimizer.
 FormGI is forming the generalized inverse of G from B-inverse, IUseBI=4.
 Internal  Forces:  Max     0.002207697 RMS     0.000490636
 Search for a local minimum.
 Step number   3 out of a maximum of   84
 All quantities printed in internal units (Hartrees-Bohrs-Radians)
 Mixed Optimization -- En-DIIS/RFO-DIIS
 Update second derivatives using D2CorX and points    1    2    3
 DE= -4.52D-04 DEPred=-4.36D-04 R= 1.04D+00
 TightC=F SS=  1.41D+00  RLast= 6.60D-02 DXNew= 8.4853D-01 1.9797D-01
 Trust test= 1.04D+00 RLast= 6.60D-02 DXMaxT set to 5.05D-01
 ITU=  1  1  0
 Use linear search instead of GDIIS.
     Eigenvalues ---    0.00677   0.00976   0.00981   0.01468   0.01509
     Eigenvalues ---    0.02110   0.02179   0.02217   0.02409   0.03133
     Eigenvalues ---    0.03184   0.04766   0.05015   0.06600   0.07186
     Eigenvalues ---    0.07466   0.07593   0.10871   0.13711   0.14855
     Eigenvalues ---    0.16000   0.16000   0.16000   0.16000   0.16276
     Eigenvalues ---    0.16313   0.19214   0.21999   0.22037   0.23026
     Eigenvalues ---    0.24351   0.25191   0.28622   0.33419   0.33846
     Eigenvalues ---    0.33863   0.34113   0.34123   0.34137   0.35884
     Eigenvalues ---    0.37736   0.38196   0.38601   0.44631   0.45850
     Eigenvalues ---    0.46723   0.51706   0.53686   0.67416   0.70944
     Eigenvalues ---    1.23561
 RFO step:  Lambda=-6.18746171D-05 EMin= 6.76840613D-03
 Quartic linear search produced a step of  0.04887.
 Iteration  1 RMS(Cart)=  0.00301380 RMS(Int)=  0.00000629
 Iteration  2 RMS(Cart)=  0.00001234 RMS(Int)=  0.00000147
 Iteration  3 RMS(Cart)=  0.00000000 RMS(Int)=  0.00000147
 Variable       Old X    -DE/DX   Delta X   Delta X   Delta X     New X
                                 (Linear)    (Quad)   (Total)
    R1        2.72829  -0.00029   0.00001  -0.00094  -0.00092   2.72737
    R2        2.06255   0.00020   0.00006   0.00057   0.00063   2.06318
    R3        2.07520  -0.00003  -0.00000  -0.00007  -0.00008   2.07512
    R4        2.07520  -0.00003  -0.00000  -0.00007  -0.00008   2.07512
    R5        2.60303   0.00016   0.00018   0.00058   0.00075   2.60378
    R6        1.89674   0.00036  -0.00022   0.00064   0.00042   1.89716
    R7        2.43587  -0.00142  -0.00046  -0.00231  -0.00277   2.43310
    R8        2.59366   0.00033   0.00072   0.00106   0.00178   2.59544
    R9        1.91902  -0.00013   0.00006  -0.00033  -0.00027   1.91874
   R10        2.72124  -0.00016   0.00008  -0.00061  -0.00053   2.72071
   R11        1.89690   0.00021  -0.00017   0.00038   0.00021   1.89711
   R12        2.75452  -0.00221  -0.00007  -0.00690  -0.00697   2.74755
   R13        2.07780   0.00026   0.00005   0.00084   0.00089   2.07870
   R14        2.07780   0.00026   0.00005   0.00084   0.00089   2.07870
   R15        2.39702  -0.00119  -0.00032  -0.00211  -0.00242   2.39460
   R16        2.72003  -0.00041  -0.00016  -0.00125  -0.00141   2.71862
   R17        2.06914   0.00111   0.00012   0.00342   0.00354   2.07268
   R18        2.18489   0.00148  -0.00011   0.00107   0.00096   2.18585
    A1        1.89362   0.00064   0.00032   0.00420   0.00451   1.89814
    A2        1.95597  -0.00027  -0.00004  -0.00178  -0.00182   1.95415
    A3        1.95597  -0.00027  -0.00004  -0.00178  -0.00182   1.95415
    A4        1.88514  -0.00015  -0.00002  -0.00058  -0.00059   1.88455
    A5        1.88514  -0.00015  -0.00002  -0.00058  -0.00059   1.88455
    A6        1.88552   0.00019  -0.00020   0.00054   0.00034   1.88587
    A7        2.13988  -0.00023  -0.00058  -0.00159  -0.00217   2.13771
    A8        2.05925   0.00035   0.00087   0.00268   0.00355   2.06280
    A9        2.08405  -0.00012  -0.00029  -0.00109  -0.00138   2.08267
   A10        2.21810   0.00031  -0.00064   0.00161   0.00097   2.21907
   A11        1.99817  -0.00079   0.00055  -0.00346  -0.00290   1.99526
   A12        2.06692   0.00049   0.00008   0.00185   0.00194   2.06885
   A13        1.94523   0.00030  -0.00012   0.00227   0.00214   1.94737
   A14        2.10587   0.00009   0.00021   0.00024   0.00045   2.10632
   A15        2.14280   0.00026   0.00013   0.00186   0.00199   2.14479
   A16        2.03451  -0.00035  -0.00034  -0.00210  -0.00244   2.03208
   A17        1.86679   0.00094   0.00020   0.00427   0.00447   1.87126
   A18        1.93294  -0.00010   0.00014   0.00053   0.00067   1.93360
   A19        1.93294  -0.00010   0.00014   0.00053   0.00067   1.93360
   A20        1.93491  -0.00035   0.00002  -0.00141  -0.00140   1.93351
   A21        1.93491  -0.00035   0.00002  -0.00141  -0.00140   1.93351
   A22        1.86242  -0.00007  -0.00050  -0.00256  -0.00307   1.85935
   A23        2.05355  -0.00007   0.00138   0.00061   0.00198   2.05554
   A24        2.09834   0.00057   0.00099   0.00365   0.00464   2.10298
   A25        2.16949   0.00049  -0.00057   0.00305   0.00249   2.17198
   A26        2.01535  -0.00105  -0.00043  -0.00670  -0.00713   2.00823
   A27        3.19121  -0.00044   0.00172  -0.00921  -0.00750   3.18371
   A28        3.14159   0.00000  -0.00000   0.00000   0.00000   3.14159
    D1       -3.14159   0.00000  -0.00000   0.00000   0.00000  -3.14159
    D2       -0.00001  -0.00000  -0.00000  -0.00000  -0.00000  -0.00001
    D3        1.06164  -0.00007  -0.00016  -0.00094  -0.00109   1.06055
    D4       -2.07996  -0.00007  -0.00016  -0.00094  -0.00110  -2.08105
[...]
 098,-0.15234556,0.67561545,0.00713831,-0.00086692,-0.00250169,0.008670
 21,-0.01586671,0.04591151,0.08630593,-0.21633666,0.17015862,-0.1148055
 0,0.25392224,-0.00840342,-0.00250156,-0.00004693,-0.01020708,0.0459113
 8,-0.03091459,-0.10160095,0.17015904,-0.27210857,0.13515156,-0.2338759
 0,0.33057849,0.00317150,0.00001998,-0.00002301,-0.04237702,-0.01370864
 ,0.01613746,-0.31852885,-0.00408000,0.00480097,-0.05119414,0.02576916,
 -0.03033638,0.76052960,0.00162456,-0.00070221,0.00399552,-0.03670616,0
 .00408825,0.00636877,0.00171958,-0.08205382,0.04334855,0.03666571,0.00
 243951,0.00993244,-0.05813983,0.35082309,-0.00191256,0.00399620,-0.002
 01136,0.04321046,0.00636861,0.00200092,-0.00202249,0.04334913,-0.09626
 040,-0.04316400,0.00993259,-0.00081691,0.06843399,-0.37013337,0.472122
 58,-0.00056777,-0.00065783,0.00077360,-0.00041264,0.00235297,-0.002769
 81,-0.03240321,-0.01782772,0.02098809,0.00257128,-0.00449043,0.0052860
 3,-0.11963648,-0.04018472,0.04730679,0.47618800,-0.00053141,0.00192065
 ,0.00066141,0.00435627,0.00183156,0.00138990,-0.01495654,0.00260260,-0
 .00728742,0.00517697,-0.00449690,0.00122638,-0.02919202,-0.12492223,0.
 08192052,0.00489654,0.55476132,0.00062555,0.00066129,0.00170373,-0.005
 12839,0.00138988,0.00137614,0.01760637,-0.00728765,0.00499096,-0.00609
 447,0.00122627,-0.00489862,0.03436796,0.08192203,-0.15177366,-0.005764
 06,0.00641613,0.55265518,0.00040114,-0.00029588,0.00034850,-0.00237702
 ,0.00007194,-0.00008470,0.00313909,-0.00303122,0.00356836,-0.00212558,
 0.00117229,-0.00137993,-0.05110553,-0.00049131,0.00057874,-0.18149465,
 0.02924195,-0.03442120,0.65303160,0.00027830,-0.00018179,0.00021376,-0
 .00142166,0.00038967,-0.00004714,0.00225486,-0.00203237,0.00384848,0.0
 0024644,0.00116466,-0.00072189,-0.02543916,0.00437439,-0.00354239,0.00
 673996,-0.07666719,0.00825055,0.17080247,0.25747192,-0.00032772,0.0002
 1358,-0.00025201,0.00167378,-0.00004681,0.00040497,-0.00265467,0.00384
 830,-0.00329431,-0.00029014,-0.00072187,0.00140153,0.02994841,-0.00354
 276,0.00553564,-0.00793407,0.00825104,-0.07937074,-0.20106407,-0.19836
 348,0.32246903,-0.00008154,-0.00008838,0.00010435,-0.00024212,0.000106
 87,-0.00012579,-0.00114240,-0.00113298,0.00133329,0.00110404,-0.000328
 78,0.00038740,-0.00420217,0.00112314,-0.00132198,-0.05350811,-0.018216
 40,0.02144296,-0.32387916,-0.13965592,0.16439852,0.71254238,-0.0000592
 9,0.00000671,-0.00003465,0.00020206,-0.00013350,-0.00001285,-0.0003685
 6,0.00036098,-0.00045285,0.00034335,-0.00016724,0.00031111,-0.00065877
 ,-0.00007838,0.00149777,0.00532430,-0.00301674,-0.00094416,-0.18948769
 ,-0.18963902,0.16624628,0.08770462,0.39561931,0.00006999,-0.00003515,0
 .00001772,-0.00023788,-0.00001316,-0.00012890,0.00043393,-0.00045257,0
 .00051027,-0.00040406,0.00031093,-0.00026956,0.00077526,0.00149755,-0.
 00056983,-0.00626727,-0.00094415,-0.00270685,0.22305844,0.16624626,-0.
 24411246,-0.10324427,-0.29966844,0.49380999,-0.00002023,-0.00001721,0.
 00001983,-0.00008211,0.00011758,-0.00013853,0.00018447,-0.00034370,0.0
 0040521,-0.00010211,0.00009586,-0.00011326,-0.00103207,0.00091248,-0.0
 0107437,0.00470757,-0.00496821,0.00584873,-0.07448025,-0.02041381,0.02
 403051,-0.23993608,0.05116665,-0.06023054,1.52149465,0.00002267,-0.000
 02772,0.00000916,-0.00010446,-0.00003742,0.00000006,0.00008505,-0.0000
 1797,0.00017565,-0.00005122,-0.00006348,-0.00004444,-0.00060915,0.0007
 2478,0.00004973,-0.00147194,0.01065306,0.00988938,-0.01895998,-0.00250
 464,-0.01443482,0.03520019,-0.07681528,0.02066968,-0.16335042,0.116574
 33,-0.00002667,0.00000932,-0.00003030,0.00012395,0.00000023,-0.0000380
 2,-0.00010043,0.00017564,-0.00007479,0.00006025,-0.00004491,-0.0000488
 0,0.00071689,0.00004931,0.00070903,0.00173308,0.00988950,0.00741252,0.
 02231914,-0.01443465,0.00222495,-0.04143593,0.02066921,-0.08358724,0.1
 9228544,-0.04016907,0.12973543,0.00017296,-0.00001386,0.00001661,-0.00
 033544,-0.00019336,0.00022769,0.00075901,0.00009427,-0.00011114,-0.000
 29970,0.00002712,-0.00003186,-0.00061379,-0.00015377,0.00018115,-0.000
 98310,0.00137698,-0.00162093,0.00976852,0.00559358,-0.00658452,-0.0174
 5849,-0.00147486,0.00173602,-1.19799680,0.13005834,-0.15309613,1.20928
 548,-0.00001461,0.00000347,-0.00000893,0.00005787,0.00005508,-0.000027
 11,-0.00007559,-0.00005457,-0.00000634,0.00003310,0.00006185,-0.000007
 16,0.00020721,-0.00008492,0.00000309,-0.00009724,-0.00210521,-0.001779
 68,0.00176988,0.00159064,0.00347799,0.00309972,0.01792913,-0.00246853,
 0.13001982,-0.05014632,0.01807624,-0.13338567,0.03259885,0.00001717,-0
 .00000894,0.00000616,-0.00006898,-0.00002724,0.00006438,0.00008925,-0.
 00000633,-0.00005310,-0.00003891,-0.00000678,0.00006405,-0.00024384,0.
 00000354,-0.00008639,0.00011416,-0.00177980,-0.00152187,-0.00208345,0.
 00347779,0.00045124,-0.00364858,-0.00246811,0.01873743,-0.15305081,0.0
 1807625,-0.05606865,0.15701284,-0.01719284,0.03823168,-0.05751471,-0.0
 2731587,0.03215682,-0.01518010,-0.02671701,0.03145194,-0.00580051,0.00
 284265,-0.00334650,0.00059880,-0.00010476,0.00012336,-0.00059524,-0.00
 143861,0.00169356,-0.00020759,0.00035166,-0.00041397,-0.00017079,-0.00
 012517,0.00014734,-0.00003749,0.00001049,-0.00001234,-0.00001048,-0.00
 000942,0.00001103,-0.00001745,0.00000534,-0.00000623,0.07075780,-0.035
 62057,-0.15613048,0.12938426,0.00095125,-0.00177161,0.00007613,0.00057
 798,-0.00003918,-0.00000311,-0.00040899,0.00060531,0.00023939,-0.00035
 331,0.00008169,0.00016416,0.00009422,0.00016817,-0.00008708,-0.0000486
 1,-0.00002721,0.00001210,0.00001613,0.00000680,-0.00000701,-0.00000247
 ,-0.00000044,0.00000343,-0.00001463,0.00000088,-0.00000403,0.03759607,
 0.16494359,0.04193339,0.12938430,-0.19853832,-0.00111996,0.00007612,-0
 .00179648,-0.00068037,-0.00000315,-0.00003827,0.00048146,0.00023942,0.
 00052687,0.00041592,0.00016426,0.00002791,-0.00011092,-0.00008712,0.00
 019670,0.00005723,0.00001212,-0.00003114,-0.00001898,-0.00000704,0.000
 00904,0.00000286,0.00000337,-0.00000165,0.00001726,-0.00000399,0.00000
 228,-0.04425896,-0.14170725,0.21139051,-0.08208568,-0.03256614,-0.0778
 7755,-0.03136087,-0.01020235,-0.02456636,0.00179911,0.00488577,-0.0071
 5835,0.00164684,-0.00085506,0.00257280,-0.00098131,-0.00026858,0.00110
 115,0.00031746,0.00051838,0.00003597,-0.00010314,-0.00005433,0.0000761
 5,0.00002556,0.00000425,-0.00002177,0.00000258,-0.00000617,0.00000203,
 -0.00003285,0.00000563,-0.00000063,0.00309116,0.00323939,0.00488828,0.
 10465564,-0.03295893,-0.08248383,-0.07692591,-0.00421961,0.00226501,0.
 00332429,-0.00073043,0.00215983,-0.00306603,0.00116077,0.00009770,0.00
 096133,-0.00006142,-0.00032779,0.00036823,-0.00003919,0.00003296,0.000
 04079,0.00001715,-0.00001994,0.00001788,-0.00000734,0.00000197,-0.0000
 0521,-0.00000208,0.00000125,-0.00000182,0.00000770,-0.00000182,0.00000
 334,0.00888397,0.00836294,0.01791892,0.03759068,0.08266034,-0.08130694
 ,-0.07609556,-0.23029047,-0.00291854,0.00412352,0.01037086,0.00065078,
 0.00187274,0.00038318,-0.00074327,-0.00121866,-0.00003942,0.00028550,-
 0.00043847,0.00003198,0.00004412,-0.00011573,-0.00022664,-0.00003451,-
 0.00000937,0.00005945,-0.00000133,0.00000662,-0.00000620,0.00000550,-0
 .00000542,0.00000020,-0.00001874,0.00000447,0.00000205,-0.00816914,-0.
 00953873,-0.01889003,0.09282215,0.08405480,0.24471715,-0.08208595,0.08
 211934,0.01954262,-0.03136082,0.02589298,0.00609493,0.00179911,0.00627
 402,-0.00597937,0.00164680,-0.00240071,0.00126005,-0.00098124,-0.00104
 338,0.00044339,0.00031739,-0.00011927,-0.00050580,-0.00010311,-0.00006
 626,0.00006585,0.00002556,0.00002073,-0.00000771,0.00000252,-0.0000011
 9,0.00000645,-0.00003279,-0.00000015,-0.00000565,0.00309116,-0.0053478
 1,-0.00240616,0.00630065,-0.00992137,-0.00183556,0.10465583,0.08556724
 ,-0.25084615,-0.04850369,0.00356217,0.01134700,0.00263585,-0.00052390,
 0.00023894,0.00218791,0.00054594,-0.00007673,-0.00119027,-0.00027214,0
 .00001172,-0.00049463,-0.00003673,-0.00023193,-0.00007222,0.00003118,0
 .00005853,-0.00002210,0.00000233,-0.00000588,0.00000821,-0.00000477,-0
 .00000072,-0.00000531,0.00001699,0.00000308,0.00000374,0.00662488,-0.0
 1683975,-0.00540843,0.00341597,-0.01075702,-0.00188977,-0.09767980,0.2
 6730819,0.01937558,-0.04933391,-0.06192808,0.00369183,0.00183570,0.001
 28865,0.00082619,-0.00275126,0.00230376,-0.00126567,0.00098999,0.00013
 512,0.00010673,0.00031279,-0.00030738,0.00004585,0.00008413,0.00003819
 ,-0.00002254,0.00000490,-0.00001916,0.00000703,-0.00000387,0.00000153,
 0.00000295,-0.00000140,0.00000226,-0.00001063,0.00000247,-0.00000289,-
 0.01008818,0.02204920,0.00631268,0.00949397,-0.02667090,-0.00607631,-0
 .02208407,0.05379389,0.06006916,-0.01414091,0.01613388,-0.01899360,-0.
 19484201,0.11951605,-0.14070176,0.01492167,-0.00721535,0.00849425,-0.0
 0126757,-0.00346444,0.00407842,-0.00052147,-0.00075361,0.00088726,-0.0
 0015788,0.00022030,-0.00025933,0.00001998,0.00002619,-0.00003080,-0.00
 007916,-0.00002399,0.00002811,0.00001207,-0.00000708,0.00000808,-0.000
 00382,0.00000981,-0.00001131,0.00138188,-0.00028956,0.00034089,-0.0032
 0009,0.00055352,0.00063671,-0.00320002,-0.00071792,-0.00044323,0.20263
 724,-0.00517881,-0.00058524,-0.00724287,0.11997127,-0.13301871,0.17094
 720,0.01642797,-0.01429496,0.00728200,-0.00389728,0.00269057,0.0053560
 0,0.00064919,-0.00012960,-0.00223558,-0.00047674,-0.00086439,-0.000173
 56,0.00009256,-0.00003658,-0.00019466,-0.00002944,0.00003100,0.0000305
 3,0.00000067,0.00001947,0.00000410,0.00002507,-0.00002247,-0.00000600,
 -0.00042941,0.00107609,-0.00008692,-0.00418782,-0.00046156,-0.00118807
 ,0.00194448,-0.00047436,-0.00000266,-0.12351163,0.14515446,0.00609682,
 -0.00724234,0.00178945,-0.14123797,0.17094814,-0.18905931,-0.01933949,
 0.00728056,-0.01668180,0.00458786,0.00535612,0.00093533,-0.00076417,-0
 .00223522,0.00060363,0.00056122,-0.00017352,-0.00080759,-0.00010893,-0
 .00019450,0.00002725,0.00003470,0.00003020,0.00002084,-0.00000086,0.00
 000367,0.00001785,-0.00002952,-0.00000559,-0.00002024,0.00050548,-0.00
 008686,0.00110457,-0.00128410,-0.00000477,-0.00027947,0.00392497,-0.00
 118631,-0.00026642,0.14540559,-0.17193625,0.20151845,0.00076630,-0.000
 62838,0.00073953,0.00048624,-0.00175111,0.00206144,-0.02675036,-0.0085
 0999,0.01001840,-0.42303791,-0.00490247,0.00577143,0.00180675,0.003449
 63,-0.00406101,0.00053402,0.00001484,-0.00001739,-0.00032489,-0.000046
 99,0.00005530,0.00009739,0.00003406,-0.00004002,-0.00000443,-0.0000072
 1,0.00000873,-0.00004130,0.00000368,-0.00000456,0.00063482,-0.00039891
 ,0.00046961,-0.00014465,-0.00025459,0.00054196,-0.00014464,-0.00049356
 ,0.00033887,-0.00025105,-0.00026512,0.00031216,0.44721656,0.00018493,0
 .00054734,0.00174379,-0.00065898,-0.00223191,-0.00268937,0.03242084,-0
 .00628814,0.00311259,-0.04641956,-0.02513478,0.00726422,0.00072805,0.0
 0223512,0.00608590,-0.00001441,-0.00061038,0.00030157,-0.00025466,0.00
 002174,-0.00028484,0.00009035,0.00016934,-0.00007551,0.00000899,-0.000
 05812,-0.00002038,-0.00004314,0.00000605,-0.00000099,-0.00006394,-0.00
 036095,-0.00054838,-0.00108932,-0.00149453,0.00046603,0.00024672,0.000
 24553,-0.00030281,0.00012593,-0.00067519,-0.00148429,0.01391814,0.0308
 6652,-0.00021771,0.00174377,-0.00002418,0.00077590,-0.00268927,-0.0013
 5052,-0.03816667,0.00311254,-0.00730830,0.05464642,0.00726417,-0.02751
 581,-0.00085682,0.00608592,0.00024042,0.00001696,0.00030154,-0.0007091
 6,0.00029971,-0.00028482,0.00011504,-0.00010644,-0.00007553,0.00019415
 ,-0.00001045,-0.00002048,-0.00005138,0.00005074,-0.00000092,0.00000634
 ,0.00007526,-0.00054838,-0.00018123,-0.00007148,-0.00001764,0.00021881
 ,0.00106341,0.00018088,-0.00152129,-0.00014825,-0.00148427,-0.00018875
 ,-0.01638502,-0.01535778,0.03590033,-0.00057712,-0.00030443,0.00035825
 ,0.00189342,0.00032470,-0.00038231,-0.00580183,0.01988511,-0.02340825,
 -0.00604926,-0.00076469,0.00090039,-0.17360501,0.11438162,-0.13464506,
 0.01216491,-0.01173538,0.01381449,0.00267232,-0.00001493,0.00001734,-0
 .00163701,0.00000906,-0.00001064,0.00012699,-0.00001444,0.00001666,0.0
 0000879,0.00003334,-0.00003896,0.00004611,-0.00000044,0.00000053,0.000
 31551,0.00006643,0.00005946,0.00031544,-0.00006933,-0.00005587,-0.0015
 7341,-0.00142168,0.00167377,-0.00088775,0.00066315,-0.00078081,0.17545
 976,0.00031317,-0.00059811,-0.00054466,-0.00126383,-0.00128251,-0.0008
 4501,-0.00036534,-0.00331992,-0.00630675,-0.00128542,0.00057965,-0.001
 34605,0.11263287,-0.14209521,0.18504807,0.00929230,-0.01131207,0.00764
 849,0.00179369,0.00006044,-0.00169562,-0.00007041,0.00063783,-0.000465
 31,-0.00003458,-0.00019849,-0.00017047,0.00002610,-0.00000094,0.000022
 85,-0.00005384,-0.00003815,0.00002065,-0.00023758,-0.00001292,-0.00006
 966,0.00022653,-0.00002728,0.00000357,-0.00073257,0.00141979,0.0011978
 8,-0.00030519,0.00267772,0.00196490,-0.11873825,0.15613194,-0.00036868
 ,-0.00054452,-0.00041945,0.00148811,-0.00084486,-0.00100568,0.00042892
 ,-0.00630682,-0.00125371,0.00151315,-0.00134603,0.00102118,-0.13258485
 ,0.18504675,-0.20272984,-0.01093933,0.00764971,-0.01381881,-0.00211154
 ,-0.00169554,0.00061614,0.00008296,-0.00046555,0.00079034,0.00004050,-
 0.00017076,-0.00014295,-0.00003067,0.00002314,-0.00000815,0.00006337,0
 .00002068,-0.00004493,-0.00019061,0.00000125,-0.00001653,0.00020357,-0
 .00006740,-0.00000205,0.00086249,0.00119799,0.00102692,0.00035923,0.00
 196493,0.00203366,0.13977348,-0.18518348,0.21681182,0.00023683,0.00023
 317,0.00012274,-0.00120724,-0.00000638,0.00059629,0.00623007,-0.001929
 66,0.00227669,-0.00083052,0.00098880,-0.00207593,0.00022446,-0.0200411
 0,0.00417915,-0.05533896,0.05063783,0.00712222,-0.02054825,0.02928066,
 0.00372762,0.00130414,0.00497258,-0.00266723,0.00008787,-0.00267004,-0
 .00151144,-0.00010339,0.00054169,0.00029123,-0.00003290,-0.00000175,-0
 .00000999,-0.00007461,-0.00003086,-0.00006336,-0.00017098,-0.00003623,
 0.00005874,0.00012499,0.00003958,-0.00024585,0.00002312,0.00068833,0.0
 0045649,-0.00155845,-0.00240061,-0.00056454,0.06680528,0.00019732,0.00
 010441,0.00005174,-0.00098069,0.00004136,0.00001290,0.00585114,-0.0012
 5558,0.00178333,-0.00071845,0.00132283,-0.00102271,-0.00755183,-0.0188
 3204,0.01247994,0.05005751,-0.27334385,-0.03216382,0.00670902,-0.00096
 870,-0.00055058,-0.00316412,0.00140671,0.00105206,0.00158705,0.0006015
 7,0.00057104,-0.00054070,-0.00003240,-0.00011861,-0.00005355,-0.000016
 87,0.00001339,-0.00006383,-0.00002463,0.00002360,-0.00012220,0.0000225
 7,0.00001248,0.00005332,-0.00001047,-0.00032916,0.00027860,0.00027314,
 -0.00034873,-0.00156966,-0.00289219,-0.00167163,-0.05413867,0.30432573
 ,-0.00016124,-0.00024551,-0.00014584,0.00060155,0.00001361,-0.00071547
 ,-0.00317320,0.00105726,0.00041468,0.00096456,-0.00072293,0.00030357,0
 .00088515,0.02973584,-0.00171384,0.00821719,-0.03592474,-0.05274549,-0
 .00585398,0.00616383,0.00040102,0.00227012,0.00090811,0.00119486,-0.00
 072450,-0.00065050,-0.00090240,0.00024692,0.00010859,0.00016343,0.0000
 0912,0.00001542,-0.00002241,0.00002649,-0.00001287,0.00002295,0.000139
 90,0.00002002,-0.00000401,-0.00006946,0.00008733,0.00020488,0.00006629
 ,0.00000743,-0.00019097,0.00146506,0.00275493,-0.00020360,-0.01116820,
 0.02514270,0.05813536,0.00023690,-0.00015872,-0.00021018,-0.00120741,-
 0.00058760,0.00010288,0.00623026,-0.00193469,0.00227254,-0.00083044,0.
 00188878,-0.00131159,0.00022429,-0.00088280,0.02045309,-0.05533945,-0.
 01521837,-0.04882113,-0.02054824,-0.00841422,-0.02829198,0.00130392,0.
 00182801,-0.00533833,0.00008787,0.00192335,0.00239050,-0.00010344,-0.0
 0037498,-0.00048741,-0.00003289,0.00001014,0.00000011,-0.00017098,-0.0
 0005214,0.00004517,-0.00007461,0.00006749,0.00002022,0.00012500,0.0002
 3624,-0.00007885,0.00002312,-0.00056181,-0.00060546,-0.00155827,0.0009
 4535,0.00227768,0.00441646,0.00348413,0.00611626,0.06680590,0.00012720
 ,-0.00017018,-0.00020045,-0.00043493,-0.00069140,0.00013362,0.00218518
 ,0.00082434,0.00071638,-0.00083564,0.00005161,-0.00051461,0.00034777,0
 .00457604,0.02589957,-0.01620494,-0.06938212,-0.06935033,0.00469171,0.
 00126101,0.00579839,-0.00172844,0.00151326,0.00089069,0.00045832,-0.00
 087581,-0.00040846,-0.00015626,0.00015676,0.00007762,-0.00000034,-0.00
 001767,0.00001556,-0.00011829,0.00000188,0.00002339,-0.00001582,0.0000
 2338,-0.00002075,0.00005992,0.00016065,0.00005928,-0.00011048,-0.00023
 330,0.00009043,-0.00119184,-0.00010097,0.00229736,-0.00659949,-0.00993
 439,-0.02902375,0.01977735,0.07259992,-0.00022068,0.00009694,0.0001289
 4,0.00106478,0.00013268,0.00001758,-0.00628735,0.00144249,-0.00166498,
 0.00086511,-0.00081432,0.00157462,0.00759573,0.00864393,-0.02512259,-0
 .04807109,-0.06558989,-0.25670576,-0.00756748,-0.00091607,-0.00182826,
 0.00348959,0.00103462,0.00108817,-0.00168329,0.00081325,0.00057482,0.0
 0057342,-0.00014970,-0.00002566,0.00005433,0.00001351,-0.00002162,0.00
 014318,0.00001577,0.00001650,0.00006732,0.00001565,-0.00002510,-0.0000
 6385,-0.00035711,0.00003373,-0.00026423,-0.00026576,0.00031549,0.00178
 588,-0.00212903,-0.00299472,-0.00244913,-0.00376477,-0.00456082,0.0516
 2135,0.06311867,0.28985977,-0.00000210,0.00000005,0.00000016,0.0000078
 1,0.00003719,-0.00004385,0.00013131,-0.00004227,0.00004971,0.00003197,
 0.00006038,-0.00007105,-0.00058228,0.00022713,-0.00026727,0.00324924,-
 0.00185413,0.00218242,0.00822795,-0.01957001,0.02303717,-0.07419924,0.
 04045298,-0.04761967,-0.01304198,0.01997314,-0.02351164,-0.00197250,-0
 .00183886,0.00216469,-0.00000161,0.00000187,-0.00000221,-0.00000033,-0
 .00000227,0.00000006,-0.00000030,0.00000019,0.00000223,0.00001458,0.00
 001090,-0.00001282,-0.00000135,0.00003040,-0.00003578,0.00024487,0.000
 25759,-0.00030322,0.00041207,0.00068561,0.00014199,0.00041201,-0.00025
 098,-0.00065358,0.07706989,0.00003565,0.00000781,0.00001222,-0.0000721
 8,-0.00002356,0.00000510,0.00025940,-0.00005396,-0.00002552,-0.0002043
 4,0.00007349,-0.00013670,-0.00028798,-0.00012840,-0.00075753,0.0027440
 9,-0.00501731,-0.00588786,-0.00382449,0.00568443,0.03199198,0.03707885
 ,-0.14782701,0.11342915,0.00476982,0.00217194,0.00580705,-0.00124994,0
 .00004283,-0.00004545,-0.00000316,-0.00000316,0.00000418,-0.00001059,0
 .00000015,-0.00000572,-0.00000684,0.00000086,-0.00000155,0.00001723,0.
 00002150,0.00000297,-0.00002493,0.00004478,0.00008368,0.00046165,0.000
 37139,0.00009478,0.00047213,-0.00078721,0.00056522,-0.00197549,0.00023
 697,-0.00134087,-0.03817890,0.14518444,-0.00004206,0.00001254,0.000004
 02,0.00008492,0.00000521,-0.00002538,-0.00030530,-0.00002572,-0.000046
 11,0.00024047,-0.00013653,0.00011845,0.00033911,-0.00075739,0.00012010
 ,-0.00323054,-0.00588788,-0.00308821,0.00450222,0.03199216,-0.00479817
 ,-0.04364763,0.11342913,-0.18499329,-0.00561493,0.00580669,0.00026912,
 0.00147150,-0.00004519,0.00005792,0.00000372,0.00000415,-0.00000448,0.
 00000870,-0.00000142,0.00000195,0.00001186,-0.00000602,0.00000134,-0.0
 0002022,0.00000280,0.00002068,0.00002929,0.00008366,0.00001733,-0.0005
 4340,0.00009472,0.00034037,0.00192450,-0.00117318,0.00036410,-0.000154
 87,0.00039741,-0.00066009,0.04494266,-0.14379513,0.19230037\\-0.000013
 20,-0.00000037,0.00000037,0.00001612,-0.00000565,0.00000699,-0.0000977
 5,0.00002462,-0.00002888,0.00002856,-0.00002478,0.00002927,0.00002410,
 0.00002114,-0.00002565,-0.00008274,-0.00001181,0.00001383,0.00003726,-
 0.00000879,0.00001056,0.00003196,-0.00002894,0.00003400,-0.00004773,0.
 00002063,-0.00002427,0.00003923,-0.00000518,0.00000608,-0.00000058,0.0
 0000512,-0.00000600,0.00000101,-0.00000269,-0.00000083,0.00000104,0.00
 000125,0.00000249,0.00001456,-0.00000010,-0.00000010,0.00000935,0.0000
 0326,-0.00000388,0.00001631,0.00000315,-0.00000330,0.00000947,-0.00000
 186,0.00001132,0.00000937,-0.00001078,0.00000369,0.00000365,0.00002180
 ,-0.00002569\\\@


 DEPRESSION IS WAITING FOR YOUR SHIP TO COME IN,
 AND FINDING OUT IT'S THE TITANIC.
 Job cpu time:       0 days  1 hours 33 minutes 58.6 seconds.
 Elapsed time:       0 days  0 hours 23 minutes 42.9 seconds.
 File lengths (MBytes):  RWF=    159 Int=      0 D2E=      0 Chk=     10 Scr=      1
 Normal termination of Gaussian 16 at Tue Jun  1 03:07:06 2021.
### All Done ###
