### Starting Gaussian ###
 Entering Gaussian System, Link 0=g16
 Initial command:
 /cluster/software/gaussian/gaussian-16-A.03/avx2/g16/l1.exe "/local/scratch/cz9n3/Gau-5076.inp" -scrdir="/local/scratch/cz9n3/"
 Entering Link 1 = /cluster/software/gaussian/gaussian-16-A.03/avx2/g16/l1.exe PID=      5077.
  
 Copyright (c) 1988,1990,1992,1993,1995,1998,2003,2009,2016,
            Gaussian, Inc.  All Rights Reserved.
  
 This is part of the Gaussian(R) 16 program.  It is based on
 the Gaussian(R) 09 system (copyright 2009, Gaussian, Inc.),
 the Gaussian(R) 03 system (copyright 2003, Gaussian, Inc.),
 the Gaussian(R) 98 system (copyright 1998, Gaussian, Inc.),
 the Gaussian(R) 94 system (copyright 1995, Gaussian, Inc.),
 the Gaussian 92(TM) system (copyright 1992, Gaussian, Inc.),
 the Gaussian 90(TM) system (copyright 1990, Gaussian, Inc.),
 the Gaussian 88(TM) system (copyright 1988, Gaussian, Inc.),
 the Gaussian 86(TM) system (copyright 1986, Carnegie Mellon
 University), and the Gaussian 82(TM) system (copyright 1983,
 Carnegie Mellon University). Gaussian is a federally registered
 trademark of Gaussian, Inc.
  
 This software contains proprietary and confidential information,
 including trade secrets, belonging to Gaussian, Inc.
  
 This software is provided under written license and may be
 used, copied, transmitted, or stored only in accord with that
 written license.
  
 The following legend is applicable only to US Government
 contracts under FAR:
  
                    RESTRICTED RIGHTS LEGEND
  
 Use, reproduction and disclosure by the US Government is
 subject to restrictions as set forth in subparagraphs (a)
 and (c) of the Commercial Computer Software - Restricted
 Rights clause in FAR 52.227-19.
  
 Gaussian, Inc.
 340 Quinnipiac St., Bldg. 40, Wallingford CT 06492
  
  
 ---------------------------------------------------------------
 Warning -- This program may not be used in any manner that
 competes with the business of Gaussian, Inc. or will provide
 assistance to any competitor of Gaussian, Inc.  The licensee
 of this program is prohibited from giving any competitor of
 Gaussian, Inc. access to this program.  By using this program,
 the user acknowledges that Gaussian, Inc. is engaged in the
 business of creating and licensing software in the field of
 computational chemistry and represents and warrants to the
 licensee that it is not a competitor of Gaussian, Inc. and that
 it will not use this program in any manner prohibited above.
 ---------------------------------------------------------------
  

 Cite this work as:
 Gaussian 16, Revision A.03,
 M. J. Frisch, G. W. Trucks, H. B. Schlegel, G. E. Scuseria, 
 M. A. Robb, J. R. Cheeseman, G. Scalmani, V. Barone, 
 G. A. Petersson, H. Nakatsuji, X. Li, M. Caricato, A. V. Marenich, 
 J. Bloino, B. G. Janesko, R. Gomperts, B. Mennucci, H. P. Hratchian, 
 J. V. Ortiz, A. F. Izmaylov, J. L. Sonnenberg, D. Williams-Young, 
 F. Ding, F. Lipparini, F. Egidi, J. Goings, B. Peng, A. Petrone, 
 T. Henderson, D. Ranasinghe, V. G. Zakrzewski, J. Gao, N. Rega, 
 G. Zheng, W. Liang, M. Hada, M. Ehara, K. Toyota, R. Fukuda, 
 J. Hasegawa, M. Ishida, T. Nakajima, Y. Honda, O. Kitao, H. Nakai, 
 T. Vreven, K. Throssell, J. A. Montgomery, Jr., J. E. Peralta, 
 F. Ogliaro, M. J. Bearpark, J. J. Heyd, E. N. Brothers, K. N. Kudin, 
 V. N. Staroverov, T. A. Keith, R. Kobayashi, J. Normand, 
 K. Raghavachari, A. P. Rendell, J. C. Burant, S. S. Iyengar, 
 J. Tomasi, M. Cossi, J. M. Millam, M. Klene, C. Adamo, R. Cammi, 
 J. W. Ochterski, R. L. Martin, K. Morokuma, O. Farkas, 
 J. B. Foresman, and D. J. Fox, Gaussian, Inc., Wallingford CT, 2016.
 
 ******************************************
 Gaussian 16:  ES64L-G16RevA.03 25-Dec-2016
                 1-Jun-2021 
 ******************************************
 %chk=CNCpdNpCNCCCCtN.chk
 %NProcShared=20
 Will use up to   20 processors via shared memory.
 -----------------------------
 # opt freq b3lyp/6-31g(2df,p)
 -----------------------------
 1/18=20,19=15,26=3,38=1/1,3;
 2/9=110,12=2,17=6,18=5,40=1/2;
 3/5=1,6=6,7=104,11=2,25=1,30=1,71=1,74=-5/1,2,3;
 4//1;
 5/5=2,38=5/2;
 6/7=2,8=2,9=2,10=2,28=1/1;
 7//1,2,3,16;
 1/18=20,19=15,26=3/3(2);
 2/9=110/2;
 99//99;
 2/9=110/2;
 3/5=1,6=6,7=104,11=2,25=1,30=1,71=1,74=-5/1,2,3;
 4/5=5,16=3,69=1/1;
 5/5=2,38=5/2;
 7//1,2,3,16;
 1/18=20,19=15,26=3/3(-5);
 2/9=110/2;
 6/7=2,8=2,9=2,10=2,19=2,28=1/1;
 99/9=1/99;
 -------------------
 Title Card Required
 -------------------
 Symbolic Z-matrix:
 Charge =  0 Multiplicity = 1
 C                     1.05503  -0.0951    0.01466 
 N                     2.49105  -0.21358  -0.02972 
 C                     3.17832  -1.29666  -0.51467 
 N                     2.59013  -2.34146  -1.01188 
 C                     4.72485  -1.25174  -0.48294 
 N                     5.27373  -2.50831  -0.99624 
 C                     6.71904  -2.50921  -1.03764 
 C                     7.21772  -3.83743  -1.59813 
 C                     8.73908  -3.85655  -1.60044 
 C                     9.24574  -5.17371  -2.16503 
 N                     9.66606  -6.26641  -2.63341 
 H                     0.75741   0.87213   0.4286 
 H                     0.62878  -0.88188   0.64491 
 H                     0.63265  -0.1783   -0.99195 
 H                     3.01773   0.58057   0.32065 
 H                     1.58099  -2.24337  -0.93985 
 H                     5.04175  -1.0937    0.55374 
 H                     5.05129  -0.39997  -1.09071 
 H                     4.84078  -2.69643  -1.9033 
 H                     7.11031  -2.38201  -0.02147 
 H                     7.09339  -1.68443  -1.65419 
 H                     6.8407   -3.98784  -2.61861 
 H                     6.83772  -4.67422  -0.99621 
 H                     9.13019  -3.73576  -0.58394 
 H                     9.13399  -3.03777  -2.21251 
 

 GradGradGradGradGradGradGradGradGradGradGradGradGradGradGradGradGradGrad
 Berny optimization.
 Initialization pass.
                           ----------------------------
                           !    Initial Parameters    !
                           ! (Angstroms and Degrees)  !
 --------------------------                            --------------------------
 ! Name  Definition              Value          Derivative Info.                !
 --------------------------------------------------------------------------------
 ! R1    R(1,2)                  1.4416         estimate D2E/DX2                !
 ! R2    R(1,12)                 1.0934         estimate D2E/DX2                !
 ! R3    R(1,13)                 1.0945         estimate D2E/DX2                !
 ! R4    R(1,14)                 1.0948         estimate D2E/DX2                !
 ! R5    R(2,3)                  1.3713         estimate D2E/DX2                !
 ! R6    R(2,15)                 1.0153         estimate D2E/DX2                !
 ! R7    R(3,4)                  1.298          estimate D2E/DX2                !
 ! R8    R(3,5)                  1.5475         estimate D2E/DX2                !
 ! R9    R(4,16)                 1.0165         estimate D2E/DX2                !
 ! R10   R(5,6)                  1.4641         estimate D2E/DX2                !
 ! R11   R(5,17)                 1.0955         estimate D2E/DX2                !
 ! R12   R(5,18)                 1.0961         estimate D2E/DX2                !
 ! R13   R(6,7)                  1.4459         estimate D2E/DX2                !
 ! R14   R(6,19)                 1.0225         estimate D2E/DX2                !
 ! R15   R(7,8)                  1.5255         estimate D2E/DX2                !
 ! R16   R(7,20)                 1.0963         estimate D2E/DX2                !
 ! R17   R(7,21)                 1.0957         estimate D2E/DX2                !
 ! R18   R(8,9)                  1.5215         estimate D2E/DX2                !
 ! R19   R(8,22)                 1.0982         estimate D2E/DX2                !
 ! R20   R(8,23)                 1.0986         estimate D2E/DX2                !
 ! R21   R(9,10)                 1.52           estimate D2E/DX2                !
 ! R22   R(9,24)                 1.0958         estimate D2E/DX2                !
 ! R23   R(9,25)                 1.0959         estimate D2E/DX2                !
 ! R24   R(10,11)                1.261          estimate D2E/DX2                !
 ! A1    A(2,1,12)             110.825          estimate D2E/DX2                !
 ! A2    A(2,1,13)             110.279          estimate D2E/DX2                !
 ! A3    A(2,1,14)             110.4729         estimate D2E/DX2                !
 ! A4    A(12,1,13)            108.1739         estimate D2E/DX2                !
 ! A5    A(12,1,14)            108.0775         estimate D2E/DX2                !
 ! A6    A(13,1,14)            108.9394         estimate D2E/DX2                !
 ! A7    A(1,2,3)              125.1017         estimate D2E/DX2                !
 ! A8    A(1,2,15)             116.221          estimate D2E/DX2                !
 ! A9    A(3,2,15)             118.674          estimate D2E/DX2                !
 ! A10   A(2,3,4)              122.9625         estimate D2E/DX2                !
 ! A11   A(2,3,5)              118.078          estimate D2E/DX2                !
 ! A12   A(4,3,5)              118.9526         estimate D2E/DX2                !
 ! A13   A(3,4,16)             110.1861         estimate D2E/DX2                !
 ! A14   A(3,5,6)              110.032          estimate D2E/DX2                !
 ! A15   A(3,5,17)             108.221          estimate D2E/DX2                !
 ! A16   A(3,5,18)             107.9879         estimate D2E/DX2                !
 ! A17   A(6,5,17)             110.3116         estimate D2E/DX2                !
 ! A18   A(6,5,18)             111.1543         estimate D2E/DX2                !
 ! A19   A(17,5,18)            109.0537         estimate D2E/DX2                !
 ! A20   A(5,6,7)              112.6624         estimate D2E/DX2                !
 ! A21   A(5,6,19)             108.0683         estimate D2E/DX2                !
 ! A22   A(7,6,19)             113.4356         estimate D2E/DX2                !
 ! A23   A(6,7,8)              109.745          estimate D2E/DX2                !
 ! A24   A(6,7,20)             109.2774         estimate D2E/DX2                !
 ! A25   A(6,7,21)             110.9259         estimate D2E/DX2                !
 ! A26   A(8,7,20)             108.9609         estimate D2E/DX2                !
 ! A27   A(8,7,21)             109.6931         estimate D2E/DX2                !
 ! A28   A(20,7,21)            108.1979         estimate D2E/DX2                !
 ! A29   A(7,8,9)              109.7782         estimate D2E/DX2                !
 ! A30   A(7,8,22)             110.3914         estimate D2E/DX2                !
 ! A31   A(7,8,23)             110.4151         estimate D2E/DX2                !
 ! A32   A(9,8,22)             109.885          estimate D2E/DX2                !
 ! A33   A(9,8,23)             109.7019         estimate D2E/DX2                !
 ! A34   A(22,8,23)            106.6211         estimate D2E/DX2                !
 ! A35   A(8,9,10)             110.167          estimate D2E/DX2                !
 ! A36   A(8,9,24)             110.7375         estimate D2E/DX2                !
 ! A37   A(8,9,25)             110.5965         estimate D2E/DX2                !
 ! A38   A(10,9,24)            108.7297         estimate D2E/DX2                !
 ! A39   A(10,9,25)            108.6546         estimate D2E/DX2                !
 ! A40   A(24,9,25)            107.8854         estimate D2E/DX2                !
 ! A41   L(9,10,11,22,-1)      180.0            estimate D2E/DX2                !
 ! A42   L(9,10,11,22,-2)      179.9998         estimate D2E/DX2                !
 ! D1    D(12,1,2,3)          -178.9192         estimate D2E/DX2                !
 ! D2    D(12,1,2,15)            0.4056         estimate D2E/DX2                !
 ! D3    D(13,1,2,3)            61.3255         estimate D2E/DX2                !
 ! D4    D(13,1,2,15)         -119.3496         estimate D2E/DX2                !
 ! D5    D(14,1,2,3)           -59.1582         estimate D2E/DX2                !
 ! D6    D(14,1,2,15)          120.1666         estimate D2E/DX2                !
 ! D7    D(1,2,3,4)              1.0274         estimate D2E/DX2                !
 ! D8    D(1,2,3,5)           -179.9395         estimate D2E/DX2                !
 ! D9    D(15,2,3,4)          -178.2822         estimate D2E/DX2                !
 ! D10   D(15,2,3,5)             0.7509         estimate D2E/DX2                !
 ! D11   D(2,3,4,16)            -2.7454         estimate D2E/DX2                !
 ! D12   D(5,3,4,16)           178.2296         estimate D2E/DX2                !
 ! D13   D(2,3,5,6)            178.0581         estimate D2E/DX2                !
 ! D14   D(2,3,5,17)            57.4604         estimate D2E/DX2                !
 ! D15   D(2,3,5,18)           -60.4593         estimate D2E/DX2                !
 ! D16   D(4,3,5,6)             -2.8691         estimate D2E/DX2                !
 ! D17   D(4,3,5,17)          -123.4668         estimate D2E/DX2                !
 ! D18   D(4,3,5,18)           118.6136         estimate D2E/DX2                !
 ! D19   D(3,5,6,7)            177.8805         estimate D2E/DX2                !
 ! D20   D(3,5,6,19)            51.7541         estimate D2E/DX2                !
 ! D21   D(17,5,6,7)           -62.7894         estimate D2E/DX2                !
 ! D22   D(17,5,6,19)          171.0842         estimate D2E/DX2                !
 ! D23   D(18,5,6,7)            58.3071         estimate D2E/DX2                !
 ! D24   D(18,5,6,19)          -67.8193         estimate D2E/DX2                !
 ! D25   D(5,6,7,8)           -179.2495         estimate D2E/DX2                !
 ! D26   D(5,6,7,20)            61.3268         estimate D2E/DX2                !
 ! D27   D(5,6,7,21)           -57.8792         estimate D2E/DX2                !
 ! D28   D(19,6,7,8)           -56.0666         estimate D2E/DX2                !
 ! D29   D(19,6,7,20)         -175.4904         estimate D2E/DX2                !
 ! D30   D(19,6,7,21)           65.3036         estimate D2E/DX2                !
 ! D31   D(6,7,8,9)           -178.1963         estimate D2E/DX2                !
 ! D32   D(6,7,8,22)            60.519          estimate D2E/DX2                !
 ! D33   D(6,7,8,23)           -57.1246         estimate D2E/DX2                !
 ! D34   D(20,7,8,9)           -58.5788         estimate D2E/DX2                !
 ! D35   D(20,7,8,22)         -179.8635         estimate D2E/DX2                !
 ! D36   D(20,7,8,23)           62.4929         estimate D2E/DX2                !
 ! D37   D(21,7,8,9)            59.6958         estimate D2E/DX2                !
 ! D38   D(21,7,8,22)          -61.5889         estimate D2E/DX2                !
 ! D39   D(21,7,8,23)         -179.2325         estimate D2E/DX2                !
 ! D40   D(7,8,9,10)          -179.6741         estimate D2E/DX2                !
 ! D41   D(7,8,9,24)            60.0058         estimate D2E/DX2                !
 ! D42   D(7,8,9,25)           -59.5387         estimate D2E/DX2                !
 ! D43   D(22,8,9,10)          -58.0856         estimate D2E/DX2                !
 ! D44   D(22,8,9,24)         -178.4058         estimate D2E/DX2                !
 ! D45   D(22,8,9,25)           62.0497         estimate D2E/DX2                !
 ! D46   D(23,8,9,10)           58.8257         estimate D2E/DX2                !
 ! D47   D(23,8,9,24)          -61.4944         estimate D2E/DX2                !
 ! D48   D(23,8,9,25)          178.961          estimate D2E/DX2                !
 --------------------------------------------------------------------------------
 Trust Radius=3.00D-01 FncErr=1.00D-07 GrdErr=1.00D-06 EigMax=2.50D+02 EigMin=1.00D-04
 Number of steps in this run=    124 maximum allowed number of steps=    150.
 GradGradGradGradGradGradGradGradGradGradGradGradGradGradGradGradGradGrad

                          Input orientation:                          
 ---------------------------------------------------------------------
 Center     Atomic      Atomic             Coordinates (Angstroms)
 Number     Number       Type             X           Y           Z
 ---------------------------------------------------------------------
      1          6           0        1.055030   -0.095100    0.014660
      2          7           0        2.491050   -0.213580   -0.029720
      3          6           0        3.178320   -1.296660   -0.514670
      4          7           0        2.590130   -2.341460   -1.011880
      5          6           0        4.724850   -1.251740   -0.482940
      6          7           0        5.273730   -2.508310   -0.996240
      7          6           0        6.719040   -2.509210   -1.037640
      8          6           0        7.217720   -3.837430   -1.598130
      9          6           0        8.739080   -3.856550   -1.600440
     10          6           0        9.245740   -5.173710   -2.165030
     11          7           0        9.666060   -6.266410   -2.633410
     12          1           0        0.757410    0.872130    0.428600
     13          1           0        0.628780   -0.881880    0.644910
     14          1           0        0.632650   -0.178300   -0.991950
     15          1           0        3.017730    0.580570    0.320650
     16          1           0        1.580990   -2.243370   -0.939850
     17          1           0        5.041750   -1.093700    0.553740
     18          1           0        5.051290   -0.399970   -1.090710
     19          1           0        4.840780   -2.696430   -1.903300
     20          1           0        7.110310   -2.382010   -0.021470
     21          1           0        7.093390   -1.684430   -1.654190
     22          1           0        6.840700   -3.987840   -2.618610
     23          1           0        6.837720   -4.674220   -0.996210
     24          1           0        9.130190   -3.735760   -0.583940
     25          1           0        9.133990   -3.037770   -2.212510
 ---------------------------------------------------------------------
                    Distance matrix (angstroms):
                    1          2          3          4          5
     1  C    0.000000
     2  N    1.441583   0.000000
     3  C    2.496457   1.371342   0.000000
     4  N    2.907998   2.345704   1.297995   0.000000
     5  C    3.879820   2.504605   1.547508   2.454444   0.000000
     6  N    4.964165   3.734067   2.467944   2.688827   1.464143
     7  C    6.246301   4.915457   3.778951   4.132397   2.421924
     8  C    7.388158   6.159027   4.893480   4.898592   3.760830
     9  C    8.706416   7.401099   6.217233   6.360148   4.914050
    10  C    9.880843   8.648021   7.387069   7.324516   6.216890
    11  N   10.920036   9.741495   8.442644   8.252477   7.361181
    12  H    1.093370   2.096266   3.384407   3.970013   4.591548
    13  H    1.094498   2.090407   2.831399   2.953341   4.264579
    14  H    1.094802   2.093032   2.821163   2.917428   4.261158
    15  H    2.098178   1.015296   2.060956   3.239867   2.630090
    16  H    2.408898   2.403454   1.904862   1.016451   3.328055
    17  H    4.145087   2.760635   2.157560   3.165203   1.095494
    18  H    4.157509   2.777637   2.154969   3.135747   1.096111
    19  H    4.977689   3.898215   2.579035   2.446642   2.029283
    20  H    6.472842   5.102913   4.108744   4.627589   2.679717
    21  H    6.463190   5.097434   4.095930   4.596042   2.677504
    22  H    7.453960   6.314020   5.008197   4.833166   4.064991
    23  H    7.445113   6.302773   5.003099   4.846033   4.054755
    24  H    8.878116   7.535986   6.432633   6.700716   5.058416
    25  H    8.881959   7.541172   6.433050   6.689429   5.061801
                    6          7          8          9         10
     6  N    0.000000
     7  C    1.445903   0.000000
     8  C    2.430623   1.525450   0.000000
     9  C    3.767155   2.492515   1.521482   0.000000
    10  C    4.924154   3.841195   2.493970   1.519992   0.000000
    11  N    6.008012   5.034676   3.600850   2.780961   1.260969
    12  H    5.818478   7.008877   8.247618   9.496551  10.739220
    13  H    5.187891   6.524603   7.561788   8.925650  10.028338
    14  H    5.193129   6.517620   7.557766   8.922667  10.025745
    15  H    4.045357   5.009130   6.390646   7.490825   8.836201
    16  H    3.702661   5.145852   5.894666   7.367291   8.296768
    17  H    2.111249   2.710989   4.110164   5.093533   6.458461
    18  H    2.122146   2.689442   4.094756   5.080115   6.444856
    19  H    1.022542   2.076603   2.654214   4.078522   5.060543
    20  H    2.083064   1.096300   2.148404   2.705606   4.116856
    21  H    2.103055   1.095689   2.157315   2.725672   4.131421
    22  H    2.697497   2.168090   1.098247   2.158183   2.719603
    23  H    2.671560   2.168656   1.098601   2.156119   2.722901
    24  H    4.068035   2.742975   2.167132   1.095824   2.140303
    25  H    4.081819   2.737093   2.165412   1.095894   2.139388
                   11         12         13         14         15
    11  N    0.000000
    12  H   11.819421   0.000000
    13  H   11.018756   1.771973   0.000000
    14  H   11.016441   1.771138   1.781671   0.000000
    15  H    9.990390   2.281602   2.819749   2.826200   0.000000
    16  H    9.188109   3.501040   2.296045   2.273011   3.409944
    17  H    7.635385   4.715476   4.418991   4.761016   2.637076
    18  H    7.621755   4.729053   4.775271   4.425299   2.662473
    19  H    6.046581   5.903075   5.246609   4.987975   4.359839
    20  H    5.333165   7.152016   6.686156   6.910734   5.063905
    21  H    5.345282   7.142734   6.908048   6.666945   5.063716
    22  H    3.629705   8.361293   7.673689   7.463143   6.642644
    23  H    3.635244   8.352380   7.458288   7.662650   6.628670
    24  H    3.300254   9.610480   9.051446   9.221181   7.537317
    25  H    3.299147   9.614046   9.227747   9.052023   7.544397
                   16         17         18         19         20
    16  H    0.000000
    17  H    3.940737   0.000000
    18  H    3.932412   1.784816   0.000000
    19  H    3.429246   2.940438   2.445066   0.000000
    20  H    5.606784   2.503907   3.051446   2.964947   0.000000
    21  H    5.586524   3.071342   2.477402   2.482026   1.775578
    22  H    5.790161   4.655757   4.290603   2.485777   3.065374
    23  H    5.791841   4.295111   4.633517   2.953343   2.505723
    24  H    7.703526   4.999014   5.293556   4.606512   2.495782
    25  H    7.700555   5.308293   4.988473   4.317844   3.053843
                   21         22         23         24         25
    21  H    0.000000
    22  H    2.509912   0.000000
    23  H    3.071994   1.761621   0.000000
    24  H    3.082522   3.073303   2.511193   0.000000
    25  H    2.511434   2.515299   3.070865   1.771848   0.000000
 Stoichiometry    C7H14N4
 Framework group  C1[X(C7H14N4)]
 Deg. of freedom    69
 Full point group                 C1      NOp   1
 Largest Abelian subgroup         C1      NOp   1
 Largest concise Abelian subgroup C1      NOp   1
                         Standard orientation:                         
 ---------------------------------------------------------------------
 Center     Atomic      Atomic             Coordinates (Angstroms)
 Number     Number       Type             X           Y           Z
 ---------------------------------------------------------------------
      1          6           0       -5.085064    0.237084   -0.025074
      2          7           0       -3.826328   -0.465483   -0.013025
      3          6           0       -2.590972    0.129868   -0.007560
      4          7           0       -2.427593    1.417461    0.006709
      5          6           0       -1.342105   -0.783903    0.004025
      6          7           0       -0.125268    0.029267   -0.038112
      7          6           0        1.079714   -0.767791    0.019787
      8          6           0        2.302488    0.143778   -0.009583
      9          6           0        3.571157   -0.695946    0.006278
     10          6           0        4.795719    0.204267   -0.014687
     11          7           0        5.811603    0.951073   -0.032077
     12          1           0       -5.922589   -0.465567   -0.008023
     13          1           0       -5.170063    0.847656   -0.929454
     14          1           0       -5.169139    0.887203    0.851777
     15          1           0       -3.878594   -1.479316    0.002369
     16          1           0       -3.328833    1.885835   -0.032861
     17          1           0       -1.390595   -1.441378   -0.870895
     18          1           0       -1.378214   -1.394984    0.913275
     19          1           0       -0.185831    0.729410    0.704669
     20          1           0        1.113204   -1.436774   -0.848092
     21          1           0        1.099121   -1.382484    0.926601
     22          1           0        2.293734    0.823671    0.852865
     23          1           0        2.287847    0.775750   -0.908094
     24          1           0        3.607754   -1.360143   -0.864544
     25          1           0        3.609680   -1.319248    0.906830
 ---------------------------------------------------------------------
 Rotational constants (GHZ):           5.3161725           0.2737494           0.2626423
 Standard basis: 6-31G(2df,p) (6D, 7F)
 There are   411 symmetry adapted cartesian basis functions of A   symmetry.
 There are   378 symmetry adapted basis functions of A   symmetry.
   378 basis functions,   582 primitive gaussians,   411 cartesian basis functions
    42 alpha electrons       42 beta electrons
       nuclear repulsion energy       558.7645762000 Hartrees.
 NAtoms=   25 NActive=   25 NUniq=   25 SFac= 1.00D+00 NAtFMM=   60 NAOKFM=F Big=F
 Integral buffers will be    131072 words long.
 Raffenetti 2 integral format.
 Two-electron integral symmetry is turned on.
 One-electron integrals computed using PRISM.
 PrsmSu:  requested number of processors reduced to:  13 ShMem   1 Linda.
 NBasis=   378 RedAO= T EigKep=  2.19D-04  NBF=   378
 NBsUse=   378 1.00D-06 EigRej= -1.00D+00 NBFU=   378
 ExpMin= 1.61D-01 ExpMax= 4.17D+03 ExpMxC= 6.27D+02 IAcc=3 IRadAn=         5 AccDes= 0.00D+00
 Harris functional with IExCor=  402 and IRadAn=       5 diagonalized for initial guess.
 HarFok:  IExCor=  402 AccDes= 0.00D+00 IRadAn=         5 IDoV= 1 UseB2=F ITyADJ=14
 ICtDFT=  3500011 ScaDFX=  1.000000  1.000000  1.000000  1.000000
 FoFCou: FMM=F IPFlag=           0 FMFlag=      100000 FMFlg1=           0
         NFxFlg=           0 DoJE=T BraDBF=F KetDBF=T FulRan=T
         wScrn=  0.000000 ICntrl=       500 IOpCl=  0 I1Cent=   200000004 NGrid=           0
         NMat0=    1 NMatS0=      1 NMatT0=    0 NMatD0=    1 NMtDS0=    0 NMtDT0=    0
 Petite list used in FoFCou.
 Requested convergence on RMS density matrix=1.00D-08 within 128 cycles.
 Requested convergence on MAX density matrix=1.00D-06.
 Requested convergence on             energy=1.00D-06.
 No special actions if energy rises.
 Integral accuracy reduced to 1.0D-05 until final iterations.
 Initial convergence to 1.0D-05 achieved.  Increase integral accuracy.
 SCF Done:  E(RB3LYP) =  -494.156196628     A.U. after   15 cycles
            NFock= 15  Conv=0.34D-08     -V/T= 2.0090

 **********************************************************************

            Population analysis using the SCF density.

 **********************************************************************

 Orbital symmetries:
       Occupied  (A) (A) (A) (A) (A) (A) (A) (A) (A) (A) (A) (A)
                 (A) (A) (A) (A) (A) (A) (A) (A) (A) (A) (A) (A)
                 (A) (A) (A) (A) (A) (A) (A) (A) (A) (A) (A) (A)
                 (A) (A) (A) (A) (A) (A)
       Virtual   (A) (A) (A) (A) (A) (A) (A) (A) (A) (A) (A) (A)
                 (A) (A) (A) (A) (A) (A) (A) (A) (A) (A) (A) (A)
                 (A) (A) (A) (A) (A) (A) (A) (A) (A) (A) (A) (A)
                 (A) (A) (A) (A) (A) (A) (A) (A) (A) (A) (A) (A)
                 (A) (A) (A) (A) (A) (A) (A) (A) (A) (A) (A) (A)
                 (A) (A) (A) (A) (A) (A) (A) (A) (A) (A) (A) (A)
                 (A) (A) (A) (A) (A) (A) (A) (A) (A) (A) (A) (A)
                 (A) (A) (A) (A) (A) (A) (A) (A) (A) (A) (A) (A)
                 (A) (A) (A) (A) (A) (A) (A) (A) (A) (A) (A) (A)
                 (A) (A) (A) (A) (A) (A) (A) (A) (A) (A) (A) (A)
                 (A) (A) (A) (A) (A) (A) (A) (A) (A) (A) (A) (A)
                 (A) (A) (A) (A) (A) (A) (A) (A) (A) (A) (A) (A)
                 (A) (A) (A) (A) (A) (A) (A) (A) (A) (A) (A) (A)
                 (A) (A) (A) (A) (A) (A) (A) (A) (A) (A) (A) (A)
                 (A) (A) (A) (A) (A) (A) (A) (A) (A) (A) (A) (A)
                 (A) (A) (A) (A) (A) (A) (A) (A) (A) (A) (A) (A)
                 (A) (A) (A) (A) (A) (A) (A) (A) (A) (A) (A) (A)
                 (A) (A) (A) (A) (A) (A) (A) (A) (A) (A) (A) (A)
                 (A) (A) (A) (A) (A) (A) (A) (A) (A) (A) (A) (A)
                 (A) (A) (A) (A) (A) (A) (A) (A) (A) (A) (A) (A)
                 (A) (A) (A) (A) (A) (A) (A) (A) (A) (A) (A) (A)
                 (A) (A) (A) (A) (A) (A) (A) (A) (A) (A) (A) (A)
                 (A) (A) (A) (A) (A) (A) (A) (A) (A) (A) (A) (A)
                 (A) (A) (A) (A) (A) (A) (A) (A) (A) (A) (A) (A)
                 (A) (A) (A) (A) (A) (A) (A) (A) (A) (A) (A) (A)
                 (A) (A) (A) (A) (A) (A) (A) (A) (A) (A) (A) (A)
                 (A) (A) (A) (A) (A) (A) (A) (A) (A) (A) (A) (A)
                 (A) (A) (A) (A) (A) (A) (A) (A) (A) (A) (A) (A)
 The electronic state is 1-A.
 Alpha  occ. eigenvalues --  -14.35442 -14.34368 -14.31251 -14.28086 -10.25251
 Alpha  occ. eigenvalues --  -10.24106 -10.23969 -10.22915 -10.22206 -10.21489
 Alpha  occ. eigenvalues --  -10.20075  -0.95768  -0.90808  -0.85848  -0.84444
 Alpha  occ. eigenvalues --   -0.80727  -0.73828  -0.70712  -0.65595  -0.61201
 Alpha  occ. eigenvalues --   -0.56984  -0.53189  -0.51220  -0.50356  -0.49014
 Alpha  occ. eigenvalues --   -0.47291  -0.45430  -0.44967  -0.42985  -0.41933
 Alpha  occ. eigenvalues --   -0.40508  -0.39200  -0.37137  -0.36659  -0.35654
 Alpha  occ. eigenvalues --   -0.34607  -0.32792  -0.29959  -0.29794  -0.25597
 Alpha  occ. eigenvalues --   -0.23015  -0.21756
 Alpha virt. eigenvalues --    0.01391   0.01556   0.03939   0.06573   0.07493
 Alpha virt. eigenvalues --    0.08393   0.09850   0.10700   0.12665   0.13320
 Alpha virt. eigenvalues --    0.14813   0.15387   0.15592   0.16058   0.17224
 Alpha virt. eigenvalues --    0.18203   0.19445   0.19769   0.20054   0.21716
 Alpha virt. eigenvalues --    0.22585   0.22978   0.24359   0.31063   0.31970
 Alpha virt. eigenvalues --    0.35544   0.38362   0.41468   0.44233   0.46059
 Alpha virt. eigenvalues --    0.48541   0.49176   0.49390   0.49829   0.50729
 Alpha virt. eigenvalues --    0.52527   0.53037   0.53660   0.54948   0.56553
 Alpha virt. eigenvalues --    0.57416   0.58877   0.59751   0.60749   0.61930
 Alpha virt. eigenvalues --    0.63739   0.65088   0.65684   0.66310   0.67195
 Alpha virt. eigenvalues --    0.68380   0.68647   0.69586   0.71596   0.72526
 Alpha virt. eigenvalues --    0.73366   0.73452   0.74082   0.74184   0.74879
 Alpha virt. eigenvalues --    0.75711   0.76029   0.76668   0.77830   0.78396
 Alpha virt. eigenvalues --    0.79834   0.80447   0.81574   0.82444   0.82778
 Alpha virt. eigenvalues --    0.82891   0.83852   0.84089   0.85555   0.86094
 Alpha virt. eigenvalues --    0.86582   0.87955   0.90158   0.90949   0.92410
 Alpha virt. eigenvalues --    0.99223   1.00778   1.04346   1.06503   1.08512
 Alpha virt. eigenvalues --    1.09807   1.11267   1.13300   1.14272   1.17159
 Alpha virt. eigenvalues --    1.17800   1.21766   1.23306   1.24077   1.24957
 Alpha virt. eigenvalues --    1.25617   1.27573   1.29277   1.31093   1.33575
 Alpha virt. eigenvalues --    1.33809   1.34967   1.35508   1.36278   1.38938
 Alpha virt. eigenvalues --    1.40080   1.44181   1.44590   1.48598   1.51884
 Alpha virt. eigenvalues --    1.52283   1.56325   1.57056   1.59785   1.60454
 Alpha virt. eigenvalues --    1.61627   1.62272   1.63969   1.65400   1.68835
 Alpha virt. eigenvalues --    1.72030   1.74000   1.75933   1.76901   1.77211
 Alpha virt. eigenvalues --    1.78966   1.81602   1.84187   1.84640   1.87804
 Alpha virt. eigenvalues --    1.90741   1.92131   1.92404   1.96611   1.98013
 Alpha virt. eigenvalues --    2.01055   2.06125   2.08902   2.12374   2.13638
 Alpha virt. eigenvalues --    2.16410   2.17659   2.21929   2.23211   2.25105
 Alpha virt. eigenvalues --    2.28035   2.29520   2.32916   2.34631   2.39869
 Alpha virt. eigenvalues --    2.40478   2.42986   2.44107   2.44293   2.46604
 Alpha virt. eigenvalues --    2.49674   2.51609   2.53780   2.59035   2.61470
 Alpha virt. eigenvalues --    2.64640   2.67136   2.70167   2.71739   2.72398
 Alpha virt. eigenvalues --    2.72790   2.73829   2.77370   2.78019   2.78412
 Alpha virt. eigenvalues --    2.79951   2.80701   2.82839   2.83989   2.85587
 Alpha virt. eigenvalues --    2.86338   2.86433   2.88415   2.89444   2.91164
 Alpha virt. eigenvalues --    2.91887   2.95911   2.97432   2.98945   3.01208
 Alpha virt. eigenvalues --    3.01788   3.02969   3.05949   3.08316   3.10470
 Alpha virt. eigenvalues --    3.11507   3.12208   3.14994   3.16564   3.16866
 Alpha virt. eigenvalues --    3.19382   3.21329   3.21782   3.27802   3.29071
 Alpha virt. eigenvalues --    3.33683   3.34403   3.36747   3.39991   3.42755
 Alpha virt. eigenvalues --    3.44997   3.46304   3.47502   3.48504   3.50737
 Alpha virt. eigenvalues --    3.52398   3.58679   3.60986   3.62033   3.63165
 Alpha virt. eigenvalues --    3.64443   3.65434   3.65697   3.67347   3.70045
 Alpha virt. eigenvalues --    3.70589   3.72706   3.74569   3.76886   3.77450
 Alpha virt. eigenvalues --    3.78371   3.79750   3.80741   3.84563   3.86896
 Alpha virt. eigenvalues --    3.89175   3.91654   3.94950   3.95578   4.00491
 Alpha virt. eigenvalues --    4.01001   4.03008   4.04252   4.05401   4.07117
 Alpha virt. eigenvalues --    4.09129   4.10182   4.13929   4.14459   4.18763
 Alpha virt. eigenvalues --    4.20073   4.22368   4.22907   4.24911   4.25357
 Alpha virt. eigenvalues --    4.26436   4.30636   4.32247   4.34391   4.35248
 Alpha virt. eigenvalues --    4.37774   4.39663   4.42256   4.43162   4.44050
 Alpha virt. eigenvalues --    4.44954   4.47208   4.47806   4.49289   4.51708
 Alpha virt. eigenvalues --    4.52555   4.55146   4.55952   4.56450   4.57685
 Alpha virt. eigenvalues --    4.60564   4.61075   4.62234   4.63955   4.65003
 Alpha virt. eigenvalues --    4.66711   4.67279   4.68282   4.68807   4.69613
 Alpha virt. eigenvalues --    4.71658   4.72553   4.73496   4.74588   4.76325
 Alpha virt. eigenvalues --    4.77652   4.80922   4.83051   4.83218   4.85129
 Alpha virt. eigenvalues --    4.85879   4.87449   4.87605   4.89838   4.91225
 Alpha virt. eigenvalues --    4.92399   4.95309   4.97010   4.98294   5.02782
 Alpha virt. eigenvalues --    5.04818   5.08503   5.09183   5.11451   5.11727
 Alpha virt. eigenvalues --    5.13786   5.20098   5.27509   5.28942   5.36511
 Alpha virt. eigenvalues --    5.37159   5.44576   5.45898   5.54703   5.56547
 Alpha virt. eigenvalues --    5.65902   5.77223   5.82320   5.91531   6.04287
 Alpha virt. eigenvalues --    6.08318  10.32639  10.39963  10.91837  11.02025
 Alpha virt. eigenvalues --   11.27778  11.32061  11.40394  11.45212  11.63540
 Alpha virt. eigenvalues --   11.98429  12.18943  12.59810  13.65392  15.14038
 Alpha virt. eigenvalues --   16.49060
          Condensed to atoms (all electrons):
               1          2          3          4          5          6
     1  C    4.899306   0.394364  -0.045708  -0.004181   0.004027  -0.000072
     2  N    0.394364   6.330261   0.468091  -0.068521  -0.060986   0.001127
     3  C   -0.045708   0.468091   4.409796   0.686788   0.334710  -0.032242
     4  N   -0.004181  -0.068521   0.686788   6.573984  -0.031267  -0.005034
     5  C    0.004027  -0.060986   0.334710  -0.031267   5.029530   0.385350
     6  N   -0.000072   0.001127  -0.032242  -0.005034   0.385350   6.354058
     7  C    0.000000  -0.000015   0.003355   0.000681  -0.064622   0.383838
     8  C   -0.000000   0.000000  -0.000121   0.000017   0.002604  -0.036294
     9  C    0.000000  -0.000000   0.000000  -0.000000  -0.000262   0.002496
    10  C   -0.000000   0.000000  -0.000000   0.000000   0.000000  -0.000016
    11  N   -0.000000  -0.000000   0.000000   0.000000  -0.000000   0.000000
    12  H    0.376079  -0.018397   0.003107   0.000719  -0.000119   0.000000
    13  H    0.375566  -0.037623  -0.002633   0.003414   0.000024   0.000001
    14  H    0.373537  -0.038313  -0.003188   0.004365   0.000062   0.000000
    15  H   -0.047387   0.350236  -0.041169   0.006815  -0.002010   0.000002
    16  H    0.010285  -0.022312  -0.088097   0.344112   0.010466   0.000012
    17  H   -0.000015  -0.000128  -0.008238  -0.001264   0.340709  -0.018638
    18  H   -0.000067   0.001981  -0.035052  -0.001149   0.343899  -0.038676
    19  H   -0.000008   0.000341   0.007927   0.014687  -0.060329   0.343801
    20  H    0.000000  -0.000003   0.000396  -0.000025  -0.003224  -0.022596
    21  H    0.000000   0.000005  -0.000318   0.000012  -0.005278  -0.040587
    22  H    0.000000  -0.000000   0.000010  -0.000016   0.000105  -0.001301
    23  H    0.000000   0.000000  -0.000004   0.000000   0.000142   0.005636
    24  H    0.000000  -0.000000   0.000000  -0.000000   0.000005   0.000053
    25  H    0.000000   0.000000  -0.000000  -0.000000   0.000004   0.000017
               7          8          9         10         11         12
     1  C    0.000000  -0.000000   0.000000  -0.000000  -0.000000   0.376079
     2  N   -0.000015   0.000000  -0.000000   0.000000  -0.000000  -0.018397
     3  C    0.003355  -0.000121   0.000000  -0.000000   0.000000   0.003107
     4  N    0.000681   0.000017  -0.000000   0.000000   0.000000   0.000719
     5  C   -0.064622   0.002604  -0.000262   0.000000  -0.000000  -0.000119
     6  N    0.383838  -0.036294   0.002496  -0.000016   0.000000   0.000000
     7  C    4.840832   0.418476  -0.042894   0.002336   0.000005  -0.000000
     8  C    0.418476   4.836165   0.380391  -0.036787  -0.001517   0.000000
     9  C   -0.042894   0.380391   4.980562   0.380100  -0.044436  -0.000000
    10  C    0.002336  -0.036787   0.380100   4.471349   0.944416   0.000000
    11  N    0.000005  -0.001517  -0.044436   0.944416   6.475031  -0.000000
    12  H   -0.000000   0.000000  -0.000000   0.000000  -0.000000   0.571196
    13  H    0.000000   0.000000   0.000000   0.000000   0.000000  -0.030083
    14  H   -0.000000   0.000000  -0.000000   0.000000  -0.000000  -0.029082
    15  H   -0.000011   0.000000   0.000000   0.000000  -0.000000  -0.005299
    16  H   -0.000020  -0.000001   0.000000  -0.000000  -0.000000  -0.000061
    17  H   -0.003253   0.000231  -0.000008  -0.000000  -0.000000  -0.000001
    18  H   -0.004343   0.000061   0.000050   0.000000   0.000000   0.000003
    19  H   -0.045723   0.000128  -0.000202   0.000004  -0.000000  -0.000000
    20  H    0.351190  -0.019366  -0.006771   0.000016   0.000000   0.000000
    21  H    0.339988  -0.039477   0.001948   0.000230   0.000001   0.000000
    22  H   -0.031716   0.373273  -0.033728  -0.000498   0.000329   0.000000
    23  H   -0.027612   0.368664  -0.031264   0.000097   0.000291   0.000000
    24  H   -0.003370  -0.029247   0.363008  -0.019978  -0.000218   0.000000
    25  H   -0.002986  -0.029157   0.361264  -0.020136  -0.000221   0.000000
              13         14         15         16         17         18
     1  C    0.375566   0.373537  -0.047387   0.010285  -0.000015  -0.000067
     2  N   -0.037623  -0.038313   0.350236  -0.022312  -0.000128   0.001981
     3  C   -0.002633  -0.003188  -0.041169  -0.088097  -0.008238  -0.035052
     4  N    0.003414   0.004365   0.006815   0.344112  -0.001264  -0.001149
     5  C    0.000024   0.000062  -0.002010   0.010466   0.340709   0.343899
     6  N    0.000001   0.000000   0.000002   0.000012  -0.018638  -0.038676
     7  C    0.000000  -0.000000  -0.000011  -0.000020  -0.003253  -0.004343
     8  C    0.000000   0.000000   0.000000  -0.000001   0.000231   0.000061
     9  C    0.000000  -0.000000   0.000000   0.000000  -0.000008   0.000050
    10  C    0.000000   0.000000   0.000000  -0.000000  -0.000000   0.000000
    11  N    0.000000  -0.000000  -0.000000  -0.000000  -0.000000   0.000000
    12  H   -0.030083  -0.029082  -0.005299  -0.000061  -0.000001   0.000003
    13  H    0.600922  -0.052061   0.003599   0.002502  -0.000018   0.000005
    14  H   -0.052061   0.603557   0.003781   0.002671   0.000011  -0.000015
    15  H    0.003599   0.003781   0.488128   0.000463   0.001307   0.002318
    16  H    0.002502   0.002671   0.000463   0.538541  -0.000273  -0.000232
    17  H   -0.000018   0.000011   0.001307  -0.000273   0.614851  -0.054260
    18  H    0.000005  -0.000015   0.002318  -0.000232  -0.054260   0.686256
    19  H   -0.000002   0.000003  -0.000034  -0.000732   0.006649  -0.005691
    20  H    0.000000  -0.000000   0.000000   0.000000   0.005970  -0.002055
    21  H   -0.000000   0.000000   0.000005   0.000000  -0.002013   0.014690
    22  H    0.000000  -0.000000   0.000000   0.000000   0.000008  -0.000028
    23  H   -0.000000   0.000000   0.000000   0.000000  -0.000030   0.000040
    24  H   -0.000000   0.000000   0.000000   0.000000  -0.000002   0.000000
    25  H   -0.000000   0.000000   0.000000   0.000000  -0.000000   0.000001
              19         20         21         22         23         24
     1  C   -0.000008   0.000000   0.000000   0.000000   0.000000   0.000000
     2  N    0.000341  -0.000003   0.000005  -0.000000   0.000000  -0.000000
     3  C    0.007927   0.000396  -0.000318   0.000010  -0.000004   0.000000
     4  N    0.014687  -0.000025   0.000012  -0.000016   0.000000  -0.000000
     5  C   -0.060329  -0.003224  -0.005278   0.000105   0.000142   0.000005
     6  N    0.343801  -0.022596  -0.040587  -0.001301   0.005636   0.000053
     7  C   -0.045723   0.351190   0.339988  -0.031716  -0.027612  -0.003370
     8  C    0.000128  -0.019366  -0.039477   0.373273   0.368664  -0.029247
     9  C   -0.000202  -0.006771   0.001948  -0.033728  -0.031264   0.363008
    10  C    0.000004   0.000016   0.000230  -0.000498   0.000097  -0.019978
    11  N   -0.000000   0.000000   0.000001   0.000329   0.000291  -0.000218
    12  H   -0.000000   0.000000   0.000000   0.000000   0.000000   0.000000
    13  H   -0.000002   0.000000  -0.000000   0.000000  -0.000000  -0.000000
    14  H    0.000003  -0.000000   0.000000  -0.000000   0.000000   0.000000
    15  H   -0.000034   0.000000   0.000005   0.000000   0.000000   0.000000
    16  H   -0.000732   0.000000   0.000000   0.000000   0.000000   0.000000
    17  H    0.006649   0.005970  -0.002013   0.000008  -0.000030  -0.000002
    18  H   -0.005691  -0.002055   0.014690  -0.000028   0.000040   0.000000
    19  H    0.501479   0.006231  -0.005631   0.004677  -0.000540   0.000012
    20  H    0.006231   0.644151  -0.058349   0.005894  -0.006525   0.004937
    21  H   -0.005631  -0.058349   0.717233  -0.006680   0.006678  -0.000521
    22  H    0.004677   0.005894  -0.006680   0.606563  -0.037989   0.005388
    23  H   -0.000540  -0.006525   0.006678  -0.037989   0.584667  -0.005095
    24  H    0.000012   0.004937  -0.000521   0.005388  -0.005095   0.566111
    25  H   -0.000004  -0.000665   0.005591  -0.005155   0.005358  -0.036068
              25
     1  C    0.000000
     2  N    0.000000
     3  C   -0.000000
     4  N   -0.000000
     5  C    0.000004
     6  N    0.000017
     7  C   -0.002986
     8  C   -0.029157
     9  C    0.361264
    10  C   -0.020136
    11  N   -0.000221
    12  H    0.000000
    13  H   -0.000000
    14  H    0.000000
    15  H    0.000000
    16  H    0.000000
    17  H   -0.000000
    18  H    0.000001
    19  H   -0.000004
    20  H   -0.000665
    21  H    0.005591
    22  H   -0.005155
    23  H    0.005358
    24  H   -0.036068
    25  H    0.568207
 Mulliken charges:
               1
     1  C   -0.335725
     2  N   -0.300109
     3  C    0.342591
     4  N   -0.524139
     5  C   -0.223538
     6  N   -0.280935
     7  C   -0.114136
     8  C   -0.188041
     9  C   -0.310254
    10  C    0.278869
    11  N   -0.373681
    12  H    0.131938
    13  H    0.136387
    14  H    0.134672
    15  H    0.239253
    16  H    0.202674
    17  H    0.118404
    18  H    0.092261
    19  H    0.232958
    20  H    0.100794
    21  H    0.072473
    22  H    0.120862
    23  H    0.137486
    24  H    0.154985
    25  H    0.153952
 Sum of Mulliken charges =  -0.00000
 Mulliken charges with hydrogens summed into heavy atoms:
               1
     1  C    0.067273
     2  N   -0.060856
     3  C    0.342591
     4  N   -0.321465
     5  C   -0.012873
     6  N   -0.047977
     7  C    0.059130
     8  C    0.070306
     9  C   -0.001317
    10  C    0.278869
    11  N   -0.373681
 Electronic spatial extent (au):  <R**2>=           3943.7559
 Charge=             -0.0000 electrons
 Dipole moment (field-independent basis, Debye):
    X=             -6.3539    Y=             -4.8407    Z=              0.7299  Tot=              8.0211
 Quadrupole moment (field-independent basis, Debye-Ang):
   XX=            -81.0441   YY=            -67.8326   ZZ=            -66.7814
   XY=             -6.6095   XZ=              0.3380   YZ=              1.3219
 Traceless Quadrupole moment (field-independent basis, Debye-Ang):
   XX=             -9.1580   YY=              4.0534   ZZ=              5.1046
   XY=             -6.6095   XZ=              0.3380   YZ=              1.3219
 Octapole moment (field-independent basis, Debye-Ang**2):
  XXX=           -354.8281  YYY=             -9.9325  ZZZ=              0.2896  XYY=            -20.2063
  XXY=            -73.4654  XXZ=             -0.3444  XZZ=             -0.1765  YZZ=             -1.2573
  YYZ=             -0.4912  XYZ=              0.7596
 Hexadecapole moment (field-independent basis, Debye-Ang**3):
 XXXX=          -5944.7226 YYYY=           -319.9595 ZZZZ=           -100.1800 XXXY=           -336.9978
 XXXZ=             13.4263 YYYX=             -3.5875 YYYZ=              2.4249 ZZZX=              0.4013
 ZZZY=              1.5976 XXYY=           -871.5833 XXZZ=           -834.5305 YYZZ=            -67.1332
 XXYZ=              0.9287 YYXZ=              0.8858 ZZXY=             -6.1254
 N-N= 5.587645762000D+02 E-N=-2.265076975532D+03  KE= 4.897626767517D+02
 PrsmSu:  requested number of processors reduced to:  13 ShMem   1 Linda.
 Calling FoFJK, ICntrl=      2127 FMM=F ISym2X=0 I1Cent= 0 IOpClX= 0 NMat=1 NMatS=1 NMatT=0.
 ***** Axes restored to original set *****
 -------------------------------------------------------------------
 Center     Atomic                   Forces (Hartrees/Bohr)
 Number     Number              X              Y              Z
 -------------------------------------------------------------------
      1        6           0.000612442   -0.005018139   -0.002306289
      2        7           0.022231137    0.020015192    0.009886672
      3        6          -0.015590892   -0.021363871   -0.010928529
      4        7           0.015676032    0.012543340    0.007091704
      5        6          -0.019053352   -0.012251464   -0.007279703
      6        7          -0.009729319    0.008157769    0.009971947
      7        6          -0.010315089   -0.006969293   -0.006428086
      8        6          -0.004485426   -0.001032909    0.001767463
      9        6           0.012691311   -0.028674936   -0.014055596
     10        6           0.056231370   -0.129015174   -0.055189311
     11        7          -0.060836776    0.155666756    0.066665521
     12        1           0.003746992   -0.000779376   -0.000169340
     13        1          -0.004087623   -0.001078532    0.000256352
     14        1          -0.003504241   -0.000679836   -0.001069280
     15        1          -0.002124597   -0.007147872   -0.002541318
     16        1          -0.002701880   -0.000649595   -0.002581726
     17        1           0.002868402    0.000599695    0.000002466
     18        1           0.002191710    0.009117083    0.001398042
     19        1           0.004044720   -0.001187524    0.006983965
     20        1          -0.000548208    0.002349649    0.001132522
     21        1           0.008779770    0.005644199   -0.002057786
     22        1           0.000772304    0.000834282    0.001366334
     23        1          -0.000432052    0.003805268   -0.000866287
     24        1           0.001488094   -0.001329764   -0.000926168
     25        1           0.002075172   -0.001554950   -0.000123567
 -------------------------------------------------------------------
 Cartesian Forces:  Max     0.155666756 RMS     0.028329651

 GradGradGradGradGradGradGradGradGradGradGradGradGradGradGradGradGradGrad
 Berny optimization.
 FormGI is forming the generalized inverse of G from B-inverse, IUseBI=4.
 Internal  Forces:  Max     0.179935286 RMS     0.017692624
 Search for a local minimum.
 Step number   1 out of a maximum of  124
 All quantities printed in internal units (Hartrees-Bohrs-Radians)
 Mixed Optimization -- RFO/linear search
 Second derivative matrix not updated -- first step.
 ITU=  0
     Eigenvalues ---    0.00230   0.00429   0.00482   0.00843   0.01085
     Eigenvalues ---    0.01142   0.01363   0.01524   0.02071   0.02729
     Eigenvalues ---    0.03041   0.03531   0.03531   0.03859   0.04591
     Eigenvalues ---    0.04954   0.05216   0.05656   0.05700   0.05950
     Eigenvalues ---    0.06512   0.07534   0.07553   0.07926   0.09033
     Eigenvalues ---    0.09476   0.11310   0.11881   0.12576   0.12968
     Eigenvalues ---    0.15999   0.16000   0.16000   0.16000   0.16000
     Eigenvalues ---    0.16000   0.16000   0.21838   0.21941   0.22000
     Eigenvalues ---    0.22015   0.22315   0.23206   0.24997   0.24999
     Eigenvalues ---    0.27864   0.29848   0.30224   0.30367   0.33837
     Eigenvalues ---    0.33877   0.34095   0.34116   0.34140   0.34148
     Eigenvalues ---    0.34163   0.34185   0.34264   0.34298   0.34426
     Eigenvalues ---    0.36451   0.38787   0.39369   0.43935   0.44909
     Eigenvalues ---    0.45097   0.50720   0.67753   0.79312
 RFO step:  Lambda=-4.94750108D-02 EMin= 2.30000000D-03
 Linear search not attempted -- first point.
 Iteration  1 RMS(Cart)=  0.06620926 RMS(Int)=  0.00188166
 Iteration  2 RMS(Cart)=  0.00277969 RMS(Int)=  0.00013092
 Iteration  3 RMS(Cart)=  0.00000220 RMS(Int)=  0.00013091
 Iteration  4 RMS(Cart)=  0.00000000 RMS(Int)=  0.00013091
 Variable       Old X    -DE/DX   Delta X   Delta X   Delta X     New X
                                 (Linear)    (Quad)   (Total)
    R1        2.72420   0.00250   0.00000   0.00564   0.00564   2.72983
    R2        2.06617  -0.00177   0.00000  -0.00450  -0.00450   2.06167
    R3        2.06830   0.00251   0.00000   0.00641   0.00641   2.07471
    R4        2.06888   0.00239   0.00000   0.00609   0.00609   2.07496
    R5        2.59146  -0.00283   0.00000  -0.00508  -0.00508   2.58638
    R6        1.91863  -0.00757   0.00000  -0.01513  -0.01513   1.90350
    R7        2.45286  -0.01718   0.00000  -0.02363  -0.02363   2.42922
    R8        2.92437  -0.01408   0.00000  -0.04291  -0.04291   2.88146
    R9        1.92081   0.00244   0.00000   0.00489   0.00489   1.92570
   R10        2.76683  -0.00873   0.00000  -0.02109  -0.02109   2.74573
   R11        2.07018   0.00092   0.00000   0.00235   0.00235   2.07253
   R12        2.07135   0.00696   0.00000   0.01782   0.01782   2.08917
   R13        2.73236   0.00567   0.00000   0.01296   0.01296   2.74532
   R14        1.93232  -0.00769   0.00000  -0.01573  -0.01573   1.91659
   R15        2.88268   0.00409   0.00000   0.01174   0.01174   2.89443
   R16        2.07171   0.00113   0.00000   0.00289   0.00289   2.07459
   R17        2.07055   0.00841   0.00000   0.02149   0.02149   2.09204
   R18        2.87518   0.01172   0.00000   0.03331   0.03331   2.90849
   R19        2.07539  -0.00165   0.00000  -0.00425  -0.00425   2.07114
   R20        2.07606  -0.00322   0.00000  -0.00831  -0.00831   2.06774
   R21        2.87237  -0.02889   0.00000  -0.08182  -0.08182   2.79055
   R22        2.07081  -0.00047   0.00000  -0.00121  -0.00121   2.06959
   R23        2.07094  -0.00035   0.00000  -0.00088  -0.00088   2.07006
   R24        2.38289  -0.17994   0.00000  -0.21355  -0.21355   2.16934
    A1        1.93426  -0.00663   0.00000  -0.03333  -0.03316   1.90110
    A2        1.92473   0.00512   0.00000   0.02539   0.02529   1.95002
    A3        1.92812   0.00413   0.00000   0.02050   0.02037   1.94849
    A4        1.88799   0.00017   0.00000  -0.00069  -0.00050   1.88749
    A5        1.88631   0.00058   0.00000   0.00096   0.00109   1.88740
    A6        1.90135  -0.00353   0.00000  -0.01360  -0.01396   1.88739
    A7        2.18344  -0.00592   0.00000  -0.02195  -0.02195   2.16148
    A8        2.02844   0.00498   0.00000   0.02062   0.02062   2.04906
    A9        2.07125   0.00094   0.00000   0.00134   0.00134   2.07259
   A10        2.14610   0.01920   0.00000   0.06408   0.06406   2.21016
   A11        2.06085  -0.02030   0.00000  -0.06783  -0.06784   1.99301
   A12        2.07611   0.00109   0.00000   0.00360   0.00358   2.07970
   A13        1.92311   0.00388   0.00000   0.01852   0.01852   1.94163
   A14        1.92042   0.00369   0.00000   0.01794   0.01776   1.93818
   A15        1.88881   0.00221   0.00000   0.01191   0.01202   1.90083
   A16        1.88474  -0.00353   0.00000  -0.01280  -0.01324   1.87150
   A17        1.92530  -0.00463   0.00000  -0.02627  -0.02619   1.89911
   A18        1.94001   0.00447   0.00000   0.03203   0.03200   1.97201
   A19        1.90335  -0.00227   0.00000  -0.02325  -0.02307   1.88028
   A20        1.96633   0.00325   0.00000   0.01155   0.01157   1.97790
   A21        1.88615   0.00117   0.00000   0.00999   0.01006   1.89621
   A22        1.97983  -0.00353   0.00000  -0.01941  -0.01945   1.96038
   A23        1.91541   0.00295   0.00000   0.01452   0.01439   1.92981
   A24        1.90725  -0.00329   0.00000  -0.01934  -0.01924   1.88801
   A25        1.93602   0.00373   0.00000   0.03061   0.03064   1.96666
   A26        1.90173   0.00108   0.00000   0.00320   0.00322   1.90495
   A27        1.91451  -0.00321   0.00000  -0.01307  -0.01345   1.90106
   A28        1.88841  -0.00137   0.00000  -0.01680  -0.01672   1.87169
   A29        1.91599   0.00740   0.00000   0.02863   0.02866   1.94465
   A30        1.92669  -0.00212   0.00000  -0.00887  -0.00889   1.91780
   A31        1.92711  -0.00374   0.00000  -0.01742  -0.01758   1.90952
   A32        1.91785  -0.00267   0.00000  -0.00953  -0.00947   1.90839
   A33        1.91466  -0.00065   0.00000   0.00362   0.00374   1.91840
   A34        1.86089   0.00151   0.00000   0.00255   0.00243   1.86332
   A35        1.92278   0.00822   0.00000   0.02979   0.02965   1.95243
   A36        1.93273   0.00059   0.00000   0.00423   0.00418   1.93691
   A37        1.93027   0.00165   0.00000   0.00977   0.00967   1.93994
   A38        1.89769  -0.00459   0.00000  -0.01913  -0.01921   1.87848
   A39        1.89638  -0.00486   0.00000  -0.01952  -0.01970   1.87668
   A40        1.88296  -0.00143   0.00000  -0.00688  -0.00690   1.87606
   A41        3.14159  -0.00203   0.00000  -0.02398  -0.02398   3.11761
   A42        3.14159   0.00061   0.00000   0.00720   0.00720   3.14879
    D1       -3.12273   0.00001   0.00000  -0.00030  -0.00032  -3.12305
    D2        0.00708   0.00005   0.00000   0.00051   0.00049   0.00757
    D3        1.07033   0.00074   0.00000   0.00551   0.00573   1.07606
    D4       -2.08304   0.00078   0.00000   0.00632   0.00654  -2.07650
    D5       -1.03251  -0.00087   0.00000  -0.00733  -0.00752  -1.04003
    D6        2.09730  -0.00082   0.00000  -0.00651  -0.00671   2.09060
    D7        0.01793  -0.00002   0.00000  -0.00015  -0.00007   0.01786
    D8       -3.14054  -0.00075   0.00000  -0.01081  -0.01089   3.13176
    D9       -3.11161  -0.00009   0.00000  -0.00109  -0.00101  -3.11262
   D10        0.01311  -0.00082   0.00000  -0.01176  -0.01183   0.00127
   D11       -0.04792   0.00142   0.00000   0.01789   0.01764  -0.03028
   D12        3.11069   0.00235   0.00000   0.02930   0.02956   3.14025
   D13        3.10770  -0.00325   0.00000  -0.03282  -0.03287   3.07483
   D14        1.00287  -0.00117   0.00000  -0.01884  -0.01904   0.98383
   D15       -1.05521   0.00224   0.00000   0.00920   0.00898  -1.04624
   D16       -0.05007  -0.00376   0.00000  -0.04241  -0.04215  -0.09222
   D17       -2.15490  -0.00168   0.00000  -0.02843  -0.02831  -2.18321
   D18        2.07020   0.00173   0.00000  -0.00039  -0.00030   2.06990
   D19        3.10460  -0.00281   0.00000  -0.03166  -0.03136   3.07324
   D20        0.90328  -0.00143   0.00000  -0.02226  -0.02202   0.88126
   D21       -1.09588  -0.00066   0.00000  -0.02208  -0.02204  -1.11793
   D22        2.98598   0.00073   0.00000  -0.01268  -0.01271   2.97327
   D23        1.01765  -0.00367   0.00000  -0.04784  -0.04808   0.96957
   D24       -1.18367  -0.00229   0.00000  -0.03844  -0.03875  -1.22241
   D25       -3.12849  -0.00046   0.00000  -0.00799  -0.00815  -3.13665
   D26        1.07035  -0.00156   0.00000  -0.00888  -0.00888   1.06148
   D27       -1.01018  -0.00008   0.00000   0.00530   0.00558  -1.00461
   D28       -0.97855   0.00092   0.00000  -0.00063  -0.00087  -0.97942
   D29       -3.06288  -0.00018   0.00000  -0.00152  -0.00160  -3.06448
   D30        1.13976   0.00129   0.00000   0.01266   0.01286   1.15262
   D31       -3.11011   0.00147   0.00000   0.01262   0.01260  -3.09751
   D32        1.05626   0.00134   0.00000   0.01153   0.01152   1.06778
   D33       -0.99701   0.00308   0.00000   0.02455   0.02440  -0.97262
   D34       -1.02239  -0.00012   0.00000  -0.00033  -0.00030  -1.02269
   D35       -3.13921  -0.00025   0.00000  -0.00142  -0.00138  -3.14059
   D36        1.09071   0.00149   0.00000   0.01160   0.01149   1.10220
   D37        1.04189  -0.00301   0.00000  -0.02640  -0.02628   1.01561
   D38       -1.07493  -0.00314   0.00000  -0.02749  -0.02736  -1.10229
   D39       -3.12820  -0.00140   0.00000  -0.01447  -0.01449   3.14050
   D40       -3.13590  -0.00030   0.00000  -0.00095  -0.00091  -3.13682
   D41        1.04730  -0.00032   0.00000   0.00076   0.00081   1.04810
   D42       -1.03915   0.00002   0.00000   0.00029   0.00040  -1.03875
   D43       -1.01379   0.00012   0.00000   0.00037   0.00034  -1.01344
   D44       -3.11377   0.00010   0.00000   0.00208   0.00206  -3.11171
   D45        1.08297   0.00044   0.00000   0.00161   0.00165   1.08463
   D46        1.02670   0.00001   0.00000   0.00001  -0.00007   1.02663
   D47       -1.07328  -0.00001   0.00000   0.00172   0.00164  -1.07164
   D48        3.12346   0.00033   0.00000   0.00126   0.00124   3.12470
         Item               Value     Threshold  Converged?
 Maximum Force            0.179935     0.000450     NO 
 RMS     Force            0.017693     0.000300     NO 
 Maximum Displacement     0.238017     0.001800     NO 
 RMS     Displacement     0.066558     0.001200     NO 
 Predicted change in Energy=-2.707129D-02
 GradGradGradGradGradGradGradGradGradGradGradGradGradGradGradGradGradGrad

                          Input orientation:                          
 ---------------------------------------------------------------------
 Center     Atomic      Atomic             Coordinates (Angstroms)
 Number     Number       Type             X           Y           Z
 ---------------------------------------------------------------------
      1          6           0        1.096480   -0.057983    0.041655
      2          7           0        2.528838   -0.236770   -0.014516
      3          6           0        3.138863   -1.342729   -0.541714
      4          7           0        2.558022   -2.359623   -1.071842
      5          6           0        4.662369   -1.295260   -0.500560
      6          7           0        5.236631   -2.535866   -0.992772
      7          6           0        6.687621   -2.511192   -1.060115
      8          6           0        7.224389   -3.843454   -1.592053
      9          6           0        8.763255   -3.861473   -1.612591
     10          6           0        9.291439   -5.139689   -2.130105
     11          7           0        9.675883   -6.140457   -2.540576
     12          1           0        0.878329    0.912466    0.489863
     13          1           0        0.613809   -0.832658    0.651792
     14          1           0        0.645946   -0.081233   -0.959411
     15          1           0        3.103385    0.505945    0.350047
     16          1           0        1.543913   -2.267019   -1.033829
     17          1           0        4.985342   -1.143005    0.536425
     18          1           0        4.978353   -0.411522   -1.084841
     19          1           0        4.813186   -2.756633   -1.887531
     20          1           0        7.074725   -2.346140   -0.046146
     21          1           0        7.071575   -1.690022   -1.695604
     22          1           0        6.845733   -4.019970   -2.605304
     23          1           0        6.850346   -4.661124   -0.968525
     24          1           0        9.170500   -3.717477   -0.606192
     25          1           0        9.159497   -3.060253   -2.245837
 ---------------------------------------------------------------------
                    Distance matrix (angstroms):
                    1          2          3          4          5
     1  C    0.000000
     2  N    1.444565   0.000000
     3  C    2.482382   1.368654   0.000000
     4  N    2.945085   2.371771   1.285490   0.000000
     5  C    3.813190   2.430760   1.524801   2.426418   0.000000
     6  N    4.934652   3.684423   2.455129   2.685565   1.452980
     7  C    6.204272   4.854045   3.771966   4.132396   2.427599
     8  C    7.385802   6.127397   4.903913   4.924160   3.774731
     9  C    8.716794   7.386493   6.254969   6.407252   4.963802
    10  C    9.884211   8.616676   7.402302   7.361221   6.234047
    11  N   10.829153   9.608057   8.351423   8.192425   7.264497
    12  H    1.090986   2.073480   3.355603   3.995855   4.491542
    13  H    1.097889   2.113382   2.839107   3.013719   4.234708
    14  H    1.098023   2.112415   2.824974   2.976531   4.220907
    15  H    2.107318   1.007291   2.052825   3.245099   2.529486
    16  H    2.497340   2.476084   1.907972   1.019038   3.309601
    17  H    4.067594   2.675671   2.147501   3.155719   1.096737
    18  H    4.057453   2.678854   2.132102   3.106971   1.105543
    19  H    4.981804   3.882801   2.571712   2.430788   2.020407
    20  H    6.401779   5.011540   4.091873   4.631720   2.670262
    21  H    6.432991   5.057120   4.113186   4.605388   2.718132
    22  H    7.467103   6.297648   5.016662   4.846928   4.076894
    23  H    7.437496   6.257833   4.996901   4.871511   4.041692
    24  H    8.888273   7.521774   6.482610   6.766496   5.118744
    25  H    8.902724   7.544302   6.488602   6.741559   5.136668
                    6          7          8          9         10
     6  N    0.000000
     7  C    1.452761   0.000000
     8  C    2.453591   1.531666   0.000000
     9  C    3.818178   2.537074   1.539108   0.000000
    10  C    4.951251   3.851460   2.498483   1.476697   0.000000
    11  N    5.924165   4.928797   3.490808   2.624465   1.147964
    12  H    5.751869   6.918940   8.199123   9.454251  10.689865
    13  H    5.193842   6.529877   7.602599   8.984132  10.079222
    14  H    5.205835   6.512808   7.604634   8.978171  10.084792
    15  H    3.950508   4.892690   6.298547   7.413529   8.735922
    16  H    3.702719   5.149567   5.921534   7.415939   8.335359
    17  H    2.083663   2.705297   4.103191   5.126496   6.451847
    18  H    2.141967   2.707549   4.132808   5.148414   6.484663
    19  H    1.014218   2.063581   2.661276   4.110877   5.078636
    20  H    2.076218   1.097827   2.157354   2.757012   4.130451
    21  H    2.139262   1.107062   2.161329   2.753883   4.125141
    22  H    2.718829   2.165414   1.096000   2.165062   2.731494
    23  H    2.668592   2.158026   1.094203   2.171056   2.745401
    24  H    4.125649   2.797474   2.185210   1.095181   2.087972
    25  H    4.151389   2.795993   2.187574   1.095427   2.086829
                   11         12         13         14         15
    11  N    0.000000
    12  H   11.675797   0.000000
    13  H   10.976572   1.772470   0.000000
    14  H   10.988814   1.772523   1.778103   0.000000
    15  H    9.784073   2.266204   2.842692   2.845780   0.000000
    16  H    9.132510   3.588003   2.400793   2.364222   3.469351
    17  H    7.512898   4.592895   4.384054   4.711183   2.509091
    18  H    7.550275   4.587247   4.716195   4.346789   2.533013
    19  H    5.960080   5.881954   5.271111   5.038358   4.309824
    20  H    5.233072   7.021476   6.672419   6.876994   4.905394
    21  H    5.225206   7.064382   6.924455   6.664749   4.975288
    22  H    3.537006   8.337798   7.720395   7.527281   6.574432
    23  H    3.555760   8.297999   7.495130   7.711683   6.517434
    24  H    3.141351   9.560220   9.117109   9.274430   7.453963
    25  H    3.137066   9.583543   9.294473   9.110982   7.492188
                   16         17         18         19         20
    16  H    0.000000
    17  H    3.946206   0.000000
    18  H    3.903954   1.778657   0.000000
    19  H    3.414187   2.917019   2.484178   0.000000
    20  H    5.618866   2.480411   3.035853   2.945125   0.000000
    21  H    5.596956   3.103796   2.527681   2.504958   1.775165
    22  H    5.801005   4.648488   4.338181   2.498492   3.066501
    23  H    5.821875   4.256791   4.645106   2.936270   2.502055
    24  H    7.775059   5.044703   5.360275   4.642332   2.566416
    25  H    7.752116   5.370325   5.083862   4.371612   3.113659
                   21         22         23         24         25
    21  H    0.000000
    22  H    2.511417   0.000000
    23  H    3.066763   1.757881   0.000000
    24  H    3.114945   3.080989   2.530785   0.000000
    25  H    2.557286   2.530569   3.086502   1.766493   0.000000
 Stoichiometry    C7H14N4
 Framework group  C1[X(C7H14N4)]
 Deg. of freedom    69
 Full point group                 C1      NOp   1
 Largest Abelian subgroup         C1      NOp   1
 Largest concise Abelian subgroup C1      NOp   1
                         Standard orientation:                         
 ---------------------------------------------------------------------
 Center     Atomic      Atomic             Coordinates (Angstroms)
 Number     Number       Type             X           Y           Z
 ---------------------------------------------------------------------
      1          6           0       -5.073292    0.137462   -0.039725
      2          7           0       -3.778705   -0.503464   -0.034519
      3          6           0       -2.591458    0.176844   -0.005511
      4          7           0       -2.439297    1.452508    0.039351
      5          6           0       -1.357921   -0.719388    0.007680
      6          7           0       -0.139125    0.069356   -0.052075
      7          6           0        1.069305   -0.730682    0.048675
      8          6           0        2.312425    0.161909   -0.014054
      9          6           0        3.605608   -0.671609    0.028116
     10          6           0        4.810817    0.180009   -0.025303
     11          7           0        5.731382    0.864820   -0.062912
     12          1           0       -5.848264   -0.630414   -0.045708
     13          1           0       -5.210677    0.768813   -0.927353
     14          1           0       -5.218914    0.763203    0.850722
     15          1           0       -3.759950   -1.510539   -0.043699
     16          1           0       -3.338104    1.932423    0.023062
     17          1           0       -1.392137   -1.384017   -0.864058
     18          1           0       -1.420524   -1.349331    0.914034
     19          1           0       -0.184246    0.790326    0.659827
     20          1           0        1.086857   -1.432292   -0.795517
     21          1           0        1.106326   -1.333065    0.976766
     22          1           0        2.307604    0.867179    0.824866
     23          1           0        2.284448    0.760440   -0.929618
     24          1           0        3.652319   -1.365883   -0.817593
     25          1           0        3.662565   -1.266637    0.946080
 ---------------------------------------------------------------------
 Rotational constants (GHZ):           5.4880234           0.2756864           0.2648551
 Standard basis: 6-31G(2df,p) (6D, 7F)
 There are   411 symmetry adapted cartesian basis functions of A   symmetry.
 There are   378 symmetry adapted basis functions of A   symmetry.
   378 basis functions,   582 primitive gaussians,   411 cartesian basis functions
    42 alpha electrons       42 beta electrons
       nuclear repulsion energy       562.2841177685 Hartrees.
 NAtoms=   25 NActive=   25 NUniq=   25 SFac= 1.00D+00 NAtFMM=   60 NAOKFM=F Big=F
 Integral buffers will be    131072 words long.
 Raffenetti 2 integral format.
 Two-electron integral symmetry is turned on.
 One-electron integrals computed using PRISM.
 PrsmSu:  requested number of processors reduced to:  13 ShMem   1 Linda.
 NBasis=   378 RedAO= T EigKep=  1.56D-04  NBF=   378
 NBsUse=   378 1.00D-06 EigRej= -1.00D+00 NBFU=   378
 Initial guess from the checkpoint file:  "CNCpdNpCNCCCCtN.chk"
 B after Tr=    -0.000000    0.000000    0.000000
         Rot=    0.999993    0.003484   -0.000027   -0.001068 Ang=   0.42 deg.
 ExpMin= 1.61D-01 ExpMax= 4.17D+03 ExpMxC= 6.27D+02 IAcc=2 IRadAn=         4 AccDes= 0.00D+00
 Harris functional with IExCor=  402 and IRadAn=       4 diagonalized for initial guess.
 HarFok:  IExCor=  402 AccDes= 0.00D+00 IRadAn=         4 IDoV= 1 UseB2=F ITyADJ=14
 ICtDFT=  3500011 ScaDFX=  1.000000  1.000000  1.000000  1.000000
 FoFCou: FMM=F IPFlag=           0 FMFlag=      100000 FMFlg1=           0
         NFxFlg=           0 DoJE=T BraDBF=F KetDBF=T FulRan=T
         wScrn=  0.000000 ICntrl=       500 IOpCl=  0 I1Cent=   200000004 NGrid=           0
         NMat0=    1 NMatS0=      1 NMatT0=    0 NMatD0=    1 NMtDS0=    0 NMtDT0=    0
 Petite list used in FoFCou.
 Requested convergence on RMS density matrix=1.00D-08 within 128 cycles.
 Requested convergence on MAX density matrix=1.00D-06.
 Requested convergence on             energy=1.00D-06.
 No special actions if energy rises.
 Integral accuracy reduced to 1.0D-05 until final iterations.
 Initial convergence to 1.0D-05 achieved.  Increase integral accuracy.
 SCF Done:  E(RB3LYP) =  -494.182940437     A.U. after   12 cycles
            NFock= 12  Conv=0.76D-08     -V/T= 2.0079
 PrsmSu:  requested number of processors reduced to:  13 ShMem   1 Linda.
 Calling FoFJK, ICntrl=      2127 FMM=F ISym2X=0 I1Cent= 0 IOpClX= 0 NMat=1 NMatS=1 NMatT=0.
 ***** Axes restored to original set *****
 -------------------------------------------------------------------
 Center     Atomic                   Forces (Hartrees/Bohr)
 Number     Number              X              Y              Z
 -------------------------------------------------------------------
      1        6           0.000254947   -0.001272120   -0.000913909
      2        7           0.002638631    0.004315709    0.003194608
      3        6          -0.003193432   -0.008040391   -0.004719112
      4        7           0.002900501    0.006478183    0.003508266
      5        6          -0.004441664   -0.007418524   -0.004256959
      6        7           0.002064576    0.004529436    0.004799659
      7        6          -0.003703124   -0.002866406   -0.004537730
      8        6          -0.000245105    0.001738149    0.001757278
      9        6           0.003701676   -0.010898606   -0.004840203
     10        6          -0.009489369    0.022574932    0.008951711
     11        7           0.006716658   -0.016074018   -0.006465955
     12        1          -0.000112660    0.000223016    0.000138712
     13        1          -0.000327095   -0.000035796   -0.000128104
     14        1          -0.000332174   -0.000093299    0.000015264
     15        1          -0.000129273   -0.002108796   -0.000457927
     16        1          -0.001064209   -0.000066967   -0.001359461
     17        1           0.000995330    0.001811054    0.000617433
     18        1           0.002108862    0.003068135    0.001498048
     19        1          -0.000556582   -0.002103051    0.000959793
     20        1           0.000523439    0.001417146    0.000181469
     21        1           0.002262145    0.001604934    0.000847124
     22        1           0.000307177    0.000077447   -0.000080492
     23        1           0.000029089    0.000392274    0.000017369
     24        1          -0.000451289    0.001438582    0.000415378
     25        1          -0.000457055    0.001308976    0.000857742
 -------------------------------------------------------------------
 Cartesian Forces:  Max     0.022574932 RMS     0.004646153

 GradGradGradGradGradGradGradGradGradGradGradGradGradGradGradGradGradGrad
 Berny optimization.
 Using GEDIIS/GDIIS optimizer.
 FormGI is forming the generalized inverse of G from B-inverse, IUseBI=4.
 Internal  Forces:  Max     0.018574119 RMS     0.002255464
 Search for a local minimum.
 Step number   2 out of a maximum of  124
 All quantities printed in internal units (Hartrees-Bohrs-Radians)
 Mixed Optimization -- RFO/linear search
 Update second derivatives using D2CorX and points    1    2
 DE= -2.67D-02 DEPred=-2.71D-02 R= 9.88D-01
 TightC=F SS=  1.41D+00  RLast= 3.07D-01 DXNew= 5.0454D-01 9.2132D-01
 Trust test= 9.88D-01 RLast= 3.07D-01 DXMaxT set to 5.05D-01
 ITU=  1  0
 Use linear search instead of GDIIS.
     Eigenvalues ---    0.00230   0.00429   0.00482   0.00843   0.01085
     Eigenvalues ---    0.01142   0.01432   0.01519   0.02071   0.02704
     Eigenvalues ---    0.03041   0.03531   0.03538   0.03719   0.04463
     Eigenvalues ---    0.04929   0.05032   0.05493   0.05653   0.05858
     Eigenvalues ---    0.06425   0.07333   0.07658   0.08180   0.09153
     Eigenvalues ---    0.09676   0.11387   0.12076   0.12692   0.13083
     Eigenvalues ---    0.15972   0.16000   0.16000   0.16000   0.16000
     Eigenvalues ---    0.16000   0.16074   0.21833   0.21936   0.21937
     Eigenvalues ---    0.21996   0.22251   0.23226   0.24799   0.25108
     Eigenvalues ---    0.27891   0.29849   0.29880   0.30267   0.33836
     Eigenvalues ---    0.33877   0.34057   0.34096   0.34140   0.34147
     Eigenvalues ---    0.34154   0.34187   0.34264   0.34299   0.34428
     Eigenvalues ---    0.36374   0.38803   0.39368   0.43938   0.44899
     Eigenvalues ---    0.45061   0.50725   0.67251   0.92863
 RFO step:  Lambda=-3.74982213D-03 EMin= 2.30027971D-03
 Quartic linear search produced a step of -0.02271.
 Iteration  1 RMS(Cart)=  0.12744327 RMS(Int)=  0.00664538
 Iteration  2 RMS(Cart)=  0.01009205 RMS(Int)=  0.00005665
 Iteration  3 RMS(Cart)=  0.00005493 RMS(Int)=  0.00005326
 Iteration  4 RMS(Cart)=  0.00000000 RMS(Int)=  0.00005326
 Variable       Old X    -DE/DX   Delta X   Delta X   Delta X     New X
                                 (Linear)    (Quad)   (Total)
    R1        2.72983   0.00033  -0.00013   0.00112   0.00099   2.73082
    R2        2.06167   0.00028   0.00010   0.00053   0.00063   2.06230
    R3        2.07471   0.00010  -0.00015   0.00063   0.00048   2.07519
    R4        2.07496   0.00012  -0.00014   0.00069   0.00055   2.07551
    R5        2.58638   0.00065   0.00012   0.00099   0.00111   2.58749
    R6        1.90350  -0.00179   0.00034  -0.00462  -0.00428   1.89922
    R7        2.42922  -0.00679   0.00054  -0.01083  -0.01029   2.41893
    R8        2.88146  -0.00060   0.00097  -0.00458  -0.00360   2.87785
    R9        1.92570   0.00100  -0.00011   0.00241   0.00230   1.92800
   R10        2.74573  -0.00337   0.00048  -0.01007  -0.00959   2.73615
   R11        2.07253   0.00113  -0.00005   0.00331   0.00325   2.07579
   R12        2.08917   0.00226  -0.00040   0.00738   0.00697   2.09614
   R13        2.74532  -0.00066  -0.00029  -0.00094  -0.00123   2.74409
   R14        1.91659  -0.00016   0.00036  -0.00116  -0.00081   1.91579
   R15        2.89443  -0.00066  -0.00027  -0.00145  -0.00172   2.89271
   R16        2.07459   0.00057  -0.00007   0.00176   0.00169   2.07628
   R17        2.09204   0.00149  -0.00049   0.00539   0.00490   2.09694
   R18        2.90849   0.00006  -0.00076   0.00209   0.00133   2.90982
   R19        2.07114  -0.00004   0.00010  -0.00036  -0.00027   2.07087
   R20        2.06774  -0.00029   0.00019  -0.00130  -0.00111   2.06664
   R21        2.79055  -0.00749   0.00186  -0.02840  -0.02654   2.76401
   R22        2.06959   0.00040   0.00003   0.00107   0.00110   2.07069
   R23        2.07006   0.00030   0.00002   0.00079   0.00081   2.07086
   R24        2.16934   0.01857   0.00485   0.01271   0.01756   2.18690
    A1        1.90110  -0.00001   0.00075  -0.00251  -0.00176   1.89935
    A2        1.95002   0.00033  -0.00057   0.00379   0.00321   1.95323
    A3        1.94849   0.00032  -0.00046   0.00342   0.00296   1.95145
    A4        1.88749  -0.00014   0.00001  -0.00089  -0.00089   1.88660
    A5        1.88740  -0.00012  -0.00002  -0.00062  -0.00065   1.88676
    A6        1.88739  -0.00041   0.00032  -0.00343  -0.00310   1.88429
    A7        2.16148  -0.00185   0.00050  -0.00945  -0.00895   2.15254
    A8        2.04906   0.00197  -0.00047   0.01163   0.01116   2.06022
    A9        2.07259  -0.00012  -0.00003  -0.00215  -0.00219   2.07040
   A10        2.21016   0.00103  -0.00146   0.00765   0.00611   2.21627
   A11        1.99301  -0.00391   0.00154  -0.01929  -0.01783   1.97518
   A12        2.07970   0.00287  -0.00008   0.01105   0.01088   2.09058
   A13        1.94163   0.00151  -0.00042   0.01032   0.00990   1.95153
   A14        1.93818   0.00284  -0.00040   0.01962   0.01904   1.95721
   A15        1.90083   0.00050  -0.00027   0.00729   0.00703   1.90786
   A16        1.87150  -0.00136   0.00030  -0.00336  -0.00332   1.86819
   A17        1.89911  -0.00147   0.00059  -0.01093  -0.01038   1.88873
   A18        1.97201   0.00087  -0.00073   0.01556   0.01470   1.98670
   A19        1.88028  -0.00148   0.00052  -0.02950  -0.02894   1.85134
   A20        1.97790   0.00085  -0.00026   0.00539   0.00511   1.98301
   A21        1.89621   0.00090  -0.00023   0.01164   0.01143   1.90765
   A22        1.96038  -0.00128   0.00044  -0.00896  -0.00856   1.95181
   A23        1.92981  -0.00089  -0.00033   0.00082   0.00043   1.93024
   A24        1.88801  -0.00009   0.00044  -0.00540  -0.00494   1.88307
   A25        1.96666   0.00128  -0.00070   0.01797   0.01723   1.98389
   A26        1.90495   0.00066  -0.00007   0.00082   0.00074   1.90569
   A27        1.90106   0.00027   0.00031   0.00397   0.00418   1.90524
   A28        1.87169  -0.00125   0.00038  -0.01924  -0.01882   1.85287
   A29        1.94465   0.00111  -0.00065   0.00685   0.00619   1.95085
   A30        1.91780  -0.00022   0.00020  -0.00211  -0.00190   1.91590
   A31        1.90952  -0.00048   0.00040  -0.00271  -0.00232   1.90721
   A32        1.90839  -0.00062   0.00022  -0.00519  -0.00497   1.90342
[...]
 71,0.00001179,0.00066866,0.00056172,-0.00002428,-0.00013696,0.00022774
 ,-0.00027102,0.00671673,0.07120540,-0.00047481,0.00007717,0.00087654,0
 .00118820,0.00033161,0.00117203,0.00166324,-0.00250433,-0.00656976,-0.
 00124700,0.00114493,0.00105353,-0.04872597,-0.04485909,-0.26790429,0.0
 0126807,-0.01151725,-0.00157046,-0.00173624,-0.00044452,0.00000328,0.0
 0037074,0.00009398,0.00028917,0.00001575,-0.00009912,-0.00006520,0.000
 04002,0.00006445,0.00000728,0.00002110,-0.00005982,-0.00000491,-0.0000
 6549,0.00003594,-0.00000417,0.00003863,0.00004132,-0.00005415,0.000332
 89,-0.00004565,0.00005338,-0.00108395,0.00098549,0.00067423,-0.0000423
 9,-0.00033960,0.00014112,0.04986011,0.05729509,0.29369868,-0.00019936,
 0.00085321,-0.00063422,-0.00020793,0.00119931,-0.00123978,-0.01525465,
 -0.02418628,0.01891052,-0.00104389,0.00002496,0.00045411,-0.08470655,-
 0.06532741,0.05334521,0.00464073,0.01312229,-0.00472075,0.00297493,0.0
 0279116,-0.00338717,0.00002349,0.00013797,-0.00017946,-0.00003708,-0.0
 0005743,0.00005936,0.00001545,-0.00001594,0.00000869,0.00000441,-0.000
 00215,-0.00000688,-0.00011564,0.00009158,-0.00001693,0.00015850,-0.000
 03128,-0.00002119,-0.00022427,0.00004428,0.00013968,-0.00052424,-0.000
 57364,0.00050300,0.00017893,0.00167375,-0.00204993,0.00365606,0.003692
 17,-0.00454664,0.09033956,-0.00038714,0.00017747,0.00013838,0.00041779
 ,-0.00007913,-0.00001637,-0.00285901,-0.00045940,0.00014272,0.00017495
 ,0.00099932,-0.00010654,-0.06286279,-0.15459822,0.08936953,-0.00109801
 ,-0.03963344,0.01189361,-0.00637772,0.00163526,0.00044207,0.00005258,0
 .00043100,-0.00027127,0.00009561,-0.00007410,-0.00016470,0.00000994,0.
 00011203,0.00001631,0.00003538,-0.00008558,-0.00002813,-0.00001197,-0.
 00000545,0.00000612,0.00014567,-0.00000020,-0.00003478,0.00006788,-0.0
 0006067,0.00001426,0.00000858,-0.00002174,0.00001624,-0.00021891,0.000
 06181,-0.00004654,0.00109344,0.00481940,-0.00134352,0.06808207,0.18650
 692,-0.00001469,-0.00003171,0.00011565,0.00077489,-0.00093427,0.000643
 10,-0.00360389,-0.00475704,0.00293258,-0.00070740,-0.00028056,-0.00004
 237,0.05296579,0.08925482,-0.12439813,-0.00382916,-0.00457587,0.009283
 51,-0.00107324,-0.00178287,0.00308003,-0.00026543,-0.00029325,0.000075
 15,-0.00001632,0.00009857,0.00000051,-0.00002656,-0.00000766,-0.000010
 58,-0.00000745,0.00001546,0.00001199,0.00002530,0.00001991,-0.00002315
 ,0.00000624,-0.00001064,-0.00004561,0.00013046,-0.00002031,0.00001129,
 0.00000409,0.00080679,-0.00030308,0.00025948,0.00042156,-0.00057663,0.
 01401496,0.02130342,-0.02088522,-0.05696343,-0.10022373,0.13072086,-0.
 00058450,0.00013511,-0.00018749,0.00023944,-0.00344813,-0.00315816,0.0
 0052638,0.00668507,0.00550057,-0.00193862,0.00024298,0.00106468,0.0108
 7798,0.00318068,0.01083496,-0.15818919,-0.07168865,-0.14069834,-0.0243
 8028,-0.01288899,-0.02622877,0.00088257,-0.00058984,-0.00128650,0.0001
 8431,-0.00018390,0.00040506,0.00007872,0.00025376,0.00014428,0.0000387
 0,-0.00016237,-0.00005408,-0.00005998,-0.00006771,-0.00009267,0.000068
 51,0.00004319,0.00011235,-0.00005402,0.00017446,0.00007723,0.00107318,
 -0.00016274,-0.00036529,0.00108322,-0.00208474,-0.00121311,-0.00201291
 ,0.00451471,0.00238712,-0.00049327,0.00092997,-0.00045498,0.17544660,0
 .00020391,0.00011168,0.00013297,-0.00063480,0.00067728,0.00003200,0.00
 013651,-0.00112050,-0.00295730,-0.00183110,-0.00158353,0.00042250,-0.0
 1409524,-0.02390005,-0.03033783,-0.05731882,-0.08544388,-0.10411522,-0
 .00461134,-0.00153726,0.00200542,0.00116960,0.00173394,0.00143537,0.00
 008141,-0.00029945,-0.00014007,0.00009417,-0.00003270,-0.00003210,-0.0
 0003726,-0.00005540,-0.00000303,-0.00003178,0.00004523,0.00005909,-0.0
 0002210,-0.00005523,-0.00004798,0.00001269,-0.00003497,0.00003847,-0.0
 0007366,0.00011848,0.00010875,-0.00076686,0.00084664,0.00089586,0.0014
 7900,-0.00326211,0.00065802,0.00007885,-0.00103070,-0.00047871,0.07380
 694,0.11419419,-0.00018795,0.00005149,0.00012219,0.00005633,-0.0007581
 0,-0.00069619,-0.00124061,-0.00188202,-0.00044076,-0.00102418,0.002302
 79,-0.00023761,-0.00197550,-0.00077243,-0.01100709,-0.16078955,-0.1400
 2175,-0.23997732,0.01221140,0.00868325,0.00638455,-0.00007760,0.000730
 06,0.00113646,0.00003298,0.00007031,0.00003833,-0.00004044,0.00006903,
 -0.00000775,0.00003334,-0.00005129,-0.00003289,-0.00001986,0.00000823,
 0.00001916,0.00003437,0.00004292,0.00002248,0.00005635,0.00000182,-0.0
 0000377,0.00002764,0.00000007,0.00019329,0.00010484,0.00015315,-0.0006
 4741,0.00088220,-0.00398893,-0.00055191,-0.00037673,0.00169914,0.00047
 980,0.15015086,0.13341162,0.24409962,0.00009664,-0.00000858,0.00004163
 ,-0.00017087,0.00034374,0.00023521,-0.00018429,-0.00065375,-0.00047514
 ,-0.00077399,0.00045742,0.00006021,0.00150550,-0.00206449,-0.00152908,
 -0.02902772,-0.01698838,-0.02563659,-0.10523386,-0.04068931,-0.0908569
 5,0.00532830,0.00401739,0.00912734,0.00115708,0.00018824,0.00053257,0.
 00024253,-0.00008770,-0.00002528,-0.00005274,-0.00006181,-0.00001375,-
 0.00000427,0.00002100,0.00002500,-0.00002069,-0.00001118,-0.00001843,0
 .00000233,-0.00002133,-0.00000326,-0.00005380,0.00000832,0.00004160,-0
 .00015812,0.00035063,0.00016055,-0.00017304,0.00059613,0.00080259,-0.0
 0012838,0.00055245,-0.00005733,-0.00464545,0.00214255,0.00194970,0.129
 12546,0.00003506,0.00000095,0.00000896,-0.00008564,0.00000616,0.000004
 36,-0.00020303,-0.00002956,-0.00000492,0.00004592,0.00014340,0.0000862
 1,0.00029557,0.00033866,0.00096478,-0.00177665,-0.00018244,-0.00154857
 ,-0.04257570,-0.07931385,-0.06575504,-0.01495575,-0.01342642,-0.026088
 05,-0.00133350,0.00084020,0.00004381,-0.00013228,0.00007568,0.00048050
 ,0.00003762,0.00010803,-0.00001767,-0.00000787,0.00000519,0.00000300,-
 0.00001184,-0.00000433,-0.00000391,-0.00000905,-0.00000250,-0.00000432
 ,0.00003613,-0.00001071,-0.00001094,0.00003289,-0.00001356,-0.00000467
 ,-0.00047462,0.00049019,-0.00006874,0.00020435,0.00008720,0.00027786,0
 .00013179,0.00071487,-0.00012597,0.04871214,0.08726434,0.00001893,-0.0
 0000009,0.00001079,-0.00009862,0.00004334,-0.00002274,-0.00021957,0.00
 023401,-0.00001509,0.00037310,0.00011373,0.00028514,0.00016849,-0.0004
 2418,0.00132239,0.00438405,0.00382433,0.01072545,-0.09696788,-0.068591
 93,-0.20468666,-0.00309704,-0.00262649,-0.00611941,-0.00047403,0.00010
 379,-0.00010223,0.00028865,0.00016826,0.00034798,-0.00003703,0.0000101
 2,-0.00004170,-0.00001074,0.00000356,0.00000239,-0.00000708,-0.0000034
 6,0.00000059,-0.00000161,0.00000020,-0.00000341,0.00000682,-0.00002660
 ,-0.00000919,0.00008727,-0.00007651,-0.00001810,-0.00078015,0.00039496
 ,-0.00009274,0.00017974,0.00021709,-0.00062829,0.00236033,0.00046622,0
 .00071806,0.10367741,0.07582098,0.21777011,0.00012269,-0.00004051,0.00
 006706,-0.00023305,0.00010816,0.00005208,0.00048007,-0.00034483,-0.000
 42402,-0.00022611,0.00036568,-0.00032737,0.00256843,-0.00764049,-0.000
 60505,-0.02423154,-0.01887806,0.03340580,-0.05242932,-0.01756200,0.020
 05740,0.00151774,0.00619161,-0.00818068,0.00084985,0.00039554,-0.00080
 729,0.00022954,-0.00024090,-0.00006909,-0.00007210,0.00001617,0.000025
 13,-0.00001487,0.00001573,0.00001767,-0.00003157,-0.00000501,-0.000011
 44,-0.00001303,-0.00001600,-0.00002584,0.00003145,-0.00005049,-0.00001
 834,-0.00007791,0.00005411,0.00007399,0.00004578,0.00083783,0.00000164
 ,0.00111678,0.00233669,-0.00133295,0.00166595,0.00046883,0.00075476,0.
 00342550,0.00912646,-0.01187035,0.06567075,0.00007547,-0.00001678,0.00
 004030,-0.00025827,0.00009297,0.00004222,0.00050170,0.00034832,0.00000
 324,-0.00012783,-0.00007362,-0.00013499,0.00082929,0.00296246,-0.00282
 166,-0.00621077,-0.00060806,0.00232224,-0.01554456,-0.12979312,0.09897
 785,-0.00238886,-0.02098041,0.02505410,-0.00117280,0.00033605,0.000960
 62,-0.00017454,0.00039736,-0.00046878,0.00004884,0.00002433,0.00003279
 ,-0.00001400,0.00000568,0.00000935,-0.00002217,-0.00000444,-0.00000562
 ,-0.00002031,-0.00000102,-0.00001255,0.00000670,-0.00004623,-0.0000067
 8,-0.00005339,0.00005076,0.00002751,-0.00013558,-0.00000825,0.00038974
 ,-0.00170917,0.00074275,0.00130938,-0.00005647,0.00014294,0.00032301,0
 .00134231,0.00664292,-0.00811940,0.02284317,0.14332818,-0.00011030,0.0
 0003490,-0.00007657,0.00027680,-0.00018113,-0.00007752,-0.00027409,-0.
 00013030,0.00050167,0.00026147,-0.00026305,0.00013596,-0.00121135,0.00
 268167,0.00136959,0.01438234,0.00473639,-0.00405730,0.01812463,0.10112
 395,-0.18266372,-0.00040720,-0.00515439,0.00478815,-0.00030764,-0.0000
 7200,0.00024645,-0.00038994,-0.00007729,0.00033908,0.00008186,0.000000
 24,-0.00006393,0.00001581,-0.00001214,-0.00001910,0.00002442,0.0000046
 0,0.00001265,0.00001657,0.00001392,0.00002365,-0.00001542,0.00006207,-
 0.00002136,0.00011556,-0.00003197,-0.00015731,-0.00026110,-0.00024280,
 -0.00030333,0.00041332,-0.00178844,-0.00031957,-0.00027586,-0.00104819
 ,0.00083901,0.00164225,0.01659812,-0.02189912,-0.03245309,-0.11531721,
 0.19917184,0.00000054,0.00000250,-0.00000421,0.00001153,-0.00001637,-0
 .00000772,0.00003752,-0.00000041,0.00000233,-0.00003386,-0.00003795,-0
 .00001707,0.00013533,-0.00000347,0.00013125,0.00170472,0.00004173,0.00
 040137,0.00512104,0.00447369,0.00907674,-0.11519459,-0.04874920,-0.101
 27490,-0.02105871,-0.01107030,-0.02439265,0.00112199,-0.00192040,-0.00
 132568,0.00007094,0.00082624,0.00047504,0.00000047,-0.00000038,-0.0000
 0058,0.00000049,-0.00000064,0.00000071,-0.00000073,0.00000042,0.000000
 44,0.00000566,-0.00000347,-0.00000371,-0.00000115,-0.00000222,-0.00000
 679,-0.00006486,0.00000956,-0.00006945,0.00000288,-0.00003902,0.000015
 71,-0.00011468,-0.00010108,-0.00041017,-0.00046790,0.00235568,0.000903
 52,0.00016682,-0.00071534,-0.00017003,0.13028982,0.00000317,-0.0000047
 5,-0.00000408,0.00000030,0.00006587,0.00003978,-0.00006839,-0.00007385
 ,-0.00008623,0.00009475,0.00005162,0.00015182,0.00011033,-0.00001829,0
 .00027222,-0.00160424,0.00174445,0.00117389,-0.01634153,-0.01402381,-0
 .02626287,-0.04949002,-0.08316252,-0.07171760,0.00037027,-0.00042192,0
 .00052158,0.00030443,0.00067505,0.00081965,-0.00018986,0.00001968,-0.0
 0010240,0.00000152,0.00000107,0.00000162,-0.00000075,-0.00000188,-0.00
 000099,0.00000236,-0.00000182,0.00000096,-0.00001232,0.00000077,0.0000
 0298,0.00000806,-0.00000055,0.00000173,-0.00009969,0.00015378,0.000179
 31,-0.00003860,0.00007263,-0.00007338,0.00118948,0.00008033,-0.0000392
 1,0.00253705,-0.00532998,-0.00120782,-0.00042370,0.00141224,0.00052808
 ,0.05292715,0.09113270,0.00000723,-0.00001336,0.00000050,0.00001490,0.
 00008858,0.00006955,-0.00006916,-0.00019979,-0.00016161,0.00007157,0.0
 0014412,0.00008670,0.00034099,0.00014175,0.00020762,-0.00009848,0.0005
 7512,0.00049777,-0.00364452,-0.00283365,-0.00593976,-0.10367223,-0.071
 95633,-0.20256238,0.00615004,0.00357444,0.00677356,-0.00042997,0.00016
 937,0.00059787,0.00009177,0.00022844,-0.00005062,0.00000259,0.00000305
 ,0.00000253,-0.00000006,-0.00000021,-0.00000437,0.00000107,-0.00000364
 ,-0.00000119,-0.00001460,-0.00000010,0.00000880,-0.00000269,-0.0000083
 3,0.00000728,-0.00006552,0.00014099,0.00005234,-0.00003164,0.00010676,
 -0.00000104,0.00085940,-0.00076813,-0.00011077,0.00078497,-0.00127641,
 0.00134335,0.00054215,-0.00016527,0.00092460,0.11094446,0.08165811,0.2
 1619451,-0.00000140,0.00001023,-0.00000937,0.00000846,-0.00000507,-0.0
 0000940,0.00000217,0.00000811,0.00004014,-0.00002209,-0.00006111,0.000
 03291,-0.00008586,0.00029387,0.00016176,0.00100123,-0.00047844,-0.0002
 9803,0.00123146,0.00667876,-0.00885542,-0.05220636,-0.02230918,0.02693
 432,-0.00805022,-0.01875838,0.02711137,0.00154274,-0.00191692,0.000128
 44,-0.00013531,0.00070704,-0.00020051,0.00000023,-0.00000146,-0.000000
 78,-0.00000131,-0.00000149,0.00000092,-0.00000055,-0.00000018,0.000002
 71,0.00000373,0.00000497,-0.00000229,0.00000065,0.00000978,-0.00001273
 ,-0.00004216,-0.00002882,-0.00001622,-0.00012664,-0.00022477,0.0001297
 0,0.00000898,0.00020901,-0.00029522,0.00013928,-0.00058602,0.00038967,
 -0.00055232,0.00183560,0.00089865,0.00266754,0.01048717,-0.01368181,0.
 05919809,-0.00000210,-0.00001647,0.00001425,-0.00000142,-0.00000156,0.
 00000052,0.00000113,0.00010749,-0.00006418,0.00004870,0.00004556,-0.00
 003113,0.00002823,-0.00015276,-0.00041166,-0.00126976,0.00275950,-0.00
 036533,-0.00435995,-0.02196978,0.02593357,-0.02300709,-0.13967414,0.12
 289170,0.00041171,0.00025176,-0.00143928,-0.00018414,0.00079948,-0.000
 62515,-0.00008157,0.00008538,0.00017087,0.00000086,-0.00000160,0.00000
 062,0.00000218,0.00000348,0.00000085,0.00000050,0.00000028,-0.00000439
 ,0.00000143,-0.00001009,0.00001201,-0.00000059,-0.00001924,0.00002076,
 0.00003954,-0.00000883,-0.00000145,-0.00006287,0.00043143,-0.00005942,
 0.00007869,-0.00018494,0.00008993,-0.00063935,0.00137393,-0.00006296,0
 .00243174,-0.00518902,-0.00183305,0.00192873,0.00710676,-0.00973279,0.
 02411630,0.15380960,0.00000758,0.00000751,0.00000124,-0.00002790,-0.00
 000146,-0.00000314,-0.00000418,0.00005811,0.00000226,-0.00002678,-0.00
 003696,0.00002921,-0.00021789,-0.00030267,0.00018723,-0.00070481,-0.00
 021781,0.00030710,-0.00077245,-0.00515493,0.00599705,0.02834992,0.1237
 2513,-0.21464095,0.00137719,0.00300394,-0.00543344,-0.00006579,0.00083
 769,-0.00002128,-0.00010176,-0.00054892,0.00009369,-0.00000228,0.00000
 010,0.00000050,-0.00000351,-0.00000199,0.00000023,0.,-0.00000123,0.000
 00065,0.00000416,0.00000385,-0.00000509,-0.00000592,0.00000848,0.00000
 030,0.00001508,0.00002376,-0.00002041,0.00013629,-0.00003406,-0.000106
 91,0.00011328,0.00023663,-0.00023260,-0.00022477,0.00043366,0.00104791
 ,0.00093988,-0.00167777,0.00108170,0.00348084,0.01472414,-0.01954879,-
 0.03357468,-0.13442075,0.22929107,0.00000043,-0.00000388,-0.00000109,0
 .00000582,0.00003398,0.00002895,-0.00002800,-0.00007199,-0.00005171,0.
 00004654,0.00004524,0.00005006,0.00008016,0.00008768,0.00007342,0.0003
 3701,0.00010033,0.00034242,0.00095525,-0.00128386,-0.00154591,-0.02006
 804,-0.01143885,-0.02475311,-0.11637180,-0.04889978,-0.10520524,0.0073
 5526,0.00342061,0.01145055,-0.00160647,0.00203930,-0.00137716,0.000000
 97,0.00000123,0.00000056,0.00000002,-0.00000009,-0.00000151,0.00000061
 ,-0.00000120,0.00000016,-0.00000745,0.00000030,0.00000100,0.00000270,-
 0.00000788,-0.00000448,-0.00003084,0.00004550,0.00002550,-0.00000275,0
 .00001375,0.00000016,0.00034884,-0.00020160,0.00002989,0.00007826,0.00
 093124,0.00086118,0.00002414,0.00013688,0.00014384,-0.00590346,0.00040
 216,0.00250054,0.00160211,-0.00014349,0.00020832,0.13120227,0.00000412
 ,0.00000134,0.00000043,-0.00000987,-0.00000019,0.00000384,0.00001990,-
 0.00000130,0.00000221,-0.00001757,-0.00000579,-0.00001050,-0.00000147,
 0.00001430,0.00000864,0.00011243,-0.00011804,0.00004183,0.00064662,0.0
 0071980,0.00083719,-0.00156267,-0.00008235,-0.00012562,-0.04980221,-0.
 07961345,-0.07107510,-0.01565303,-0.01976330,-0.02800375,0.00299343,0.
 00028238,0.00284892,-0.00000046,0.00000076,0.00000009,-0.00000179,-0.0
 0000084,-0.00000057,-0.00000073,-0.00000042,0.00000006,0.00000173,0.00
 000216,-0.00000336,-0.00000281,0.00000407,-0.00000012,0.00000161,0.000
 00005,-0.00001193,0.00000511,-0.00001076,0.00001126,-0.00000103,-0.000
 09300,-0.00003791,-0.00004771,0.00028011,-0.00024476,0.00000476,-0.000
 03157,0.00004459,0.00020028,0.00061821,0.00008940,-0.00013400,-0.00015
 654,-0.00025731,0.05290687,0.08990698,0.00000007,-0.00000197,0.0000024
 2,-0.00000959,0.00001150,0.00000029,0.00000455,0.00001275,0.00000310,0
 .00000774,0.00000315,0.00000468,-0.00006661,-0.00002919,-0.00002952,0.
 00006577,0.00029122,0.00019636,0.00011158,0.00033030,0.00048230,0.0046
 5058,0.00335057,0.00695938,-0.10576827,-0.07066526,-0.19613987,-0.0003
 0467,-0.00662828,-0.00659972,-0.00064115,0.00154868,0.00131766,-0.0000
 0063,0.00000002,0.00000056,0.00000023,0.00000058,-0.00000009,-0.000000
 04,-0.00000035,-0.00000090,-0.00000201,-0.00000425,0.00000182,-0.00000
 095,-0.00000423,-0.00000108,0.00000163,-0.00001222,0.00000370,0.000000
 41,0.00000850,-0.00000969,0.00002594,-0.00006125,-0.00009550,-0.000312
 49,0.00016538,0.00010831,-0.00010318,-0.00004909,-0.00009750,0.0022244
 1,-0.00018901,0.00074273,-0.00042191,0.00018752,0.00079354,0.11373553,
 0.08100669,0.21196024,-0.00000806,-0.00000449,0.00000089,0.00002274,-0
 .00001422,-0.00000656,-0.00001257,-0.00000162,0.00001017,0.00001716,0.
 00001489,-0.00003358,0.00005472,0.00014617,-0.00008995,0.00023697,0.00
 035729,-0.00059743,0.00114375,-0.00174347,0.00069577,-0.00683447,-0.01
 964926,0.02727814,-0.04884709,-0.02221222,0.02917081,0.00008772,0.0080
 5316,-0.01079492,0.00001360,0.00053760,0.00210279,0.00000153,-0.000000
 96,-0.00000096,0.00000328,0.00000219,0.00000058,0.00000019,0.00000139,
 -0.00000054,-0.00000071,-0.00000166,0.00000424,0.00000297,-0.00000577,
 0.00000481,0.00000979,-0.00001805,-0.00000743,-0.00004705,0.00006258,0
 .00002604,-0.00005046,-0.00015785,0.00011315,-0.00000577,0.00020710,-0
 .00013505,-0.00003367,0.00098412,-0.00052150,0.00150266,-0.00016909,-0
 .00060098,-0.00618246,0.00066261,0.00110018,0.00197845,0.01033849,-0.0
 1319696,0.05694677,0.00000353,0.00000010,0.00000283,-0.00001123,-0.000
 00504,-0.00000516,0.00002050,0.00000872,0.00001733,-0.00001607,-0.0000
 0517,-0.00002195,-0.00001933,0.00003298,-0.00005663,0.00000892,-0.0002
 0750,-0.00000788,0.00058469,0.00095853,-0.00103851,-0.00162888,0.00007
 461,0.00068795,-0.02286153,-0.13605948,0.12096527,-0.00156620,-0.02840
 665,0.02463199,0.00096748,0.00183758,-0.00348216,-0.00000093,0.0000004
 2,0.00000017,-0.00000109,-0.00000034,0.,-0.00000070,0.00000019,-0.0000
 0078,0.00000181,-0.00000042,-0.00000161,-0.00000166,0.00000344,0.00000
 279,0.00000168,-0.00001024,-0.00000203,0.00000370,-0.00001785,0.000010
 37,-0.00003227,-0.00003185,0.00004081,0.00000424,-0.00005845,-0.000016
 37,0.00000550,0.00026556,0.00032343,-0.00010574,-0.00009579,0.00003786
 ,0.00014499,0.00061033,-0.00040716,0.00188754,0.00804739,-0.00927175,0
 .02261103,0.15305893,0.00000638,0.00000343,-0.00000137,-0.00000864,-0.
 00001113,-0.00000127,0.00002836,0.00000530,0.00001027,-0.00002289,-0.0
 0002292,-0.00001062,0.00005587,-0.00007106,-0.00002593,-0.00024238,-0.
 00040601,0.00036227,-0.00046758,0.00079402,-0.00032052,0.00194940,0.00
 410122,-0.00615122,0.02953247,0.12009950,-0.20729681,-0.00331987,-0.00
 382895,0.00923009,0.00158862,-0.00186852,-0.00181405,-0.00000050,0.000
 00034,-0.00000033,-0.00000216,-0.00000126,0.00000002,-0.00000066,0.000
 00024,0.00000041,0.00000315,0.00000396,-0.00000616,-0.00000341,0.00000
 813,0.00000017,-0.00000326,0.00000747,0.00000126,0.00002442,-0.0000126
 4,-0.00000420,-0.00002080,0.00008689,-0.00001138,0.00007202,0.00002159
 ,-0.00004379,0.00029110,-0.00071325,0.00032198,0.00002612,-0.00039229,
 0.00087083,0.00154779,-0.00027102,0.00117892,0.00348815,0.01487578,-0.
 01960322,-0.03452172,-0.13240881,0.22331464\\0.00000614,-0.00000433,-0
 .00000969,0.00002868,-0.00001508,0.00002061,-0.00002365,0.00001454,-0.
 00000179,0.00000831,0.00000652,0.00000608,-0.00001170,0.00001612,0.000
 00543,-0.00000182,-0.00000499,-0.00000019,-0.00001282,0.00000134,-0.00
 000324,0.00000338,-0.00000388,-0.00000094,0.00000267,-0.00000865,-0.00
 000474,-0.00001206,0.00002497,0.00001143,0.00000845,-0.00002076,-0.000
 00736,0.00000223,0.00000222,-0.00000332,-0.00000132,0.00000139,0.00000
 459,0.00000339,-0.00000479,-0.00000076,-0.00000878,-0.00000541,-0.0000
 1524,-0.00000070,-0.00000014,0.00000022,0.00000260,-0.00000159,-0.0000
 0101,0.00000126,-0.00000194,-0.00000079,0.00000343,-0.00000243,0.00000
 038,-0.00000051,0.00000128,0.00000042,0.00000383,0.00000167,-0.0000004
 9,-0.00000021,0.00000088,-0.00000005,0.00000036,0.00000065,0.00000019,
 -0.00000033,0.00000037,-0.00000044,-0.00000081,0.00000203,0.00000071\\
 \@


 ONE THORN OF EXPERIENCE IS WORTH A WHOLE WILDERNESS OF
 WARNING....  LOWELL - AMONG MY BOOKS
 Job cpu time:       0 days  2 hours 43 minutes  1.4 seconds.
 Elapsed time:       0 days  0 hours 40 minutes 48.2 seconds.
 File lengths (MBytes):  RWF=    265 Int=      0 D2E=      0 Chk=     13 Scr=      1
 Normal termination of Gaussian 16 at Tue Jun  1 15:53:18 2021.
### All Done ###
