### Starting Gaussian ###
 Entering Gaussian System, Link 0=g16
 Initial command:
 /cluster/software/gaussian/gaussian-16-A.03/avx2/g16/l1.exe "/local/scratch/cz9n3/Gau-29648.inp" -scrdir="/local/scratch/cz9n3/"
 Entering Link 1 = /cluster/software/gaussian/gaussian-16-A.03/avx2/g16/l1.exe PID=     29649.
  
 Copyright (c) 1988,1990,1992,1993,1995,1998,2003,2009,2016,
            Gaussian, Inc.  All Rights Reserved.
  
 This is part of the Gaussian(R) 16 program.  It is based on
 the Gaussian(R) 09 system (copyright 2009, Gaussian, Inc.),
 the Gaussian(R) 03 system (copyright 2003, Gaussian, Inc.),
 the Gaussian(R) 98 system (copyright 1998, Gaussian, Inc.),
 the Gaussian(R) 94 system (copyright 1995, Gaussian, Inc.),
 the Gaussian 92(TM) system (copyright 1992, Gaussian, Inc.),
 the Gaussian 90(TM) system (copyright 1990, Gaussian, Inc.),
 the Gaussian 88(TM) system (copyright 1988, Gaussian, Inc.),
 the Gaussian 86(TM) system (copyright 1986, Carnegie Mellon
 University), and the Gaussian 82(TM) system (copyright 1983,
 Carnegie Mellon University). Gaussian is a federally registered
 trademark of Gaussian, Inc.
  
 This software contains proprietary and confidential information,
 including trade secrets, belonging to Gaussian, Inc.
  
 This software is provided under written license and may be
 used, copied, transmitted, or stored only in accord with that
 written license.
  
 The following legend is applicable only to US Government
 contracts under FAR:
  
                    RESTRICTED RIGHTS LEGEND
  
 Use, reproduction and disclosure by the US Government is
 subject to restrictions as set forth in subparagraphs (a)
 and (c) of the Commercial Computer Software - Restricted
 Rights clause in FAR 52.227-19.
  
 Gaussian, Inc.
 340 Quinnipiac St., Bldg. 40, Wallingford CT 06492
  
  
 ---------------------------------------------------------------
 Warning -- This program may not be used in any manner that
 competes with the business of Gaussian, Inc. or will provide
 assistance to any competitor of Gaussian, Inc.  The licensee
 of this program is prohibited from giving any competitor of
 Gaussian, Inc. access to this program.  By using this program,
 the user acknowledges that Gaussian, Inc. is engaged in the
 business of creating and licensing software in the field of
 computational chemistry and represents and warrants to the
 licensee that it is not a competitor of Gaussian, Inc. and that
 it will not use this program in any manner prohibited above.
 ---------------------------------------------------------------
  

 Cite this work as:
 Gaussian 16, Revision A.03,
 M. J. Frisch, G. W. Trucks, H. B. Schlegel, G. E. Scuseria, 
 M. A. Robb, J. R. Cheeseman, G. Scalmani, V. Barone, 
 G. A. Petersson, H. Nakatsuji, X. Li, M. Caricato, A. V. Marenich, 
 J. Bloino, B. G. Janesko, R. Gomperts, B. Mennucci, H. P. Hratchian, 
 J. V. Ortiz, A. F. Izmaylov, J. L. Sonnenberg, D. Williams-Young, 
 F. Ding, F. Lipparini, F. Egidi, J. Goings, B. Peng, A. Petrone, 
 T. Henderson, D. Ranasinghe, V. G. Zakrzewski, J. Gao, N. Rega, 
 G. Zheng, W. Liang, M. Hada, M. Ehara, K. Toyota, R. Fukuda, 
 J. Hasegawa, M. Ishida, T. Nakajima, Y. Honda, O. Kitao, H. Nakai, 
 T. Vreven, K. Throssell, J. A. Montgomery, Jr., J. E. Peralta, 
 F. Ogliaro, M. J. Bearpark, J. J. Heyd, E. N. Brothers, K. N. Kudin, 
 V. N. Staroverov, T. A. Keith, R. Kobayashi, J. Normand, 
 K. Raghavachari, A. P. Rendell, J. C. Burant, S. S. Iyengar, 
 J. Tomasi, M. Cossi, J. M. Millam, M. Klene, C. Adamo, R. Cammi, 
 J. W. Ochterski, R. L. Martin, K. Morokuma, O. Farkas, 
 J. B. Foresman, and D. J. Fox, Gaussian, Inc., Wallingford CT, 2016.
 
 ******************************************
 Gaussian 16:  ES64L-G16RevA.03 25-Dec-2016
                 1-Jun-2021 
 ******************************************
 %chk=CNdCCCpCpN.chk
 %NProcShared=20
 Will use up to   20 processors via shared memory.
 -----------------------------
 # opt freq b3lyp/6-31g(2df,p)
 -----------------------------
 1/18=20,19=15,26=3,38=1/1,3;
 2/9=110,12=2,17=6,18=5,40=1/2;
 3/5=1,6=6,7=104,11=2,25=1,30=1,71=1,74=-5/1,2,3;
 4//1;
 5/5=2,38=5/2;
 6/7=2,8=2,9=2,10=2,28=1/1;
 7//1,2,3,16;
 1/18=20,19=15,26=3/3(2);
 2/9=110/2;
 99//99;
 2/9=110/2;
 3/5=1,6=6,7=104,11=2,25=1,30=1,71=1,74=-5/1,2,3;
 4/5=5,16=3,69=1/1;
 5/5=2,38=5/2;
 7//1,2,3,16;
 1/18=20,19=15,26=3/3(-5);
 2/9=110/2;
 6/7=2,8=2,9=2,10=2,19=2,28=1/1;
 99/9=1/99;
 -------------------
 Title Card Required
 -------------------
 Symbolic Z-matrix:
 Charge =  0 Multiplicity = 1
 C                     1.10417   0.05024   0.05592 
 N                     2.56088   0.05685   0.15271 
 C                     3.15769   0.12918  -0.98875 
 C                     4.66597   0.16608  -1.05186 
 C                     5.18784   0.34252  -2.482 
 C                     4.72537   1.66387  -3.0966 
 N                     6.6546    0.30081  -2.48237 
 H                     0.68537  -0.06054   1.06094 
 H                     0.73799  -0.78569  -0.55014 
 H                     0.72975   0.99322  -0.35701 
 H                     2.59642   0.16684  -1.93815 
 H                     5.03577  -0.77475  -0.6253 
 H                     5.01579   0.98031  -0.40543 
 H                     4.82588  -0.48539  -3.10342 
 H                     5.0696    2.51885  -2.50472 
 H                     3.63389   1.7167   -3.1527 
 H                     5.1034    1.77724  -4.11806 
 H                     7.02561   1.07827  -1.93453 
 H                     7.00742   0.43756  -3.42979 
 

 GradGradGradGradGradGradGradGradGradGradGradGradGradGradGradGradGradGrad
 Berny optimization.
 Initialization pass.
                           ----------------------------
                           !    Initial Parameters    !
                           ! (Angstroms and Degrees)  !
 --------------------------                            --------------------------
 ! Name  Definition              Value          Derivative Info.                !
 --------------------------------------------------------------------------------
 ! R1    R(1,2)                  1.4599         estimate D2E/DX2                !
 ! R2    R(1,8)                  1.0944         estimate D2E/DX2                !
 ! R3    R(1,9)                  1.0955         estimate D2E/DX2                !
 ! R4    R(1,10)                 1.0954         estimate D2E/DX2                !
 ! R5    R(2,3)                  1.2901         estimate D2E/DX2                !
 ! R6    R(3,4)                  1.5101         estimate D2E/DX2                !
 ! R7    R(3,11)                 1.1035         estimate D2E/DX2                !
 ! R8    R(4,5)                  1.5326         estimate D2E/DX2                !
 ! R9    R(4,12)                 1.0972         estimate D2E/DX2                !
 ! R10   R(4,13)                 1.0969         estimate D2E/DX2                !
 ! R11   R(5,6)                  1.5289         estimate D2E/DX2                !
 ! R12   R(5,7)                  1.4674         estimate D2E/DX2                !
 ! R13   R(5,14)                 1.0966         estimate D2E/DX2                !
 ! R14   R(6,15)                 1.0954         estimate D2E/DX2                !
 ! R15   R(6,16)                 1.0942         estimate D2E/DX2                !
 ! R16   R(6,17)                 1.0951         estimate D2E/DX2                !
 ! R17   R(7,18)                 1.0209         estimate D2E/DX2                !
 ! R18   R(7,19)                 1.0202         estimate D2E/DX2                !
 ! A1    A(2,1,8)              108.7478         estimate D2E/DX2                !
 ! A2    A(2,1,9)              111.9405         estimate D2E/DX2                !
 ! A3    A(2,1,10)             111.2322         estimate D2E/DX2                !
 ! A4    A(8,1,9)              107.6308         estimate D2E/DX2                !
 ! A5    A(8,1,10)             107.6086         estimate D2E/DX2                !
 ! A6    A(9,1,10)             109.516          estimate D2E/DX2                !
 ! A7    A(1,2,3)              113.7772         estimate D2E/DX2                !
 ! A8    A(2,3,4)              120.0275         estimate D2E/DX2                !
 ! A9    A(2,3,11)             121.8588         estimate D2E/DX2                !
 ! A10   A(4,3,11)             118.1137         estimate D2E/DX2                !
 ! A11   A(3,4,5)              112.4535         estimate D2E/DX2                !
 ! A12   A(3,4,12)             107.424          estimate D2E/DX2                !
 ! A13   A(3,4,13)             108.1827         estimate D2E/DX2                !
 ! A14   A(5,4,12)             110.2877         estimate D2E/DX2                !
 ! A15   A(5,4,13)             110.8471         estimate D2E/DX2                !
 ! A16   A(12,4,13)            107.4519         estimate D2E/DX2                !
 ! A17   A(4,5,6)              111.8151         estimate D2E/DX2                !
 ! A18   A(4,5,7)              109.7151         estimate D2E/DX2                !
 ! A19   A(4,5,14)             109.2371         estimate D2E/DX2                !
 ! A20   A(6,5,7)              109.0762         estimate D2E/DX2                !
 ! A21   A(6,5,14)             108.9556         estimate D2E/DX2                !
 ! A22   A(7,5,14)             107.9585         estimate D2E/DX2                !
 ! A23   A(5,6,15)             111.2421         estimate D2E/DX2                !
 ! A24   A(5,6,16)             111.3503         estimate D2E/DX2                !
 ! A25   A(5,6,17)             111.1015         estimate D2E/DX2                !
 ! A26   A(15,6,16)            107.668          estimate D2E/DX2                !
 ! A27   A(15,6,17)            108.3452         estimate D2E/DX2                !
 ! A28   A(16,6,17)            106.9499         estimate D2E/DX2                !
 ! A29   A(5,7,18)             109.9676         estimate D2E/DX2                !
 ! A30   A(5,7,19)             110.0062         estimate D2E/DX2                !
 ! A31   A(18,7,19)            105.6992         estimate D2E/DX2                !
 ! D1    D(8,1,2,3)            177.3501         estimate D2E/DX2                !
 ! D2    D(9,1,2,3)             58.5635         estimate D2E/DX2                !
 ! D3    D(10,1,2,3)           -64.3169         estimate D2E/DX2                !
 ! D4    D(1,2,3,4)            179.1063         estimate D2E/DX2                !
 ! D5    D(1,2,3,11)            -0.8274         estimate D2E/DX2                !
 ! D6    D(2,3,4,5)           -176.328          estimate D2E/DX2                !
 ! D7    D(2,3,4,12)            62.1437         estimate D2E/DX2                !
 ! D8    D(2,3,4,13)           -53.5734         estimate D2E/DX2                !
 ! D9    D(11,3,4,5)             3.608          estimate D2E/DX2                !
 ! D10   D(11,3,4,12)         -117.9202         estimate D2E/DX2                !
 ! D11   D(11,3,4,13)          126.3627         estimate D2E/DX2                !
 ! D12   D(3,4,5,6)             61.7478         estimate D2E/DX2                !
 ! D13   D(3,4,5,7)           -177.0944         estimate D2E/DX2                !
 ! D14   D(3,4,5,14)           -58.9337         estimate D2E/DX2                !
 ! D15   D(12,4,5,6)          -178.371          estimate D2E/DX2                !
 ! D16   D(12,4,5,7)           -57.2133         estimate D2E/DX2                !
 ! D17   D(12,4,5,14)           60.9475         estimate D2E/DX2                !
 ! D18   D(13,4,5,6)           -59.4954         estimate D2E/DX2                !
 ! D19   D(13,4,5,7)            61.6624         estimate D2E/DX2                !
 ! D20   D(13,4,5,14)          179.8231         estimate D2E/DX2                !
 ! D21   D(4,5,6,15)            59.2827         estimate D2E/DX2                !
 ! D22   D(4,5,6,16)           -60.8209         estimate D2E/DX2                !
 ! D23   D(4,5,6,17)          -179.9227         estimate D2E/DX2                !
 ! D24   D(7,5,6,15)           -62.2444         estimate D2E/DX2                !
 ! D25   D(7,5,6,16)           177.652          estimate D2E/DX2                !
 ! D26   D(7,5,6,17)            58.5502         estimate D2E/DX2                !
 ! D27   D(14,5,6,15)         -179.872          estimate D2E/DX2                !
 ! D28   D(14,5,6,16)           60.0243         estimate D2E/DX2                !
 ! D29   D(14,5,6,17)          -59.0774         estimate D2E/DX2                !
 ! D30   D(4,5,7,18)           -62.7928         estimate D2E/DX2                !
 ! D31   D(4,5,7,19)          -178.8116         estimate D2E/DX2                !
 ! D32   D(6,5,7,18)            60.0008         estimate D2E/DX2                !
 ! D33   D(6,5,7,19)           -56.0181         estimate D2E/DX2                !
 ! D34   D(14,5,7,18)          178.2559         estimate D2E/DX2                !
 ! D35   D(14,5,7,19)           62.237          estimate D2E/DX2                !
 --------------------------------------------------------------------------------
 Trust Radius=3.00D-01 FncErr=1.00D-07 GrdErr=1.00D-06 EigMax=2.50D+02 EigMin=1.00D-04
 Number of steps in this run=     94 maximum allowed number of steps=    114.
 GradGradGradGradGradGradGradGradGradGradGradGradGradGradGradGradGradGrad

                          Input orientation:                          
 ---------------------------------------------------------------------
 Center     Atomic      Atomic             Coordinates (Angstroms)
 Number     Number       Type             X           Y           Z
 ---------------------------------------------------------------------
      1          6           0        1.104170    0.050240    0.055920
      2          7           0        2.560880    0.056850    0.152710
      3          6           0        3.157690    0.129180   -0.988750
      4          6           0        4.665970    0.166080   -1.051860
      5          6           0        5.187840    0.342520   -2.482000
      6          6           0        4.725370    1.663870   -3.096600
      7          7           0        6.654600    0.300810   -2.482370
      8          1           0        0.685370   -0.060540    1.060940
      9          1           0        0.737990   -0.785690   -0.550140
     10          1           0        0.729750    0.993220   -0.357010
     11          1           0        2.596420    0.166840   -1.938150
     12          1           0        5.035770   -0.774750   -0.625300
     13          1           0        5.015790    0.980310   -0.405430
     14          1           0        4.825880   -0.485390   -3.103420
     15          1           0        5.069600    2.518850   -2.504720
     16          1           0        3.633890    1.716700   -3.152700
     17          1           0        5.103400    1.777240   -4.118060
     18          1           0        7.025610    1.078270   -1.934530
     19          1           0        7.007420    0.437560   -3.429790
 ---------------------------------------------------------------------
                    Distance matrix (angstroms):
                    1          2          3          4          5
     1  C    0.000000
     2  N    1.459937   0.000000
     3  C    2.305322   1.290095   0.000000
     4  C    3.731892   2.427823   1.510051   0.000000
     5  C    4.816931   3.731518   2.529193   1.532573   0.000000
     6  C    5.065104   4.222031   3.042355   2.535323   1.528914
     7  N    6.108435   4.874598   3.806407   2.453398   1.467353
     8  H    1.094409   2.087151   3.217078   4.512256   5.743441
     9  H    1.095525   2.127628   2.623798   4.072667   4.980573
    10  H    1.095405   2.118877   2.653404   4.081765   4.981321
    11  H    2.493335   2.094053   1.103541   2.251344   2.653694
    12  H    4.074573   2.724324   2.115743   1.097209   2.172269
    13  H    4.047054   2.681582   2.125375   1.096912   2.179110
    14  H    4.911156   4.003328   2.762677   2.158445   1.096637
    15  H    5.326870   4.406479   3.415273   2.794503   2.179658
    16  H    4.412688   3.851258   2.725741   2.807693   2.180131
    17  H    6.033115   5.259622   4.036641   3.491241   2.177669
    18  H    6.331050   5.033258   4.093419   2.679384   2.053887
    19  H    6.866480   5.722846   4.568829   3.348229   2.053828
                    6          7          8          9         10
     6  C    0.000000
     7  N    2.440725   0.000000
     8  H    6.048167   6.951067   0.000000
     9  H    5.327664   6.318249   1.767538   0.000000
    10  H    4.890818   6.332490   1.767190   1.789382   0.000000
    11  H    2.848778   4.096700   3.563475   2.507518   2.582124
    12  H    3.485762   2.688150   4.720115   4.298451   4.662564
    13  H    2.791773   2.731501   4.688939   4.630256   4.286333
    14  H    2.151620   2.085193   5.887802   4.829106   5.148528
    15  H    1.095357   2.726248   6.211977   5.788196   5.076860
    16  H    1.094197   3.402760   5.441242   4.628338   4.095526
    17  H    1.095052   2.694726   7.051132   6.193179   5.821426
    18  H    2.642809   1.020892   7.104110   6.702615   6.491044
    19  H    2.612011   1.020190   7.770655   7.006745   7.011410
                   11         12         13         14         15
    11  H    0.000000
    12  H    2.925849   0.000000
    13  H    2.977300   1.768892   0.000000
    14  H    2.598798   2.503770   3.076279   0.000000
    15  H    3.459707   3.792251   2.603271   3.072995   0.000000
    16  H    2.225655   3.815802   3.162184   2.504490   1.767650
    17  H    3.691930   4.326269   3.798209   2.495197   1.775949
    18  H    4.521995   3.017819   2.527275   2.941113   2.495268
    19  H    4.664247   3.636243   3.661683   2.391123   2.990430
                   16         17         18         19
    16  H    0.000000
    17  H    1.759274   0.000000
    18  H    3.659958   2.991865   0.000000
    19  H    3.618519   2.427705   1.626851   0.000000
 Stoichiometry    C5H12N2
 Framework group  C1[X(C5H12N2)]
 Deg. of freedom    51
 Full point group                 C1      NOp   1
 Largest Abelian subgroup         C1      NOp   1
 Largest concise Abelian subgroup C1      NOp   1
                         Standard orientation:                         
 ---------------------------------------------------------------------
 Center     Atomic      Atomic             Coordinates (Angstroms)
 Number     Number       Type             X           Y           Z
 ---------------------------------------------------------------------
      1          6           0        3.302613    0.270607    0.092531
      2          7           0        2.137091   -0.523199   -0.285422
      3          6           0        1.021140   -0.053244    0.159707
      4          6           0       -0.276800   -0.753343   -0.165051
      5          6           0       -1.498474   -0.000664    0.373248
      6          6           0       -1.625249    1.392176   -0.244412
      7          7           0       -2.717308   -0.765484    0.085814
      8          1           0        4.202739   -0.224374   -0.284957
      9          1           0        3.403237    0.357961    1.179922
     10          1           0        3.262856    1.270611   -0.352804
     11          1           0        0.979090    0.858812    0.779537
     12          1           0       -0.226234   -1.758477    0.272003
     13          1           0       -0.339228   -0.870819   -1.253866
     14          1           0       -1.410676    0.099027    1.461809
     15          1           0       -1.717774    1.336021   -1.334409
     16          1           0       -0.751331    2.009980   -0.016701
     17          1           0       -2.500454    1.919757    0.149052
     18          1           0       -2.844733   -0.851990   -0.923394
     19          1           0       -3.535345   -0.258922    0.424926
 ---------------------------------------------------------------------
 Rotational constants (GHZ):           6.9302072           1.1046942           1.0028061
 Standard basis: 6-31G(2df,p) (6D, 7F)
 There are   277 symmetry adapted cartesian basis functions of A   symmetry.
 There are   256 symmetry adapted basis functions of A   symmetry.
   256 basis functions,   392 primitive gaussians,   277 cartesian basis functions
    28 alpha electrons       28 beta electrons
       nuclear repulsion energy       304.1200467932 Hartrees.
 NAtoms=   19 NActive=   19 NUniq=   19 SFac= 1.00D+00 NAtFMM=   60 NAOKFM=F Big=F
 Integral buffers will be    131072 words long.
 Raffenetti 2 integral format.
 Two-electron integral symmetry is turned on.
 One-electron integrals computed using PRISM.
 PrsmSu:  requested number of processors reduced to:  13 ShMem   1 Linda.
 NBasis=   256 RedAO= T EigKep=  3.68D-04  NBF=   256
 NBsUse=   256 1.00D-06 EigRej= -1.00D+00 NBFU=   256
 ExpMin= 1.61D-01 ExpMax= 4.17D+03 ExpMxC= 6.27D+02 IAcc=3 IRadAn=         5 AccDes= 0.00D+00
 Harris functional with IExCor=  402 and IRadAn=       5 diagonalized for initial guess.
 HarFok:  IExCor=  402 AccDes= 0.00D+00 IRadAn=         5 IDoV= 1 UseB2=F ITyADJ=14
 ICtDFT=  3500011 ScaDFX=  1.000000  1.000000  1.000000  1.000000
 FoFCou: FMM=F IPFlag=           0 FMFlag=      100000 FMFlg1=           0
         NFxFlg=           0 DoJE=T BraDBF=F KetDBF=T FulRan=T
         wScrn=  0.000000 ICntrl=       500 IOpCl=  0 I1Cent=   200000004 NGrid=           0
         NMat0=    1 NMatS0=      1 NMatT0=    0 NMatD0=    1 NMtDS0=    0 NMtDT0=    0
 Petite list used in FoFCou.
 Requested convergence on RMS density matrix=1.00D-08 within 128 cycles.
 Requested convergence on MAX density matrix=1.00D-06.
 Requested convergence on             energy=1.00D-06.
 No special actions if energy rises.
 Integral accuracy reduced to 1.0D-05 until final iterations.
 Initial convergence to 1.0D-05 achieved.  Increase integral accuracy.
 SCF Done:  E(RB3LYP) =  -307.252749531     A.U. after   13 cycles
            NFock= 13  Conv=0.47D-08     -V/T= 2.0084

 **********************************************************************

            Population analysis using the SCF density.

 **********************************************************************

 Orbital symmetries:
       Occupied  (A) (A) (A) (A) (A) (A) (A) (A) (A) (A) (A) (A)
                 (A) (A) (A) (A) (A) (A) (A) (A) (A) (A) (A) (A)
                 (A) (A) (A) (A)
       Virtual   (A) (A) (A) (A) (A) (A) (A) (A) (A) (A) (A) (A)
                 (A) (A) (A) (A) (A) (A) (A) (A) (A) (A) (A) (A)
                 (A) (A) (A) (A) (A) (A) (A) (A) (A) (A) (A) (A)
                 (A) (A) (A) (A) (A) (A) (A) (A) (A) (A) (A) (A)
                 (A) (A) (A) (A) (A) (A) (A) (A) (A) (A) (A) (A)
                 (A) (A) (A) (A) (A) (A) (A) (A) (A) (A) (A) (A)
                 (A) (A) (A) (A) (A) (A) (A) (A) (A) (A) (A) (A)
                 (A) (A) (A) (A) (A) (A) (A) (A) (A) (A) (A) (A)
                 (A) (A) (A) (A) (A) (A) (A) (A) (A) (A) (A) (A)
                 (A) (A) (A) (A) (A) (A) (A) (A) (A) (A) (A) (A)
                 (A) (A) (A) (A) (A) (A) (A) (A) (A) (A) (A) (A)
                 (A) (A) (A) (A) (A) (A) (A) (A) (A) (A) (A) (A)
                 (A) (A) (A) (A) (A) (A) (A) (A) (A) (A) (A) (A)
                 (A) (A) (A) (A) (A) (A) (A) (A) (A) (A) (A) (A)
                 (A) (A) (A) (A) (A) (A) (A) (A) (A) (A) (A) (A)
                 (A) (A) (A) (A) (A) (A) (A) (A) (A) (A) (A) (A)
                 (A) (A) (A) (A) (A) (A) (A) (A) (A) (A) (A) (A)
                 (A) (A) (A) (A) (A) (A) (A) (A) (A) (A) (A) (A)
                 (A) (A) (A) (A) (A) (A) (A) (A) (A) (A) (A) (A)
 The electronic state is 1-A.
 Alpha  occ. eigenvalues --  -14.31596 -14.30503 -10.22065 -10.21407 -10.19549
 Alpha  occ. eigenvalues --  -10.18260 -10.17502  -0.90603  -0.88436  -0.76453
 Alpha  occ. eigenvalues --   -0.71113  -0.66690  -0.58732  -0.55682  -0.49362
 Alpha  occ. eigenvalues --   -0.46156  -0.44741  -0.43302  -0.42486  -0.41606
 Alpha  occ. eigenvalues --   -0.40128  -0.39054  -0.35546  -0.34771  -0.33702
 Alpha  occ. eigenvalues --   -0.27331  -0.24719  -0.23203
 Alpha virt. eigenvalues --   -0.00962   0.07780   0.10337   0.12026   0.12931
 Alpha virt. eigenvalues --    0.13074   0.15355   0.16097   0.17289   0.17665
 Alpha virt. eigenvalues --    0.18675   0.19566   0.20079   0.20926   0.24228
 Alpha virt. eigenvalues --    0.25042   0.27104   0.29117   0.37211   0.44508
 Alpha virt. eigenvalues --    0.46586   0.47081   0.49612   0.50583   0.52482
 Alpha virt. eigenvalues --    0.53947   0.54889   0.56742   0.57431   0.59742
 Alpha virt. eigenvalues --    0.60806   0.61929   0.63261   0.65058   0.69158
 Alpha virt. eigenvalues --    0.70701   0.71877   0.72389   0.73360   0.74120
 Alpha virt. eigenvalues --    0.74839   0.75643   0.76732   0.78328   0.78694
 Alpha virt. eigenvalues --    0.79735   0.81074   0.82174   0.83958   0.85149
 Alpha virt. eigenvalues --    0.86458   0.86840   0.87665   0.89034   0.91246
 Alpha virt. eigenvalues --    0.93538   0.98187   1.02819   1.07089   1.10246
 Alpha virt. eigenvalues --    1.16685   1.17220   1.20658   1.22275   1.26937
 Alpha virt. eigenvalues --    1.27663   1.34702   1.38406   1.39822   1.40649
 Alpha virt. eigenvalues --    1.42684   1.44350   1.46247   1.48406   1.50911
 Alpha virt. eigenvalues --    1.51686   1.54268   1.58545   1.61851   1.65254
 Alpha virt. eigenvalues --    1.65922   1.69846   1.72319   1.77123   1.78055
 Alpha virt. eigenvalues --    1.80040   1.83651   1.83777   1.88057   1.91018
 Alpha virt. eigenvalues --    1.93193   1.95850   1.97081   2.03679   2.08380
 Alpha virt. eigenvalues --    2.16297   2.19261   2.21869   2.23852   2.25568
 Alpha virt. eigenvalues --    2.28267   2.30732   2.36050   2.39453   2.40016
 Alpha virt. eigenvalues --    2.43538   2.45827   2.48249   2.50563   2.54140
 Alpha virt. eigenvalues --    2.59066   2.63307   2.67219   2.75066   2.75476
 Alpha virt. eigenvalues --    2.77251   2.79509   2.81196   2.83666   2.84204
 Alpha virt. eigenvalues --    2.87426   2.88353   2.89400   2.91574   2.92710
 Alpha virt. eigenvalues --    2.93496   2.95340   2.96447   3.00585   3.05448
 Alpha virt. eigenvalues --    3.06161   3.07736   3.11213   3.12197   3.15999
 Alpha virt. eigenvalues --    3.18911   3.23215   3.26013   3.27779   3.29994
 Alpha virt. eigenvalues --    3.34150   3.36996   3.39098   3.40631   3.43225
 Alpha virt. eigenvalues --    3.46738   3.48429   3.53510   3.56695   3.60485
 Alpha virt. eigenvalues --    3.62099   3.64797   3.66911   3.67565   3.71002
 Alpha virt. eigenvalues --    3.73174   3.78073   3.82354   3.86339   3.90942
 Alpha virt. eigenvalues --    3.92683   3.96214   4.00410   4.01971   4.03691
 Alpha virt. eigenvalues --    4.07416   4.12674   4.14540   4.22629   4.27121
 Alpha virt. eigenvalues --    4.28660   4.30854   4.34938   4.37480   4.38564
 Alpha virt. eigenvalues --    4.40783   4.42775   4.43308   4.46372   4.48522
 Alpha virt. eigenvalues --    4.50107   4.51452   4.53599   4.57044   4.58537
 Alpha virt. eigenvalues --    4.60531   4.62760   4.63877   4.67517   4.69739
 Alpha virt. eigenvalues --    4.70694   4.71721   4.73132   4.75049   4.76032
 Alpha virt. eigenvalues --    4.77175   4.79953   4.82579   4.83770   4.84796
 Alpha virt. eigenvalues --    4.85979   4.89073   4.91330   4.92075   5.04541
 Alpha virt. eigenvalues --    5.07353   5.11697   5.15356   5.19521   5.21283
 Alpha virt. eigenvalues --    5.26321   5.33308   5.39461   5.45749   5.53709
 Alpha virt. eigenvalues --    5.60912   5.66409   5.74527   5.96136   9.88580
 Alpha virt. eigenvalues --   10.34877  10.87873  11.40390  11.46753  11.80844
 Alpha virt. eigenvalues --   12.03870  12.26063  12.99261
          Condensed to atoms (all electrons):
               1          2          3          4          5          6
     1  C    4.950674   0.369799  -0.108699   0.007890  -0.000424   0.000053
     2  N    0.369799   6.296141   0.697352  -0.023071  -0.000482   0.000418
     3  C   -0.108699   0.697352   4.716122   0.338317  -0.027491   0.005952
     4  C    0.007890  -0.023071   0.338317   5.045202   0.380160  -0.050420
     5  C   -0.000424  -0.000482  -0.027491   0.380160   4.672098   0.407573
     6  C    0.000053   0.000418   0.005952  -0.050420   0.407573   5.087357
     7  N    0.000000  -0.000023   0.001045  -0.031708   0.408774  -0.074985
     8  H    0.388294  -0.027308   0.002159  -0.000169  -0.000001   0.000000
     9  H    0.362500  -0.028673  -0.003462  -0.000518   0.000054  -0.000003
    10  H    0.363973  -0.026372  -0.004665  -0.000507   0.000064  -0.000016
    11  H   -0.015094  -0.067945   0.375172  -0.091544   0.006540  -0.002300
    12  H   -0.000043  -0.003200  -0.016649   0.347230  -0.023407   0.005820
    13  H   -0.000134  -0.004534  -0.016241   0.347528  -0.029086  -0.009448
    14  H   -0.000009  -0.000028  -0.005059  -0.035220   0.356882  -0.059305
    15  H   -0.000002  -0.000023  -0.000569  -0.005368  -0.025676   0.367342
    16  H   -0.000084  -0.000187  -0.002542  -0.001918  -0.018877   0.337296
    17  H   -0.000000  -0.000003  -0.000084   0.004111  -0.025399   0.369244
    18  H   -0.000000  -0.000003  -0.000223  -0.005459  -0.057769  -0.005291
    19  H   -0.000000  -0.000000  -0.000271   0.005388  -0.054859  -0.002353
               7          8          9         10         11         12
     1  C    0.000000   0.388294   0.362500   0.363973  -0.015094  -0.000043
     2  N   -0.000023  -0.027308  -0.028673  -0.026372  -0.067945  -0.003200
     3  C    0.001045   0.002159  -0.003462  -0.004665   0.375172  -0.016649
     4  C   -0.031708  -0.000169  -0.000518  -0.000507  -0.091544   0.347230
     5  C    0.408774  -0.000001   0.000054   0.000064   0.006540  -0.023407
     6  C   -0.074985   0.000000  -0.000003  -0.000016  -0.002300   0.005820
     7  N    6.542388  -0.000000   0.000000   0.000000   0.000153   0.001931
     8  H   -0.000000   0.589054  -0.036772  -0.036729  -0.000231   0.000010
     9  H    0.000000  -0.036772   0.608078  -0.028508   0.008866   0.000091
    10  H    0.000000  -0.036729  -0.028508   0.604677   0.007178  -0.000022
    11  H    0.000153  -0.000231   0.008866   0.007178   0.679736   0.004473
    12  H    0.001931   0.000010   0.000091  -0.000022   0.004473   0.585143
    13  H   -0.002830   0.000004  -0.000014   0.000103   0.005246  -0.030412
    14  H   -0.022290   0.000000  -0.000005   0.000003   0.003227  -0.004227
    15  H   -0.001515   0.000000  -0.000000   0.000000   0.000054  -0.000073
    16  H    0.006779  -0.000001   0.000010   0.000043   0.005666  -0.000122
    17  H   -0.000722  -0.000000   0.000000   0.000000  -0.000017  -0.000182
    18  H    0.342333   0.000000  -0.000000   0.000000   0.000021  -0.000474
    19  H    0.343118   0.000000   0.000000   0.000000   0.000014  -0.000150
              13         14         15         16         17         18
     1  C   -0.000134  -0.000009  -0.000002  -0.000084  -0.000000  -0.000000
     2  N   -0.004534  -0.000028  -0.000023  -0.000187  -0.000003  -0.000003
     3  C   -0.016241  -0.005059  -0.000569  -0.002542  -0.000084  -0.000223
     4  C    0.347528  -0.035220  -0.005368  -0.001918   0.004111  -0.005459
     5  C   -0.029086   0.356882  -0.025676  -0.018877  -0.025399  -0.057769
     6  C   -0.009448  -0.059305   0.367342   0.337296   0.369244  -0.005291
     7  N   -0.002830  -0.022290  -0.001515   0.006779  -0.000722   0.342333
     8  H    0.000004   0.000000   0.000000  -0.000001  -0.000000   0.000000
     9  H   -0.000014  -0.000005  -0.000000   0.000010   0.000000  -0.000000
    10  H    0.000103   0.000003   0.000000   0.000043   0.000000   0.000000
    11  H    0.005246   0.003227   0.000054   0.005666  -0.000017   0.000021
    12  H   -0.030412  -0.004227  -0.000073  -0.000122  -0.000182  -0.000474
    13  H    0.606351   0.006218   0.005293   0.000185  -0.000018   0.005112
    14  H    0.006218   0.669738   0.005967  -0.000359  -0.003036   0.007224
    15  H    0.005293   0.005967   0.599256  -0.028475  -0.032571   0.005692
    16  H    0.000185  -0.000359  -0.028475   0.625000  -0.028185   0.000025
    17  H   -0.000018  -0.003036  -0.032571  -0.028185   0.604745   0.000053
    18  H    0.005112   0.007224   0.005692   0.000025   0.000053   0.521545
    19  H   -0.000055  -0.003272   0.000027   0.000073   0.005339  -0.031939
              19
     1  C   -0.000000
     2  N   -0.000000
     3  C   -0.000271
     4  C    0.005388
     5  C   -0.054859
     6  C   -0.002353
     7  N    0.343118
     8  H    0.000000
     9  H    0.000000
    10  H    0.000000
    11  H    0.000014
    12  H   -0.000150
    13  H   -0.000055
    14  H   -0.003272
    15  H    0.000027
    16  H    0.000073
    17  H    0.005339
    18  H   -0.031939
    19  H    0.518584
 Mulliken charges:
               1
     1  C   -0.318693
     2  N   -0.181860
     3  C    0.049836
     4  C   -0.229925
     5  C    0.031325
     6  C   -0.376935
     7  N   -0.512448
     8  H    0.121690
     9  H    0.118355
    10  H    0.120776
    11  H    0.080785
    12  H    0.134263
    13  H    0.116733
    14  H    0.083549
    15  H    0.110640
    16  H    0.105674
    17  H    0.106724
    18  H    0.219155
    19  H    0.220354
 Sum of Mulliken charges =  -0.00000
 Mulliken charges with hydrogens summed into heavy atoms:
               1
     1  C    0.042129
     2  N   -0.181860
     3  C    0.130621
     4  C    0.021071
     5  C    0.114875
     6  C   -0.053897
     7  N   -0.072939
 Electronic spatial extent (au):  <R**2>=           1198.6876
 Charge=             -0.0000 electrons
 Dipole moment (field-independent basis, Debye):
    X=             -0.9355    Y=              2.1233    Z=              0.2987  Tot=              2.3394
 Quadrupole moment (field-independent basis, Debye-Ang):
   XX=            -42.3995   YY=            -48.1468   ZZ=            -43.7183
   XY=             -0.1978   XZ=              3.2926   YZ=              0.7784
 Traceless Quadrupole moment (field-independent basis, Debye-Ang):
   XX=              2.3554   YY=             -3.3919   ZZ=              1.0365
   XY=             -0.1978   XZ=              3.2926   YZ=              0.7784
 Octapole moment (field-independent basis, Debye-Ang**2):
  XXX=            -10.6260  YYY=              1.2279  ZZZ=             -0.7118  XYY=              3.3959
  XXY=             14.2637  XXZ=             -0.4959  XZZ=             -5.0788  YZZ=             -0.8357
  YYZ=             -0.3778  XYZ=             -5.7913
 Hexadecapole moment (field-independent basis, Debye-Ang**3):
 XXXX=          -1154.9864 YYYY=           -238.2752 ZZZZ=            -89.8464 XXXY=            -14.2113
 XXXZ=              8.7685 YYYX=             -1.5349 YYYZ=              1.1598 ZZZX=              5.6100
 ZZZY=              1.4493 XXYY=           -273.8443 XXZZ=           -219.0767 YYZZ=            -54.7782
 XXYZ=              8.2919 YYXZ=              4.1669 ZZXY=              4.0381
 N-N= 3.041200467932D+02 E-N=-1.321105367902D+03  KE= 3.047008155741D+02
 PrsmSu:  requested number of processors reduced to:  13 ShMem   1 Linda.
 Calling FoFJK, ICntrl=      2127 FMM=F ISym2X=0 I1Cent= 0 IOpClX= 0 NMat=1 NMatS=1 NMatT=0.
 ***** Axes restored to original set *****
 -------------------------------------------------------------------
 Center     Atomic                   Forces (Hartrees/Bohr)
 Number     Number              X              Y              Z
 -------------------------------------------------------------------
      1        6          -0.003090481   -0.001828257    0.010392246
      2        7           0.010463379    0.003792279   -0.034732031
      3        6          -0.006811032   -0.001259442    0.032410618
      4        6          -0.005351857   -0.004905211   -0.005554624
      5        6           0.011270902    0.013947728    0.000066686
      6        6          -0.012659736    0.000864205   -0.003642778
      7        7           0.008020242   -0.009718919    0.002300916
      8        1          -0.001409109    0.000074763   -0.000817748
      9        1          -0.001248360    0.000536106   -0.001846603
     10        1          -0.001334430   -0.000204062   -0.001274719
     11        1           0.001017827   -0.001305009    0.001509727
     12        1           0.003182822    0.002269844   -0.000778729
     13        1           0.001848155   -0.000638261   -0.000414787
     14        1           0.000653459   -0.001557309    0.000563496
     15        1           0.000952981   -0.000435766    0.000697278
     16        1          -0.001896854    0.003262209   -0.001065960
     17        1           0.001043994   -0.000271186    0.000476271
     18        1          -0.002708137   -0.002186328   -0.001517013
     19        1          -0.001943767   -0.000437382    0.003227754
 -------------------------------------------------------------------
 Cartesian Forces:  Max     0.034732031 RMS     0.007700056

 GradGradGradGradGradGradGradGradGradGradGradGradGradGradGradGradGradGrad
 Berny optimization.
 FormGI is forming the generalized inverse of G from B-inverse, IUseBI=4.
 Internal  Forces:  Max     0.026717726 RMS     0.004481467
 Search for a local minimum.
 Step number   1 out of a maximum of   94
 All quantities printed in internal units (Hartrees-Bohrs-Radians)
 Mixed Optimization -- RFO/linear search
 Second derivative matrix not updated -- first step.
 ITU=  0
     Eigenvalues ---    0.00335   0.00383   0.00633   0.00801   0.00899
     Eigenvalues ---    0.01297   0.03146   0.04115   0.04122   0.04399
     Eigenvalues ---    0.04655   0.05303   0.05464   0.05521   0.05982
     Eigenvalues ---    0.09441   0.09737   0.10183   0.12814   0.16000
     Eigenvalues ---    0.16000   0.16000   0.16000   0.16000   0.16000
     Eigenvalues ---    0.16000   0.16000   0.16000   0.16666   0.17634
     Eigenvalues ---    0.21962   0.22000   0.25000   0.29187   0.29524
     Eigenvalues ---    0.31345   0.33294   0.33993   0.34026   0.34057
     Eigenvalues ---    0.34182   0.34195   0.34201   0.34235   0.34308
     Eigenvalues ---    0.34332   0.36059   0.36972   0.44196   0.44308
     Eigenvalues ---    0.70021
 RFO step:  Lambda=-7.40487438D-03 EMin= 3.35070090D-03
 Linear search not attempted -- first point.
 Iteration  1 RMS(Cart)=  0.08802204 RMS(Int)=  0.00267804
 Iteration  2 RMS(Cart)=  0.00430486 RMS(Int)=  0.00043074
 Iteration  3 RMS(Cart)=  0.00000673 RMS(Int)=  0.00043072
 Iteration  4 RMS(Cart)=  0.00000001 RMS(Int)=  0.00043072
 Variable       Old X    -DE/DX   Delta X   Delta X   Delta X     New X
                                 (Linear)    (Quad)   (Total)
    R1        2.75888   0.00665   0.00000   0.01762   0.01762   2.77650
    R2        2.06813  -0.00022   0.00000  -0.00063  -0.00063   2.06751
    R3        2.07024   0.00103   0.00000   0.00295   0.00295   2.07319
    R4        2.07002   0.00076   0.00000   0.00218   0.00218   2.07219
    R5        2.43793  -0.02672   0.00000  -0.03776  -0.03776   2.40017
    R6        2.85358   0.00265   0.00000   0.00826   0.00826   2.86184
    R7        2.08539  -0.00186   0.00000  -0.00547  -0.00547   2.07992
    R8        2.89614   0.00030   0.00000   0.00099   0.00099   2.89714
    R9        2.07342  -0.00118   0.00000  -0.00339  -0.00339   2.07004
   R10        2.07286  -0.00013   0.00000  -0.00037  -0.00037   2.07249
   R11        2.88923   0.00818   0.00000   0.02701   0.02701   2.91624
   R12        2.77290   0.00372   0.00000   0.01010   0.01010   2.78300
   R13        2.07234   0.00064   0.00000   0.00184   0.00184   2.07419
   R14        2.06992   0.00034   0.00000   0.00096   0.00096   2.07089
   R15        2.06773   0.00210   0.00000   0.00600   0.00600   2.07373
   R16        2.06935  -0.00011   0.00000  -0.00032  -0.00032   2.06903
   R17        1.92921  -0.00346   0.00000  -0.00771  -0.00771   1.92150
   R18        1.92788  -0.00373   0.00000  -0.00828  -0.00828   1.91960
    A1        1.89801   0.00270   0.00000   0.01915   0.01906   1.91707
    A2        1.95373   0.00049   0.00000   0.00157   0.00151   1.95524
    A3        1.94137   0.00067   0.00000   0.00223   0.00216   1.94353
    A4        1.87851  -0.00047   0.00000   0.00051   0.00042   1.87893
    A5        1.87812  -0.00079   0.00000  -0.00213  -0.00221   1.87592
    A6        1.91142  -0.00264   0.00000  -0.02111  -0.02114   1.89027
    A7        1.98579   0.01621   0.00000   0.06296   0.06296   2.04875
    A8        2.09487   0.00569   0.00000   0.02501   0.02473   2.11961
    A9        2.12684  -0.00279   0.00000  -0.01217  -0.01245   2.11439
   A10        2.06147  -0.00289   0.00000  -0.01280  -0.01308   2.04840
   A11        1.96268   0.00676   0.00000   0.03639   0.03634   1.99902
   A12        1.87490  -0.00045   0.00000   0.01180   0.01199   1.88689
   A13        1.88815  -0.00049   0.00000   0.01160   0.01178   1.89993
   A14        1.92488  -0.00306   0.00000  -0.02071  -0.02126   1.90362
   A15        1.93465  -0.00317   0.00000  -0.02107  -0.02162   1.91302
   A16        1.87539   0.00026   0.00000  -0.01892  -0.01952   1.85587
   A17        1.95154  -0.00106   0.00000   0.01115   0.01082   1.96236
   A18        1.91489  -0.00669   0.00000  -0.02679  -0.02901   1.88589
   A19        1.90655   0.00147   0.00000  -0.02555  -0.02652   1.88003
   A20        1.90374   0.01103   0.00000   0.08644   0.08665   1.99039
   A21        1.90163  -0.00215   0.00000  -0.00850  -0.00774   1.89390
   A22        1.88423  -0.00265   0.00000  -0.03846  -0.03949   1.84474
   A23        1.94154  -0.00257   0.00000  -0.01961  -0.01972   1.92182
   A24        1.94343   0.00561   0.00000   0.03963   0.03967   1.98310
   A25        1.93909  -0.00166   0.00000  -0.01177  -0.01201   1.92707
   A26        1.87916  -0.00119   0.00000  -0.00363  -0.00348   1.87568
   A27        1.89098   0.00081   0.00000  -0.00656  -0.00695   1.88403
   A28        1.86663  -0.00103   0.00000   0.00198   0.00191   1.86854
   A29        1.91930  -0.00247   0.00000  -0.01689  -0.01695   1.90234
   A30        1.91997  -0.00082   0.00000  -0.00701  -0.00707   1.91290
   A31        1.84480   0.00110   0.00000   0.00215   0.00202   1.84682
    D1        3.09534  -0.00025   0.00000  -0.02131  -0.02131   3.07403
    D2        1.02213  -0.00172   0.00000  -0.03527  -0.03532   0.98681
    D3       -1.12254   0.00087   0.00000  -0.01064  -0.01061  -1.13315
    D4        3.12599   0.00144   0.00000   0.04777   0.04775  -3.10944
    D5       -0.01444   0.00052   0.00000   0.00274   0.00275  -0.01169
    D6       -3.07750   0.00006   0.00000   0.01478   0.01477  -3.06273
    D7        1.08461  -0.00003   0.00000   0.01001   0.00979   1.09440
    D8       -0.93503   0.00015   0.00000   0.02014   0.02036  -0.91467
    D9        0.06297   0.00095   0.00000   0.05814   0.05814   0.12111
   D10       -2.05810   0.00086   0.00000   0.05337   0.05315  -2.00494
   D11        2.20544   0.00103   0.00000   0.06351   0.06373   2.26917
   D12        1.07770  -0.00298   0.00000   0.02578   0.02612   1.10383
   D13       -3.09088   0.00568   0.00000   0.12404   0.12351  -2.96737
   D14       -1.02859  -0.00060   0.00000   0.04645   0.04664  -0.98195
   D15       -3.11316  -0.00116   0.00000   0.05065   0.05069  -3.06247
   D16       -0.99856   0.00750   0.00000   0.14891   0.14808  -0.85048
   D17        1.06373   0.00122   0.00000   0.07132   0.07120   1.13494
   D18       -1.03839  -0.00479   0.00000   0.00058   0.00122  -1.03717
   D19        1.07621   0.00387   0.00000   0.09884   0.09861   1.17482
   D20        3.13851  -0.00241   0.00000   0.02125   0.02174  -3.12294
   D21        1.03468   0.00035   0.00000   0.03254   0.03310   1.06777
   D22       -1.06153  -0.00020   0.00000   0.02364   0.02439  -1.03713
   D23       -3.14024  -0.00150   0.00000   0.00282   0.00361  -3.13664
   D24       -1.08637   0.00194   0.00000   0.00007  -0.00058  -1.08695
   D25        3.10061   0.00139   0.00000  -0.00883  -0.00928   3.09133
   D26        1.02189   0.00009   0.00000  -0.02965  -0.03007   0.99182
   D27       -3.13936   0.00007   0.00000   0.00197   0.00163  -3.13773
   D28        1.04762  -0.00048   0.00000  -0.00694  -0.00707   1.04055
   D29       -1.03110  -0.00178   0.00000  -0.02776  -0.02786  -1.05895
   D30       -1.09594  -0.00199   0.00000  -0.04508  -0.04450  -1.14044
   D31       -3.12085  -0.00141   0.00000  -0.03377  -0.03327   3.12907
   D32        1.04721  -0.00044   0.00000   0.00767   0.00793   1.05515
   D33       -0.97770   0.00014   0.00000   0.01897   0.01917  -0.95853
   D34        3.11115   0.00160   0.00000   0.02359   0.02285   3.13401
   D35        1.08624   0.00219   0.00000   0.03489   0.03409   1.12033
         Item               Value     Threshold  Converged?
 Maximum Force            0.026718     0.000450     NO 
 RMS     Force            0.004481     0.000300     NO 
 Maximum Displacement     0.251972     0.001800     NO 
 RMS     Displacement     0.087781     0.001200     NO 
 Predicted change in Energy=-4.059766D-03
 GradGradGradGradGradGradGradGradGradGradGradGradGradGradGradGradGradGrad

                          Input orientation:                          
 ---------------------------------------------------------------------
 Center     Atomic      Atomic             Coordinates (Angstroms)
 Number     Number       Type             X           Y           Z
 ---------------------------------------------------------------------
      1          6           0        1.071321   -0.003908    0.106663
      2          7           0        2.536687    0.101019    0.127256
      3          6           0        3.134106    0.157889   -0.992140
      4          6           0        4.644512    0.225743   -1.078996
      5          6           0        5.193347    0.398869   -2.499980
      6          6           0        4.756033    1.732392   -3.141827
      7          7           0        6.652591    0.206078   -2.452256
      8          1           0        0.692521   -0.113508    1.127205
      9          1           0        0.729041   -0.871976   -0.470310
     10          1           0        0.612497    0.895952   -0.320152
     11          1           0        2.574176    0.118489   -1.938898
     12          1           0        5.052105   -0.694974   -0.647620
     13          1           0        4.999516    1.047008   -0.444740
     14          1           0        4.804676   -0.425974   -3.110980
     15          1           0        5.134491    2.575824   -2.553341
     16          1           0        3.667416    1.846958   -3.219358
     17          1           0        5.161146    1.819384   -4.155279
     18          1           0        7.067211    0.952683   -1.900367
     19          1           0        7.040017    0.304222   -3.386140
 ---------------------------------------------------------------------
                    Distance matrix (angstroms):
                    1          2          3          4          5
     1  C    0.000000
     2  N    1.469262   0.000000
     3  C    2.342782   1.270114   0.000000
     4  C    3.771766   2.431774   1.514421   0.000000
     5  C    4.893661   3.748190   2.563616   1.533098   0.000000
     6  C    5.210041   4.274784   3.119433   2.556893   1.543209
     7  N    6.143511   4.858558   3.809724   2.432820   1.472698
     8  H    1.094078   2.108760   3.244475   4.538793   5.803140
     9  H    1.097085   2.138080   2.667821   4.111739   5.066028
    10  H    1.096558   2.129460   2.711977   4.157183   5.097346
    11  H    2.541235   2.066567   1.100647   2.244376   2.693229
    12  H    4.110129   2.749794   2.127155   1.095416   2.155848
    13  H    4.103558   2.699556   2.137740   1.096716   2.163716
    14  H    4.946646   3.988441   2.760649   2.139940   1.097612
    15  H    5.499090   4.478710   3.505038   2.817207   2.178403
    16  H    4.607366   3.940390   2.845676   2.857307   2.223270
    17  H    6.181845   5.308547   4.107907   3.502873   2.181493
    18  H    6.394837   5.036093   4.114108   2.659430   2.043921
    19  H    6.922424   5.715350   4.583535   3.326788   2.050470
                    6          7          8          9         10
     6  C    0.000000
     7  N    2.530232   0.000000
     8  H    6.176092   6.959677   0.000000
     9  H    5.489663   6.338671   1.768802   0.000000
    10  H    5.082359   6.442401   1.766425   1.778117   0.000000
    11  H    2.968539   4.111529   3.604918   2.557791   2.659506
    12  H    3.492969   2.574910   4.742793   4.330318   4.727410
    13  H    2.793441   2.733119   4.729484   4.681892   4.391387
    14  H    2.159134   2.061115   5.913515   4.876767   5.206781
    15  H    1.095866   2.816121   6.364748   5.969450   5.315781
    16  H    1.097372   3.491733   5.620145   4.856327   4.317677
    17  H    1.094883   2.779829   7.183962   6.361286   6.020891
    18  H    2.736917   1.016814   7.137200   6.748840   6.645573
    19  H    2.704800   1.015810   7.799711   7.050811   7.145869
                   11         12         13         14         15
    11  H    0.000000
    12  H    2.910198   0.000000
    13  H    2.996152   1.754545   0.000000
    14  H    2.577857   2.490325   3.052289   0.000000
    15  H    3.601561   3.786380   2.608005   3.070916   0.000000
    16  H    2.412955   3.872030   3.180081   2.543879   1.768370
    17  H    3.807598   4.317124   3.793519   2.501852   1.771756
    18  H    4.569981   2.888737   2.530436   2.912961   2.606985
    19  H    4.698164   3.528410   3.656119   2.367625   3.079733
                   16         17         18         19
    16  H    0.000000
    17  H    1.762935   0.000000
    18  H    3.754741   3.077156   0.000000
    19  H    3.712451   2.533269   1.621346   0.000000
 Stoichiometry    C5H12N2
 Framework group  C1[X(C5H12N2)]
 Deg. of freedom    51
 Full point group                 C1      NOp   1
 Largest Abelian subgroup         C1      NOp   1
 Largest concise Abelian subgroup C1      NOp   1
                         Standard orientation:                         
 ---------------------------------------------------------------------
 Center     Atomic      Atomic             Coordinates (Angstroms)
 Number     Number       Type             X           Y           Z
 ---------------------------------------------------------------------
      1          6           0        3.361770    0.217940    0.122048
      2          7           0        2.136026   -0.464834   -0.313960
      3          6           0        1.032775   -0.034779    0.145474
      4          6           0       -0.282531   -0.695790   -0.210203
      5          6           0       -1.522737    0.015926    0.342732
      6          6           0       -1.690973    1.438105   -0.232244
      7          7           0       -2.686372   -0.860344    0.126068
      8          1           0        4.237558   -0.292004   -0.290212
      9          1           0        3.463427    0.223286    1.214400
     10          1           0        3.388110    1.255650   -0.231370
     11          1           0        1.000285    0.809213    0.851199
     12          1           0       -0.260746   -1.723282    0.168905
     13          1           0       -0.357559   -0.771307   -1.301741
     14          1           0       -1.406725    0.091698    1.431562
     15          1           0       -1.813133    1.392637   -1.320331
     16          1           0       -0.841066    2.100172   -0.023560
     17          1           0       -2.581687    1.916834    0.187535
     18          1           0       -2.844369   -0.959648   -0.873475
     19          1           0       -3.521497   -0.415412    0.495491
 ---------------------------------------------------------------------
 Rotational constants (GHZ):           6.7189601           1.0836592           0.9822709
 Standard basis: 6-31G(2df,p) (6D, 7F)
 There are   277 symmetry adapted cartesian basis functions of A   symmetry.
 There are   256 symmetry adapted basis functions of A   symmetry.
   256 basis functions,   392 primitive gaussians,   277 cartesian basis functions
    28 alpha electrons       28 beta electrons
       nuclear repulsion energy       302.3098080059 Hartrees.
 NAtoms=   19 NActive=   19 NUniq=   19 SFac= 1.00D+00 NAtFMM=   60 NAOKFM=F Big=F
 Integral buffers will be    131072 words long.
 Raffenetti 2 integral format.
 Two-electron integral symmetry is turned on.
 One-electron integrals computed using PRISM.
 PrsmSu:  requested number of processors reduced to:  13 ShMem   1 Linda.
 NBasis=   256 RedAO= T EigKep=  3.64D-04  NBF=   256
 NBsUse=   256 1.00D-06 EigRej= -1.00D+00 NBFU=   256
 Initial guess from the checkpoint file:  "CNdCCCpCpN.chk"
 B after Tr=     0.000000   -0.000000    0.000000
         Rot=    0.999906   -0.013371   -0.001131   -0.002795 Ang=  -1.57 deg.
 ExpMin= 1.61D-01 ExpMax= 4.17D+03 ExpMxC= 6.27D+02 IAcc=2 IRadAn=         4 AccDes= 0.00D+00
 Harris functional with IExCor=  402 and IRadAn=       4 diagonalized for initial guess.
 HarFok:  IExCor=  402 AccDes= 0.00D+00 IRadAn=         4 IDoV= 1 UseB2=F ITyADJ=14
 ICtDFT=  3500011 ScaDFX=  1.000000  1.000000  1.000000  1.000000
 FoFCou: FMM=F IPFlag=           0 FMFlag=      100000 FMFlg1=           0
         NFxFlg=           0 DoJE=T BraDBF=F KetDBF=T FulRan=T
         wScrn=  0.000000 ICntrl=       500 IOpCl=  0 I1Cent=   200000004 NGrid=           0
         NMat0=    1 NMatS0=      1 NMatT0=    0 NMatD0=    1 NMtDS0=    0 NMtDT0=    0
 Petite list used in FoFCou.
 Requested convergence on RMS density matrix=1.00D-08 within 128 cycles.
 Requested convergence on MAX density matrix=1.00D-06.
 Requested convergence on             energy=1.00D-06.
 No special actions if energy rises.
 Integral accuracy reduced to 1.0D-05 until final iterations.
 Initial convergence to 1.0D-05 achieved.  Increase integral accuracy.
 SCF Done:  E(RB3LYP) =  -307.256202389     A.U. after   12 cycles
            NFock= 12  Conv=0.51D-08     -V/T= 2.0085
 PrsmSu:  requested number of processors reduced to:  13 ShMem   1 Linda.
 Calling FoFJK, ICntrl=      2127 FMM=F ISym2X=0 I1Cent= 0 IOpClX= 0 NMat=1 NMatS=1 NMatT=0.
 ***** Axes restored to original set *****
 -------------------------------------------------------------------
 Center     Atomic                   Forces (Hartrees/Bohr)
 Number     Number              X              Y              Z
 -------------------------------------------------------------------
      1        6           0.003584007    0.000038689    0.001242893
      2        7          -0.001000733    0.001554363   -0.004950388
      3        6          -0.002394458   -0.002086812    0.009048088
      4        6          -0.003541004    0.000777705   -0.000757208
      5        6          -0.000273078   -0.000200183   -0.001004208
      6        6           0.001253606   -0.001146335    0.000373642
      7        7          -0.002846368    0.000471468    0.000284866
      8        1           0.001407870    0.000035510   -0.000310992
      9        1           0.000146886    0.000167217   -0.001096696
     10        1          -0.000011133    0.000266556   -0.000637958
     11        1           0.000577961   -0.000278968   -0.002926127
     12        1           0.001259881    0.000239770   -0.000620212
     13        1           0.000003896    0.000261133    0.001307541
     14        1          -0.001297760   -0.000183768   -0.001027489
     15        1           0.000349608    0.000722534    0.000150921
     16        1           0.000906255   -0.001898463    0.001342709
     17        1           0.000565178    0.000148934   -0.000171426
     18        1           0.000991566    0.000758793    0.000405157
     19        1           0.000317822    0.000351856   -0.000653116
 -------------------------------------------------------------------
 Cartesian Forces:  Max     0.009048088 RMS     0.001823570

 GradGradGradGradGradGradGradGradGradGradGradGradGradGradGradGradGradGrad
 Berny optimization.
 Using GEDIIS/GDIIS optimizer.
 FormGI is forming the generalized inverse of G from B-inverse, IUseBI=4.
 Internal  Forces:  Max     0.007103607 RMS     0.001345873
 Search for a local minimum.
 Step number   2 out of a maximum of   94
 All quantities printed in internal units (Hartrees-Bohrs-Radians)
 Mixed Optimization -- RFO/linear search
 Update second derivatives using D2CorX and points    1    2
 DE= -3.45D-03 DEPred=-4.06D-03 R= 8.51D-01
 TightC=F SS=  1.41D+00  RLast= 3.26D-01 DXNew= 5.0454D-01 9.7899D-01
 Trust test= 8.51D-01 RLast= 3.26D-01 DXMaxT set to 5.05D-01
 ITU=  1  0
 Use linear search instead of GDIIS.
     Eigenvalues ---    0.00347   0.00384   0.00625   0.00801   0.00895
     Eigenvalues ---    0.01325   0.03159   0.03878   0.03909   0.04539
     Eigenvalues ---    0.04654   0.05278   0.05318   0.05668   0.06266
     Eigenvalues ---    0.09565   0.09730   0.10022   0.13034   0.15594
     Eigenvalues ---    0.15998   0.16000   0.16000   0.16000   0.16000
     Eigenvalues ---    0.16000   0.16000   0.16158   0.17812   0.18466
     Eigenvalues ---    0.21769   0.22146   0.25102   0.29186   0.30134
     Eigenvalues ---    0.31628   0.33465   0.33983   0.34036   0.34068
     Eigenvalues ---    0.34169   0.34192   0.34203   0.34237   0.34305
     Eigenvalues ---    0.34444   0.36146   0.38913   0.44252   0.44534
     Eigenvalues ---    0.64766
 RFO step:  Lambda=-8.19424517D-04 EMin= 3.46940314D-03
 Quartic linear search produced a step of -0.05238.
 Iteration  1 RMS(Cart)=  0.03961400 RMS(Int)=  0.00106171
 Iteration  2 RMS(Cart)=  0.00195357 RMS(Int)=  0.00005346
 Iteration  3 RMS(Cart)=  0.00000413 RMS(Int)=  0.00005344
 Iteration  4 RMS(Cart)=  0.00000000 RMS(Int)=  0.00005344
 Variable       Old X    -DE/DX   Delta X   Delta X   Delta X     New X
                                 (Linear)    (Quad)   (Total)
    R1        2.77650  -0.00514  -0.00092  -0.01093  -0.01185   2.76465
    R2        2.06751  -0.00078   0.00003  -0.00222  -0.00218   2.06532
    R3        2.07319   0.00040  -0.00015   0.00145   0.00130   2.07449
    R4        2.07219   0.00047  -0.00011   0.00156   0.00145   2.07364
    R5        2.40017  -0.00710   0.00198  -0.01413  -0.01215   2.38801
    R6        2.86184  -0.00227  -0.00043  -0.00580  -0.00624   2.85561
    R7        2.07992   0.00223   0.00029   0.00564   0.00593   2.08585
    R8        2.89714   0.00016  -0.00005   0.00062   0.00057   2.89771
    R9        2.07004   0.00002   0.00018  -0.00035  -0.00017   2.06987
   R10        2.07249   0.00095   0.00002   0.00259   0.00261   2.07510
   R11        2.91624  -0.00345  -0.00142  -0.00771  -0.00913   2.90711
   R12        2.78300  -0.00173  -0.00053  -0.00328  -0.00381   2.77919
   R13        2.07419   0.00117  -0.00010   0.00345   0.00336   2.07754
   R14        2.07089   0.00076  -0.00005   0.00220   0.00215   2.07304
   R15        2.07373  -0.00119  -0.00031  -0.00254  -0.00285   2.07088
   R16        2.06903   0.00038   0.00002   0.00100   0.00102   2.07005
   R17        1.92150   0.00118   0.00040   0.00158   0.00198   1.92348
   R18        1.91960   0.00076   0.00043   0.00060   0.00103   1.92064
    A1        1.91707  -0.00138  -0.00100  -0.00500  -0.00600   1.91107
    A2        1.95524  -0.00023  -0.00008  -0.00147  -0.00155   1.95368
    A3        1.94353  -0.00008  -0.00011  -0.00069  -0.00080   1.94273
    A4        1.87893   0.00117  -0.00002   0.00780   0.00779   1.88672
    A5        1.87592   0.00095   0.00012   0.00586   0.00597   1.88189
    A6        1.89027  -0.00032   0.00111  -0.00589  -0.00478   1.88549
    A7        2.04875  -0.00143  -0.00330   0.00228  -0.00101   2.04774
    A8        2.11961   0.00075  -0.00130   0.00653   0.00505   2.12466
    A9        2.11439   0.00169   0.00065   0.00954   0.01000   2.12440
   A10        2.04840  -0.00242   0.00068  -0.01477  -0.01428   2.03412
   A11        1.99902  -0.00103  -0.00190   0.00054  -0.00136   1.99767
   A12        1.88689   0.00118  -0.00063   0.00965   0.00901   1.89590
   A13        1.89993  -0.00002  -0.00062   0.00123   0.00060   1.90053
   A14        1.90362  -0.00057   0.00111  -0.00822  -0.00708   1.89654
   A15        1.91302   0.00084   0.00113   0.00215   0.00331   1.91633
   A16        1.85587  -0.00035   0.00102  -0.00578  -0.00474   1.85113
   A17        1.96236  -0.00031  -0.00057  -0.00403  -0.00459   1.95777
   A18        1.88589   0.00072   0.00152  -0.00164  -0.00002   1.88586
   A19        1.88003   0.00008   0.00139   0.00149   0.00292   1.88294
   A20        1.99039  -0.00096  -0.00454   0.00170  -0.00286   1.98754
   A21        1.89390   0.00006   0.00041  -0.00212  -0.00175   1.89215
   A22        1.84474   0.00051   0.00207   0.00522   0.00734   1.85208
   A23        1.92182   0.00082   0.00103   0.00244   0.00347   1.92529
   A24        1.98310  -0.00319  -0.00208  -0.01515  -0.01723   1.96587
   A25        1.92707   0.00043   0.00063   0.00224   0.00288   1.92995
   A26        1.87568   0.00098   0.00018   0.00308   0.00324   1.87893
   A27        1.88403  -0.00034   0.00036  -0.00037   0.00001   1.88404
   A28        1.86854   0.00143  -0.00010   0.00846   0.00837   1.87691
   A29        1.90234   0.00086   0.00089   0.00270   0.00359   1.90594
   A30        1.91290  -0.00019   0.00037  -0.00224  -0.00186   1.91104
   A31        1.84682  -0.00038  -0.00011  -0.00260  -0.00269   1.84412
    D1        3.07403  -0.00034   0.00112  -0.04043  -0.03931   3.03472
    D2        0.98681  -0.00074   0.00185  -0.04593  -0.04408   0.94273
    D3       -1.13315  -0.00010   0.00056  -0.03681  -0.03626  -1.16941
    D4       -3.10944  -0.00064  -0.00250  -0.02528  -0.02798  -3.13741
    D5       -0.01169  -0.00009  -0.00014   0.01050   0.01055  -0.00114
    D6       -3.06273   0.00047  -0.00077   0.08153   0.08069  -2.98204
    D7        1.09440   0.00103  -0.00051   0.08461   0.08404   1.17844
    D8       -0.91467   0.00082  -0.00107   0.08566   0.08452  -0.83016
    D9        0.12111  -0.00015  -0.00305   0.04648   0.04350   0.16461
   D10       -2.00494   0.00040  -0.00278   0.04956   0.04685  -1.95809
   D11        2.26917   0.00020  -0.00334   0.05061   0.04732   2.31649
   D12        1.10383   0.00034  -0.00137   0.05908   0.05769   1.16152
   D13       -2.96737  -0.00059  -0.00647   0.05717   0.05072  -2.91664
   D14       -0.98195   0.00040  -0.00244   0.06316   0.06071  -0.92124
   D15       -3.06247   0.00073  -0.00266   0.06581   0.06315  -2.99932
   D16       -0.85048  -0.00019  -0.00776   0.06390   0.05618  -0.79429
   D17        1.13494   0.00079  -0.00373   0.06989   0.06617   1.20111
   D18       -1.03717   0.00046  -0.00006   0.05543   0.05533  -0.98184
   D19        1.17482  -0.00047  -0.00517   0.05351   0.04836   1.22318
   D20       -3.12294   0.00052  -0.00114   0.05950   0.05834  -3.06460
   D21        1.06777  -0.00020  -0.00173   0.00215   0.00039   1.06816
   D22       -1.03713   0.00013  -0.00128   0.00677   0.00545  -1.03168
   D23       -3.13664   0.00016  -0.00019   0.00464   0.00442  -3.13222
   D24       -1.08695  -0.00016   0.00003   0.00627   0.00633  -1.08062
   D25        3.09133   0.00017   0.00049   0.01089   0.01139   3.10272
   D26        0.99182   0.00020   0.00158   0.00876   0.01036   1.00218
   D27       -3.13773  -0.00025  -0.00009   0.00013   0.00007  -3.13766
   D28        1.04055   0.00008   0.00037   0.00475   0.00513   1.04568
   D29       -1.05895   0.00012   0.00146   0.00262   0.00409  -1.05486
   D30       -1.14044   0.00040   0.00233   0.00479   0.00710  -1.13334
   D31        3.12907   0.00047   0.00174   0.00762   0.00934   3.13841
   D32        1.05515  -0.00014  -0.00042  -0.00055  -0.00098   1.05416
   D33       -0.95853  -0.00007  -0.00100   0.00228   0.00127  -0.95727
   D34        3.13401  -0.00028  -0.00120   0.00128   0.00012   3.13412
   D35        1.12033  -0.00021  -0.00179   0.00411   0.00236   1.12269
         Item               Value     Threshold  Converged?
 Maximum Force            0.007104     0.000450     NO 
 RMS     Force            0.001346     0.000300     NO 
 Maximum Displacement     0.222912     0.001800     NO 
 RMS     Displacement     0.039943     0.001200     NO 
 Predicted change in Energy=-4.551355D-04
 GradGradGradGradGradGradGradGradGradGradGradGradGradGradGradGradGradGrad

                          Input orientation:                          
 ---------------------------------------------------------------------
 Center     Atomic      Atomic             Coordinates (Angstroms)
 Number     Number       Type             X           Y           Z
 ---------------------------------------------------------------------
      1          6           0        1.075959    0.009226    0.095695
      2          7           0        2.533252    0.135593    0.121447
      3          6           0        3.137250    0.112419   -0.988302
      4          6           0        4.641190    0.229636   -1.077266
      5          6           0        5.181260    0.403612   -2.501826
      6          6           0        4.762831    1.748207   -3.121174
      7          7           0        6.636131    0.191426   -2.466729
      8          1           0        0.698109   -0.064663    1.118558
      9          1           0        0.751415   -0.884373   -0.453175
     10          1           0        0.608023    0.884222   -0.372854
     11          1           0        2.593860    0.000529   -1.942528
     12          1           0        5.088655   -0.669490   -0.640131
     13          1           0        4.970178    1.068565   -0.449747
     14          1           0        4.769504   -0.406692   -3.120306
     15          1           0        5.161874    2.580881   -2.528861
     16          1           0        3.674802    1.868434   -3.172714
     17          1           0        5.153844    1.841008   -4.140217
     18          1           0        7.068025    0.924728   -1.908356
     19          1           0        7.017247    0.298899   -3.402774
 ---------------------------------------------------------------------
                    Distance matrix (angstroms):
                    1          2          3          4          5
     1  C    0.000000
     2  N    1.462989   0.000000
     3  C    2.331227   1.263683   0.000000
     4  C    3.759693   2.426759   1.511122   0.000000
     5  C    4.874028   3.737023   2.559985   1.533399   0.000000
     6  C    5.192815   4.252780   3.141251   2.549199   1.538379
     7  N    6.124926   4.851328   3.799230   2.431430   1.470681
     8  H    1.092922   2.098114   3.227945   4.522847   5.781445
     9  H    1.097773   2.132010   2.640487   4.094003   5.047713
    10  H    1.097324   2.123979   2.715041   4.146217   5.067347
    11  H    2.541349   2.069277   1.103784   2.234441   2.677672
    12  H    4.135677   2.785363   2.130865   1.095326   2.150821
    13  H    4.072425   2.671199   2.136324   1.098096   2.167428
    14  H    4.915071   3.975407   2.734807   2.143686   1.099388
    15  H    5.495126   4.462423   3.544817   2.811867   2.177523
    16  H    4.570901   3.893247   2.853806   2.830277   2.205721
    17  H    6.158533   5.285615   4.121801   3.498714   2.179721
    18  H    6.384295   5.030606   4.117928   2.657704   2.045397
    19  H    6.900877   5.705525   4.573710   3.325422   2.047809
                    6          7          8          9         10
     6  C    0.000000
     7  N    2.522125   0.000000
     8  H    6.146852   6.941179   0.000000
     9  H    5.490006   6.312023   1.773446   0.000000
    10  H    5.055904   6.418907   1.769974   1.776216   0.000000
    11  H    3.024569   4.080585   3.601162   2.528998   2.681108
    12  H    3.479511   2.544074   4.768197   4.346583   4.749897
    13  H    2.764314   2.759164   4.689814   4.648865   4.366725
    14  H    2.154909   2.066205   5.887377   4.846319   5.151007
    15  H    1.097004   2.808342   6.342536   5.980687   5.316444
    16  H    1.095864   3.475663   5.568894   4.849746   4.267672
    17  H    1.095423   2.778283   7.151215   6.356365   5.981050
    18  H    2.731843   1.017863   7.121582   6.729782   6.640108
    19  H    2.694844   1.016357   7.778568   7.025733   7.113450
                   11         12         13         14         15
    11  H    0.000000
    12  H    2.892951   0.000000
    13  H    3.002662   1.752460   0.000000
    14  H    2.507272   2.514396   3.057538   0.000000
    15  H    3.687370   3.759996   2.578093   3.070726   0.000000
    16  H    2.484122   3.854090   3.119669   2.525335   1.770173
    17  H    3.843269   4.307836   3.774913   2.498017   1.773118
    18  H    4.568748   2.840392   2.559139   2.919709   2.600246
    19  H    4.667729   3.505630   3.674676   2.372762   3.068155
                   16         17         18         19
    16  H    0.000000
    17  H    1.767592   0.000000
    18  H    3.742077   3.079750   0.000000
    19  H    3.699771   2.528674   1.620964   0.000000
 Stoichiometry    C5H12N2
 Framework group  C1[X(C5H12N2)]
 Deg. of freedom    51
 Full point group                 C1      NOp   1
 Largest Abelian subgroup         C1      NOp   1
 Largest concise Abelian subgroup C1      NOp   1
                         Standard orientation:                         
 ---------------------------------------------------------------------
 Center     Atomic      Atomic             Coordinates (Angstroms)
 Number     Number       Type             X           Y           Z
 ---------------------------------------------------------------------
      1          6           0        3.349206    0.221706    0.124351
      2          7           0        2.129578   -0.438730   -0.341125
      3          6           0        1.037286   -0.072789    0.178374
      4          6           0       -0.281130   -0.691728   -0.224345
      5          6           0       -1.515807    0.020102    0.341504
      6          6           0       -1.686900    1.434780   -0.238170
      7          7           0       -2.680633   -0.853318    0.133606
      8          1           0        4.220241   -0.262904   -0.323901
      9          1           0        3.453383    0.168524    1.215875
     10          1           0        3.366120    1.279421   -0.167322
     11          1           0        0.997481    0.712112    0.953413
     12          1           0       -0.294315   -1.734913    0.109317
     13          1           0       -0.339356   -0.722579   -1.320462
     14          1           0       -1.387766    0.104077    1.430177
     15          1           0       -1.821448    1.386908   -1.325838
     16          1           0       -0.823839    2.079780   -0.038121
     17          1           0       -2.569547    1.922170    0.190008
     18          1           0       -2.846652   -0.957877   -0.865168
     19          1           0       -3.512839   -0.402818    0.504368
 ---------------------------------------------------------------------
 Rotational constants (GHZ):           6.7305297           1.0881942           0.9890509
 Standard basis: 6-31G(2df,p) (6D, 7F)
 There are   277 symmetry adapted cartesian basis functions of A   symmetry.
 There are   256 symmetry adapted basis functions of A   symmetry.
   256 basis functions,   392 primitive gaussians,   277 cartesian basis functions
    28 alpha electrons       28 beta electrons
       nuclear repulsion energy       302.8956822900 Hartrees.
 NAtoms=   19 NActive=   19 NUniq=   19 SFac= 1.00D+00 NAtFMM=   60 NAOKFM=F Big=F
 Integral buffers will be    131072 words long.
 Raffenetti 2 integral format.
 Two-electron integral symmetry is turned on.
 One-electron integrals computed using PRISM.
 PrsmSu:  requested number of processors reduced to:  13 ShMem   1 Linda.
 NBasis=   256 RedAO= T EigKep=  3.60D-04  NBF=   256
 NBsUse=   256 1.00D-06 EigRej= -1.00D+00 NBFU=   256
 Initial guess from the checkpoint file:  "CNdCCCpCpN.chk"
 B after Tr=     0.000000    0.000000   -0.000000
         Rot=    0.999984   -0.005570   -0.000125    0.000210 Ang=  -0.64 deg.
 ExpMin= 1.61D-01 ExpMax= 4.17D+03 ExpMxC= 6.27D+02 IAcc=2 IRadAn=         4 AccDes= 0.00D+00
 Harris functional with IExCor=  402 and IRadAn=       4 diagonalized for initial guess.
 HarFok:  IExCor=  402 AccDes= 0.00D+00 IRadAn=         4 IDoV= 1 UseB2=F ITyADJ=14
 ICtDFT=  3500011 ScaDFX=  1.000000  1.000000  1.000000  1.000000
 FoFCou: FMM=F IPFlag=           0 FMFlag=      100000 FMFlg1=           0
         NFxFlg=           0 DoJE=T BraDBF=F KetDBF=T FulRan=T
         wScrn=  0.000000 ICntrl=       500 IOpCl=  0 I1Cent=   200000004 NGrid=           0
         NMat0=    1 NMatS0=      1 NMatT0=    0 NMatD0=    1 NMtDS0=    0 NMtDT0=    0
 Petite list used in FoFCou.
 Requested convergence on RMS density matrix=1.00D-08 within 128 cycles.
 Requested convergence on MAX density matrix=1.00D-06.
 Requested convergence on             energy=1.00D-06.
 No special actions if energy rises.
 Integral accuracy reduced to 1.0D-05 until final iterations.
 Initial convergence to 1.0D-05 achieved.  Increase integral accuracy.
 SCF Done:  E(RB3LYP) =  -307.256778670     A.U. after   12 cycles
            NFock= 12  Conv=0.60D-08     -V/T= 2.0083
 PrsmSu:  requested number of processors reduced to:  13 ShMem   1 Linda.
 Calling FoFJK, ICntrl=      2127 FMM=F ISym2X=0 I1Cent= 0 IOpClX= 0 NMat=1 NMatS=1 NMatT=0.
 ***** Axes restored to original set *****
 -------------------------------------------------------------------
 Center     Atomic                   Forces (Hartrees/Bohr)
 Number     Number              X              Y              Z
 -------------------------------------------------------------------
      1        6           0.001257280   -0.001102076    0.000806177
      2        7          -0.002360811    0.001760794    0.000400948
      3        6           0.001546591    0.001721830    0.000520605
      4        6          -0.001082542    0.000272597   -0.000053212
      5        6           0.000300663   -0.000198393    0.000150237
      6        6           0.000688136   -0.000256155   -0.000014366
      7        7          -0.000704017   -0.000088224   -0.000364918
      8        1          -0.000087401   -0.000120328   -0.000135511
      9        1          -0.000430012    0.000210622   -0.000466547
     10        1           0.000225837    0.000183130    0.000248034
     11        1           0.000323218   -0.001522864   -0.001094027
     12        1           0.000693257   -0.000616744   -0.000593586
     13        1          -0.000430025   -0.000444067    0.000590996
     14        1          -0.000281825    0.000128154   -0.000089078
     15        1          -0.000043026   -0.000002144   -0.000113912
     16        1          -0.000084155   -0.000508210    0.000395932
     17        1          -0.000054272    0.000181289    0.000028538
     18        1           0.000181082    0.000184633    0.000078631
     19        1           0.000342021    0.000216156   -0.000294942
 -------------------------------------------------------------------
 Cartesian Forces:  Max     0.002360811 RMS     0.000695658

 GradGradGradGradGradGradGradGradGradGradGradGradGradGradGradGradGradGrad
 Berny optimization.
 Using GEDIIS/GDIIS optimizer.
 FormGI is forming the generalized inverse of G from B-inverse, IUseBI=4.
 Internal  Forces:  Max     0.001433492 RMS     0.000495768
 Search for a local minimum.
 Step number   3 out of a maximum of   94
 All quantities printed in internal units (Hartrees-Bohrs-Radians)
 Mixed Optimization -- En-DIIS/RFO-DIIS
 Update second derivatives using D2CorX and points    1    2    3
 DE= -5.76D-04 DEPred=-4.55D-04 R= 1.27D+00
 TightC=F SS=  1.41D+00  RLast= 2.55D-01 DXNew= 8.4853D-01 7.6395D-01
 Trust test= 1.27D+00 RLast= 2.55D-01 DXMaxT set to 7.64D-01
 ITU=  1  1  0
 Use linear search instead of GDIIS.
     Eigenvalues ---    0.00255   0.00385   0.00457   0.00800   0.00851
     Eigenvalues ---    0.01639   0.03191   0.03877   0.03990   0.04533
     Eigenvalues ---    0.04641   0.05370   0.05410   0.05648   0.06214
     Eigenvalues ---    0.09454   0.09732   0.10097   0.12649   0.15071
     Eigenvalues ---    0.16000   0.16000   0.16000   0.16000   0.16000
     Eigenvalues ---    0.16000   0.16053   0.16581   0.17396   0.18560
     Eigenvalues ---    0.21500   0.22149   0.25038   0.29177   0.30055
     Eigenvalues ---    0.31542   0.33229   0.33981   0.34035   0.34119
     Eigenvalues ---    0.34168   0.34197   0.34228   0.34259   0.34308
     Eigenvalues ---    0.34594   0.36148   0.38762   0.44276   0.44382
     Eigenvalues ---    0.75055
 RFO step:  Lambda=-8.31595876D-04 EMin= 2.55216407D-03
 Quartic linear search produced a step of  0.53454.
 Iteration  1 RMS(Cart)=  0.06354837 RMS(Int)=  0.00435682
 Iteration  2 RMS(Cart)=  0.00462069 RMS(Int)=  0.00007510
 Iteration  3 RMS(Cart)=  0.00003002 RMS(Int)=  0.00007255
 Iteration  4 RMS(Cart)=  0.00000000 RMS(Int)=  0.00007255
 Variable       Old X    -DE/DX   Delta X   Delta X   Delta X     New X
                                 (Linear)    (Quad)   (Total)
    R1        2.76465  -0.00090  -0.00634  -0.00732  -0.01366   2.75099
    R2        2.06532  -0.00009  -0.00117  -0.00145  -0.00262   2.06271
    R3        2.07449   0.00019   0.00070   0.00169   0.00238   2.07687
    R4        2.07364  -0.00006   0.00077   0.00065   0.00142   2.07506
    R5        2.38801   0.00143  -0.00650  -0.00635  -0.01285   2.37517
    R6        2.85561  -0.00054  -0.00333  -0.00461  -0.00794   2.84767
    R7        2.08585   0.00094   0.00317   0.00631   0.00948   2.09533
    R8        2.89771   0.00029   0.00030   0.00180   0.00211   2.89981
    R9        2.06987   0.00055  -0.00009   0.00195   0.00186   2.07172
   R10        2.07510  -0.00013   0.00139   0.00062   0.00201   2.07711
   R11        2.90711  -0.00077  -0.00488  -0.00539  -0.01027   2.89685
   R12        2.77919  -0.00024  -0.00204  -0.00175  -0.00379   2.77540
   R13        2.07754   0.00006   0.00179   0.00200   0.00379   2.08133
   R14        2.07304  -0.00008   0.00115   0.00076   0.00191   2.07494
   R15        2.07088   0.00001  -0.00152  -0.00070  -0.00223   2.06865
   R16        2.07005  -0.00003   0.00055   0.00031   0.00086   2.07091
   R17        1.92348   0.00025   0.00106   0.00100   0.00206   1.92555
   R18        1.92064   0.00042   0.00055   0.00106   0.00161   1.92225
    A1        1.91107   0.00024  -0.00321   0.00161  -0.00162   1.90945
    A2        1.95368   0.00067  -0.00083   0.00607   0.00522   1.95891
    A3        1.94273  -0.00064  -0.00043  -0.00699  -0.00744   1.93529
    A4        1.88672  -0.00001   0.00416   0.00550   0.00964   1.89635
    A5        1.88189  -0.00008   0.00319   0.00060   0.00378   1.88567
    A6        1.88549  -0.00019  -0.00256  -0.00668  -0.00925   1.87624
    A7        2.04774   0.00088  -0.00054   0.01073   0.01018   2.05792
    A8        2.12466   0.00108   0.00270   0.01170   0.01408   2.13874
    A9        2.12440   0.00026   0.00535   0.00690   0.01192   2.13632
   A10        2.03412  -0.00135  -0.00763  -0.01886  -0.02681   2.00731
   A11        1.99767  -0.00105  -0.00073  -0.00478  -0.00550   1.99217
   A12        1.89590   0.00086   0.00482   0.01372   0.01853   1.91443
   A13        1.90053  -0.00016   0.00032  -0.00300  -0.00268   1.89785
   A14        1.89654  -0.00027  -0.00378  -0.00927  -0.01302   1.88352
   A15        1.91633   0.00079   0.00177   0.00580   0.00757   1.92390
   A16        1.85113  -0.00011  -0.00253  -0.00222  -0.00475   1.84638
   A17        1.95777  -0.00070  -0.00245  -0.00708  -0.00956   1.94821
   A18        1.88586   0.00089  -0.00001   0.00629   0.00627   1.89214
   A19        1.88294  -0.00002   0.00156  -0.00229  -0.00082   1.88212
   A20        1.98754  -0.00020  -0.00153   0.00601   0.00450   1.99204
   A21        1.89215   0.00013  -0.00094  -0.00548  -0.00646   1.88569
[...]
 5600,0.00153925,-0.03270289,0.00966017,0.01235172,-0.20068437,-0.03131
 656,-0.00030300,0.50445263,-0.00114347,0.00616029,-0.01073827,0.025391
 56,0.00192994,0.00149941,-0.03177425,-0.08815506,-0.00363400,-0.014807
 22,0.58289041,0.00220098,-0.01041616,0.01021755,0.02797360,0.00372154,
 -0.00788677,-0.00625610,-0.00410788,-0.07841261,0.03296134,0.04991829,
 0.47046014,-0.00140551,0.00217469,-0.00172722,-0.00226704,-0.00240319,
 0.00005267,-0.01260695,-0.00447977,0.03267176,-0.07491566,-0.00862945,
 0.02335991,0.48066499,0.00036280,0.00037071,0.00035320,0.00205325,-0.0
 0127903,-0.00056957,-0.00163619,-0.00174631,0.00321034,-0.00706268,-0.
 07921877,0.01427235,0.04568517,0.52670052,0.00048915,0.00143087,-0.000
 25875,-0.00578327,0.00267572,0.00189361,0.01757589,-0.00096604,-0.0002
 6267,0.00464559,0.00962063,-0.15641317,0.02800329,0.05952266,0.5142040
 8,-0.00009311,0.00000420,0.00001558,-0.00068904,0.00080678,-0.00016775
 ,0.00204207,-0.00130140,0.00010336,0.00527505,-0.00736967,0.00100618,-
 0.08280739,0.01911559,-0.00748225,0.55605065,0.00004009,-0.00020644,0.
 00003385,0.00030258,0.00000667,0.00005206,-0.00081312,-0.00038109,0.00
 013891,0.00110921,-0.00875898,0.00723763,0.02614481,-0.16009344,0.0267
 8484,0.03566871,0.47694770,-0.00029172,-0.00004395,-0.00018779,0.00020
 935,0.00029925,0.00012181,-0.00174083,0.00050680,-0.00113374,-0.008767
 06,0.03104253,-0.01519735,-0.01045533,0.02557311,-0.08885777,-0.016787
 51,0.02871341,0.55864263,0.00017256,0.00043549,-0.00022894,-0.00067720
 ,-0.00037589,0.00056545,0.00076090,0.00057618,0.00253786,-0.02292863,-
 0.00234724,0.00731631,-0.19595489,0.03053021,-0.00714658,-0.03339883,0
 .00558566,0.00067765,0.45449705,-0.00007801,-0.00010133,0.00005533,-0.
 00028571,0.00060558,-0.00010906,-0.00028592,-0.00011413,0.00041192,-0.
 00419806,0.00163503,0.00036777,-0.02308297,-0.06854882,-0.00913057,0.0
 3615617,-0.00027619,-0.00076882,0.13904582,0.32331158,0.00017658,-0.00
 095010,0.00038497,0.00280673,0.00012939,-0.00060624,-0.00237536,-0.000
 62175,-0.00684692,0.04220773,0.00227971,-0.00744490,0.00970769,-0.0136
 6914,-0.09535666,-0.01098600,0.00066824,0.00260503,-0.03858031,0.10350
 212,0.63524004,-0.05641958,-0.01256086,0.05191751,-0.01804143,-0.00730
 671,0.03619106,-0.00292398,-0.00328784,0.00003463,-0.00098629,0.002889
 43,-0.00174657,0.00045903,-0.00004244,-0.00035345,-0.00001515,0.000007
 58,0.00011970,-0.00006521,-0.00001166,0.00007253,0.07199937,-0.0151748
 4,-0.05728885,0.04741571,-0.00117309,-0.00022624,0.00527528,0.00044321
 ,-0.00041077,-0.00031987,0.00003407,0.00050193,0.00028438,-0.00002887,
 -0.00010232,-0.00020284,0.00001338,0.00002320,0.00005133,-0.00005675,0
 .00000985,0.00009066,0.01613854,0.05778570,0.05576835,0.04820877,-0.28
 229206,0.00589681,-0.00168674,0.00194234,-0.00090951,0.00194948,0.0014
 2550,0.00020819,-0.00009393,0.00005540,-0.00009301,-0.00002475,0.00010
 767,-0.00003591,-0.00001595,-0.00000505,0.00008067,-0.00002990,-0.0000
 3146,-0.06518897,-0.05466556,0.30413666,-0.06280591,-0.03931367,-0.030
 08071,-0.02310312,-0.02677177,-0.01597538,0.00432579,-0.00728430,-0.00
 701197,-0.00039579,0.00076564,0.00079780,-0.00001246,0.00008382,-0.000
 22352,-0.00002394,0.00000128,0.00005232,-0.00006620,0.00001123,0.00012
 243,0.00223504,0.00599142,0.00294834,0.07396540,-0.04082204,-0.1918576
 4,-0.10688429,-0.01184806,-0.00528778,-0.00575497,0.00470993,0.0017353
 9,0.00105606,-0.00002554,0.00055272,0.00053312,-0.00004592,-0.00001965
 ,-0.00028076,-0.00007134,0.00000570,0.00006328,-0.00006519,0.00000289,
 0.00014695,0.00233890,0.00538701,0.00428514,0.05273484,0.20714239,-0.0
 3136763,-0.10718648,-0.13333320,-0.00352523,-0.00247425,0.00368640,0.0
 0276168,0.00369449,0.00163476,0.00007482,0.00023830,0.00031910,0.00000
 413,-0.00001629,-0.00015042,-0.00000593,-0.00000035,0.00001028,-0.0000
 6808,0.00002749,0.00007920,-0.00631199,-0.02423287,-0.01577237,0.03734
 052,0.12179718,0.13814383,-0.10788292,0.10242943,-0.03663763,-0.027814
 25,0.02782156,-0.00690685,-0.00310851,-0.00162921,-0.00252195,0.000123
 55,-0.00125196,0.00331896,-0.00061142,0.00010675,-0.00089223,-0.000135
 01,0.00005293,0.00008343,-0.00016977,-0.00007855,0.00048147,0.00473978
 ,-0.00578901,0.00135397,0.00473781,-0.00569351,0.00257650,0.13030818,0
 .10601661,-0.22266429,0.05823022,-0.00192577,0.00976894,-0.00512811,-0
 .00147906,0.00116184,0.00121539,0.00024093,-0.00007762,0.00061064,-0.0
 0019079,-0.00003823,-0.00000065,0.00002103,0.00001956,-0.00004165,-0.0
 0002872,0.00001282,0.00003819,0.00291355,-0.00597938,0.00153819,0.0109
 7809,-0.01829588,0.00762712,-0.11653861,0.23613141,-0.03984130,0.05757
 822,-0.06558862,0.00404400,-0.00333354,0.00181654,0.00133633,-0.000235
 16,-0.00005551,0.00007578,0.00067617,-0.00044168,0.00015697,-0.0000719
 8,0.00000860,0.00008978,0.00001486,0.00004823,-0.00005893,0.00004704,-
 0.00003030,-0.01579029,0.02635740,-0.00926963,0.01012725,-0.01636938,0
 .00546213,0.04013689,-0.06445338,0.06753643,0.00505908,0.00707383,0.00
 259229,0.00577331,0.01317915,0.01569248,-0.09729952,-0.06953056,-0.047
 21519,-0.00842163,-0.02339292,-0.01479520,0.00024020,-0.00048609,-0.00
 253816,-0.00015445,0.00009588,0.00017034,-0.00001103,0.00030113,0.0007
 4088,0.00004075,-0.00023490,-0.00012724,0.00097186,-0.00145023,-0.0015
 7963,-0.00033023,-0.00001934,-0.00001448,0.09822822,-0.00287268,-0.001
 69522,0.00731245,-0.00332489,-0.01349026,-0.03431894,-0.06809554,-0.17
 481897,-0.08484034,-0.00039494,-0.00060497,-0.00554194,0.00035603,-0.0
 0003689,-0.00100775,-0.00015036,0.00009854,0.00020952,0.00013299,0.000
 11501,0.00048762,-0.00068383,0.00044066,0.00046927,0.00252846,0.000699
 49,0.00066874,0.00070356,-0.00002971,-0.00014633,0.07395498,0.18790765
 ,-0.00548964,0.00519320,-0.00450167,0.00209371,-0.03776409,-0.00165845
 ,-0.04572464,-0.08415495,-0.11151954,0.00227065,-0.00133301,0.00415468
 ,-0.00092759,-0.00004012,0.00049449,-0.00001643,0.00002437,0.00010506,
 -0.00006095,0.00008044,0.00046515,0.00088271,-0.00009343,-0.00029800,0
 .00163862,0.00146799,0.00006864,-0.00081532,0.00044318,0.00059208,0.04
 509960,0.11681762,0.11105167,0.00014846,-0.00150771,0.00317033,-0.0038
 4141,-0.00065271,-0.00222273,-0.01684291,0.02983141,-0.00680517,-0.103
 68969,0.10233556,-0.03937975,0.00365911,-0.00686297,0.00244814,-0.0007
 2100,-0.00041595,0.00203542,0.00043794,-0.00066880,0.00058679,-0.00095
 701,-0.00016412,0.00002685,-0.00018385,-0.00014198,-0.00010508,0.00027
 930,0.00000853,-0.00020514,0.00101132,-0.00154380,0.00044796,0.1156565
 9,0.00028048,-0.00002853,0.00071615,-0.00008115,0.00048167,0.00078655,
 -0.00152739,0.00555014,-0.00340112,0.09801393,-0.22394501,0.05695926,0
 .00387662,-0.00783891,0.00261407,-0.00096972,0.00103176,0.00223292,0.0
 0021049,0.00065134,-0.00168175,-0.00024651,-0.00007010,0.00003235,0.00
 003468,0.00001924,-0.00004045,-0.00000590,-0.00001800,-0.00005696,0.00
 094198,0.00017243,0.00000503,-0.11175554,0.24141236,0.00014915,0.00079
 832,-0.00056982,0.00106965,-0.00016969,0.00055260,0.00315442,-0.003191
 47,0.00006623,-0.03710064,0.05505050,-0.06167924,-0.01435560,0.0294759
 3,-0.01376344,0.00293456,-0.00036963,-0.00568594,-0.00141051,-0.000888
 99,0.00272444,0.00015830,0.00002944,-0.00000669,0.00007605,0.00003210,
 -0.00003423,-0.00016696,-0.00005440,-0.00001479,-0.00016987,-0.0000489
 6,0.00005693,0.03696224,-0.06592688,0.07168870,-0.00026503,0.00034265,
 0.00025517,0.00424215,0.00071024,-0.00034204,-0.01166952,-0.02870036,-
 0.02211062,-0.06565773,-0.04838262,-0.03959198,0.00168918,0.00697573,0
 .00545072,-0.00006133,0.00018993,-0.00053466,0.00116717,0.00040818,0.0
 0005138,-0.00000288,0.00004737,0.00004796,0.00041957,0.00039635,0.0002
 2300,-0.00004421,0.00002118,0.00002447,-0.00566242,-0.00062445,0.00080
 633,0.00454356,0.01094113,0.00974190,0.07150112,0.00025103,0.00036445,
 0.00037881,0.00169263,0.00061759,0.00089566,-0.00172390,-0.00561948,-0
 .00381849,-0.05269113,-0.19381521,-0.11582719,0.00167722,0.00490742,0.
 00496702,0.00047290,0.00138695,0.00052428,0.00084834,0.00029068,-0.000
 03105,-0.00010270,-0.00004210,-0.00000147,0.00026173,-0.00005454,-0.00
 010003,-0.00004825,0.00002110,0.00000910,-0.00121892,0.00116375,-0.000
 52481,-0.00811820,-0.01831517,-0.01549694,0.05855813,0.20768661,0.0001
 4369,0.00041383,0.00008290,0.00044176,0.00083460,-0.00022854,0.0007246
 4,0.00188804,0.00126175,-0.04328823,-0.11628604,-0.14116002,-0.0092334
 4,-0.02378628,-0.02135342,-0.00024186,-0.00171534,0.00162434,-0.001174
 12,0.00023221,0.00152324,0.00000751,0.00000936,0.00001070,0.00015045,-
 0.00010967,-0.00013172,-0.00006529,-0.00004898,-0.00001572,0.00081414,
 -0.00072971,0.00093659,0.00319631,0.00738763,0.00575224,0.04482364,0.1
 2812689,0.15601794,-0.00000842,-0.00004868,0.00000671,-0.00007561,-0.0
 0028015,-0.00018287,0.00048148,0.00121614,0.00069086,0.00347865,0.0071
 3897,0.00582515,-0.07367878,-0.05829434,-0.04516162,0.00481099,0.00875
 705,0.00590264,-0.02426761,-0.02381485,-0.02470384,0.00000414,-0.00000
 215,-0.00000745,-0.00001966,-0.00001052,0.00000485,0.00003183,0.000008
 30,0.00000585,0.00000497,-0.00020264,-0.00013221,0.00003490,-0.0001590
 6,-0.00044009,-0.00016236,-0.00042301,0.00222823,0.09502119,0.00001603
 ,-0.00018607,0.00001096,0.00023906,0.00032028,-0.00002176,-0.00069879,
 0.00010578,-0.00010591,0.00281431,0.00447272,0.00335630,-0.06233200,-0
 .17889245,-0.10514885,-0.00854907,-0.02500921,-0.01718462,-0.00086469,
 0.00330629,0.00133701,-0.00000620,0.00001078,0.00000810,0.00000755,0.0
 0002632,0.00001464,0.00001980,0.00000283,-0.00000376,0.00051164,0.0002
 1045,-0.00003081,0.00026105,0.00073087,-0.00039163,-0.00045691,0.00073
 169,0.00157634,0.06636514,0.19583678,0.00003393,-0.00001372,-0.0000316
 0,0.00075717,0.00061894,0.00022075,-0.00250734,-0.00155916,0.00073645,
 -0.00884021,-0.02259413,-0.02248311,-0.05043288,-0.10524584,-0.1344558
 6,0.00305562,0.00939729,0.00625185,-0.00009531,0.00123364,0.00195174,0
 .00001873,0.00000135,0.00000035,0.00006601,0.00002918,0.00001884,0.000
 00475,-0.00001595,-0.00000668,0.00117861,0.00070216,0.00025174,-0.0004
 2939,0.00025309,0.00109540,0.00169144,0.00199084,-0.00524961,0.0550605
 2,0.11290842,0.14834117,-0.00001593,-0.00000388,0.00000882,0.00019820,
 0.00014846,0.00003589,-0.00010878,-0.00000685,-0.00015022,-0.00003809,
 -0.00057408,0.00016877,0.00262275,0.00957968,0.00666152,-0.07884493,-0
 .06811350,-0.05201935,0.00217217,-0.00042093,0.00102776,-0.00001386,-0
 .00000619,0.00001182,0.00001818,0.00005129,0.00001055,-0.00002699,-0.0
 0001980,-0.00003429,0.00008666,0.00006351,0.00003245,-0.00001212,-0.00
 000861,0.00017696,0.00009749,-0.00025388,0.00015339,-0.00006966,0.0025
 0248,-0.00059651,0.08174188,-0.00002746,0.00001060,-0.00001297,0.00003
 405,0.00016190,0.00004234,-0.00008146,-0.00013265,0.00004532,0.0000261
 1,0.00089609,-0.00188580,-0.01236619,-0.02534112,-0.01783811,-0.067450
 79,-0.18715660,-0.10902177,-0.00104891,0.00307095,0.00049030,-0.000006
 47,-0.00000322,0.00000447,0.00001421,0.00001885,0.00000944,-0.00002644
 ,-0.00000933,-0.00000824,0.00022088,0.00011450,0.00004148,0.00021697,0
 .00048192,0.00013483,-0.00001357,0.00032941,0.00121314,0.00266391,-0.0
 0473976,0.00271431,0.07350590,0.20745514,0.00002416,-0.00001160,0.0000
 1007,-0.00002370,-0.00002302,-0.00009214,0.00012031,-0.00002808,0.0001
 0929,0.00050123,0.00066115,0.00153892,0.00379620,0.00863785,0.00556266
 ,-0.05264203,-0.10914333,-0.13131016,0.00148326,0.00004274,0.00026695,
 -0.00001019,-0.00000400,0.00000815,-0.00000902,0.00000068,0.00000050,-
 0.00000965,-0.00000032,-0.00000668,-0.00002973,-0.00005474,-0.00000327
 ,-0.00006117,-0.00021422,0.00008388,-0.00023117,-0.00028421,0.00006857
 ,-0.00074980,0.00240306,0.00031162,0.05843672,0.11944312,0.13962380,0.
 00020634,-0.00001617,0.00004289,0.00031842,-0.00077790,0.00037138,-0.0
 0045605,0.00021501,0.00047439,0.00006821,-0.00019412,0.00012660,-0.010
 49892,-0.00277173,0.00110424,-0.30741388,0.00500139,0.01110620,-0.0014
 1845,0.00432393,-0.00119581,-0.00005198,-0.00001453,0.00001350,-0.0000
 3201,-0.00002515,-0.00001414,0.00001121,0.00001754,-0.00004201,0.00012
 982,0.00005128,-0.00003141,-0.00000067,0.00004401,0.00007076,-0.000026
 42,0.00009151,-0.00005646,0.00045763,0.00045162,0.00016427,-0.01039192
 ,0.00044905,0.00109668,0.33574479,-0.00010564,0.00006273,0.00000675,-0
 .00055749,-0.00009992,0.00019918,0.00028710,-0.00029241,0.00066064,-0.
 00033087,0.00094462,-0.00031476,0.02797222,0.00407396,-0.00315678,0.00
 408712,-0.04827090,0.00025669,0.00532393,-0.00572455,0.00255290,0.0000
 4812,0.00000603,-0.00001702,0.00000988,-0.00002700,0.00000775,0.000048
 14,0.00001170,0.00002754,-0.00009801,-0.00018148,-0.00003507,-0.000010
 73,0.00006507,-0.00041749,-0.00008334,-0.00005458,0.00010563,-0.000809
 85,0.00081280,-0.00078707,-0.02416455,0.00064992,0.00203234,-0.0062158
 6,0.04924730,0.00029522,0.00004270,-0.00000962,0.00050301,-0.00056638,
 -0.00017427,-0.00066280,0.00118945,0.00004146,0.00005410,-0.00036816,0
 .00008679,-0.01000173,-0.00253858,-0.00048527,0.01262422,0.00037505,-0
 .04733300,-0.00205309,0.00290986,0.00042166,-0.00005481,-0.00002411,0.
 00001641,-0.00005869,-0.00006059,-0.00003427,0.00000421,0.00003914,-0.
 00004288,0.00003716,0.00002777,-0.00012310,0.00008430,-0.00011465,0.00
 017742,-0.00006885,0.00001931,-0.00005492,0.00034615,-0.00009870,0.000
 22467,-0.01909244,0.00095178,0.00044902,-0.01317941,-0.00115557,0.0469
 2628,0.00012227,0.00000916,0.00000683,0.00031335,-0.00048468,-0.000004
 49,-0.00049618,0.00037486,0.00029958,-0.00052452,0.00214375,-0.0009282
 6,0.00122400,0.00206242,-0.01168807,-0.06720287,-0.01220957,0.06968323
 ,0.00177486,-0.00091883,-0.00058921,-0.00002193,-0.00001701,0.00001368
 ,-0.00002191,-0.00001667,-0.00001455,0.00003316,0.00000276,-0.00002919
 ,0.00005084,0.00005135,-0.00004363,0.00045904,0.00038135,-0.00051160,-
 0.00007745,0.00003891,0.00023881,0.00017541,-0.00059909,0.00044276,0.0
 0267932,0.00241403,-0.01169974,-0.00772000,-0.00491667,0.03101457,0.06
 949939,0.00003528,0.00006743,0.00004306,-0.00028450,0.00030579,-0.0000
 5023,0.00130198,0.00003269,-0.00023598,0.00260379,-0.00527371,0.000637
 03,-0.00907685,-0.00542939,0.02954311,-0.01132191,-0.05250772,0.037855
 53,-0.00219871,0.00155641,-0.00115800,-0.00004473,-0.00002213,0.000007
 46,-0.00001357,-0.00001811,-0.00000777,-0.00007408,-0.00000586,-0.0000
 0415,-0.00007189,-0.00006669,0.00002044,-0.00047829,-0.00042772,0.0019
 5872,0.00015220,0.00015348,0.00014576,-0.00058092,0.00122829,-0.000582
 60,0.00778272,0.00411976,-0.02267244,-0.00017724,-0.00093824,-0.000728
 65,0.01134623,0.05716170,-0.00013194,-0.00005455,0.00000257,0.00024317
 ,-0.00000699,-0.00010817,-0.00076770,-0.00014402,0.00008801,-0.0009910
 7,0.00231558,0.00081100,0.00417440,0.00031643,-0.01014972,0.06921142,0
 .03847984,-0.28042410,-0.00029052,-0.00112855,0.00149115,0.00004241,0.
 00002385,-0.00001683,0.00004334,0.00004533,0.00002680,0.00004602,-0.00
 000691,0.00000906,0.00011892,0.00005020,0.00004006,0.00040580,0.000432
 31,-0.00064750,0.00002228,-0.00007498,0.00055894,-0.00013477,0.0004267
 2,0.00087713,0.00552449,0.00340077,-0.01656667,-0.00018368,-0.00030068
 ,-0.00045451,-0.07633141,-0.04431140,0.30450297,-0.00004331,-0.0000558
 0,0.00000708,0.00018418,0.00012876,-0.00006311,-0.00044062,0.00027685,
 0.00007372,0.00155839,-0.00061352,-0.00116193,-0.02114604,-0.03178549,
 -0.02485813,0.00178089,-0.00106654,-0.00055215,-0.10162218,-0.09756415
 ,-0.06546672,0.00002107,0.00001321,-0.00001227,0.00002262,0.00002228,0
 .00001487,0.00001827,-0.00000499,0.00000394,0.00038082,0.00014224,0.00
 008257,-0.00004800,0.00012610,0.00012732,-0.00009783,0.00039365,0.0011
 4458,-0.00736075,0.00079740,0.00085701,-0.00006425,0.00134313,0.000187
 25,0.00060649,0.00000357,0.00058921,-0.00004838,0.00022596,0.00000873,
 0.12114584,-0.00000697,0.00003896,-0.00007160,0.00012923,-0.00008239,0
 .00006536,-0.00018634,0.00009770,0.00040607,-0.00010224,0.00024024,0.0
 0000631,0.00694493,-0.00334658,0.00278440,0.00114136,0.00242763,0.0013
 6646,-0.12824034,-0.22249064,-0.18443361,0.00001143,0.00000015,0.00000
 851,0.00000095,0.00000938,0.00000029,0.00000549,-0.00001048,-0.0000066
 8,0.00024937,0.00009310,-0.00006790,-0.00020396,-0.00044487,0.00003340
 ,-0.00041948,0.00013578,0.00043965,-0.00106003,0.00128413,0.00072844,-
 0.00020850,0.00019171,-0.00063351,-0.00008868,-0.00036985,-0.00015649,
 0.00004733,-0.00004627,0.00001029,0.11837847,0.22148017,0.00001439,-0.
 00002596,0.00004865,-0.00019596,0.00001995,-0.00006171,0.00024843,0.00
 014762,-0.00026929,0.00055472,0.00115419,0.00188663,-0.00172353,0.0005
 2057,0.00092950,0.00112875,-0.00000815,-0.00039482,-0.06600725,-0.1411
 9133,-0.16324617,-0.00001678,-0.00000257,-0.00000220,-0.00001494,-0.00
 001350,-0.00000363,-0.00001925,0.00001089,0.00000503,-0.00013022,-0.00
 012824,-0.00013810,-0.00002321,0.00029263,0.00001676,0.00000758,-0.000
 76439,0.00002278,0.00121193,0.00089730,0.00146475,-0.00050565,0.000359
 04,0.00008048,0.00051765,0.00000049,0.00032804,-0.00020181,0.00001243,
 -0.00021720,0.08144042,0.16946367,0.18317732,-0.00005095,0.00033650,-0
 .00020084,-0.00074884,-0.00003276,0.00024130,0.00094446,-0.00006710,0.
 00226095,-0.00785202,-0.00018437,-0.00119582,-0.01465421,-0.00761350,0
 .03974874,0.00160127,-0.00033843,0.00110833,-0.08040268,-0.02883802,0.
 08591527,0.00000012,-0.00001974,0.00000420,-0.00003143,-0.00003744,-0.
 00001864,-0.00015977,-0.00002145,0.00001440,-0.00009857,-0.00009126,-0
 .00011277,0.00006644,-0.00009689,-0.00046605,0.00006695,0.00029394,-0.
 00000776,0.00114167,-0.00047933,-0.00042918,-0.00003011,0.00013305,-0.
 00017961,0.00046740,-0.00048708,-0.00038032,-0.00021840,0.00087453,-0.
 00100989,0.00515278,0.00360798,-0.01628528,0.09480590,0.00007073,0.000
 08561,0.00002675,-0.00058297,-0.00006620,0.00012156,0.00033812,0.00097
 372,0.00072948,-0.00141727,-0.00037466,0.00018913,0.00780430,-0.004120
 70,-0.00221097,-0.00030300,0.00071286,-0.00163433,-0.04746267,-0.03731
 277,0.09082230,-0.00004761,-0.00002020,0.00002358,-0.00004046,-0.00003
 878,-0.00002695,-0.00005216,-0.00000144,-0.00002076,-0.00002598,-0.000
 09139,-0.00004958,-0.00012876,0.00049151,-0.00055716,-0.00006235,0.000
 11215,0.00030294,-0.00046329,-0.00025252,0.00022078,0.00014673,-0.0001
 1805,-0.00015147,-0.00036396,0.00008479,0.00025683,0.00029038,0.000110
 31,0.00052675,0.00923886,0.00079212,-0.03074464,0.03306136,0.03903364,
 -0.00003390,-0.00001791,-0.00002891,0.00035693,-0.00009804,-0.00012775
 ,-0.00063176,-0.00011018,-0.00006884,0.00184512,0.00059109,0.00158864,
 -0.00297669,0.00408011,-0.00169346,-0.00180380,-0.00066759,0.00112049,
 0.10451338,0.04433665,-0.37359092,0.00002795,0.00000645,-0.00000889,0.
 00001109,0.00001615,0.00000934,0.00002892,-0.00000260,-0.00000562,0.00
 015529,0.00007158,0.00002503,-0.00013249,-0.00027595,0.00018705,-0.000
 26655,0.00001165,0.00033397,0.00022975,0.00004718,0.00048038,0.0001493
 3,-0.00008347,-0.00013499,-0.00038565,0.00033451,0.00004007,0.00034247
 ,-0.00047232,0.00017702,0.00757763,0.01005694,-0.02362683,-0.10900701,
 -0.05782424,0.39532421\\0.00000242,-0.00001154,0.00000533,-0.00000529,
 -0.00000061,0.00000171,0.00000911,0.00000956,0.00000059,-0.00000412,0.
 00000515,-0.00000560,-0.00000684,-0.00000093,-0.00000034,0.00001001,-0
 .00000485,0.00000326,0.00000651,-0.00000689,0.00000225,0.00000028,0.00
 000451,-0.00000241,-0.00000034,0.00000338,-0.00000162,-0.00000155,0.00
 000505,-0.00000146,-0.00000195,-0.00000363,-0.00000225,0.00000168,-0.0
 0000317,-0.00000098,0.00000061,-0.00000270,0.00000079,-0.00000398,0.00
 000120,0.00000094,-0.00000332,0.00000167,-0.00000075,-0.00000499,0.000
 00014,0.00000009,-0.00000068,-0.00000048,0.00000142,0.00000209,0.00000
 169,0.00000048,0.00000035,0.00000244,-0.00000145\\\@


 ASKING DUMB QUESTIONS IS EASIER THAN CORECTING DUMB MISTAKES.
 Job cpu time:       0 days  1 hours 26 minutes 15.8 seconds.
 Elapsed time:       0 days  0 hours 21 minutes 44.5 seconds.
 File lengths (MBytes):  RWF=     98 Int=      0 D2E=      0 Chk=      7 Scr=      1
 Normal termination of Gaussian 16 at Tue Jun  1 05:45:29 2021.
### All Done ###
