### Starting Gaussian ###
 Entering Gaussian System, Link 0=g16
 Initial command:
 /cluster/software/gaussian/gaussian-16-A.03/avx2/g16/l1.exe "/local/scratch/cz9n3/Gau-1748.inp" -scrdir="/local/scratch/cz9n3/"
 Entering Link 1 = /cluster/software/gaussian/gaussian-16-A.03/avx2/g16/l1.exe PID=      1749.
  
 Copyright (c) 1988,1990,1992,1993,1995,1998,2003,2009,2016,
            Gaussian, Inc.  All Rights Reserved.
  
 This is part of the Gaussian(R) 16 program.  It is based on
 the Gaussian(R) 09 system (copyright 2009, Gaussian, Inc.),
 the Gaussian(R) 03 system (copyright 2003, Gaussian, Inc.),
 the Gaussian(R) 98 system (copyright 1998, Gaussian, Inc.),
 the Gaussian(R) 94 system (copyright 1995, Gaussian, Inc.),
 the Gaussian 92(TM) system (copyright 1992, Gaussian, Inc.),
 the Gaussian 90(TM) system (copyright 1990, Gaussian, Inc.),
 the Gaussian 88(TM) system (copyright 1988, Gaussian, Inc.),
 the Gaussian 86(TM) system (copyright 1986, Carnegie Mellon
 University), and the Gaussian 82(TM) system (copyright 1983,
 Carnegie Mellon University). Gaussian is a federally registered
 trademark of Gaussian, Inc.
  
 This software contains proprietary and confidential information,
 including trade secrets, belonging to Gaussian, Inc.
  
 This software is provided under written license and may be
 used, copied, transmitted, or stored only in accord with that
 written license.
  
 The following legend is applicable only to US Government
 contracts under FAR:
  
                    RESTRICTED RIGHTS LEGEND
  
 Use, reproduction and disclosure by the US Government is
 subject to restrictions as set forth in subparagraphs (a)
 and (c) of the Commercial Computer Software - Restricted
 Rights clause in FAR 52.227-19.
  
 Gaussian, Inc.
 340 Quinnipiac St., Bldg. 40, Wallingford CT 06492
  
  
 ---------------------------------------------------------------
 Warning -- This program may not be used in any manner that
 competes with the business of Gaussian, Inc. or will provide
 assistance to any competitor of Gaussian, Inc.  The licensee
 of this program is prohibited from giving any competitor of
 Gaussian, Inc. access to this program.  By using this program,
 the user acknowledges that Gaussian, Inc. is engaged in the
 business of creating and licensing software in the field of
 computational chemistry and represents and warrants to the
 licensee that it is not a competitor of Gaussian, Inc. and that
 it will not use this program in any manner prohibited above.
 ---------------------------------------------------------------
  

 Cite this work as:
 Gaussian 16, Revision A.03,
 M. J. Frisch, G. W. Trucks, H. B. Schlegel, G. E. Scuseria, 
 M. A. Robb, J. R. Cheeseman, G. Scalmani, V. Barone, 
 G. A. Petersson, H. Nakatsuji, X. Li, M. Caricato, A. V. Marenich, 
 J. Bloino, B. G. Janesko, R. Gomperts, B. Mennucci, H. P. Hratchian, 
 J. V. Ortiz, A. F. Izmaylov, J. L. Sonnenberg, D. Williams-Young, 
 F. Ding, F. Lipparini, F. Egidi, J. Goings, B. Peng, A. Petrone, 
 T. Henderson, D. Ranasinghe, V. G. Zakrzewski, J. Gao, N. Rega, 
 G. Zheng, W. Liang, M. Hada, M. Ehara, K. Toyota, R. Fukuda, 
 J. Hasegawa, M. Ishida, T. Nakajima, Y. Honda, O. Kitao, H. Nakai, 
 T. Vreven, K. Throssell, J. A. Montgomery, Jr., J. E. Peralta, 
 F. Ogliaro, M. J. Bearpark, J. J. Heyd, E. N. Brothers, K. N. Kudin, 
 V. N. Staroverov, T. A. Keith, R. Kobayashi, J. Normand, 
 K. Raghavachari, A. P. Rendell, J. C. Burant, S. S. Iyengar, 
 J. Tomasi, M. Cossi, J. M. Millam, M. Klene, C. Adamo, R. Cammi, 
 J. W. Ochterski, R. L. Martin, K. Morokuma, O. Farkas, 
 J. B. Foresman, and D. J. Fox, Gaussian, Inc., Wallingford CT, 2016.
 
 ******************************************
 Gaussian 16:  ES64L-G16RevA.03 25-Dec-2016
                 1-Jun-2021 
 ******************************************
 %chk=CNdC1CCN1CNC.chk
 %NProcShared=20
 Will use up to   20 processors via shared memory.
 -----------------------------
 # opt freq b3lyp/6-31g(2df,p)
 -----------------------------
 1/18=20,19=15,26=3,38=1/1,3;
 2/9=110,12=2,17=6,18=5,40=1/2;
 3/5=1,6=6,7=104,11=2,25=1,30=1,71=1,74=-5/1,2,3;
 4//1;
 5/5=2,38=5/2;
 6/7=2,8=2,9=2,10=2,28=1/1;
 7//1,2,3,16;
 1/18=20,19=15,26=3/3(2);
 2/9=110/2;
 99//99;
 2/9=110/2;
 3/5=1,6=6,7=104,11=2,25=1,30=1,71=1,74=-5/1,2,3;
 4/5=5,16=3,69=1/1;
 5/5=2,38=5/2;
 7//1,2,3,16;
 1/18=20,19=15,26=3/3(-5);
 2/9=110/2;
 6/7=2,8=2,9=2,10=2,19=2,28=1/1;
 99/9=1/99;
 -------------------
 Title Card Required
 -------------------
 Symbolic Z-matrix:
 Charge =  0 Multiplicity = 1
 C                     1.18081  -0.08046  -0.04075 
 N                     2.63801  -0.03292  -0.05479 
 C                     3.2452   -0.86307   0.69607 
 C                     2.89983  -1.97333   1.66653 
 C                     4.32546  -1.71452   2.19001 
 N                     4.6011   -1.02376   0.96863 
 C                     5.83181  -0.82272   0.27108 
 N                     5.58327  -0.25409  -1.03166 
 C                     6.82275  -0.02431  -1.76797 
 H                     0.79889   0.65114  -0.76248 
 H                     0.77364   0.19951   0.93782 
 H                     0.78845  -1.05983  -0.33357 
 H                     2.7936   -2.95142   1.18502 
 H                     2.08162  -1.79918   2.36381 
 H                     4.99631  -2.53929   2.43885 
 H                     4.35063  -1.02349   3.04736 
 H                     6.32293  -1.79674   0.15988 
 H                     6.48323  -0.18008   0.87215 
 H                     5.09054   0.63156  -0.91526 
 H                     7.35154  -0.96321  -1.96634 
 H                     7.49718   0.65523  -1.23542 
 H                     6.59938   0.42945  -2.74001 
 

 GradGradGradGradGradGradGradGradGradGradGradGradGradGradGradGradGradGrad
 Berny optimization.
 Initialization pass.
                           ----------------------------
                           !    Initial Parameters    !
                           ! (Angstroms and Degrees)  !
 --------------------------                            --------------------------
 ! Name  Definition              Value          Derivative Info.                !
 --------------------------------------------------------------------------------
 ! R1    R(1,2)                  1.458          estimate D2E/DX2                !
 ! R2    R(1,10)                 1.0964         estimate D2E/DX2                !
 ! R3    R(1,11)                 1.0963         estimate D2E/DX2                !
 ! R4    R(1,12)                 1.0949         estimate D2E/DX2                !
 ! R5    R(2,3)                  1.2734         estimate D2E/DX2                !
 ! R6    R(3,4)                  1.5145         estimate D2E/DX2                !
 ! R7    R(3,6)                  1.3923         estimate D2E/DX2                !
 ! R8    R(4,5)                  1.5406         estimate D2E/DX2                !
 ! R9    R(4,13)                 1.0954         estimate D2E/DX2                !
 ! R10   R(4,14)                 1.089          estimate D2E/DX2                !
 ! R11   R(5,6)                  1.43           estimate D2E/DX2                !
 ! R12   R(5,15)                 1.0919         estimate D2E/DX2                !
 ! R13   R(5,16)                 1.1015         estimate D2E/DX2                !
 ! R14   R(6,7)                  1.4289         estimate D2E/DX2                !
 ! R15   R(7,8)                  1.443          estimate D2E/DX2                !
 ! R16   R(7,17)                 1.0965         estimate D2E/DX2                !
 ! R17   R(7,18)                 1.0948         estimate D2E/DX2                !
 ! R18   R(8,9)                  1.4599         estimate D2E/DX2                !
 ! R19   R(8,19)                 1.0202         estimate D2E/DX2                !
 ! R20   R(9,20)                 1.0957         estimate D2E/DX2                !
 ! R21   R(9,21)                 1.0956         estimate D2E/DX2                !
 ! R22   R(9,22)                 1.0957         estimate D2E/DX2                !
 ! A1    A(2,1,10)             108.6663         estimate D2E/DX2                !
 ! A2    A(2,1,11)             111.8065         estimate D2E/DX2                !
 ! A3    A(2,1,12)             112.6268         estimate D2E/DX2                !
 ! A4    A(10,1,11)            106.7277         estimate D2E/DX2                !
 ! A5    A(10,1,12)            107.2172         estimate D2E/DX2                !
 ! A6    A(11,1,12)            109.5157         estimate D2E/DX2                !
 ! A7    A(1,2,3)              116.7184         estimate D2E/DX2                !
 ! A8    A(2,3,4)              138.33           estimate D2E/DX2                !
 ! A9    A(2,3,6)              130.9199         estimate D2E/DX2                !
 ! A10   A(4,3,6)               90.6894         estimate D2E/DX2                !
 ! A11   A(3,4,5)               83.3129         estimate D2E/DX2                !
 ! A12   A(3,4,13)             113.2683         estimate D2E/DX2                !
 ! A13   A(3,4,14)             117.6696         estimate D2E/DX2                !
 ! A14   A(5,4,13)             112.9            estimate D2E/DX2                !
 ! A15   A(5,4,14)             116.7968         estimate D2E/DX2                !
 ! A16   A(13,4,14)            110.5723         estimate D2E/DX2                !
 ! A17   A(4,5,6)               88.2408         estimate D2E/DX2                !
 ! A18   A(4,5,15)             121.2713         estimate D2E/DX2                !
 ! A19   A(4,5,16)             113.0185         estimate D2E/DX2                !
 ! A20   A(6,5,15)             116.1743         estimate D2E/DX2                !
 ! A21   A(6,5,16)             110.9384         estimate D2E/DX2                !
 ! A22   A(15,5,16)            106.4075         estimate D2E/DX2                !
 ! A23   A(3,6,5)               92.0193         estimate D2E/DX2                !
 ! A24   A(3,6,7)              136.6341         estimate D2E/DX2                !
 ! A25   A(5,6,7)              130.6137         estimate D2E/DX2                !
 ! A26   A(6,7,8)              110.3544         estimate D2E/DX2                !
 ! A27   A(6,7,17)             108.0782         estimate D2E/DX2                !
 ! A28   A(6,7,18)             109.0903         estimate D2E/DX2                !
 ! A29   A(8,7,17)             109.6113         estimate D2E/DX2                !
 ! A30   A(8,7,18)             111.52           estimate D2E/DX2                !
 ! A31   A(17,7,18)            108.0953         estimate D2E/DX2                !
 ! A32   A(7,8,9)              111.7851         estimate D2E/DX2                !
 ! A33   A(7,8,19)             108.8013         estimate D2E/DX2                !
 ! A34   A(9,8,19)             109.3283         estimate D2E/DX2                !
 ! A35   A(8,9,20)             111.481          estimate D2E/DX2                !
 ! A36   A(8,9,21)             112.0319         estimate D2E/DX2                !
 ! A37   A(8,9,22)             109.848          estimate D2E/DX2                !
 ! A38   A(20,9,21)            108.8097         estimate D2E/DX2                !
 ! A39   A(20,9,22)            107.0156         estimate D2E/DX2                !
 ! A40   A(21,9,22)            107.4489         estimate D2E/DX2                !
 ! D1    D(10,1,2,3)          -177.4046         estimate D2E/DX2                !
 ! D2    D(11,1,2,3)            65.0543         estimate D2E/DX2                !
 ! D3    D(12,1,2,3)           -58.7655         estimate D2E/DX2                !
 ! D4    D(1,2,3,4)              0.4798         estimate D2E/DX2                !
 ! D5    D(1,2,3,6)           -175.7998         estimate D2E/DX2                !
 ! D6    D(2,3,4,5)           -159.6382         estimate D2E/DX2                !
 ! D7    D(2,3,4,13)            88.272          estimate D2E/DX2                !
 ! D8    D(2,3,4,14)           -42.8269         estimate D2E/DX2                !
 ! D9    D(6,3,4,5)             17.5512         estimate D2E/DX2                !
 ! D10   D(6,3,4,13)           -94.5387         estimate D2E/DX2                !
 ! D11   D(6,3,4,14)           134.3624         estimate D2E/DX2                !
 ! D12   D(2,3,6,5)            158.6907         estimate D2E/DX2                !
 ! D13   D(2,3,6,7)            -30.9324         estimate D2E/DX2                !
 ! D14   D(4,3,6,5)            -18.8366         estimate D2E/DX2                !
 ! D15   D(4,3,6,7)            151.5403         estimate D2E/DX2                !
 ! D16   D(3,4,5,6)            -17.0814         estimate D2E/DX2                !
 ! D17   D(3,4,5,15)          -136.9274         estimate D2E/DX2                !
 ! D18   D(3,4,5,16)            94.9684         estimate D2E/DX2                !
 ! D19   D(13,4,5,6)            95.3915         estimate D2E/DX2                !
 ! D20   D(13,4,5,15)          -24.4544         estimate D2E/DX2                !
 ! D21   D(13,4,5,16)         -152.5587         estimate D2E/DX2                !
 ! D22   D(14,4,5,6)          -134.765          estimate D2E/DX2                !
 ! D23   D(14,4,5,15)          105.3891         estimate D2E/DX2                !
 ! D24   D(14,4,5,16)          -22.7151         estimate D2E/DX2                !
 ! D25   D(4,5,6,3)             18.5137         estimate D2E/DX2                !
 ! D26   D(4,5,6,7)           -152.7893         estimate D2E/DX2                !
 ! D27   D(15,5,6,3)           142.8174         estimate D2E/DX2                !
 ! D28   D(15,5,6,7)           -28.4856         estimate D2E/DX2                !
 ! D29   D(16,5,6,3)           -95.5104         estimate D2E/DX2                !
 ! D30   D(16,5,6,7)            93.1866         estimate D2E/DX2                !
 ! D31   D(3,6,7,8)              3.1505         estimate D2E/DX2                !
 ! D32   D(3,6,7,17)          -116.6964         estimate D2E/DX2                !
 ! D33   D(3,6,7,18)           125.9992         estimate D2E/DX2                !
 ! D34   D(5,6,7,8)            170.437          estimate D2E/DX2                !
 ! D35   D(5,6,7,17)            50.5901         estimate D2E/DX2                !
 ! D36   D(5,6,7,18)           -66.7142         estimate D2E/DX2                !
 ! D37   D(6,7,8,9)            179.4932         estimate D2E/DX2                !
 ! D38   D(6,7,8,19)            58.6562         estimate D2E/DX2                !
 ! D39   D(17,7,8,9)           -61.5893         estimate D2E/DX2                !
 ! D40   D(17,7,8,19)          177.5737         estimate D2E/DX2                !
 ! D41   D(18,7,8,9)            58.0759         estimate D2E/DX2                !
 ! D42   D(18,7,8,19)          -62.7611         estimate D2E/DX2                !
 ! D43   D(7,8,9,20)            62.9277         estimate D2E/DX2                !
 ! D44   D(7,8,9,21)           -59.2833         estimate D2E/DX2                !
 ! D45   D(7,8,9,22)          -178.6226         estimate D2E/DX2                !
 ! D46   D(19,8,9,20)         -176.5422         estimate D2E/DX2                !
 ! D47   D(19,8,9,21)           61.2467         estimate D2E/DX2                !
 ! D48   D(19,8,9,22)          -58.0925         estimate D2E/DX2                !
 --------------------------------------------------------------------------------
 Trust Radius=3.00D-01 FncErr=1.00D-07 GrdErr=1.00D-06 EigMax=2.50D+02 EigMin=1.00D-04
 Number of steps in this run=    120 maximum allowed number of steps=    132.
 GradGradGradGradGradGradGradGradGradGradGradGradGradGradGradGradGradGrad

                          Input orientation:                          
 ---------------------------------------------------------------------
 Center     Atomic      Atomic             Coordinates (Angstroms)
 Number     Number       Type             X           Y           Z
 ---------------------------------------------------------------------
      1          6           0        1.180810   -0.080460   -0.040750
      2          7           0        2.638010   -0.032920   -0.054790
      3          6           0        3.245200   -0.863070    0.696070
      4          6           0        2.899830   -1.973330    1.666530
      5          6           0        4.325460   -1.714520    2.190010
      6          7           0        4.601100   -1.023760    0.968630
      7          6           0        5.831810   -0.822720    0.271080
      8          7           0        5.583270   -0.254090   -1.031660
      9          6           0        6.822750   -0.024310   -1.767970
     10          1           0        0.798890    0.651140   -0.762480
     11          1           0        0.773640    0.199510    0.937820
     12          1           0        0.788450   -1.059830   -0.333570
     13          1           0        2.793600   -2.951420    1.185020
     14          1           0        2.081620   -1.799180    2.363810
     15          1           0        4.996310   -2.539290    2.438850
     16          1           0        4.350630   -1.023490    3.047360
     17          1           0        6.322930   -1.796740    0.159880
     18          1           0        6.483230   -0.180080    0.872150
     19          1           0        5.090540    0.631560   -0.915260
     20          1           0        7.351540   -0.963210   -1.966340
     21          1           0        7.497180    0.655230   -1.235420
     22          1           0        6.599380    0.429450   -2.740010
 ---------------------------------------------------------------------
                    Distance matrix (angstroms):
                    1          2          3          4          5
     1  C    0.000000
     2  N    1.458043   0.000000
     3  C    2.327464   1.273428   0.000000
     4  C    3.074539   2.607045   1.514513   0.000000
     5  C    4.187513   3.273285   2.030711   1.540596   0.000000
     6  N    3.688773   2.425464   1.392327   2.069557   1.429999
     7  C    4.720168   3.306106   2.621602   3.444951   2.597439
     8  N    4.515939   3.110908   2.970266   4.175747   3.754211
     9  C    5.900672   4.521848   4.424237   5.566307   4.975829
    10  H    1.096356   2.085935   3.225621   4.147515   5.172063
    11  H    1.096253   2.124894   2.701135   3.126170   4.224561
    12  H    1.094923   2.133808   2.671047   3.048411   4.394032
    13  H    3.513690   3.174741   2.191853   1.095352   2.210548
    14  H    3.089881   3.046124   2.238655   1.089034   2.252153
    15  H    5.172263   4.249907   2.985529   2.304781   1.091882
    16  H    4.524764   3.679352   2.603128   2.216689   1.101456
    17  H    5.424691   4.090939   3.260623   3.744168   2.849223
    18  H    5.381354   3.958104   3.313958   4.085039   2.957572
    19  H    4.069119   2.682694   2.869771   4.272037   3.966376
    20  H    6.524190   5.170767   4.894945   5.834022   5.195851
    21  H    6.470317   5.047670   4.910725   6.038731   5.235369
    22  H    6.075106   4.807977   4.972703   6.235192   5.837158
                    6          7          8          9         10
     6  N    0.000000
     7  C    1.428860   0.000000
     8  N    2.357586   1.442998   0.000000
     9  C    3.663824   2.403569   1.459884   0.000000
    10  H    4.500981   5.345165   4.876699   6.144439   0.000000
    11  H    4.018307   5.203324   5.217005   6.630470   1.759439
    12  H    4.029060   5.085008   4.911909   6.288289   1.763942
    13  H    2.651368   3.820650   4.468950   5.789834   4.555224
    14  H    2.982546   4.404193   5.116451   6.534530   4.174105
    15  H    2.148155   2.888581   4.196558   5.230520   6.168119
    16  H    2.093765   3.153083   4.330102   5.504284   5.471209
    17  H    2.053357   1.096485   2.084858   2.666071   6.112109
    18  H    2.064829   1.094815   2.107107   2.666416   5.972827
    19  H    2.555128   2.017874   1.020151   2.039076   4.294413
    20  H    4.022765   2.708388   2.122088   1.095675   6.855117
    21  H    4.008007   2.688370   2.128716   1.095555   6.714967
    22  H    4.456339   3.350188   2.101943   1.095744   6.132329
                   11         12         13         14         15
    11  H    0.000000
    12  H    1.789578   0.000000
    13  H    3.750961   3.147198   0.000000
    14  H    2.781910   3.081361   1.795583   0.000000
    15  H    5.252148   5.251781   2.567854   3.008124   0.000000
    16  H    4.329058   4.911327   3.099930   2.493460   1.756370
    17  H    5.948514   5.605087   3.852320   4.779751   2.739526
    18  H    5.722571   5.887125   4.625104   4.921454   3.198648
    19  H    4.717648   4.659092   4.746036   5.070936   4.616625
    20  H    7.283875   6.763832   5.887178   6.871761   5.238018
    21  H    7.080723   6.982967   6.402353   6.950315   5.473533
    22  H    6.893370   6.463421   6.428072   7.171187   6.180926
                   16         17         18         19         20
    16  H    0.000000
    17  H    3.581260   0.000000
    18  H    3.160832   1.773870   0.000000
    19  H    4.357639   2.927687   2.406902   0.000000
    20  H    5.843482   2.504720   3.069899   2.959760   0.000000
    21  H    5.573247   3.055795   2.483483   2.427958   1.781798
    22  H    6.376642   3.666294   3.665067   2.376375   1.761764
                   21         22
    21  H    0.000000
    22  H    1.766582   0.000000
 Stoichiometry    C6H13N3
 Framework group  C1[X(C6H13N3)]
 Deg. of freedom    60
 Full point group                 C1      NOp   1
 Largest Abelian subgroup         C1      NOp   1
 Largest concise Abelian subgroup C1      NOp   1
                         Standard orientation:                         
 ---------------------------------------------------------------------
 Center     Atomic      Atomic             Coordinates (Angstroms)
 Number     Number       Type             X           Y           Z
 ---------------------------------------------------------------------
      1          6           0       -2.446916   -1.859967   -0.018381
      2          7           0       -1.127630   -1.275233   -0.226851
      3          6           0       -1.012104   -0.027462   -0.000265
      4          6           0       -1.881450    1.123956    0.460410
      5          6           0       -0.787911    1.980309   -0.206123
      6          7           0        0.067363    0.834742   -0.173269
      7          6           0        1.492065    0.738833   -0.121628
      8          7           0        1.894829   -0.625559    0.120153
      9          6           0        3.347621   -0.761396    0.167107
     10          1           0       -2.386087   -2.938641   -0.204814
     11          1           0       -3.185774   -1.459293   -0.722171
     12          1           0       -2.808955   -1.728116    1.006508
     13          1           0       -1.907291    1.237857    1.549518
     14          1           0       -2.884989    1.198066    0.043981
     15          1           0       -0.403293    2.882445    0.273904
     16          1           0       -1.032027    2.259662   -1.243221
     17          1           0        1.846680    1.377625    0.695974
     18          1           0        1.910866    1.121256   -1.058098
     19          1           0        1.524547   -1.214775   -0.625785
     20          1           0        3.777488   -0.189255    0.996789
     21          1           0        3.820920   -0.439056   -0.766876
     22          1           0        3.618148   -1.811061    0.327335
 ---------------------------------------------------------------------
 Rotational constants (GHZ):           2.4286650           1.0830793           0.7821097
 Standard basis: 6-31G(2df,p) (6D, 7F)
 There are   344 symmetry adapted cartesian basis functions of A   symmetry.
 There are   317 symmetry adapted basis functions of A   symmetry.
   317 basis functions,   487 primitive gaussians,   344 cartesian basis functions
    35 alpha electrons       35 beta electrons
       nuclear repulsion energy       466.9023402226 Hartrees.
 NAtoms=   22 NActive=   22 NUniq=   22 SFac= 1.00D+00 NAtFMM=   60 NAOKFM=F Big=F
 Integral buffers will be    131072 words long.
 Raffenetti 2 integral format.
 Two-electron integral symmetry is turned on.
 One-electron integrals computed using PRISM.
 PrsmSu:  requested number of processors reduced to:  13 ShMem   1 Linda.
 NBasis=   317 RedAO= T EigKep=  2.15D-04  NBF=   317
 NBsUse=   317 1.00D-06 EigRej= -1.00D+00 NBFU=   317
 ExpMin= 1.61D-01 ExpMax= 4.17D+03 ExpMxC= 6.27D+02 IAcc=3 IRadAn=         5 AccDes= 0.00D+00
 Harris functional with IExCor=  402 and IRadAn=       5 diagonalized for initial guess.
 HarFok:  IExCor=  402 AccDes= 0.00D+00 IRadAn=         5 IDoV= 1 UseB2=F ITyADJ=14
 ICtDFT=  3500011 ScaDFX=  1.000000  1.000000  1.000000  1.000000
 FoFCou: FMM=F IPFlag=           0 FMFlag=      100000 FMFlg1=           0
         NFxFlg=           0 DoJE=T BraDBF=F KetDBF=T FulRan=T
         wScrn=  0.000000 ICntrl=       500 IOpCl=  0 I1Cent=   200000004 NGrid=           0
         NMat0=    1 NMatS0=      1 NMatT0=    0 NMatD0=    1 NMtDS0=    0 NMtDT0=    0
 Petite list used in FoFCou.
 Requested convergence on RMS density matrix=1.00D-08 within 128 cycles.
 Requested convergence on MAX density matrix=1.00D-06.
 Requested convergence on             energy=1.00D-06.
 No special actions if energy rises.
 Integral accuracy reduced to 1.0D-05 until final iterations.
 Initial convergence to 1.0D-05 achieved.  Increase integral accuracy.
 SCF Done:  E(RB3LYP) =  -400.677506637     A.U. after   13 cycles
            NFock= 13  Conv=0.63D-08     -V/T= 2.0075

 **********************************************************************

            Population analysis using the SCF density.

 **********************************************************************

 Orbital symmetries:
       Occupied  (A) (A) (A) (A) (A) (A) (A) (A) (A) (A) (A) (A)
                 (A) (A) (A) (A) (A) (A) (A) (A) (A) (A) (A) (A)
                 (A) (A) (A) (A) (A) (A) (A) (A) (A) (A) (A)
       Virtual   (A) (A) (A) (A) (A) (A) (A) (A) (A) (A) (A) (A)
                 (A) (A) (A) (A) (A) (A) (A) (A) (A) (A) (A) (A)
                 (A) (A) (A) (A) (A) (A) (A) (A) (A) (A) (A) (A)
                 (A) (A) (A) (A) (A) (A) (A) (A) (A) (A) (A) (A)
                 (A) (A) (A) (A) (A) (A) (A) (A) (A) (A) (A) (A)
                 (A) (A) (A) (A) (A) (A) (A) (A) (A) (A) (A) (A)
                 (A) (A) (A) (A) (A) (A) (A) (A) (A) (A) (A) (A)
                 (A) (A) (A) (A) (A) (A) (A) (A) (A) (A) (A) (A)
                 (A) (A) (A) (A) (A) (A) (A) (A) (A) (A) (A) (A)
                 (A) (A) (A) (A) (A) (A) (A) (A) (A) (A) (A) (A)
                 (A) (A) (A) (A) (A) (A) (A) (A) (A) (A) (A) (A)
                 (A) (A) (A) (A) (A) (A) (A) (A) (A) (A) (A) (A)
                 (A) (A) (A) (A) (A) (A) (A) (A) (A) (A) (A) (A)
                 (A) (A) (A) (A) (A) (A) (A) (A) (A) (A) (A) (A)
                 (A) (A) (A) (A) (A) (A) (A) (A) (A) (A) (A) (A)
                 (A) (A) (A) (A) (A) (A) (A) (A) (A) (A) (A) (A)
                 (A) (A) (A) (A) (A) (A) (A) (A) (A) (A) (A) (A)
                 (A) (A) (A) (A) (A) (A) (A) (A) (A) (A) (A) (A)
                 (A) (A) (A) (A) (A) (A) (A) (A) (A) (A) (A) (A)
                 (A) (A) (A) (A) (A) (A) (A) (A) (A) (A) (A) (A)
                 (A) (A) (A) (A) (A) (A) (A) (A) (A) (A) (A) (A)
                 (A) (A) (A) (A) (A) (A) (A) (A) (A) (A) (A) (A)
                 (A) (A) (A) (A) (A) (A) (A) (A) (A) (A) (A) (A)
                 (A) (A) (A) (A) (A) (A)
 The electronic state is 1-A.
 Alpha  occ. eigenvalues --  -14.33196 -14.30924 -14.28123 -10.23759 -10.23754
 Alpha  occ. eigenvalues --  -10.22039 -10.19812 -10.19351 -10.18640  -0.98362
 Alpha  occ. eigenvalues --   -0.90134  -0.87072  -0.76694  -0.68820  -0.67235
 Alpha  occ. eigenvalues --   -0.63083  -0.62785  -0.53665  -0.49838  -0.48442
 Alpha  occ. eigenvalues --   -0.46275  -0.45534  -0.42650  -0.42153  -0.41227
 Alpha  occ. eigenvalues --   -0.40049  -0.38437  -0.37328  -0.36942  -0.35845
 Alpha  occ. eigenvalues --   -0.35632  -0.29772  -0.23127  -0.22135  -0.19442
 Alpha virt. eigenvalues --    0.03751   0.08691   0.10083   0.10603   0.13127
 Alpha virt. eigenvalues --    0.13512   0.14332   0.15672   0.16205   0.16708
 Alpha virt. eigenvalues --    0.17842   0.18273   0.18745   0.18985   0.20226
 Alpha virt. eigenvalues --    0.20309   0.21889   0.22307   0.25264   0.26404
 Alpha virt. eigenvalues --    0.29466   0.33147   0.37002   0.41325   0.44614
 Alpha virt. eigenvalues --    0.45273   0.47000   0.48643   0.49079   0.51191
 Alpha virt. eigenvalues --    0.53610   0.54685   0.55571   0.56010   0.57444
 Alpha virt. eigenvalues --    0.57985   0.60801   0.61969   0.63113   0.64542
 Alpha virt. eigenvalues --    0.66704   0.67824   0.69506   0.70885   0.72126
 Alpha virt. eigenvalues --    0.72427   0.72895   0.73475   0.74471   0.75242
 Alpha virt. eigenvalues --    0.75402   0.76031   0.77278   0.80135   0.80339
 Alpha virt. eigenvalues --    0.81477   0.81983   0.82604   0.84061   0.86120
 Alpha virt. eigenvalues --    0.87314   0.88452   0.89108   0.92220   0.93102
 Alpha virt. eigenvalues --    0.96306   0.98183   1.00820   1.06255   1.10034
 Alpha virt. eigenvalues --    1.12479   1.14099   1.14993   1.20859   1.23853
 Alpha virt. eigenvalues --    1.24361   1.26864   1.28582   1.29450   1.30798
 Alpha virt. eigenvalues --    1.32519   1.33917   1.35339   1.36542   1.39082
 Alpha virt. eigenvalues --    1.41317   1.42048   1.43451   1.45104   1.48388
 Alpha virt. eigenvalues --    1.51765   1.53979   1.55851   1.57940   1.59611
 Alpha virt. eigenvalues --    1.63112   1.64636   1.66337   1.70425   1.71101
 Alpha virt. eigenvalues --    1.72774   1.73521   1.75035   1.79091   1.81802
 Alpha virt. eigenvalues --    1.84466   1.86255   1.88092   1.90194   1.94324
 Alpha virt. eigenvalues --    1.96112   1.97969   2.00057   2.02303   2.06659
 Alpha virt. eigenvalues --    2.12053   2.15554   2.16447   2.19123   2.22258
 Alpha virt. eigenvalues --    2.28225   2.28571   2.30104   2.30469   2.31732
 Alpha virt. eigenvalues --    2.36716   2.39409   2.42423   2.44948   2.47309
 Alpha virt. eigenvalues --    2.47850   2.49958   2.55149   2.57483   2.60103
 Alpha virt. eigenvalues --    2.63626   2.68113   2.70258   2.72997   2.74402
 Alpha virt. eigenvalues --    2.79345   2.80353   2.80459   2.83015   2.84686
 Alpha virt. eigenvalues --    2.86581   2.88313   2.89806   2.91536   2.92450
 Alpha virt. eigenvalues --    2.94102   2.96016   2.96595   2.99381   3.00046
 Alpha virt. eigenvalues --    3.01458   3.02488   3.06820   3.07746   3.09882
 Alpha virt. eigenvalues --    3.11614   3.13699   3.15870   3.18572   3.20084
 Alpha virt. eigenvalues --    3.22840   3.26475   3.29381   3.32955   3.34819
 Alpha virt. eigenvalues --    3.35304   3.36429   3.40899   3.42336   3.44457
 Alpha virt. eigenvalues --    3.46428   3.48423   3.50747   3.53632   3.54822
 Alpha virt. eigenvalues --    3.56150   3.60511   3.63635   3.65050   3.65924
 Alpha virt. eigenvalues --    3.67183   3.68262   3.69832   3.70561   3.73423
 Alpha virt. eigenvalues --    3.79420   3.81326   3.85704   3.91459   3.93025
 Alpha virt. eigenvalues --    3.95008   3.98199   4.00070   4.02169   4.06053
 Alpha virt. eigenvalues --    4.07858   4.14434   4.15172   4.18084   4.18506
 Alpha virt. eigenvalues --    4.23817   4.28653   4.29285   4.32070   4.32622
 Alpha virt. eigenvalues --    4.35931   4.38150   4.41208   4.44209   4.44529
 Alpha virt. eigenvalues --    4.47053   4.47453   4.48819   4.49482   4.50318
 Alpha virt. eigenvalues --    4.52513   4.53709   4.55159   4.55323   4.56895
 Alpha virt. eigenvalues --    4.59163   4.62032   4.64470   4.65419   4.66649
 Alpha virt. eigenvalues --    4.69136   4.72404   4.72911   4.73632   4.76387
 Alpha virt. eigenvalues --    4.77538   4.78726   4.81731   4.83278   4.84850
 Alpha virt. eigenvalues --    4.86623   4.87708   4.88887   4.91829   4.94564
 Alpha virt. eigenvalues --    4.96756   4.97185   5.01777   5.03883   5.06883
 Alpha virt. eigenvalues --    5.09775   5.13084   5.15202   5.16223   5.21617
 Alpha virt. eigenvalues --    5.22447   5.23239   5.26788   5.34578   5.41876
 Alpha virt. eigenvalues --    5.48275   5.49730   5.52943   5.60222   5.67223
 Alpha virt. eigenvalues --    5.80727   5.86967   5.91156   6.05752   6.36886
 Alpha virt. eigenvalues --   10.50268  10.64300  11.23390  11.31808  11.45874
 Alpha virt. eigenvalues --   11.49645  11.53690  11.67522  12.11172  12.64194
 Alpha virt. eigenvalues --   16.68186  21.31476
          Condensed to atoms (all electrons):
               1          2          3          4          5          6
     1  C    4.943981   0.390990  -0.117867  -0.019735  -0.000315   0.004426
     2  N    0.390990   6.503621   0.645009  -0.099736   0.001371   0.006602
     3  C   -0.117867   0.645009   4.469129   0.362921  -0.111986   0.391248
     4  C   -0.019735  -0.099736   0.362921   5.172556   0.359214  -0.138985
     5  C   -0.000315   0.001371  -0.111986   0.359214   4.917213   0.397594
     6  N    0.004426   0.006602   0.391248  -0.138985   0.397594   6.184073
     7  C   -0.000226  -0.002606  -0.053899   0.018269  -0.059894   0.405458
     8  N    0.000199  -0.005198   0.002504  -0.000466   0.003368  -0.034444
     9  C   -0.000001   0.000016  -0.000059   0.000004  -0.000219   0.002932
    10  H    0.396654  -0.029350  -0.001724  -0.000152  -0.000017   0.000037
    11  H    0.360312  -0.033642   0.003170   0.004613   0.000234  -0.000228
    12  H    0.358664  -0.032449   0.000400   0.006482  -0.000034  -0.000431
    13  H    0.000541   0.001459  -0.004319   0.351976  -0.018160  -0.002446
    14  H    0.001407  -0.000429  -0.015213   0.352760  -0.023972   0.004798
    15  H    0.000014  -0.000446   0.003622  -0.013612   0.359820  -0.031469
    16  H    0.000058   0.001798   0.000842  -0.028270   0.354448  -0.035272
    17  H    0.000006  -0.000007   0.001621  -0.000674  -0.002790  -0.020766
    18  H    0.000013   0.000284   0.005221  -0.000418   0.000409  -0.046782
    19  H   -0.000401   0.009171   0.006105   0.000383   0.000113   0.000486
    20  H    0.000000  -0.000003  -0.000015  -0.000001  -0.000002   0.000252
    21  H    0.000000  -0.000005   0.000065  -0.000000   0.000011  -0.000230
    22  H   -0.000000   0.000008  -0.000011  -0.000000   0.000002  -0.000087
               7          8          9         10         11         12
     1  C   -0.000226   0.000199  -0.000001   0.396654   0.360312   0.358664
     2  N   -0.002606  -0.005198   0.000016  -0.029350  -0.033642  -0.032449
     3  C   -0.053899   0.002504  -0.000059  -0.001724   0.003170   0.000400
     4  C    0.018269  -0.000466   0.000004  -0.000152   0.004613   0.006482
     5  C   -0.059894   0.003368  -0.000219  -0.000017   0.000234  -0.000034
     6  N    0.405458  -0.034444   0.002932   0.000037  -0.000228  -0.000431
     7  C    4.808638   0.414841  -0.072250   0.000001  -0.000000   0.000013
     8  N    0.414841   6.331128   0.379096   0.000012  -0.000004  -0.000013
     9  C   -0.072250   0.379096   4.920394  -0.000000   0.000000  -0.000000
    10  H    0.000001   0.000012  -0.000000   0.594686  -0.039695  -0.037922
    11  H   -0.000000  -0.000004   0.000000  -0.039695   0.633982  -0.036183
    12  H    0.000013  -0.000013  -0.000000  -0.037922  -0.036183   0.634165
    13  H   -0.000237   0.000004  -0.000001   0.000008  -0.000474   0.001063
    14  H   -0.000418   0.000007  -0.000000  -0.000025   0.001419  -0.000071
    15  H   -0.000675   0.000075   0.000001  -0.000000   0.000005  -0.000002
    16  H    0.001235  -0.000112   0.000002   0.000001  -0.000118   0.000024
    17  H    0.331956  -0.018050  -0.004188  -0.000000   0.000001  -0.000002
    18  H    0.345984  -0.046128  -0.004405   0.000000  -0.000002   0.000001
    19  H   -0.050052   0.337336  -0.038595  -0.000051   0.000025   0.000028
    20  H   -0.003518  -0.025183   0.378427   0.000000  -0.000000  -0.000000
    21  H   -0.004582  -0.041875   0.364779   0.000000  -0.000000   0.000000
    22  H    0.004177  -0.021638   0.383802  -0.000000   0.000000  -0.000000
              13         14         15         16         17         18
     1  C    0.000541   0.001407   0.000014   0.000058   0.000006   0.000013
     2  N    0.001459  -0.000429  -0.000446   0.001798  -0.000007   0.000284
     3  C   -0.004319  -0.015213   0.003622   0.000842   0.001621   0.005221
     4  C    0.351976   0.352760  -0.013612  -0.028270  -0.000674  -0.000418
     5  C   -0.018160  -0.023972   0.359820   0.354448  -0.002790   0.000409
     6  N   -0.002446   0.004798  -0.031469  -0.035272  -0.020766  -0.046782
     7  C   -0.000237  -0.000418  -0.000675   0.001235   0.331956   0.345984
     8  N    0.000004   0.000007   0.000075  -0.000112  -0.018050  -0.046128
     9  C   -0.000001  -0.000000   0.000001   0.000002  -0.004188  -0.004405
    10  H    0.000008  -0.000025  -0.000000   0.000001  -0.000000   0.000000
    11  H   -0.000474   0.001419   0.000005  -0.000118   0.000001  -0.000002
    12  H    0.001063  -0.000071  -0.000002   0.000024  -0.000002   0.000001
    13  H    0.578289  -0.038066  -0.005901   0.004111   0.000071   0.000015
    14  H   -0.038066   0.606912   0.000960  -0.000804  -0.000026   0.000033
    15  H   -0.005901   0.000960   0.651631  -0.064032   0.007025  -0.002078
    16  H    0.004111  -0.000804  -0.064032   0.662908  -0.001088   0.002899
    17  H    0.000071  -0.000026   0.007025  -0.001088   0.670902  -0.074547
    18  H    0.000015   0.000033  -0.002078   0.002899  -0.074547   0.742484
    19  H   -0.000003  -0.000003   0.000033  -0.000022   0.007198  -0.009132
    20  H   -0.000000  -0.000000  -0.000000   0.000000   0.006679  -0.001847
    21  H    0.000000   0.000000  -0.000000   0.000000  -0.002236   0.015049
    22  H    0.000000   0.000000   0.000000  -0.000000  -0.000023  -0.000370
              19         20         21         22
     1  C   -0.000401   0.000000   0.000000  -0.000000
     2  N    0.009171  -0.000003  -0.000005   0.000008
     3  C    0.006105  -0.000015   0.000065  -0.000011
     4  C    0.000383  -0.000001  -0.000000  -0.000000
     5  C    0.000113  -0.000002   0.000011   0.000002
     6  N    0.000486   0.000252  -0.000230  -0.000087
     7  C   -0.050052  -0.003518  -0.004582   0.004177
     8  N    0.337336  -0.025183  -0.041875  -0.021638
     9  C   -0.038595   0.378427   0.364779   0.383802
    10  H   -0.000051   0.000000   0.000000  -0.000000
    11  H    0.000025  -0.000000  -0.000000   0.000000
    12  H    0.000028  -0.000000   0.000000  -0.000000
    13  H   -0.000003  -0.000000   0.000000   0.000000
    14  H   -0.000003  -0.000000   0.000000   0.000000
    15  H    0.000033  -0.000000  -0.000000   0.000000
    16  H   -0.000022   0.000000   0.000000  -0.000000
    17  H    0.007198   0.006679  -0.002236  -0.000023
    18  H   -0.009132  -0.001847   0.015049  -0.000370
    19  H    0.501891   0.005422  -0.006280  -0.002235
    20  H    0.005422   0.593357  -0.045115  -0.029160
    21  H   -0.006280  -0.045115   0.666525  -0.040489
    22  H   -0.002235  -0.029160  -0.040489   0.581915
 Mulliken charges:
               1
     1  C   -0.318722
     2  N   -0.356457
     3  C    0.413235
     4  C   -0.327131
     5  C   -0.176405
     6  N   -0.086769
     7  C   -0.082215
     8  N   -0.275458
     9  C   -0.309736
    10  H    0.117538
    11  H    0.106587
    12  H    0.106266
    13  H    0.132072
    14  H    0.110732
    15  H    0.095030
    16  H    0.101394
    17  H    0.098939
    18  H    0.073316
    19  H    0.238583
    20  H    0.120707
    21  H    0.094383
    22  H    0.124109
 Sum of Mulliken charges =  -0.00000
 Mulliken charges with hydrogens summed into heavy atoms:
               1
     1  C    0.011670
     2  N   -0.356457
     3  C    0.413235
     4  C   -0.084327
     5  C    0.020020
     6  N   -0.086769
     7  C    0.090041
     8  N   -0.036875
     9  C    0.029463
 Electronic spatial extent (au):  <R**2>=           1539.4935
 Charge=             -0.0000 electrons
 Dipole moment (field-independent basis, Debye):
    X=              0.1420    Y=              2.1663    Z=             -0.1089  Tot=              2.1737
 Quadrupole moment (field-independent basis, Debye-Ang):
   XX=            -50.1218   YY=            -55.0363   ZZ=            -55.7465
   XY=             -1.1796   XZ=             -1.3647   YZ=              0.9561
 Traceless Quadrupole moment (field-independent basis, Debye-Ang):
   XX=              3.5130   YY=             -1.4014   ZZ=             -2.1116
   XY=             -1.1796   XZ=             -1.3647   YZ=              0.9561
 Octapole moment (field-independent basis, Debye-Ang**2):
  XXX=              5.3538  YYY=              0.1241  ZZZ=              0.9789  XYY=              2.3015
  XXY=             -4.0903  XXZ=              0.7718  XZZ=             -0.0972  YZZ=              1.7568
  YYZ=             -0.1397  XYZ=              2.5234
 Hexadecapole moment (field-independent basis, Debye-Ang**3):
 XXXX=          -1335.8472 YYYY=           -598.1668 ZZZZ=           -105.2315 XXXY=            -12.6226
 XXXZ=             13.6553 YYYX=             -1.7313 YYYZ=              2.7570 ZZZX=             -3.3676
 ZZZY=              2.0120 XXYY=           -318.1769 XXZZ=           -239.8578 YYZZ=           -120.3314
 XXYZ=              3.0524 YYXZ=             -0.1232 ZZXY=             -1.3690
 N-N= 4.669023402226D+02 E-N=-1.864512033133D+03  KE= 3.976831895626D+02
 PrsmSu:  requested number of processors reduced to:  13 ShMem   1 Linda.
 Calling FoFJK, ICntrl=      2127 FMM=F ISym2X=0 I1Cent= 0 IOpClX= 0 NMat=1 NMatS=1 NMatT=0.
 ***** Axes restored to original set *****
 -------------------------------------------------------------------
 Center     Atomic                   Forces (Hartrees/Bohr)
 Number     Number              X              Y              Z
 -------------------------------------------------------------------
      1        6           0.003576504    0.004495581   -0.005398043
      2        7           0.007424679   -0.005197742    0.007875145
      3        6          -0.003278234    0.006509360   -0.029734362
      4        6          -0.008402730    0.003833308    0.017630399
      5        6           0.015589576   -0.010609030    0.019866357
      6        7          -0.012990234    0.009438314   -0.011937674
      7        6          -0.005203600    0.007769294   -0.000658484
      8        7           0.001239716   -0.000475653   -0.007244939
      9        6          -0.005024212    0.003399227   -0.002159668
     10        1           0.000275647   -0.001304765    0.000536609
     11        1          -0.001989150   -0.001864949    0.001602603
     12        1          -0.002526698   -0.002516360    0.001451762
     13        1           0.000748430    0.003067679   -0.000256629
     14        1          -0.003211921   -0.001272757    0.000712847
     15        1          -0.001229287   -0.007605217   -0.003299542
     16        1          -0.002761640   -0.002628565    0.002840362
     17        1           0.004900931   -0.001744739   -0.002318714
     18        1           0.009530933    0.002573919    0.006959688
     19        1          -0.001417961   -0.005822118   -0.001365290
     20        1          -0.001315982   -0.000847812    0.002476943
     21        1           0.007458620    0.001489527    0.001108696
     22        1          -0.001393386   -0.000686502    0.001311935
 -------------------------------------------------------------------
 Cartesian Forces:  Max     0.029734362 RMS     0.007075342

 GradGradGradGradGradGradGradGradGradGradGradGradGradGradGradGradGradGrad
 Berny optimization.
 FormGI is forming the generalized inverse of G from B-inverse, IUseBI=4.
 Internal  Forces:  Max     0.021357242 RMS     0.004181834
 Search for a local minimum.
 Step number   1 out of a maximum of  120
 All quantities printed in internal units (Hartrees-Bohrs-Radians)
 Mixed Optimization -- RFO/linear search
 Second derivative matrix not updated -- first step.
 ITU=  0
     Eigenvalues ---    0.00866   0.00900   0.00924   0.01123   0.01310
     Eigenvalues ---    0.01367   0.01500   0.03074   0.03366   0.03812
     Eigenvalues ---    0.04579   0.04735   0.05591   0.05605   0.06892
     Eigenvalues ---    0.06947   0.07119   0.07451   0.07573   0.08236
     Eigenvalues ---    0.08397   0.09596   0.09855   0.10179   0.10946
     Eigenvalues ---    0.13158   0.16000   0.16000   0.16000   0.16000
     Eigenvalues ---    0.16000   0.16000   0.21990   0.23021   0.23447
     Eigenvalues ---    0.23860   0.24908   0.25000   0.26961   0.29031
     Eigenvalues ---    0.33522   0.34074   0.34088   0.34100   0.34157
     Eigenvalues ---    0.34165   0.34179   0.34201   0.34250   0.34262
     Eigenvalues ---    0.34596   0.34925   0.36979   0.37210   0.38020
     Eigenvalues ---    0.39177   0.41154   0.42920   0.44314   0.75148
 RFO step:  Lambda=-1.51222172D-02 EMin= 8.65721512D-03
 Linear search not attempted -- first point.
 Iteration  1 RMS(Cart)=  0.09793155 RMS(Int)=  0.00434990
 Iteration  2 RMS(Cart)=  0.00628324 RMS(Int)=  0.00122263
 Iteration  3 RMS(Cart)=  0.00001853 RMS(Int)=  0.00122257
 Iteration  4 RMS(Cart)=  0.00000002 RMS(Int)=  0.00122257
 Variable       Old X    -DE/DX   Delta X   Delta X   Delta X     New X
                                 (Linear)    (Quad)   (Total)
    R1        2.75530   0.00068   0.00000   0.00177   0.00177   2.75707
    R2        2.07181  -0.00132   0.00000  -0.00371  -0.00371   2.06810
    R3        2.07162   0.00169   0.00000   0.00475   0.00475   2.07637
    R4        2.06910   0.00277   0.00000   0.00774   0.00774   2.07684
    R5        2.40643  -0.01097   0.00000  -0.01430  -0.01430   2.39213
    R6        2.86202   0.01354   0.00000   0.03742   0.03809   2.90011
    R7        2.63112   0.00004   0.00000   0.00106   0.00058   2.63170
    R8        2.91130   0.00735   0.00000   0.02077   0.02093   2.93223
    R9        2.06992  -0.00270   0.00000  -0.00756  -0.00756   2.06236
   R10        2.05798   0.00267   0.00000   0.00732   0.00732   2.06529
   R11        2.70231   0.02136   0.00000   0.05551   0.05509   2.75740
   R12        2.06336   0.00424   0.00000   0.01174   0.01174   2.07509
   R13        2.08145   0.00050   0.00000   0.00142   0.00142   2.08287
   R14        2.70015   0.00928   0.00000   0.02174   0.02174   2.72190
   R15        2.72687   0.00422   0.00000   0.01037   0.01037   2.73724
   R16        2.07206   0.00398   0.00000   0.01118   0.01118   2.08324
   R17        2.06890   0.01100   0.00000   0.03076   0.03076   2.09966
   R18        2.75878  -0.00109   0.00000  -0.00282  -0.00282   2.75596
   R19        1.92781  -0.00453   0.00000  -0.00988  -0.00988   1.91793
   R20        2.07052  -0.00036   0.00000  -0.00100  -0.00100   2.06952
   R21        2.07030   0.00605   0.00000   0.01696   0.01696   2.08726
   R22        2.07066  -0.00116   0.00000  -0.00326  -0.00326   2.06739
    A1        1.89659   0.00054   0.00000   0.00592   0.00587   1.90245
    A2        1.95139   0.00135   0.00000   0.00657   0.00654   1.95794
    A3        1.96571   0.00135   0.00000   0.00598   0.00596   1.97167
    A4        1.86275   0.00044   0.00000   0.00591   0.00585   1.86860
    A5        1.87129  -0.00020   0.00000   0.00089   0.00085   1.87214
    A6        1.91141  -0.00354   0.00000  -0.02502  -0.02503   1.88638
    A7        2.03712   0.00070   0.00000   0.00265   0.00265   2.03977
    A8        2.41431   0.00241   0.00000   0.00113   0.00243   2.41675
    A9        2.28498  -0.00186   0.00000  -0.01587  -0.01445   2.27053
   A10        1.58283  -0.00066   0.00000   0.01145   0.00612   1.58895
   A11        1.45408   0.00484   0.00000   0.03767   0.03244   1.48652
   A12        1.97690  -0.00610   0.00000  -0.05572  -0.05379   1.92311
   A13        2.05372   0.00270   0.00000   0.03330   0.03250   2.08622
   A14        1.97048  -0.00295   0.00000  -0.02958  -0.02869   1.94178
   A15        2.03849   0.00128   0.00000   0.03049   0.03092   2.06940
   A16        1.92985   0.00058   0.00000  -0.00940  -0.00966   1.92020
   A17        1.54009  -0.00538   0.00000  -0.00082  -0.00565   1.53445
   A18        2.11658   0.00041   0.00000  -0.01420  -0.01226   2.10432
   A19        1.97254  -0.00278   0.00000  -0.04331  -0.04298   1.92957
   A20        2.02762   0.00406   0.00000   0.02210   0.02311   2.05074
   A21        1.93624   0.00201   0.00000   0.01912   0.02078   1.95702
   A22        1.85716   0.00120   0.00000   0.01674   0.01467   1.87183
   A23        1.60604   0.00469   0.00000   0.04245   0.03702   1.64306
   A24        2.38472  -0.00325   0.00000  -0.02722  -0.02480   2.35992
   A25        2.27964  -0.00166   0.00000  -0.01947  -0.01691   2.26273
   A26        1.92605  -0.00205   0.00000  -0.00394  -0.00411   1.92193
   A27        1.88632   0.00425   0.00000   0.02391   0.02379   1.91011
   A28        1.90399   0.00000   0.00000   0.00893   0.00863   1.91261
   A29        1.91308  -0.00390   0.00000  -0.03622  -0.03604   1.87703
   A30        1.94639   0.00431   0.00000   0.03375   0.03369   1.98008
   A31        1.88662  -0.00259   0.00000  -0.02690  -0.02672   1.85990
   A32        1.95102   0.00050   0.00000   0.00605   0.00592   1.95694
   A33        1.89894  -0.00011   0.00000   0.00767   0.00745   1.90639
   A34        1.90814   0.00111   0.00000   0.01710   0.01695   1.92509
   A35        1.94571  -0.00518   0.00000  -0.03485  -0.03483   1.91088
   A36        1.95533   0.00714   0.00000   0.04355   0.04360   1.99892
   A37        1.91721  -0.00225   0.00000  -0.01034  -0.01067   1.90654
   A38        1.89909  -0.00203   0.00000  -0.01594  -0.01559   1.88350
   A39        1.86777   0.00244   0.00000   0.00832   0.00794   1.87571
   A40        1.87534  -0.00015   0.00000   0.00927   0.00902   1.88436
    D1       -3.09629   0.00052   0.00000   0.01329   0.01330  -3.08299
    D2        1.13541  -0.00116   0.00000  -0.00156  -0.00160   1.13381
    D3       -1.02565   0.00146   0.00000   0.02196   0.02198  -1.00367
    D4        0.00837  -0.00411   0.00000  -0.10114  -0.10134  -0.09296
    D5       -3.06828  -0.00085   0.00000  -0.00065  -0.00045  -3.06873
    D6       -2.78621  -0.00156   0.00000  -0.05743  -0.05818  -2.84439
    D7        1.54064  -0.00007   0.00000  -0.03822  -0.03725   1.50339
    D8       -0.74747   0.00280   0.00000   0.00158   0.00176  -0.74571
    D9        0.30633  -0.00410   0.00000  -0.13399  -0.13576   0.17057
   D10       -1.65001  -0.00261   0.00000  -0.11477  -0.11482  -1.76484
   D11        2.34507   0.00026   0.00000  -0.07497  -0.07582   2.26925
   D12        2.76967   0.00396   0.00000   0.08039   0.08092   2.85059
   D13       -0.53987   0.00267   0.00000   0.05353   0.05359  -0.48629
   D14       -0.32876   0.00601   0.00000   0.14708   0.14744  -0.18132
   D15        2.64488   0.00472   0.00000   0.12022   0.12011   2.76498
   D16       -0.29813   0.00636   0.00000   0.13640   0.13533  -0.16280
   D17       -2.38983   0.00498   0.00000   0.11463   0.11508  -2.27475
   D18        1.65751   0.00578   0.00000   0.15097   0.14996   1.80747
   D19        1.66490   0.00156   0.00000   0.08983   0.08866   1.75355
   D20       -0.42681   0.00019   0.00000   0.06806   0.06841  -0.35840
   D21       -2.66265   0.00098   0.00000   0.10439   0.10329  -2.55936
   D22       -2.35209   0.00068   0.00000   0.07562   0.07488  -2.27722
   D23        1.83939  -0.00069   0.00000   0.05386   0.05463   1.89402
   D24       -0.39645   0.00010   0.00000   0.09019   0.08951  -0.30694
   D25        0.32312  -0.00510   0.00000  -0.14242  -0.14372   0.17941
   D26       -2.66668  -0.00363   0.00000  -0.11633  -0.11703  -2.78371
   D27        2.49263  -0.00651   0.00000  -0.15267  -0.15432   2.33832
   D28       -0.49717  -0.00503   0.00000  -0.12658  -0.12763  -0.62480
   D29       -1.66697  -0.00020   0.00000  -0.09796  -0.09752  -1.76449
   D30        1.62641   0.00127   0.00000  -0.07187  -0.07084   1.55557
   D31        0.05499  -0.00295   0.00000  -0.05112  -0.05091   0.00407
   D32       -2.03674   0.00040   0.00000  -0.01937  -0.01903  -2.05576
   D33        2.19910   0.00110   0.00000  -0.00556  -0.00530   2.19380
   D34        2.97469  -0.00431   0.00000  -0.08276  -0.08310   2.89159
   D35        0.88296  -0.00096   0.00000  -0.05101  -0.05121   0.83176
   D36       -1.16438  -0.00025   0.00000  -0.03720  -0.03748  -1.20186
   D37        3.13275  -0.00019   0.00000  -0.01323  -0.01319   3.11956
   D38        1.02374  -0.00182   0.00000  -0.04358  -0.04355   0.98019
   D39       -1.07494   0.00136   0.00000  -0.00873  -0.00856  -1.08350
   D40        3.09925  -0.00027   0.00000  -0.03907  -0.03893   3.06032
   D41        1.01362  -0.00169   0.00000  -0.04467  -0.04485   0.96877
   D42       -1.09539  -0.00332   0.00000  -0.07501  -0.07522  -1.17061
   D43        1.09830  -0.00005   0.00000   0.00030  -0.00004   1.09826
   D44       -1.03469   0.00120   0.00000   0.01493   0.01511  -1.01958
   D45       -3.11755  -0.00170   0.00000  -0.01775  -0.01774  -3.13529
   D46       -3.08124   0.00088   0.00000   0.02528   0.02504  -3.05620
   D47        1.06896   0.00213   0.00000   0.03991   0.04019   1.10915
   D48       -1.01391  -0.00077   0.00000   0.00723   0.00735  -1.00656
         Item               Value     Threshold  Converged?
 Maximum Force            0.021357     0.000450     NO 
 RMS     Force            0.004182     0.000300     NO 
 Maximum Displacement     0.348265     0.001800     NO 
 RMS     Displacement     0.096924     0.001200     NO 
 Predicted change in Energy=-1.026639D-02
 GradGradGradGradGradGradGradGradGradGradGradGradGradGradGradGradGradGrad

                          Input orientation:                          
 ---------------------------------------------------------------------
 Center     Atomic      Atomic             Coordinates (Angstroms)
 Number     Number       Type             X           Y           Z
 ---------------------------------------------------------------------
      1          6           0        1.222166   -0.088724   -0.114754
      2          7           0        2.680774   -0.065154   -0.091862
      3          6           0        3.253920   -0.878612    0.690561
      4          6           0        2.868927   -1.900426    1.768936
      5          6           0        4.357335   -1.811792    2.198426
      6          7           0        4.605361   -1.036641    0.987331
      7          6           0        5.840721   -0.796800    0.286607
      8          7           0        5.569874   -0.261441   -1.031781
      9          6           0        6.794301    0.025844   -1.770123
     10          1           0        0.866217    0.616627   -0.872037
     11          1           0        0.787142    0.222106    0.845159
     12          1           0        0.813174   -1.076143   -0.370819
     13          1           0        2.646126   -2.865582    1.310806
     14          1           0        2.097821   -1.646705    2.500691
     15          1           0        4.950876   -2.723584    2.347259
     16          1           0        4.461292   -1.201662    3.110456
     17          1           0        6.378499   -1.749984    0.154209
     18          1           0        6.497549   -0.145348    0.902000
     19          1           0        5.007330    0.578569   -0.942338
     20          1           0        7.348478   -0.904309   -1.934572
     21          1           0        7.472383    0.741963   -1.272763
     22          1           0        6.535915    0.432268   -2.752432
 ---------------------------------------------------------------------
                    Distance matrix (angstroms):
                    1          2          3          4          5
     1  C    0.000000
     2  N    1.458978   0.000000
     3  C    2.323894   1.265858   0.000000
     4  C    3.089073   2.620342   1.534671   0.000000
     5  C    4.260170   3.332720   2.088541   1.551669   0.000000
     6  N    3.682275   2.410908   1.392637   2.090989   1.459153
     7  C    4.689724   3.265549   2.619429   3.499550   2.624060
     8  N    4.446722   3.044483   2.951441   4.222014   3.782601
     9  C    5.813954   4.443641   4.405372   5.625302   5.006505
    10  H    1.094394   2.089525   3.221581   4.161867   5.245271
    11  H    1.098769   2.132222   2.705637   3.113251   4.326008
    12  H    1.099018   2.141926   2.668855   3.079628   4.438837
    13  H    3.430864   3.132264   2.168448   1.091353   2.196948
    14  H    3.167748   3.092325   2.281031   1.092906   2.285612
    15  H    5.187223   4.262620   3.004701   2.312263   1.098092
    16  H    4.704524   3.836240   2.723600   2.196263   1.102209
    17  H    5.424012   4.070918   3.287850   3.866145   2.875369
    18  H    5.372771   3.944865   3.332193   4.122957   3.006372
    19  H    3.931621   2.559404   2.804315   4.250787   4.000089
    20  H    6.442719   5.087949   4.863887   5.897000   5.181905
    21  H    6.410635   5.000547   4.927102   6.117676   5.317362
    22  H    5.955226   4.710432   4.933974   6.271446   5.856023
                    6          7          8          9         10
     6  N    0.000000
     7  C    1.440365   0.000000
     8  N    2.368128   1.448487   0.000000
     9  C    3.677484   2.411680   1.458391   0.000000
    10  H    4.491296   5.299615   4.787579   6.024762   0.000000
    11  H    4.022866   5.185442   5.160547   6.554706   1.763707
    12  H    4.028252   5.078038   4.871017   6.240698   1.766212
    13  H    2.699678   3.941355   4.562627   5.921134   4.478690
    14  H    2.991688   4.431005   5.143196   6.564617   4.244386
    15  H    2.194211   2.958143   4.226490   5.283031   6.181045
    16  H    2.134397   3.168732   4.389886   5.547050   5.664891
    17  H    2.084939   1.102404   2.067898   2.651322   6.085991
    18  H    2.093338   1.111090   2.147921   2.693995   5.953126
    19  H    2.548353   2.023977   1.014925   2.045482   4.141884
    20  H    4.009953   2.686732   2.095649   1.095145   6.742547
    21  H    4.060944   2.731620   2.164355   1.104531   6.619495
    22  H    4.457641   3.351069   2.091676   1.094017   5.976232
                   11         12         13         14         15
    11  H    0.000000
    12  H    1.778969   0.000000
    13  H    3.634070   3.064256   0.000000
    14  H    2.819772   3.197096   1.789449   0.000000
    15  H    5.316961   5.217527   2.531061   3.053381   0.000000
    16  H    4.545114   5.044184   3.049951   2.481103   1.771555
    17  H    5.969072   5.630503   4.063605   4.882710   2.792038
    18  H    5.722499   5.899031   4.732891   4.916045   3.335907
    19  H    4.596976   4.544849   4.744904   5.027080   4.661421
    20  H    7.214350   6.721983   6.040794   6.913184   5.233769
    21  H    7.031947   6.961614   6.556063   6.987890   5.610042
    22  H    6.784926   6.379432   6.520443   7.184296   6.203112
                   16         17         18         19         20
    16  H    0.000000
    17  H    3.565913   0.000000
    18  H    3.184246   1.774322   0.000000
    19  H    4.460103   2.916277   2.479191   0.000000
    20  H    5.820359   2.453371   3.057163   2.943541   0.000000
    21  H    5.661886   3.072886   2.543071   2.492461   1.778639
    22  H    6.430182   3.638071   3.699997   2.373693   1.765104
                   21         22
    21  H    0.000000
    22  H    1.778286   0.000000
 Stoichiometry    C6H13N3
 Framework group  C1[X(C6H13N3)]
 Deg. of freedom    60
 Full point group                 C1      NOp   1
 Largest Abelian subgroup         C1      NOp   1
 Largest concise Abelian subgroup C1      NOp   1
                         Standard orientation:                         
 ---------------------------------------------------------------------
 Center     Atomic      Atomic             Coordinates (Angstroms)
 Number     Number       Type             X           Y           Z
 ---------------------------------------------------------------------
      1          6           0       -2.341458   -1.948849   -0.011812
      2          7           0       -1.052327   -1.293569   -0.205125
      3          6           0       -1.006967   -0.046411    0.006860
      4          6           0       -1.972721    1.097285    0.345228
      5          6           0       -0.823329    2.030180   -0.119832
      6          7           0        0.040488    0.855068   -0.165218
      7          6           0        1.478020    0.769538   -0.136250
      8          7           0        1.890753   -0.592256    0.134456
      9          6           0        3.342144   -0.734622    0.144360
     10          1           0       -2.221377   -3.025097   -0.169820
     11          1           0       -3.096104   -1.599753   -0.730097
     12          1           0       -2.745057   -1.810891    1.001063
     13          1           0       -2.119993    1.158852    1.424845
     14          1           0       -2.935746    1.158739   -0.167849
     15          1           0       -0.500395    2.872978    0.505637
     16          1           0       -1.032679    2.430665   -1.125143
     17          1           0        1.866940    1.402781    0.678021
     18          1           0        1.894554    1.178128   -1.081805
     19          1           0        1.481106   -1.209790   -0.559025
     20          1           0        3.763046   -0.129384    0.954219
     21          1           0        3.838606   -0.436263   -0.796116
     22          1           0        3.600567   -1.778388    0.345960
 ---------------------------------------------------------------------
 Rotational constants (GHZ):           2.3602462           1.1009560           0.7787910
 Standard basis: 6-31G(2df,p) (6D, 7F)
 There are   344 symmetry adapted cartesian basis functions of A   symmetry.
 There are   317 symmetry adapted basis functions of A   symmetry.
   317 basis functions,   487 primitive gaussians,   344 cartesian basis functions
    35 alpha electrons       35 beta electrons
       nuclear repulsion energy       465.3489750689 Hartrees.
 NAtoms=   22 NActive=   22 NUniq=   22 SFac= 1.00D+00 NAtFMM=   60 NAOKFM=F Big=F
 Integral buffers will be    131072 words long.
 Raffenetti 2 integral format.
 Two-electron integral symmetry is turned on.
 One-electron integrals computed using PRISM.
 PrsmSu:  requested number of processors reduced to:  13 ShMem   1 Linda.
 NBasis=   317 RedAO= T EigKep=  2.12D-04  NBF=   317
 NBsUse=   317 1.00D-06 EigRej= -1.00D+00 NBFU=   317
 Initial guess from the checkpoint file:  "CNdC1CCN1CNC.chk"
 B after Tr=    -0.000000   -0.000000   -0.000000
         Rot=    0.999931   -0.002598    0.002271   -0.011242 Ang=  -1.35 deg.
 ExpMin= 1.61D-01 ExpMax= 4.17D+03 ExpMxC= 6.27D+02 IAcc=2 IRadAn=         4 AccDes= 0.00D+00
 Harris functional with IExCor=  402 and IRadAn=       4 diagonalized for initial guess.
 HarFok:  IExCor=  402 AccDes= 0.00D+00 IRadAn=         4 IDoV= 1 UseB2=F ITyADJ=14
 ICtDFT=  3500011 ScaDFX=  1.000000  1.000000  1.000000  1.000000
 FoFCou: FMM=F IPFlag=           0 FMFlag=      100000 FMFlg1=           0
         NFxFlg=           0 DoJE=T BraDBF=F KetDBF=T FulRan=T
         wScrn=  0.000000 ICntrl=       500 IOpCl=  0 I1Cent=   200000004 NGrid=           0
         NMat0=    1 NMatS0=      1 NMatT0=    0 NMatD0=    1 NMtDS0=    0 NMtDT0=    0
 Petite list used in FoFCou.
 Requested convergence on RMS density matrix=1.00D-08 within 128 cycles.
 Requested convergence on MAX density matrix=1.00D-06.
 Requested convergence on             energy=1.00D-06.
 No special actions if energy rises.
 Integral accuracy reduced to 1.0D-05 until final iterations.
 Initial convergence to 1.0D-05 achieved.  Increase integral accuracy.
 SCF Done:  E(RB3LYP) =  -400.686661957     A.U. after   11 cycles
            NFock= 11  Conv=0.10D-07     -V/T= 2.0080
 PrsmSu:  requested number of processors reduced to:  13 ShMem   1 Linda.
 Calling FoFJK, ICntrl=      2127 FMM=F ISym2X=0 I1Cent= 0 IOpClX= 0 NMat=1 NMatS=1 NMatT=0.
 ***** Axes restored to original set *****
 -------------------------------------------------------------------
 Center     Atomic                   Forces (Hartrees/Bohr)
 Number     Number              X              Y              Z
 -------------------------------------------------------------------
      1        6           0.001951888    0.001388563   -0.002248436
      2        7          -0.000996645   -0.003037500   -0.000947447
      3        6           0.004438219    0.006371982    0.000842088
      4        6           0.000873861   -0.002977236   -0.000417394
      5        6           0.002161845    0.004874566    0.008882705
      6        7          -0.006122294   -0.005029171   -0.000475671
      7        6          -0.001759163    0.004003889   -0.001331313
      8        7           0.004985687    0.001634876   -0.000159717
      9        6          -0.002758747    0.000190093   -0.000513548
     10        1           0.000145624   -0.000442147    0.000131916
     11        1          -0.000663459   -0.000574010    0.000705199
     12        1          -0.000378859   -0.000373291    0.000643066
     13        1          -0.002612699   -0.001526372    0.000621942
     14        1           0.001355956    0.001327959   -0.001325481
     15        1          -0.003293393   -0.001571503   -0.006035418
     16        1           0.002758651   -0.001416916   -0.000445808
     17        1           0.000751572   -0.000442790    0.001288542
     18        1           0.000653255    0.000186077    0.000427815
     19        1          -0.002884068   -0.001832557   -0.000782094
     20        1           0.000834325   -0.000434740    0.000195652
     21        1           0.000693002   -0.000400312    0.000552381
     22        1          -0.000134556    0.000080540    0.000391022
 -------------------------------------------------------------------
 Cartesian Forces:  Max     0.008882705 RMS     0.002502976

 GradGradGradGradGradGradGradGradGradGradGradGradGradGradGradGradGradGrad
 Berny optimization.
 Using GEDIIS/GDIIS optimizer.
 FormGI is forming the generalized inverse of G from B-inverse, IUseBI=4.
 Internal  Forces:  Max     0.003738967 RMS     0.001114789
 Search for a local minimum.
 Step number   2 out of a maximum of  120
 All quantities printed in internal units (Hartrees-Bohrs-Radians)
 Mixed Optimization -- RFO/linear search
 Update second derivatives using D2CorX and points    1    2
 DE= -9.16D-03 DEPred=-1.03D-02 R= 8.92D-01
 TightC=F SS=  1.41D+00  RLast= 5.82D-01 DXNew= 5.0454D-01 1.7449D+00
 Trust test= 8.92D-01 RLast= 5.82D-01 DXMaxT set to 5.05D-01
 ITU=  1  0
 Use linear search instead of GDIIS.
     Eigenvalues ---    0.00893   0.00900   0.00925   0.01101   0.01271
     Eigenvalues ---    0.01445   0.01493   0.02911   0.03347   0.04050
     Eigenvalues ---    0.04654   0.04903   0.05470   0.05581   0.06846
     Eigenvalues ---    0.06938   0.07163   0.07521   0.07645   0.08166
     Eigenvalues ---    0.08984   0.09541   0.09957   0.10072   0.11090
     Eigenvalues ---    0.13059   0.15903   0.16000   0.16000   0.16000
     Eigenvalues ---    0.16000   0.16094   0.21963   0.22788   0.23357
     Eigenvalues ---    0.23584   0.24485   0.24992   0.27143   0.28851
     Eigenvalues ---    0.33496   0.33727   0.34084   0.34093   0.34121
     Eigenvalues ---    0.34158   0.34170   0.34202   0.34250   0.34303
     Eigenvalues ---    0.34679   0.35047   0.36898   0.37202   0.38216
     Eigenvalues ---    0.39175   0.41001   0.43807   0.44347   0.74851
 RFO step:  Lambda=-4.26312197D-03 EMin= 8.92747162D-03
 Quartic linear search produced a step of  0.32491.
 Iteration  1 RMS(Cart)=  0.09370296 RMS(Int)=  0.00467384
 Iteration  2 RMS(Cart)=  0.00595331 RMS(Int)=  0.00072092
 Iteration  3 RMS(Cart)=  0.00001319 RMS(Int)=  0.00072084
 Iteration  4 RMS(Cart)=  0.00000001 RMS(Int)=  0.00072084
 Variable       Old X    -DE/DX   Delta X   Delta X   Delta X     New X
                                 (Linear)    (Quad)   (Total)
    R1        2.75707  -0.00104   0.00057  -0.00390  -0.00332   2.75375
    R2        2.06810  -0.00042  -0.00120  -0.00071  -0.00192   2.06619
    R3        2.07637   0.00072   0.00154   0.00155   0.00309   2.07946
    R4        2.07684   0.00033   0.00251  -0.00056   0.00196   2.07880
    R5        2.39213  -0.00092  -0.00465   0.00165  -0.00300   2.38912
    R6        2.90011   0.00181   0.01238  -0.00320   0.00923   2.90934
    R7        2.63170  -0.00374   0.00019  -0.01184  -0.01200   2.61970
    R8        2.93223   0.00060   0.00680   0.00070   0.00777   2.94000
    R9        2.06236   0.00162  -0.00246   0.00762   0.00516   2.06752
   R10        2.06529  -0.00154   0.00238  -0.00714  -0.00476   2.06053
   R11        2.75740  -0.00015   0.01790  -0.01161   0.00628   2.76368
   R12        2.07509  -0.00129   0.00381  -0.00731  -0.00350   2.07160
   R13        2.08287  -0.00089   0.00046  -0.00364  -0.00318   2.07969
   R14        2.72190   0.00079   0.00706  -0.00248   0.00458   2.72648
   R15        2.73724  -0.00013   0.00337  -0.00275   0.00062   2.73787
   R16        2.08324   0.00059   0.00363  -0.00035   0.00329   2.08653
   R17        2.09966   0.00073   0.00999  -0.00428   0.00572   2.10537
   R18        2.75596  -0.00157  -0.00092  -0.00468  -0.00560   2.75036
   R19        1.91793   0.00001  -0.00321   0.00225  -0.00096   1.91697
   R20        2.06952   0.00076  -0.00033   0.00301   0.00268   2.07221
   R21        2.08726   0.00041   0.00551  -0.00232   0.00319   2.09046
   R22        2.06739  -0.00029  -0.00106  -0.00032  -0.00138   2.06601
    A1        1.90245   0.00019   0.00191   0.00165   0.00353   1.90598
    A2        1.95794   0.00043   0.00213   0.00133   0.00343   1.96137
    A3        1.97167   0.00002   0.00194  -0.00233  -0.00041   1.97126
    A4        1.86860   0.00029   0.00190   0.00301   0.00487   1.87347
    A5        1.87214   0.00008   0.00028   0.00126   0.00151   1.87365
    A6        1.88638  -0.00102  -0.00813  -0.00463  -0.01277   1.87361
    A7        2.03977   0.00108   0.00086   0.00475   0.00561   2.04538
    A8        2.41675   0.00033   0.00079  -0.00065   0.00127   2.41802
    A9        2.27053   0.00019  -0.00470   0.00452   0.00103   2.27156
   A10        1.58895  -0.00042   0.00199   0.00141  -0.00003   1.58892
   A11        1.48652  -0.00036   0.01054   0.00068   0.00826   1.49479
   A12        1.92311   0.00008  -0.01748   0.01949   0.00308   1.92620
   A13        2.08622  -0.00000   0.01056  -0.02252  -0.01205   2.07417
   A14        1.94178   0.00080  -0.00932   0.01945   0.01056   1.95235
   A15        2.06940   0.00024   0.01005  -0.00803   0.00265   2.07206
   A16        1.92020  -0.00059  -0.00314  -0.00458  -0.00807   1.91212
   A17        1.53445  -0.00114  -0.00183  -0.00020  -0.00539   1.52905
   A18        2.10432  -0.00227  -0.00399  -0.03694  -0.04042   2.06390
   A19        1.92957   0.00230  -0.01396   0.04806   0.03447   1.96404
   A20        2.05074  -0.00012   0.00751  -0.03601  -0.02901   2.02172
   A21        1.95702   0.00012   0.00675   0.00438   0.01207   1.96909
   A22        1.87183   0.00094   0.00477   0.02008   0.02453   1.89635
   A23        1.64306   0.00199   0.01203   0.00924   0.01819   1.66125
   A24        2.35992  -0.00158  -0.00806  -0.00455  -0.01117   2.34874
   A25        2.26273  -0.00039  -0.00549  -0.00267  -0.00668   2.25606
   A26        1.92193   0.00081  -0.00134   0.00704   0.00563   1.92756
   A27        1.91011   0.00023   0.00773  -0.00196   0.00573   1.91584
   A28        1.91261  -0.00109   0.00280  -0.01227  -0.00960   1.90302
   A29        1.87703  -0.00029  -0.01171   0.00903  -0.00263   1.87440
   A30        1.98008   0.00073   0.01095   0.00019   0.01113   1.99121
   A31        1.85990  -0.00040  -0.00868  -0.00200  -0.01061   1.84929
   A32        1.95694  -0.00004   0.00192   0.00398   0.00562   1.96256
   A33        1.90639   0.00013   0.00242   0.01082   0.01278   1.91917
   A34        1.92509   0.00093   0.00551   0.01691   0.02208   1.94717
   A35        1.91088   0.00032  -0.01132   0.00993  -0.00139   1.90949
   A36        1.99892  -0.00006   0.01417  -0.01167   0.00251   2.00143
   A37        1.90654  -0.00015  -0.00347   0.00292  -0.00066   1.90587
   A38        1.88350  -0.00064  -0.00507  -0.00426  -0.00921   1.87428
   A39        1.87571   0.00024   0.00258   0.00232   0.00477   1.88049
   A40        1.88436   0.00030   0.00293   0.00136   0.00420   1.88856
    D1       -3.08299   0.00029   0.00432   0.00896   0.01330  -3.06969
    D2        1.13381  -0.00046  -0.00052   0.00334   0.00279   1.13661
    D3       -1.00367   0.00054   0.00714   0.01019   0.01734  -0.98632
    D4       -0.09296  -0.00028  -0.03293   0.01808  -0.01507  -0.10803
    D5       -3.06873  -0.00136  -0.00015  -0.04476  -0.04468  -3.11341
    D6       -2.84439  -0.00104  -0.01890  -0.07992  -0.09899  -2.94339
    D7        1.50339  -0.00177  -0.01210  -0.10188  -0.11347   1.38992
    D8       -0.74571  -0.00098   0.00057  -0.09416  -0.09376  -0.83947
    D9        0.17057  -0.00020  -0.04411  -0.03163  -0.07636   0.09421
   D10       -1.76484  -0.00092  -0.03731  -0.05359  -0.09083  -1.85567
   D11        2.26925  -0.00014  -0.02463  -0.04587  -0.07112   2.19813
   D12        2.85059   0.00090   0.02629   0.07399   0.10060   2.95120
   D13       -0.48629   0.00115   0.01741   0.08540   0.10291  -0.38337
   D14       -0.18132   0.00015   0.04790   0.03272   0.08097  -0.10036
   D15        2.76498   0.00039   0.03902   0.04413   0.08328   2.84826
   D16       -0.16280   0.00041   0.04397   0.03021   0.07345  -0.08935
   D17       -2.27475   0.00202   0.03739   0.08520   0.12223  -2.15253
   D18        1.80747   0.00036   0.04872   0.04055   0.08870   1.89617
   D19        1.75355   0.00040   0.02881   0.05239   0.08062   1.83417
   D20       -0.35840   0.00201   0.02223   0.10738   0.12940  -0.22900
   D21       -2.55936   0.00035   0.03356   0.06273   0.09587  -2.46350
   D22       -2.27722   0.00056   0.02433   0.05783   0.08199  -2.19523
   D23        1.89402   0.00218   0.01775   0.11282   0.13076   2.02478
   D24       -0.30694   0.00052   0.02908   0.06817   0.09723  -0.20971
   D25        0.17941  -0.00006  -0.04670  -0.03261  -0.08003   0.09938
   D26       -2.78371  -0.00006  -0.03803  -0.04259  -0.08113  -2.86484
   D27        2.33832  -0.00343  -0.05014  -0.08678  -0.13741   2.20091
   D28       -0.62480  -0.00343  -0.04147  -0.09677  -0.13851  -0.76331
   D29       -1.76449  -0.00209  -0.03169  -0.08525  -0.11682  -1.88132
   D30        1.55557  -0.00209  -0.02302  -0.09523  -0.11792   1.43765
   D31        0.00407  -0.00161  -0.01654  -0.07749  -0.09380  -0.08973
   D32       -2.05576  -0.00187  -0.00618  -0.09152  -0.09745  -2.15321
   D33        2.19380  -0.00089  -0.00172  -0.08097  -0.08248   2.11132
   D34        2.89159  -0.00116  -0.02700  -0.06176  -0.08898   2.80261
   D35        0.83176  -0.00142  -0.01664  -0.07578  -0.09264   0.73912
   D36       -1.20186  -0.00044  -0.01218  -0.06523  -0.07766  -1.27953
   D37        3.11956  -0.00056  -0.00428  -0.04973  -0.05396   3.06560
   D38        0.98019  -0.00180  -0.01415  -0.08156  -0.09571   0.88448
   D39       -1.08350   0.00000  -0.00278  -0.04272  -0.04541  -1.12891
   D40        3.06032  -0.00124  -0.01265  -0.07455  -0.08716   2.97315
   D41        0.96877  -0.00026  -0.01457  -0.03917  -0.05380   0.91496
   D42       -1.17061  -0.00151  -0.02444  -0.07100  -0.09555  -1.26616
   D43        1.09826  -0.00056  -0.00001  -0.00681  -0.00702   1.09124
   D44       -1.01958   0.00007   0.00491  -0.00064   0.00424  -1.01534
   D45       -3.13529  -0.00016  -0.00576   0.00340  -0.00244  -3.13773
   D46       -3.05620   0.00024   0.00814   0.02180   0.02994  -3.02626
   D47        1.10915   0.00087   0.01306   0.02797   0.04120   1.15035
   D48       -1.00656   0.00063   0.00239   0.03202   0.03452  -0.97204
         Item               Value     Threshold  Converged?
 Maximum Force            0.003739     0.000450     NO 
 RMS     Force            0.001115     0.000300     NO 
 Maximum Displacement     0.290551     0.001800     NO 
 RMS     Displacement     0.093335     0.001200     NO 
 Predicted change in Energy=-2.903412D-03
 GradGradGradGradGradGradGradGradGradGradGradGradGradGradGradGradGradGrad

                          Input orientation:                          
 ---------------------------------------------------------------------
 Center     Atomic      Atomic             Coordinates (Angstroms)
 Number     Number       Type             X           Y           Z
 ---------------------------------------------------------------------
      1          6           0        1.252072   -0.090728   -0.157120
      2          7           0        2.708382   -0.079294   -0.106866
      3          6           0        3.264418   -0.866378    0.711485
      4          6           0        2.859020   -1.839691    1.833336
      5          6           0        4.374313   -1.880231    2.183608
      6          7           0        4.607384   -1.053552    0.999920
      7          6           0        5.840017   -0.791848    0.297234
      8          7           0        5.566817   -0.313084   -1.042623
      9          6           0        6.778471    0.061111   -1.756868
     10          1           0        0.914393    0.578737   -0.952900
     11          1           0        0.797715    0.260269    0.781630
     12          1           0        0.838103   -1.087587   -0.369298
     13          1           0        2.513487   -2.787081    1.408975
     14          1           0        2.154330   -1.501753    2.593701
     15          1           0        4.878771   -2.853458    2.193506
     16          1           0        4.604188   -1.355044    3.123020
     17          1           0        6.421134   -1.725847    0.201945
     18          1           0        6.466827   -0.102054    0.907600
     19          1           0        4.902802    0.453026   -1.007933
     20          1           0        7.418321   -0.821391   -1.876185
     21          1           0        7.383509    0.843599   -1.261523
     22          1           0        6.511708    0.416752   -2.755684
 ---------------------------------------------------------------------
                    Distance matrix (angstroms):
                    1          2          3          4          5
     1  C    0.000000
     2  N    1.457221   0.000000
     3  C    2.325004   1.264269   0.000000
     4  C    3.098881   2.624133   1.539556   0.000000
     5  C    4.292985   3.356333   2.104022   1.555779   0.000000
     6  N    3.677484   2.404239   1.386285   2.090305   1.462477
     7  C    4.663394   3.237000   2.609764   3.513392   2.625123
     8  N    4.410281   3.016778   2.946875   4.234836   3.779759
     9  C    5.755287   4.394069   4.393355   5.644883   5.007608
    10  H    1.093378   2.089778   3.221980   4.170549   5.277808
    11  H    1.100405   2.134333   2.712725   3.124883   4.397651
    12  H    1.100054   2.140903   2.665338   3.082427   4.432876
    13  H    3.363650   3.109320   2.177037   1.094086   2.210228
    14  H    3.220571   3.102165   2.275683   1.090388   2.289050
    15  H    5.129431   4.206933   2.958210   2.288415   1.096242
    16  H    4.857416   3.956487   2.801656   2.223461   1.100527
    17  H    5.433391   4.073209   3.311069   3.919574   2.853121
    18  H    5.322352   3.893016   3.298193   4.110066   3.027991
    19  H    3.787793   2.431206   2.716897   4.184066   3.988650
    20  H    6.442955   5.085737   4.894177   5.965291   5.183536
    21  H    6.299777   4.903242   4.876853   6.103212   5.323856
[...]
 02084960,0.01376840,0.08168686,0.22468236,0.03850994,0.08849051,-0.100
 50514,0.00124553,-0.00248154,0.00520499,-0.00213427,-0.00139894,0.0007
 7500,0.00058723,0.00016525,-0.00036442,0.00016537,-0.00023249,-0.00017
 456,0.00055632,-0.00014327,0.00025572,-0.00005686,-0.00004776,0.000102
 98,0.00002397,-0.00005739,-0.00004782,-0.00003147,0.00000429,0.0000057
 0,0.01062108,0.02651220,-0.01279349,-0.00524683,-0.01120703,0.00635225
 ,-0.04403438,-0.09974851,0.10140408,0.00029967,-0.00023509,-0.00007307
 ,0.00052618,-0.00002928,-0.00093714,-0.00382509,-0.00029133,0.00257558
 ,-0.10958940,-0.08751438,-0.07466956,-0.00855751,-0.01840101,-0.016686
 84,-0.00300352,-0.00140932,0.00227855,0.00045633,-0.00083462,-0.000137
 75,0.00002667,0.00011682,0.00010399,0.00006544,0.00004466,0.00005515,0
 .00001266,0.00010383,-0.00006494,0.00003699,-0.00014932,0.00015362,-0.
 00020266,0.00044308,-0.00000011,0.11793318,-0.00046954,-0.00075403,-0.
 00043455,-0.00082174,0.00172810,0.00392271,-0.01082948,-0.01281188,-0.
 02030497,-0.08902925,-0.17068242,-0.10476250,0.00455586,0.00563019,0.0
 0746929,-0.00241371,-0.00315024,0.00306434,-0.00023444,0.00115093,-0.0
 0031001,-0.00041444,-0.00000057,0.00025892,0.00011549,0.00006368,0.000
 09405,0.00013970,0.00007188,-0.00001688,0.00038076,0.00029577,-0.00018
 980,0.00096445,-0.00022427,-0.00034195,0.09869937,0.17884929,-0.000645
 25,-0.00016692,0.00083545,0.00069720,-0.00112102,-0.00207509,0.0064743
 9,0.00913913,0.01177968,-0.07469898,-0.10185600,-0.12984160,0.00123938
 ,0.00017981,-0.00256551,0.00222993,0.00105451,-0.00170404,0.00088426,0
 .00002352,-0.00034927,-0.00006043,-0.00004863,0.00008526,0.00003613,-0
 .00003763,-0.00006659,0.00004284,0.00013899,-0.00012025,-0.00012139,-0
 .00006957,0.00001786,-0.00019340,0.00053304,-0.00006367,0.07887636,0.1
 1208617,0.13731889,0.00033450,-0.00011346,0.00032560,0.00042942,0.0014
 0326,0.00056312,-0.00345850,-0.00179268,-0.00157460,-0.09360672,0.0111
 6658,0.10320721,-0.00896565,0.00319906,0.02695881,-0.00132167,-0.00102
 162,0.00031832,-0.00019037,-0.00123517,-0.00071775,0.00001023,-0.00002
 368,-0.00008173,0.00012822,-0.00002081,-0.00006952,0.00002140,-0.00012
 768,0.00003889,-0.00003232,0.00006158,-0.00002284,-0.00007156,-0.00001
 597,-0.00029386,0.00727671,-0.00110701,-0.01458928,0.10157207,-0.00002
 101,0.00100461,0.00065373,-0.00068094,-0.00380297,-0.00317779,-0.01048
 777,0.00877142,0.02602784,0.00941019,-0.04573520,-0.01978674,0.0026928
 5,-0.00369412,-0.00743429,-0.00233342,-0.00278073,-0.00072267,-0.00071
 680,-0.00053795,-0.00117486,0.00015501,0.00018315,-0.00007347,0.000023
 84,0.00003757,-0.00002374,0.00024375,0.00010860,-0.00003203,0.00000521
 ,-0.00007846,0.00002987,0.00048018,0.00002173,0.00049680,0.00973598,-0
 .00086553,-0.01994908,-0.00945529,0.04628379,0.00077198,0.00022491,-0.
 00040097,0.00041164,0.00177211,0.00150970,0.00425305,-0.00283505,-0.01
 061578,0.10530005,-0.02410402,-0.26677198,-0.00356547,0.00043633,0.005
 44048,-0.00032230,0.00144335,-0.00005503,0.00030397,-0.00007752,0.0002
 6402,0.00000103,0.00001682,0.00001840,-0.00005543,-0.00005083,0.000033
 66,-0.00019525,-0.00018403,0.00004793,-0.00011814,-0.00005377,0.000027
 91,-0.00040710,-0.00041790,-0.00015069,0.00779616,-0.00086437,-0.01478
 527,-0.11392707,0.02425878,0.28408301,0.00010708,-0.00001582,0.0002667
 6,0.00079315,0.00014935,-0.00130566,-0.00382473,-0.00091772,0.00087254
 ,-0.00955001,0.01888140,0.01921315,-0.07930113,0.05999982,0.05676405,0
 .00532366,-0.00358709,-0.00239372,0.00027081,-0.00034457,-0.00112809,0
 .00005363,0.00004274,0.00000429,-0.00011689,0.00007836,-0.00012181,0.0
 0002225,-0.00002210,0.00001529,0.00002341,0.00008549,-0.00003937,0.000
 08383,0.00002730,0.00008680,0.00180206,-0.00106577,0.00050433,-0.00374
 287,0.00216723,-0.00099128,0.08225054,-0.00071200,0.00001450,0.0005803
 2,0.00261427,-0.00090158,0.00141405,-0.00750585,-0.00251036,-0.0025544
 4,-0.00081675,0.00313715,0.00281454,0.05713389,-0.15495440,-0.11153917
 ,0.01492511,-0.03167208,-0.01272502,0.00285563,0.00138096,-0.00323499,
 -0.00026664,0.00138810,0.00057073,-0.00035696,0.00037340,0.00051411,0.
 00040637,0.00006086,0.00010454,0.00015598,-0.00003625,-0.00006208,0.00
 018603,0.00009444,-0.00001424,0.00060246,0.00064569,0.00004951,-0.0012
 0793,0.00054830,0.00015610,-0.06699460,0.17805636,0.00002841,-0.000137
 00,-0.00027754,-0.00045964,0.00005969,-0.00085932,0.00116378,0.0009715
 2,0.00092199,-0.00120624,0.00133801,-0.00013481,0.05923069,-0.11498500
 ,-0.17073604,-0.00710492,0.00937979,0.01224719,0.00049009,-0.00035742,
 0.00105260,-0.00088951,0.00020802,-0.00013074,0.00020128,-0.00039195,0
 .00012567,-0.00006667,0.00001750,0.00000445,0.00004937,0.00000354,0.00
 000919,-0.00000421,-0.00000695,0.00000933,0.00007449,0.00008803,0.0010
 8468,0.00010333,0.00026400,0.00061222,-0.06158572,0.12213149,0.1746678
 9,0.00028075,-0.00023688,-0.00010976,0.00076200,0.00131207,0.00024174,
 -0.00413471,0.00038103,-0.00118214,-0.00781128,0.00175037,-0.02459260,
 -0.09411020,0.01237978,-0.09510537,0.00491022,0.00132342,0.00605079,0.
 00076422,-0.00020144,0.00096145,-0.00020711,-0.00015153,-0.00009170,0.
 00001925,-0.00003040,-0.00003960,-0.00000407,0.00007859,-0.00007011,0.
 00003314,-0.00000527,0.00001617,0.00015250,-0.00005232,-0.00001274,-0.
 00306894,0.00174929,-0.00072424,0.00198224,-0.00090034,0.00062219,0.00
 587866,-0.00052845,0.01015421,0.09470469,-0.00016422,-0.00051795,-0.00
 036059,0.00259356,-0.00041997,0.00052634,-0.00328839,-0.00346129,0.003
 72576,0.00113361,-0.00045003,-0.00205439,0.00909899,-0.05130086,0.0209
 0271,0.01446216,-0.01144675,0.02879588,0.00298736,0.00043982,0.0003829
 1,-0.00051745,0.00011623,0.00025759,-0.00002340,0.00014867,0.00023414,
 0.00005344,0.00001873,0.00003619,0.00030013,-0.00000570,-0.00000592,0.
 00015746,0.00004170,-0.00003103,-0.00064350,0.00021569,-0.00005960,0.0
 0044338,0.00069683,0.00024809,-0.00854917,0.00457438,-0.01855178,-0.01
 710594,0.06121877,0.00020702,0.00017680,0.00014037,-0.00109334,-0.0001
 5104,-0.00033538,0.00342298,0.00065448,-0.00083123,0.00209679,-0.00171
 801,0.00422493,-0.09464630,0.02368859,-0.26174047,-0.00323351,0.008994
 98,-0.00276991,-0.00164937,-0.00049666,-0.00071854,0.00060424,0.000430
 70,-0.00031379,-0.00029903,-0.00008676,0.00002742,-0.00005400,-0.00002
 173,-0.00002791,-0.00015375,0.00002870,0.00001794,-0.00009493,-0.00000
 804,0.00000880,0.00044309,0.00019575,0.00047378,-0.00053720,0.00041925
 ,0.00076326,-0.01012661,0.00143725,-0.01831101,0.10434499,-0.03375601,
 0.27950380,0.00024820,0.00017789,0.00004276,-0.00035841,0.00028737,-0.
 00027782,0.00310213,-0.00370713,0.00104732,-0.00080913,-0.00019236,0.0
 0051582,0.00071987,0.00053811,0.00014977,-0.03227614,0.00486811,-0.006
 26925,-0.23062735,0.03182241,-0.10482369,0.00176071,-0.00149845,-0.001
 79075,0.00135970,-0.00017001,0.00108230,-0.00010567,-0.00001193,-0.000
 05339,-0.00015576,0.00003726,0.00000259,-0.00006192,-0.00005107,0.0000
 1621,0.00005857,-0.00025872,0.00011579,-0.00004638,-0.00029926,0.00012
 855,0.00000548,-0.00042681,-0.00007547,-0.00008465,-0.00073199,0.00038
 918,0.25896357,-0.00013065,0.00027028,-0.00000302,0.00018913,0.0006052
 1,-0.00057140,0.00015358,-0.00225985,0.00178987,-0.00067785,0.00014326
 ,0.00015992,0.00034542,0.00043343,-0.00113587,-0.01872660,0.00334149,-
 0.00548043,0.04004058,-0.05908936,0.02260430,-0.01530199,0.00196497,-0
 .01259152,-0.00046781,0.00056433,0.00043699,0.00001018,-0.00000516,0.0
 0000969,-0.00004172,-0.00000577,-0.00000314,0.00011157,0.00001521,0.00
 001575,0.00009012,-0.00007333,0.00003717,0.00005650,-0.00017300,0.0000
 8028,-0.00019392,-0.00014102,-0.00003629,0.00023677,0.00029374,0.00012
 695,-0.03297078,0.05773902,-0.00003594,-0.00016282,-0.00006839,0.00003
 778,-0.00027761,0.00059086,0.00063627,0.00302598,-0.00096910,0.0006851
 9,-0.00019521,-0.00037034,-0.00058696,-0.00035001,0.00074888,0.0231539
 9,-0.00411670,0.00965502,-0.10527172,0.01972914,-0.10853625,-0.0281974
 8,0.00010710,-0.02356439,-0.00298030,0.00006909,0.00118655,0.00006675,
 0.00000047,0.00002592,0.00008378,-0.00001757,0.00001341,-0.00001401,0.
 00000364,-0.00000183,-0.00006207,0.00009681,-0.00004371,-0.00000120,0.
 00022364,-0.00007972,0.00003243,0.00012970,-0.00013934,-0.00037085,-0.
 00012690,-0.00017182,0.11227426,-0.01664764,0.12765868,-0.00017401,0.0
 0043444,0.00019712,-0.00016711,0.00054922,-0.00102814,0.00131799,-0.00
 104756,0.00058924,-0.00035386,0.00009997,0.00034510,-0.00268603,-0.000
 09652,-0.00011432,0.00306612,-0.03301299,0.00928587,-0.06300643,0.0527
 5627,-0.00732321,0.00287512,0.00162998,0.00326954,0.00130466,0.0015351
 8,-0.00093681,0.00002507,-0.00000177,0.00000100,-0.00008626,-0.0000201
 8,-0.00000559,0.00015061,0.00009849,-0.00001178,-0.00020058,0.00008224
 ,-0.00005178,-0.00026065,-0.00002324,-0.00001310,-0.00015811,-0.000310
 73,0.00007299,-0.00001710,-0.00017209,0.00016657,-0.00391696,0.0267422
 8,-0.00289815,0.06185680,-0.00003257,0.00028715,-0.00033714,0.00034281
 ,0.00127887,-0.00035386,0.00181016,-0.00123186,0.00091448,-0.00012777,
 -0.00056828,0.00012598,-0.00176458,0.00180338,-0.00082135,-0.00203296,
 -0.01952272,0.00881240,0.04353651,-0.27197554,0.01922922,0.00311344,-0
 .01603306,-0.01179427,-0.00143742,0.00096096,0.00089943,-0.00007314,-0
 .00003064,0.00000722,-0.00008435,0.00000778,0.00001648,0.00022002,0.00
 003102,-0.00001594,-0.00021677,0.00006530,-0.00002916,-0.00016799,0.00
 003910,-0.00002593,0.00000113,0.00007187,-0.00006612,-0.00001638,-0.00
 001946,0.00009108,0.00166663,-0.00340105,0.00090139,-0.04712387,0.3061
 5700,-0.00018591,0.00005922,-0.00003809,0.00056037,-0.00077833,0.00053
 705,-0.00107737,-0.00003157,-0.00066933,0.00020679,0.00058700,-0.00046
 280,0.00280429,-0.00019221,0.00103336,-0.00079693,0.02321410,-0.004983
 56,-0.00508483,0.01700089,-0.04941610,0.01009487,-0.03835701,-0.012560
 98,-0.00446279,-0.00366096,0.00336146,0.00008066,-0.00000892,0.0000360
 5,0.00007526,-0.00002430,-0.00000525,0.00004195,0.00002808,-0.00001414
 ,0.00020693,-0.00004834,0.00001647,0.00025336,0.00000819,0.00003785,0.
 00006647,0.00042490,-0.00016892,-0.00010650,-0.00007760,0.00001329,-0.
 00276055,0.01416179,-0.00008491,-0.00158934,-0.01589722,0.06172985,-0.
 00025191,0.00011015,-0.00006582,-0.00054410,0.00045107,-0.00117234,0.0
 0138298,-0.00099427,0.00133736,-0.00008178,0.00002531,0.00009001,-0.00
 008034,-0.00017327,-0.00005931,0.00019834,-0.00041431,-0.00097981,0.00
 340220,0.00242824,0.00107947,-0.30589047,0.05163481,-0.15127443,-0.027
 63443,0.00878589,-0.01483105,-0.00006074,0.00001950,0.00003919,0.00002
 178,-0.00002412,-0.00002220,0.00008732,0.00003011,0.00000084,-0.000046
 40,0.00001081,0.00000463,-0.00001785,0.00001224,-0.00002090,0.00002208
 ,0.00009605,0.00003233,-0.00003902,0.00004602,0.00000317,0.00152598,0.
 00001505,0.00151910,0.00037540,0.00026857,0.00110927,0.32838021,0.0001
 5170,-0.00022630,0.00016883,-0.00052056,-0.00036226,0.00041536,-0.0006
 9862,0.00093213,-0.00020330,0.00005196,-0.00020463,0.00015922,-0.00022
 100,0.00011447,0.00030038,0.00045547,-0.00033528,0.00103360,-0.0150451
 9,-0.00189332,-0.01677033,0.09421042,-0.03641238,0.05525571,-0.0174500
 0,-0.00300158,-0.00331689,-0.00001177,0.00008263,-0.00003383,0.0000515
 3,-0.00001202,-0.00002854,-0.00018123,-0.00007075,0.00003695,-0.000112
 17,-0.00011879,0.00011404,-0.00001444,-0.00001746,-0.00005371,0.000275
 69,-0.00021451,0.00011327,0.00000911,-0.00014453,-0.00010009,0.0004030
 6,-0.00004660,-0.00239763,-0.00107270,0.00143266,0.00023835,-0.0600981
 5,0.03894200,0.00039963,-0.00013282,0.00039544,-0.00022799,-0.00032561
 ,0.00093154,0.00012273,0.00127897,-0.00145026,0.00015141,0.00002100,-0
 .00019584,0.00014407,0.00026858,-0.00031188,0.00040951,0.00050748,0.00
 255990,-0.03353164,0.00736387,-0.02373406,-0.15387781,0.03032168,-0.15
 284976,0.02142936,-0.00226021,0.01043771,-0.00005005,-0.00000793,-0.00
 009613,-0.00010957,0.00002993,-0.00000826,-0.00018334,-0.00006689,0.00
 000297,0.00005807,-0.00004442,0.00000105,0.00001242,-0.00001643,0.0000
 3540,-0.00010047,-0.00009050,-0.00006687,-0.00000097,-0.00013668,0.000
 12255,0.00113862,-0.00343943,-0.00605999,0.00040885,-0.00015912,0.0016
 6093,0.15963367,-0.03437707,0.16941933,0.00010685,-0.00001342,0.000031
 12,-0.00010970,-0.00005970,0.00029669,-0.00000362,0.00029634,-0.000346
 40,0.00003925,-0.00000709,-0.00001597,-0.00001840,0.00011100,-0.000132
 32,0.00048791,-0.00036855,0.00059160,0.00003018,-0.00020783,-0.0032188
 0,-0.03107530,0.00135307,-0.01033986,-0.21880407,0.05854617,-0.1004441
 6,0.00000990,-0.00000765,-0.00000862,-0.00002259,0.00001182,0.00000931
 ,-0.00003793,-0.00002022,0.00000691,0.00001737,0.00000239,-0.00000997,
 0.00000062,-0.00000367,0.00001286,-0.00001090,0.00001976,-0.00005351,0
 .00000010,-0.00001839,0.00007316,0.00038124,0.00028922,0.00125648,0.00
 000534,0.00031288,0.00032272,-0.00327269,-0.00033932,0.00438002,0.2509
 8930,0.00004084,0.00000423,0.00003259,-0.00006245,0.00005925,0.0000142
 6,0.00013945,-0.00008008,-0.00004399,-0.00002530,-0.00001044,0.0000000
 7,-0.00000205,0.00010821,0.00001518,-0.00024255,-0.00007346,-0.0001893
 7,0.00061492,0.00011791,0.00008801,-0.01375214,0.00393157,-0.00773298,
 0.06249378,-0.06974171,0.03694181,-0.00000769,-0.00000792,-0.00000987,
 -0.00001882,0.00000368,0.00000470,-0.00001083,-0.00000160,-0.00000172,
 -0.00000257,-0.00000076,-0.00000091,0.00000187,-0.00001431,0.00000829,
 -0.00003061,-0.00003775,-0.00000192,0.00000924,-0.00001109,0.00000892,
 0.00017998,0.00016770,-0.00014225,0.00005883,-0.00009514,0.00030178,-0
 .00255058,0.00025166,0.00154404,-0.06110431,0.07108531,0.00002902,0.00
 002225,-0.00000474,-0.00011642,0.00009337,-0.00010323,0.00025839,-0.00
 012410,0.00004382,-0.00000841,-0.00003117,-0.00000147,-0.00004192,0.00
 011822,-0.00002246,-0.00034794,0.00005636,0.00034188,0.00197250,-0.000
 54913,0.00175926,0.01772801,-0.00467675,0.00977088,-0.10651069,0.03563
 467,-0.11126132,-0.00000871,-0.00000179,-0.00000263,-0.00001532,0.0000
 0338,0.00000243,-0.00000267,-0.00000752,0.00000551,-0.00001011,-0.0000
 0947,-0.00000139,-0.00000907,0.00000319,0.00000076,0.00003245,0.000009
 22,-0.00002998,0.00000500,-0.00000273,0.00000293,-0.00078734,0.0002513
 8,0.00009861,-0.00025810,0.00008992,-0.00027233,0.00419774,0.00062005,
 -0.00132348,0.10933818,-0.04083651,0.11479357,0.00012683,0.00000733,0.
 00004006,-0.00021140,0.00022757,-0.00020687,0.00074341,-0.00023990,0.0
 0019423,0.00002478,0.00004478,0.00004234,0.00003060,0.00011643,-0.0002
 3300,-0.00083858,0.00036870,0.00042167,0.00136411,-0.00269779,-0.00461
 996,-0.00676639,-0.03332454,0.01174177,-0.05130188,0.00783165,-0.00145
 213,-0.00004185,-0.00001504,-0.00002627,-0.00005204,0.00001315,0.00001
 222,-0.00002083,-0.00000948,-0.00000085,0.00000884,-0.00001270,-0.0000
 2201,-0.00003968,0.00000399,0.00000713,0.00003591,0.00022585,-0.000140
 61,-0.00001866,0.00002426,0.00007781,-0.00016165,0.00038915,0.00033334
 ,-0.00007257,0.00167246,0.00024221,0.00161933,-0.00070532,0.00011545,0
 .00002260,0.02662737,-0.00173653,0.05520972,0.00018958,-0.00000659,0.0
 0005654,-0.00029013,0.00037612,-0.00020938,0.00088650,-0.00034010,0.00
 024570,0.00002643,0.00003637,-0.00001702,0.00010462,-0.00007883,-0.000
 29752,-0.00086809,0.00023934,0.00029319,0.00021811,0.00204809,-0.00321
 970,-0.01219761,-0.01104712,0.00851600,0.00878320,-0.27674630,0.017910
 71,-0.00005337,-0.00002510,-0.00003705,-0.00007900,0.00002401,0.000022
 10,-0.00003394,-0.00001234,-0.00000358,0.00000409,-0.00001667,-0.00002
 019,-0.00003394,0.00000470,0.00002135,0.00000273,0.00017522,-0.0000400
 5,-0.00001507,0.00002753,0.00008154,0.00034771,-0.00016959,0.00024337,
 -0.00076408,0.00035658,0.00250211,-0.00020304,0.00094394,0.00027915,0.
 00147753,-0.00944665,-0.00015948,0.00063288,0.30714327,-0.00005685,-0.
 00000564,-0.00000431,0.00007745,-0.00007436,-0.00003998,-0.00022309,0.
 00002671,0.00000419,-0.00005282,-0.00004112,-0.00001266,-0.00008817,-0
 .00005737,0.00007795,0.00043199,-0.00063497,-0.00037112,-0.00092443,0.
 00441232,0.00341322,0.00744356,0.01995719,-0.00476327,-0.00125057,0.01
 850553,-0.05375389,0.00000780,0.00000381,0.00000809,0.00002262,-0.0000
 0691,-0.00000556,0.00000649,0.00000562,-0.00000186,-0.00001551,0.00000
 321,0.00001559,0.00002140,-0.00001160,0.00000011,-0.00003683,-0.000176
 13,0.00010604,0.00001756,-0.00001650,-0.00003054,-0.00014072,0.0000642
 1,-0.00026077,-0.00014923,-0.00129448,0.00036143,-0.00082082,-0.000983
 73,0.00001595,-0.00161130,0.01670495,-0.00108457,-0.00392018,-0.027243
 38,0.05266046,0.00012556,0.00002326,0.00002755,-0.00025808,0.00029965,
 -0.00029583,0.00100314,-0.00027599,0.00042300,-0.00001006,-0.00004134,
 -0.00008036,-0.00006375,0.00040962,-0.00000328,-0.00132989,-0.00016794
 ,0.00189509,-0.00426616,-0.00209620,-0.00024302,-0.00305918,0.01043014
 ,0.03221956,-0.04748843,-0.00246525,-0.00726419,-0.00005615,-0.0000071
 0,-0.00002617,-0.00005363,0.00000489,0.00000575,-0.00002904,-0.0000153
 3,0.00000296,-0.00002656,-0.00004354,0.00001149,-0.00000119,-0.0000087
 3,0.00000745,0.00003208,-0.00009469,-0.00001449,0.00000798,-0.00008582
 ,0.00005906,0.00047856,-0.00015824,0.00033931,0.00012257,0.00013318,-0
 .00000093,0.00090412,0.00086155,-0.00032198,0.00126455,-0.01235637,-0.
 02370805,0.00033940,0.00186490,0.00126164,0.05236416,0.00001954,0.0000
 1495,-0.00002145,-0.00004555,0.00009475,-0.00004659,0.00027162,-0.0000
 7688,0.00017827,0.00001539,-0.00000302,-0.00004407,0.00004064,0.000105
 53,-0.00006359,-0.00090902,0.00034568,0.00066973,-0.00153617,-0.000222
 67,0.00055565,0.00031249,0.00572610,0.01466994,-0.00068828,-0.09700510
 ,-0.10538918,-0.00000626,-0.00000105,-0.00000026,-0.00001373,0.0000003
 0,0.00000424,-0.00000078,-0.00000235,0.00000363,-0.00000106,-0.0000180
 4,0.00000281,0.00000546,-0.00000010,0.00000073,0.00001012,-0.00005328,
 -0.00000038,0.00001434,-0.00001445,0.00000334,-0.00001002,-0.00017390,
 -0.00009600,-0.00034116,0.00038609,0.00055004,0.00052393,0.00036095,-0
 .00055758,-0.00027005,0.00379137,0.00949663,-0.00118079,-0.01348590,-0
 .02913737,0.00378934,0.10023101,-0.00018999,-0.00001271,-0.00003833,0.
 00035168,-0.00028328,0.00023712,-0.00098661,0.00028554,-0.00048913,0.0
 0005813,0.00007368,0.00003888,0.00006529,-0.00039556,0.00006774,0.0012
 9589,-0.00028289,-0.00084804,0.00263755,0.00188366,0.00178151,0.002216
 85,-0.00440839,-0.01861207,-0.00065936,-0.10035730,-0.26193965,0.00006
 174,0.00000892,0.00003885,0.00006603,-0.00001277,-0.00001070,0.0000460
 5,0.00002676,-0.00000972,0.00003512,0.00004798,-0.00001234,0.00002165,
 0.00001740,-0.00001530,-0.00002901,0.00006006,0.00001332,-0.00000749,0
 .00007012,-0.00004847,0.00007583,0.00017043,0.00037259,0.00004328,-0.0
 0029301,-0.00011134,0.00019990,-0.00019063,0.00051374,-0.00013812,-0.0
 0670509,-0.01271208,-0.00086983,0.00107560,0.00366551,-0.00429457,0.10
 922149,0.28811791\\-0.00000474,0.00000170,0.00000162,0.00000158,-0.000
 00043,0.,-0.00000337,-0.00000727,-0.00000315,0.00000255,0.00000466,0.0
 0000080,-0.00000350,-0.00000700,0.00000190,0.00001032,0.00000563,-0.00
 000234,0.00000010,0.00000366,0.00000474,-0.00000088,-0.00000145,-0.000
 00242,-0.00000068,-0.00000025,0.00000151,0.00000094,-0.00000115,-0.000
 00014,-0.00000053,-0.00000081,-0.00000094,0.00000072,-0.00000018,-0.00
 000053,-0.00000086,-0.00000072,0.00000102,-0.00000123,0.00000025,0.000
 00053,0.00000066,0.00000339,0.00000025,-0.00000067,0.00000307,-0.00000
 050,0.00000039,0.00000004,-0.00000076,-0.00000062,-0.00000182,-0.00000
 073,0.00000008,-0.00000012,-0.00000060,0.00000061,0.00000017,-0.000000
 18,-0.00000072,-0.00000064,-0.00000012,-0.00000013,-0.00000072,0.00000
 003\\\@


 THE GREAT THING ABOUT BEING IMPERFECT IS THE JOY IT BRINGS OTHERS.
   -- SIGN OUTSIDE LAKE AGASSIZ JR. HIGH SCHOOL, FARGO, N.D.
 Job cpu time:       0 days  2 hours 19 minutes  0.2 seconds.
 Elapsed time:       0 days  0 hours 36 minutes 11.7 seconds.
 File lengths (MBytes):  RWF=    168 Int=      0 D2E=      0 Chk=      9 Scr=      1
 Normal termination of Gaussian 16 at Wed Jun  2 00:24:42 2021.
### All Done ###
