### Starting Gaussian ###
 Entering Gaussian System, Link 0=g16
 Initial command:
 /cluster/software/gaussian/gaussian-16-A.03/avx2/g16/l1.exe "/local/scratch/cz9n3/Gau-425.inp" -scrdir="/local/scratch/cz9n3/"
 Entering Link 1 = /cluster/software/gaussian/gaussian-16-A.03/avx2/g16/l1.exe PID=       426.
  
 Copyright (c) 1988,1990,1992,1993,1995,1998,2003,2009,2016,
            Gaussian, Inc.  All Rights Reserved.
  
 This is part of the Gaussian(R) 16 program.  It is based on
 the Gaussian(R) 09 system (copyright 2009, Gaussian, Inc.),
 the Gaussian(R) 03 system (copyright 2003, Gaussian, Inc.),
 the Gaussian(R) 98 system (copyright 1998, Gaussian, Inc.),
 the Gaussian(R) 94 system (copyright 1995, Gaussian, Inc.),
 the Gaussian 92(TM) system (copyright 1992, Gaussian, Inc.),
 the Gaussian 90(TM) system (copyright 1990, Gaussian, Inc.),
 the Gaussian 88(TM) system (copyright 1988, Gaussian, Inc.),
 the Gaussian 86(TM) system (copyright 1986, Carnegie Mellon
 University), and the Gaussian 82(TM) system (copyright 1983,
 Carnegie Mellon University). Gaussian is a federally registered
 trademark of Gaussian, Inc.
  
 This software contains proprietary and confidential information,
 including trade secrets, belonging to Gaussian, Inc.
  
 This software is provided under written license and may be
 used, copied, transmitted, or stored only in accord with that
 written license.
  
 The following legend is applicable only to US Government
 contracts under FAR:
  
                    RESTRICTED RIGHTS LEGEND
  
 Use, reproduction and disclosure by the US Government is
 subject to restrictions as set forth in subparagraphs (a)
 and (c) of the Commercial Computer Software - Restricted
 Rights clause in FAR 52.227-19.
  
 Gaussian, Inc.
 340 Quinnipiac St., Bldg. 40, Wallingford CT 06492
  
  
 ---------------------------------------------------------------
 Warning -- This program may not be used in any manner that
 competes with the business of Gaussian, Inc. or will provide
 assistance to any competitor of Gaussian, Inc.  The licensee
 of this program is prohibited from giving any competitor of
 Gaussian, Inc. access to this program.  By using this program,
 the user acknowledges that Gaussian, Inc. is engaged in the
 business of creating and licensing software in the field of
 computational chemistry and represents and warrants to the
 licensee that it is not a competitor of Gaussian, Inc. and that
 it will not use this program in any manner prohibited above.
 ---------------------------------------------------------------
  

 Cite this work as:
 Gaussian 16, Revision A.03,
 M. J. Frisch, G. W. Trucks, H. B. Schlegel, G. E. Scuseria, 
 M. A. Robb, J. R. Cheeseman, G. Scalmani, V. Barone, 
 G. A. Petersson, H. Nakatsuji, X. Li, M. Caricato, A. V. Marenich, 
 J. Bloino, B. G. Janesko, R. Gomperts, B. Mennucci, H. P. Hratchian, 
 J. V. Ortiz, A. F. Izmaylov, J. L. Sonnenberg, D. Williams-Young, 
 F. Ding, F. Lipparini, F. Egidi, J. Goings, B. Peng, A. Petrone, 
 T. Henderson, D. Ranasinghe, V. G. Zakrzewski, J. Gao, N. Rega, 
 G. Zheng, W. Liang, M. Hada, M. Ehara, K. Toyota, R. Fukuda, 
 J. Hasegawa, M. Ishida, T. Nakajima, Y. Honda, O. Kitao, H. Nakai, 
 T. Vreven, K. Throssell, J. A. Montgomery, Jr., J. E. Peralta, 
 F. Ogliaro, M. J. Bearpark, J. J. Heyd, E. N. Brothers, K. N. Kudin, 
 V. N. Staroverov, T. A. Keith, R. Kobayashi, J. Normand, 
 K. Raghavachari, A. P. Rendell, J. C. Burant, S. S. Iyengar, 
 J. Tomasi, M. Cossi, J. M. Millam, M. Klene, C. Adamo, R. Cammi, 
 J. W. Ochterski, R. L. Martin, K. Morokuma, O. Farkas, 
 J. B. Foresman, and D. J. Fox, Gaussian, Inc., Wallingford CT, 2016.
 
 ******************************************
 Gaussian 16:  ES64L-G16RevA.03 25-Dec-2016
                 1-Jun-2021 
 ******************************************
 %chk=CNdCpCpNdCCtN.chk
 %NProcShared=20
 Will use up to   20 processors via shared memory.
 -----------------------------
 # opt freq b3lyp/6-31g(2df,p)
 -----------------------------
 1/18=20,19=15,26=3,38=1/1,3;
 2/9=110,12=2,17=6,18=5,40=1/2;
 3/5=1,6=6,7=104,11=2,25=1,30=1,71=1,74=-5/1,2,3;
 4//1;
 5/5=2,38=5/2;
 6/7=2,8=2,9=2,10=2,28=1/1;
 7//1,2,3,16;
 1/18=20,19=15,26=3/3(2);
 2/9=110/2;
 99//99;
 2/9=110/2;
 3/5=1,6=6,7=104,11=2,25=1,30=1,71=1,74=-5/1,2,3;
 4/5=5,16=3,69=1/1;
 5/5=2,38=5/2;
 7//1,2,3,16;
 1/18=20,19=15,26=3/3(-5);
 2/9=110/2;
 6/7=2,8=2,9=2,10=2,19=2,28=1/1;
 99/9=1/99;
 -------------------
 Title Card Required
 -------------------
 Symbolic Z-matrix:
 Charge =  0 Multiplicity = 1
 C                     1.04762  -0.02528   0.07012 
 N                     2.50821  -0.03773   0.10359 
 C                     3.09854  -0.43675   1.17652 
 C                     2.3616   -0.89826   2.41747 
 N                     4.48194  -0.42848   1.15429 
 C                     5.13959  -0.81399   2.19089 
 C                     6.57961  -0.78028   2.10023 
 N                     7.74418  -0.79947   2.15184 
 H                     0.69474   0.33571  -0.90054 
 H                     0.63208   0.64889   0.82873 
 H                     0.63208  -1.03131   0.20387 
 H                     1.27792  -0.85985   2.3142 
 H                     2.62882  -0.25315   3.25831 
 H                     2.62882  -1.93603   2.63245 
 H                     4.73538  -1.17001   3.14818 
 

 GradGradGradGradGradGradGradGradGradGradGradGradGradGradGradGradGradGrad
 Berny optimization.
 Initialization pass.
                           ----------------------------
                           !    Initial Parameters    !
                           ! (Angstroms and Degrees)  !
 --------------------------                            --------------------------
 ! Name  Definition              Value          Derivative Info.                !
 --------------------------------------------------------------------------------
 ! R1    R(1,2)                  1.461          estimate D2E/DX2                !
 ! R2    R(1,9)                  1.0941         estimate D2E/DX2                !
 ! R3    R(1,10)                 1.0967         estimate D2E/DX2                !
 ! R4    R(1,11)                 1.0967         estimate D2E/DX2                !
 ! R5    R(2,3)                  1.288          estimate D2E/DX2                !
 ! R6    R(3,4)                  1.5153         estimate D2E/DX2                !
 ! R7    R(3,5)                  1.3836         estimate D2E/DX2                !
 ! R8    R(4,12)                 1.0893         estimate D2E/DX2                !
 ! R9    R(4,13)                 1.093          estimate D2E/DX2                !
 ! R10   R(4,14)                 1.093          estimate D2E/DX2                !
 ! R11   R(5,6)                  1.2867         estimate D2E/DX2                !
 ! R12   R(6,7)                  1.4433         estimate D2E/DX2                !
 ! R13   R(6,15)                 1.0984         estimate D2E/DX2                !
 ! R14   R(7,8)                  1.1659         estimate D2E/DX2                !
 ! A1    A(2,1,9)              110.2169         estimate D2E/DX2                !
 ! A2    A(2,1,10)             111.6041         estimate D2E/DX2                !
 ! A3    A(2,1,11)             111.6041         estimate D2E/DX2                !
 ! A4    A(9,1,10)             106.7779         estimate D2E/DX2                !
 ! A5    A(9,1,11)             106.7784         estimate D2E/DX2                !
 ! A6    A(10,1,11)            109.6335         estimate D2E/DX2                !
 ! A7    A(1,2,3)              118.6805         estimate D2E/DX2                !
 ! A8    A(2,3,4)              123.6195         estimate D2E/DX2                !
 ! A9    A(2,3,5)              116.2977         estimate D2E/DX2                !
 ! A10   A(4,3,5)              120.0828         estimate D2E/DX2                !
 ! A11   A(3,4,12)             113.295          estimate D2E/DX2                !
 ! A12   A(3,4,13)             109.3518         estimate D2E/DX2                !
 ! A13   A(3,4,14)             109.3519         estimate D2E/DX2                !
 ! A14   A(12,4,13)            107.1791         estimate D2E/DX2                !
 ! A15   A(12,4,14)            107.1794         estimate D2E/DX2                !
 ! A16   A(13,4,14)            110.4464         estimate D2E/DX2                !
 ! A17   A(3,5,6)              119.7551         estimate D2E/DX2                !
 ! A18   A(5,6,7)              116.8947         estimate D2E/DX2                !
 ! A19   A(5,6,15)             127.6709         estimate D2E/DX2                !
 ! A20   A(7,6,15)             115.4344         estimate D2E/DX2                !
 ! A21   L(6,7,8,15,-1)        173.4503         estimate D2E/DX2                !
 ! A22   L(6,7,8,15,-2)        180.0008         estimate D2E/DX2                !
 ! D1    D(9,1,2,3)            179.9998         estimate D2E/DX2                !
 ! D2    D(10,1,2,3)            61.5302         estimate D2E/DX2                !
 ! D3    D(11,1,2,3)           -61.5301         estimate D2E/DX2                !
 ! D4    D(1,2,3,4)              0.0003         estimate D2E/DX2                !
 ! D5    D(1,2,3,5)           -179.9998         estimate D2E/DX2                !
 ! D6    D(2,3,4,12)            -0.0004         estimate D2E/DX2                !
 ! D7    D(2,3,4,13)          -119.4757         estimate D2E/DX2                !
 ! D8    D(2,3,4,14)           119.4754         estimate D2E/DX2                !
 ! D9    D(5,3,4,12)           179.9997         estimate D2E/DX2                !
 ! D10   D(5,3,4,13)            60.5244         estimate D2E/DX2                !
 ! D11   D(5,3,4,14)           -60.5245         estimate D2E/DX2                !
 ! D12   D(2,3,5,6)           -179.9999         estimate D2E/DX2                !
 ! D13   D(4,3,5,6)              0.0            estimate D2E/DX2                !
 ! D14   D(3,5,6,7)            179.9996         estimate D2E/DX2                !
 ! D15   D(3,5,6,15)             0.0002         estimate D2E/DX2                !
 ! D16   D(5,6,7,15)          -179.9995         estimate D2E/DX2                !
 --------------------------------------------------------------------------------
 Trust Radius=3.00D-01 FncErr=1.00D-07 GrdErr=1.00D-06 EigMax=2.50D+02 EigMin=1.00D-04
 Number of steps in this run=     62 maximum allowed number of steps=    100.
 GradGradGradGradGradGradGradGradGradGradGradGradGradGradGradGradGradGrad

                          Input orientation:                          
 ---------------------------------------------------------------------
 Center     Atomic      Atomic             Coordinates (Angstroms)
 Number     Number       Type             X           Y           Z
 ---------------------------------------------------------------------
      1          6           0        1.047620   -0.025280    0.070120
      2          7           0        2.508210   -0.037730    0.103590
      3          6           0        3.098540   -0.436750    1.176520
      4          6           0        2.361600   -0.898260    2.417470
      5          7           0        4.481940   -0.428480    1.154290
      6          6           0        5.139590   -0.813990    2.190890
      7          6           0        6.579610   -0.780280    2.100230
      8          7           0        7.744180   -0.799470    2.151840
      9          1           0        0.694740    0.335710   -0.900540
     10          1           0        0.632080    0.648890    0.828730
     11          1           0        0.632080   -1.031310    0.203870
     12          1           0        1.277920   -0.859850    2.314200
     13          1           0        2.628820   -0.253150    3.258310
     14          1           0        2.628820   -1.936030    2.632450
     15          1           0        4.735380   -1.170010    3.148180
 ---------------------------------------------------------------------
                    Distance matrix (angstroms):
                    1          2          3          4          5
     1  C    0.000000
     2  N    1.461026   0.000000
     3  C    2.366369   1.287977   0.000000
     4  C    2.828195   2.473064   1.515265   0.000000
     5  N    3.623886   2.269860   1.383603   2.512401   0.000000
     6  C    4.675890   3.447254   2.310225   2.788489   1.286725
     7  C    5.940899   4.595024   3.617886   4.231568   2.327828
     8  N    7.055271   5.673708   4.760755   5.390036   3.431465
     9  H    1.094084   2.106278   3.269423   3.912837   4.375979
    10  H    1.096662   2.125356   2.717167   2.812296   4.011002
    11  H    1.096658   2.125352   2.717163   2.812289   4.011000
    12  H    2.405294   2.660130   2.188147   1.089267   3.434707
    13  H    3.566045   3.164366   2.142007   1.092971   2.809216
    14  H    3.566047   3.164368   2.142011   1.092973   2.809220
    15  H    4.938060   3.938511   2.665400   2.498523   2.142358
                    6          7          8          9         10
     6  C    0.000000
     7  C    1.443265   0.000000
     8  N    2.604923   1.165871   0.000000
     9  H    5.534929   6.699384   7.765324   0.000000
    10  H    4.930836   6.247588   7.377692   1.758517   0.000000
    11  H    4.930834   6.247584   7.377690   1.758520   1.792630
    12  H    3.863910   5.306603   6.468580   3.479083   2.213600
    13  H    2.785299   4.150633   5.262096   4.624225   3.271621
    14  H    2.785303   4.150633   5.262097   4.624228   3.731245
    15  H    1.098426   2.156681   3.191061   5.914905   5.052259
                   11         12         13         14         15
    11  H    0.000000
    12  H    2.213594   0.000000
    13  H    3.731234   1.756234   0.000000
    14  H    3.271619   1.756240   1.795490   0.000000
    15  H    5.052254   3.570119   2.300077   2.300078   0.000000
 Stoichiometry    C5H7N3
 Framework group  C1[X(C5H7N3)]
 Deg. of freedom    39
 Full point group                 C1      NOp   1
 Largest Abelian subgroup         C1      NOp   1
 Largest concise Abelian subgroup C1      NOp   1
                         Standard orientation:                         
 ---------------------------------------------------------------------
 Center     Atomic      Atomic             Coordinates (Angstroms)
 Number     Number       Type             X           Y           Z
 ---------------------------------------------------------------------
      1          6           0        3.150176   -0.528447   -0.000000
      2          7           0        1.746773   -0.934719   -0.000003
      3          6           0        0.838810   -0.021215   -0.000000
      4          6           0        1.142325    1.463341   -0.000001
      5          7           0       -0.473079   -0.460880    0.000002
      6          6           0       -1.433546    0.395371    0.000003
      7          6           0       -2.777411   -0.130973   -0.000003
      8          7           0       -3.904401   -0.429552    0.000000
      9          1           0        3.798843   -1.409498    0.000002
     10          1           0        3.402876    0.050710    0.896319
     11          1           0        3.402874    0.050715   -0.896311
     12          1           0        2.208804    1.684980    0.000003
     13          1           0        0.717740    1.919814    0.897744
     14          1           0        0.717739    1.919816   -0.897747
     15          1           0       -1.356044    1.491060   -0.000000
 ---------------------------------------------------------------------
 Rotational constants (GHZ):           7.6094230           0.8910429           0.8058932
 Standard basis: 6-31G(2df,p) (6D, 7F)
 There are   283 symmetry adapted cartesian basis functions of A   symmetry.
 There are   259 symmetry adapted basis functions of A   symmetry.
   259 basis functions,   401 primitive gaussians,   283 cartesian basis functions
    29 alpha electrons       29 beta electrons
       nuclear repulsion energy       320.5829675064 Hartrees.
 NAtoms=   15 NActive=   15 NUniq=   15 SFac= 1.00D+00 NAtFMM=   60 NAOKFM=F Big=F
 Integral buffers will be    131072 words long.
 Raffenetti 2 integral format.
 Two-electron integral symmetry is turned on.
 One-electron integrals computed using PRISM.
 PrsmSu:  requested number of processors reduced to:  13 ShMem   1 Linda.
 NBasis=   259 RedAO= T EigKep=  1.49D-04  NBF=   259
 NBsUse=   259 1.00D-06 EigRej= -1.00D+00 NBFU=   259
 ExpMin= 1.61D-01 ExpMax= 4.17D+03 ExpMxC= 6.27D+02 IAcc=3 IRadAn=         5 AccDes= 0.00D+00
 Harris functional with IExCor=  402 and IRadAn=       5 diagonalized for initial guess.
 HarFok:  IExCor=  402 AccDes= 0.00D+00 IRadAn=         5 IDoV= 1 UseB2=F ITyADJ=14
 ICtDFT=  3500011 ScaDFX=  1.000000  1.000000  1.000000  1.000000
 FoFCou: FMM=F IPFlag=           0 FMFlag=      100000 FMFlg1=           0
         NFxFlg=           0 DoJE=T BraDBF=F KetDBF=T FulRan=T
         wScrn=  0.000000 ICntrl=       500 IOpCl=  0 I1Cent=   200000004 NGrid=           0
         NMat0=    1 NMatS0=      1 NMatT0=    0 NMatD0=    1 NMtDS0=    0 NMtDT0=    0
 Petite list used in FoFCou.
 Requested convergence on RMS density matrix=1.00D-08 within 128 cycles.
 Requested convergence on MAX density matrix=1.00D-06.
 Requested convergence on             energy=1.00D-06.
 No special actions if energy rises.
 Integral accuracy reduced to 1.0D-05 until final iterations.
 Initial convergence to 1.0D-05 achieved.  Increase integral accuracy.
 SCF Done:  E(RB3LYP) =  -358.953253322     A.U. after   14 cycles
            NFock= 14  Conv=0.59D-08     -V/T= 2.0078

 **********************************************************************

            Population analysis using the SCF density.

 **********************************************************************

 Orbital symmetries:
       Occupied  (A) (A) (A) (A) (A) (A) (A) (A) (A) (A) (A) (A)
                 (A) (A) (A) (A) (A) (A) (A) (A) (A) (A) (A) (A)
                 (A) (A) (A) (A) (A)
       Virtual   (A) (A) (A) (A) (A) (A) (A) (A) (A) (A) (A) (A)
                 (A) (A) (A) (A) (A) (A) (A) (A) (A) (A) (A) (A)
                 (A) (A) (A) (A) (A) (A) (A) (A) (A) (A) (A) (A)
                 (A) (A) (A) (A) (A) (A) (A) (A) (A) (A) (A) (A)
                 (A) (A) (A) (A) (A) (A) (A) (A) (A) (A) (A) (A)
                 (A) (A) (A) (A) (A) (A) (A) (A) (A) (A) (A) (A)
                 (A) (A) (A) (A) (A) (A) (A) (A) (A) (A) (A) (A)
                 (A) (A) (A) (A) (A) (A) (A) (A) (A) (A) (A) (A)
                 (A) (A) (A) (A) (A) (A) (A) (A) (A) (A) (A) (A)
                 (A) (A) (A) (A) (A) (A) (A) (A) (A) (A) (A) (A)
                 (A) (A) (A) (A) (A) (A) (A) (A) (A) (A) (A) (A)
                 (A) (A) (A) (A) (A) (A) (A) (A) (A) (A) (A) (A)
                 (A) (A) (A) (A) (A) (A) (A) (A) (A) (A) (A) (A)
                 (A) (A) (A) (A) (A) (A) (A) (A) (A) (A) (A) (A)
                 (A) (A) (A) (A) (A) (A) (A) (A) (A) (A) (A) (A)
                 (A) (A) (A) (A) (A) (A) (A) (A) (A) (A) (A) (A)
                 (A) (A) (A) (A) (A) (A) (A) (A) (A) (A) (A) (A)
                 (A) (A) (A) (A) (A) (A) (A) (A) (A) (A) (A) (A)
                 (A) (A) (A) (A) (A) (A) (A) (A) (A) (A) (A) (A)
                 (A) (A)
 The electronic state is 1-A.
 Alpha  occ. eigenvalues --  -14.36935 -14.35185 -14.34162 -10.28957 -10.27130
 Alpha  occ. eigenvalues --  -10.23812 -10.21936 -10.20975  -0.98775  -0.92190
 Alpha  occ. eigenvalues --   -0.90488  -0.76623  -0.73528  -0.68795  -0.57563
 Alpha  occ. eigenvalues --   -0.54225  -0.49767  -0.47652  -0.47336  -0.43627
 Alpha  occ. eigenvalues --   -0.42644  -0.40920  -0.39810  -0.37627  -0.35044
 Alpha  occ. eigenvalues --   -0.34619  -0.29970  -0.28434  -0.26283
 Alpha virt. eigenvalues --   -0.10300   0.01559   0.01612   0.07483   0.09586
 Alpha virt. eigenvalues --    0.10896   0.12325   0.14888   0.15147   0.15816
 Alpha virt. eigenvalues --    0.16654   0.16981   0.17914   0.21451   0.28933
 Alpha virt. eigenvalues --    0.30950   0.35492   0.36529   0.41037   0.45644
 Alpha virt. eigenvalues --    0.47005   0.48600   0.49324   0.50062   0.51720
 Alpha virt. eigenvalues --    0.53264   0.54183   0.54334   0.58505   0.59922
 Alpha virt. eigenvalues --    0.60725   0.62457   0.64581   0.66091   0.67321
 Alpha virt. eigenvalues --    0.67425   0.68808   0.70031   0.70845   0.72370
 Alpha virt. eigenvalues --    0.73084   0.73206   0.74153   0.75401   0.76359
 Alpha virt. eigenvalues --    0.79205   0.79455   0.79633   0.82261   0.84148
 Alpha virt. eigenvalues --    0.85601   0.87741   0.88364   0.90887   0.92976
 Alpha virt. eigenvalues --    0.94647   0.96318   0.99678   1.04409   1.08809
 Alpha virt. eigenvalues --    1.13555   1.14062   1.16109   1.20708   1.21631
 Alpha virt. eigenvalues --    1.26262   1.26735   1.27946   1.30100   1.33840
 Alpha virt. eigenvalues --    1.35774   1.39914   1.40364   1.42423   1.44156
 Alpha virt. eigenvalues --    1.46165   1.50185   1.50488   1.53512   1.56799
 Alpha virt. eigenvalues --    1.59035   1.62625   1.67764   1.71174   1.73208
 Alpha virt. eigenvalues --    1.76006   1.79000   1.83812   1.84785   1.87155
 Alpha virt. eigenvalues --    1.92861   1.93640   1.94980   1.95247   2.01957
 Alpha virt. eigenvalues --    2.06144   2.11982   2.19018   2.21419   2.27973
 Alpha virt. eigenvalues --    2.29236   2.31728   2.33636   2.36716   2.44437
 Alpha virt. eigenvalues --    2.46008   2.48587   2.60956   2.62372   2.65338
 Alpha virt. eigenvalues --    2.68002   2.73994   2.74559   2.76110   2.80150
 Alpha virt. eigenvalues --    2.81249   2.82884   2.83711   2.86096   2.88396
 Alpha virt. eigenvalues --    2.91669   2.92510   2.96002   3.00276   3.00540
 Alpha virt. eigenvalues --    3.03165   3.06738   3.07864   3.12453   3.13910
 Alpha virt. eigenvalues --    3.14424   3.19821   3.21762   3.27587   3.28552
 Alpha virt. eigenvalues --    3.30953   3.32943   3.38325   3.40629   3.41735
 Alpha virt. eigenvalues --    3.43306   3.50574   3.52225   3.52702   3.60675
 Alpha virt. eigenvalues --    3.61465   3.63985   3.65828   3.66306   3.66361
 Alpha virt. eigenvalues --    3.67502   3.71026   3.72363   3.77436   3.80245
 Alpha virt. eigenvalues --    3.82293   3.86844   3.91955   3.93219   3.95153
 Alpha virt. eigenvalues --    3.97160   4.00870   4.02170   4.03324   4.09585
 Alpha virt. eigenvalues --    4.10966   4.12177   4.14546   4.20145   4.20551
 Alpha virt. eigenvalues --    4.22619   4.23196   4.26776   4.27374   4.31188
 Alpha virt. eigenvalues --    4.33914   4.34259   4.36429   4.40828   4.41327
 Alpha virt. eigenvalues --    4.43649   4.45022   4.45530   4.50169   4.54371
 Alpha virt. eigenvalues --    4.55029   4.56859   4.57752   4.60512   4.64147
 Alpha virt. eigenvalues --    4.66695   4.67460   4.69615   4.74769   4.75306
 Alpha virt. eigenvalues --    4.76862   4.78600   4.82350   4.88105   4.88829
 Alpha virt. eigenvalues --    4.96486   4.97075   5.04724   5.06826   5.12668
 Alpha virt. eigenvalues --    5.18706   5.23977   5.26006   5.30453   5.32395
 Alpha virt. eigenvalues --    5.32619   5.41398   5.57295   5.62876   5.65963
 Alpha virt. eigenvalues --    5.66971   6.08424   6.15781   6.32432  10.02795
 Alpha virt. eigenvalues --   10.69761  11.02905  11.17244  11.33494  11.41527
 Alpha virt. eigenvalues --   11.46838  11.89683  14.83193  15.55404  19.03580
          Condensed to atoms (all electrons):
               1          2          3          4          5          6
     1  C    4.958614   0.362269  -0.104343  -0.012382   0.004757  -0.000504
     2  N    0.362269   6.384150   0.652036  -0.103010   0.002100   0.000143
     3  C   -0.104343   0.652036   4.420267   0.424343   0.396823  -0.102512
     4  C   -0.012382  -0.103010   0.424343   5.189223  -0.111863   0.003948
     5  N    0.004757   0.002100   0.396823  -0.111863   6.395427   0.593337
     6  C   -0.000504   0.000143  -0.102512   0.003948   0.593337   4.847988
     7  C   -0.000002  -0.000007   0.002315   0.000892  -0.040259   0.424470
     8  N   -0.000000   0.000001  -0.000133  -0.000002  -0.006587  -0.004512
     9  H    0.394940  -0.026792  -0.000315   0.000413   0.000061  -0.000002
    10  H    0.360949  -0.025605  -0.001228   0.001650  -0.000554   0.000054
    11  H    0.360949  -0.025606  -0.001228   0.001650  -0.000554   0.000054
    12  H    0.003157  -0.009113  -0.019428   0.376007   0.002512  -0.000053
    13  H    0.000197   0.001830  -0.020466   0.363358   0.000382   0.000640
    14  H    0.000197   0.001830  -0.020466   0.363358   0.000382   0.000639
    15  H    0.000037  -0.000334  -0.005786   0.007552  -0.043723   0.357264
               7          8          9         10         11         12
     1  C   -0.000002  -0.000000   0.394940   0.360949   0.360949   0.003157
     2  N   -0.000007   0.000001  -0.026792  -0.025605  -0.025606  -0.009113
     3  C    0.002315  -0.000133  -0.000315  -0.001228  -0.001228  -0.019428
     4  C    0.000892  -0.000002   0.000413   0.001650   0.001650   0.376007
     5  N   -0.040259  -0.006587   0.000061  -0.000554  -0.000554   0.002512
     6  C    0.424470  -0.004512  -0.000002   0.000054   0.000054  -0.000053
     7  C    4.378872   0.988136  -0.000000   0.000000   0.000000  -0.000012
     8  N    0.988136   6.324560   0.000000  -0.000000  -0.000000   0.000000
     9  H   -0.000000   0.000000   0.568072  -0.036139  -0.036139  -0.000270
    10  H    0.000000  -0.000000  -0.036139   0.593420  -0.030351   0.003860
    11  H    0.000000  -0.000000  -0.036139  -0.030351   0.593418   0.003860
    12  H   -0.000012   0.000000  -0.000270   0.003860   0.003860   0.557055
    13  H    0.000194   0.000000  -0.000015   0.000781  -0.000391  -0.028302
    14  H    0.000194   0.000000  -0.000015  -0.000391   0.000781  -0.028302
    15  H   -0.050403   0.000613   0.000000  -0.000005  -0.000005  -0.000746
              13         14         15
     1  C    0.000197   0.000197   0.000037
     2  N    0.001830   0.001830  -0.000334
     3  C   -0.020466  -0.020466  -0.005786
     4  C    0.363358   0.363358   0.007552
     5  N    0.000382   0.000382  -0.043723
     6  C    0.000640   0.000639   0.357264
     7  C    0.000194   0.000194  -0.050403
     8  N    0.000000   0.000000   0.000613
     9  H   -0.000015  -0.000015   0.000000
    10  H    0.000781  -0.000391  -0.000005
    11  H   -0.000391   0.000781  -0.000005
    12  H   -0.028302  -0.028302  -0.000746
    13  H    0.563394  -0.029869   0.002567
    14  H   -0.029869   0.563394   0.002567
    15  H    0.002567   0.002567   0.577502
 Mulliken charges:
               1
     1  C   -0.328835
     2  N   -0.213892
     3  C    0.380122
     4  C   -0.505136
     5  N   -0.192241
     6  C   -0.120952
     7  C    0.295609
     8  N   -0.302076
     9  H    0.136200
    10  H    0.133561
    11  H    0.133562
    12  H    0.139777
    13  H    0.145700
    14  H    0.145700
    15  H    0.152901
 Sum of Mulliken charges =  -0.00000
 Mulliken charges with hydrogens summed into heavy atoms:
               1
     1  C    0.074488
     2  N   -0.213892
     3  C    0.380122
     4  C   -0.073957
     5  N   -0.192241
     6  C    0.031948
     7  C    0.295609
     8  N   -0.302076
 Electronic spatial extent (au):  <R**2>=           1352.2354
 Charge=             -0.0000 electrons
 Dipole moment (field-independent basis, Debye):
    X=              4.0629    Y=              4.1155    Z=              0.0000  Tot=              5.7831
 Quadrupole moment (field-independent basis, Debye-Ang):
   XX=            -56.6790   YY=            -48.2118   ZZ=            -45.8220
   XY=             -2.3792   XZ=              0.0000   YZ=             -0.0000
 Traceless Quadrupole moment (field-independent basis, Debye-Ang):
   XX=             -6.4414   YY=              2.0258   ZZ=              4.4156
   XY=             -2.3792   XZ=              0.0000   YZ=             -0.0000
 Octapole moment (field-independent basis, Debye-Ang**2):
  XXX=            101.8270  YYY=              6.6582  ZZZ=              0.0000  XYY=             -0.3710
  XXY=             12.0954  XXZ=              0.0000  XZZ=              1.8451  YZZ=              1.1443
  YYZ=              0.0000  XYZ=             -0.0000
 Hexadecapole moment (field-independent basis, Debye-Ang**3):
 XXXX=          -1811.8615 YYYY=           -236.2787 ZZZZ=            -56.3447 XXXY=            -61.8231
 XXXZ=              0.0003 YYYX=             -2.7908 YYYZ=             -0.0000 ZZZX=              0.0000
 ZZZY=             -0.0000 XXYY=           -292.0998 XXZZ=           -259.4042 YYZZ=            -46.6035
 XXYZ=             -0.0001 YYXZ=              0.0000 ZZXY=              0.9290
 N-N= 3.205829675064D+02 E-N=-1.475041749431D+03  KE= 3.561741682827D+02
 PrsmSu:  requested number of processors reduced to:  13 ShMem   1 Linda.
 Calling FoFJK, ICntrl=      2127 FMM=F ISym2X=0 I1Cent= 0 IOpClX= 0 NMat=1 NMatS=1 NMatT=0.
 ***** Axes restored to original set *****
 -------------------------------------------------------------------
 Center     Atomic                   Forces (Hartrees/Bohr)
 Number     Number              X              Y              Z
 -------------------------------------------------------------------
      1        6           0.004133901    0.001871567   -0.005026667
      2        7           0.006475845   -0.002305425    0.006200684
      3        6          -0.033742449    0.003229870   -0.008685236
      4        6           0.001151490   -0.000111753    0.000299422
      5        7           0.013257470   -0.003281691    0.008823857
      6        6           0.006467927    0.005693949   -0.015313407
      7        6           0.014912744   -0.003867083    0.010400957
      8        7          -0.018586493    0.001231612   -0.003312738
      9        1           0.004116838    0.000184502   -0.000497372
     10        1          -0.001249649   -0.001757254    0.001513417
     11        1          -0.001250970    0.000339297    0.002293698
     12        1           0.001921609    0.000646213   -0.001738538
     13        1           0.001064623   -0.003192297    0.004218344
     14        1           0.001064074   -0.000338625    0.005278681
     15        1           0.000263039    0.001657119   -0.004455100
 -------------------------------------------------------------------
 Cartesian Forces:  Max     0.033742449 RMS     0.007821852

 GradGradGradGradGradGradGradGradGradGradGradGradGradGradGradGradGradGrad
 Berny optimization.
 FormGI is forming the generalized inverse of G from B-inverse, IUseBI=4.
 Internal  Forces:  Max     0.018732556 RMS     0.006300822
 Search for a local minimum.
 Step number   1 out of a maximum of   62
 All quantities printed in internal units (Hartrees-Bohrs-Radians)
 Mixed Optimization -- RFO/linear search
 Second derivative matrix not updated -- first step.
 ITU=  0
     Eigenvalues ---    0.00564   0.00885   0.01313   0.01909   0.02176
     Eigenvalues ---    0.03174   0.03190   0.04789   0.04789   0.07024
     Eigenvalues ---    0.07339   0.09699   0.10027   0.16000   0.16000
     Eigenvalues ---    0.16000   0.16000   0.16000   0.16000   0.16000
     Eigenvalues ---    0.22000   0.25000   0.25000   0.25000   0.25000
     Eigenvalues ---    0.30827   0.33857   0.34054   0.34054   0.34345
     Eigenvalues ---    0.34471   0.34472   0.34897   0.36836   0.39141
     Eigenvalues ---    0.48449   0.70646   0.71019   1.24027
 RFO step:  Lambda=-6.81465955D-03 EMin= 5.64016799D-03
 Linear search not attempted -- first point.
 Iteration  1 RMS(Cart)=  0.10107198 RMS(Int)=  0.00342646
 Iteration  2 RMS(Cart)=  0.00514906 RMS(Int)=  0.00003965
 Iteration  3 RMS(Cart)=  0.00000456 RMS(Int)=  0.00003959
 Iteration  4 RMS(Cart)=  0.00000000 RMS(Int)=  0.00003959
 Variable       Old X    -DE/DX   Delta X   Delta X   Delta X     New X
                                 (Linear)    (Quad)   (Total)
    R1        2.76094  -0.00570   0.00000  -0.01520  -0.01520   2.74574
    R2        2.06752  -0.00083   0.00000  -0.00236  -0.00236   2.06516
    R3        2.07239   0.00044   0.00000   0.00127   0.00127   2.07366
    R4        2.07238   0.00044   0.00000   0.00127   0.00127   2.07366
    R5        2.43392  -0.00986   0.00000  -0.01382  -0.01382   2.42011
    R6        2.86344   0.00498   0.00000   0.01581   0.01581   2.87925
    R7        2.61463   0.01638   0.00000   0.03335   0.03335   2.64798
    R8        2.05842  -0.00172   0.00000  -0.00485  -0.00485   2.05357
    R9        2.06542   0.00162   0.00000   0.00461   0.00461   2.07003
   R10        2.06542   0.00162   0.00000   0.00461   0.00461   2.07003
   R11        2.43156  -0.01007   0.00000  -0.01404  -0.01404   2.41752
   R12        2.72738  -0.00417   0.00000  -0.01048  -0.01048   2.71690
   R13        2.07572  -0.00452   0.00000  -0.01308  -0.01308   2.06265
   R14        2.20318  -0.01873   0.00000  -0.01502  -0.01502   2.18816
    A1        1.92365  -0.00590   0.00000  -0.03436  -0.03428   1.88937
    A2        1.94786   0.00195   0.00000   0.01119   0.01122   1.95908
    A3        1.94786   0.00195   0.00000   0.01119   0.01123   1.95909
    A4        1.86363   0.00241   0.00000   0.01541   0.01549   1.87911
    A5        1.86363   0.00241   0.00000   0.01540   0.01548   1.87911
    A6        1.91347  -0.00283   0.00000  -0.01869  -0.01869   1.89477
    A7        2.07137   0.01290   0.00000   0.05025   0.05025   2.12161
    A8        2.15757   0.01732   0.00000   0.06743   0.06743   2.22500
    A9        2.02978  -0.01669   0.00000  -0.06499  -0.06499   1.96479
   A10        2.09584  -0.00063   0.00000  -0.00244  -0.00244   2.09340
   A11        1.97737  -0.00387   0.00000  -0.01906  -0.01896   1.95841
   A12        1.90855   0.00446   0.00000   0.02471   0.02472   1.93326
   A13        1.90855   0.00446   0.00000   0.02470   0.02471   1.93326
   A14        1.87063   0.00032   0.00000   0.00597   0.00607   1.87669
   A15        1.87063   0.00032   0.00000   0.00597   0.00606   1.87670
   A16        1.92765  -0.00612   0.00000  -0.04510  -0.04518   1.88247
   A17        2.09012   0.00603   0.00000   0.02348   0.02348   2.11360
   A18        2.04020   0.01041   0.00000   0.04590   0.04590   2.08610
   A19        2.22828  -0.00677   0.00000  -0.03231  -0.03231   2.19597
   A20        2.01471  -0.00364   0.00000  -0.01359  -0.01359   2.00112
   A21        3.02728   0.00585   0.00000   0.10688   0.10688   3.13416
   A22        3.14161  -0.00000   0.00000  -0.00001  -0.00001   3.14160
    D1        3.14159   0.00000   0.00000   0.00000   0.00000   3.14159
    D2        1.07390  -0.00041   0.00000  -0.00398  -0.00392   1.06998
    D3       -1.07390   0.00041   0.00000   0.00398   0.00392  -1.06998
    D4        0.00000  -0.00000   0.00000  -0.00001  -0.00001  -0.00000
    D5       -3.14159  -0.00000   0.00000  -0.00001  -0.00001   3.14159
    D6       -0.00001   0.00000   0.00000   0.00000   0.00000  -0.00000
    D7       -2.08524  -0.00099   0.00000  -0.01236  -0.01229  -2.09753
    D8        2.08524   0.00099   0.00000   0.01235   0.01228   2.09752
    D9        3.14159   0.00000   0.00000   0.00000   0.00000   3.14159
   D10        1.05635  -0.00099   0.00000  -0.01236  -0.01229   1.04406
   D11       -1.05635   0.00099   0.00000   0.01235   0.01228  -1.04407
   D12       -3.14159  -0.00000   0.00000  -0.00000  -0.00000  -3.14159
   D13        0.00000  -0.00000   0.00000  -0.00000  -0.00000  -0.00000
   D14        3.14159   0.00000   0.00000   0.00001   0.00001  -3.14159
   D15        0.00000  -0.00000   0.00000  -0.00000  -0.00000   0.00000
   D16       -3.14158  -0.00000   0.00000  -0.00001  -0.00001   3.14159
         Item               Value     Threshold  Converged?
 Maximum Force            0.018733     0.000450     NO 
 RMS     Force            0.006301     0.000300     NO 
 Maximum Displacement     0.264482     0.001800     NO 
 RMS     Displacement     0.101698     0.001200     NO 
 Predicted change in Energy=-3.528569D-03
 GradGradGradGradGradGradGradGradGradGradGradGradGradGradGradGradGradGrad

                          Input orientation:                          
 ---------------------------------------------------------------------
 Center     Atomic      Atomic             Coordinates (Angstroms)
 Number     Number       Type             X           Y           Z
 ---------------------------------------------------------------------
      1          6           0        1.058676    0.000185    0.001646
      2          7           0        2.502531   -0.056499    0.154067
      3          6           0        3.046466   -0.460641    1.240762
      4          6           0        2.345680   -0.932228    2.508816
      5          7           0        4.446318   -0.438832    1.182110
      6          6           0        5.155387   -0.809998    2.180133
      7          6           0        6.589365   -0.773853    2.082954
      8          7           0        7.744861   -0.747732    2.012739
      9          1           0        0.834698    0.373036   -1.000903
     10          1           0        0.591252    0.682517    0.722811
     11          1           0        0.591252   -0.987560    0.101708
     12          1           0        1.263408   -0.898056    2.416948
     13          1           0        2.624235   -0.305127    3.362677
     14          1           0        2.624227   -1.964875    2.745414
     15          1           0        4.772774   -1.166326    3.138267
 ---------------------------------------------------------------------
                    Distance matrix (angstroms):
                    1          2          3          4          5
     1  C    0.000000
     2  N    1.452984   0.000000
     3  C    2.387274   1.280665   0.000000
     4  C    2.968447   2.517210   1.523633   0.000000
     5  N    3.614187   2.231895   1.401250   2.533036   0.000000
     6  C    4.710121   3.422039   2.334955   2.831506   1.279295
     7  C    5.959823   4.575741   3.655067   4.267938   2.348704
     8  N    7.022032   5.604862   4.770040   5.425060   3.415516
     9  H    1.092836   2.073674   3.257607   4.037934   4.297496
    10  H    1.097333   2.126641   2.757383   2.979133   4.041028
    11  H    1.097333   2.126641   2.757384   2.979136   4.041027
    12  H    2.585040   2.713719   2.180376   1.086702   3.444798
    13  H    3.720311   3.220528   2.169098   1.095412   2.844774
    14  H    3.720306   3.220526   2.169098   1.095412   2.844775
    15  H    4.999366   3.910392   2.660575   2.518292   2.112434
                    6          7          8          9         10
     6  C    0.000000
     7  C    1.437721   0.000000
     8  N    2.595626   1.157922   0.000000
     9  H    5.494262   6.628855   7.621582   0.000000
    10  H    5.018238   6.320471   7.408349   1.768116   0.000000
    11  H    5.018237   6.320471   7.408351   1.768117   1.781833
    12  H    3.900171   5.337864   6.495784   3.671672   2.412489
    13  H    2.839020   4.192809   5.314042   4.764785   3.475248
    14  H    2.839024   4.192816   5.314051   4.764781   3.902896
    15  H    1.091505   2.137223   3.205516   5.916994   5.170858
                   11         12         13         14         15
    11  H    0.000000
    12  H    2.412497   0.000000
    13  H    3.902903   1.760062   0.000000
    14  H    3.475243   1.760063   1.770813   0.000000
    15  H    5.170858   3.592760   2.325564   2.325569   0.000000
 Stoichiometry    C5H7N3
 Framework group  C1[X(C5H7N3)]
 Deg. of freedom    39
 Full point group                 C1      NOp   1
 Largest Abelian subgroup         C1      NOp   1
 Largest concise Abelian subgroup C1      NOp   1
                         Standard orientation:                         
 ---------------------------------------------------------------------
 Center     Atomic      Atomic             Coordinates (Angstroms)
 Number     Number       Type             X           Y           Z
 ---------------------------------------------------------------------
      1          6           0        3.146593   -0.643251    0.000000
      2          7           0        1.717365   -0.904919    0.000001
      3          6           0        0.861520    0.047778    0.000000
      4          6           0        1.141334    1.545496    0.000002
      5          7           0       -0.460490   -0.416755   -0.000004
      6          6           0       -1.447074    0.397644   -0.000005
      7          6           0       -2.789871   -0.116105   -0.000002
      8          7           0       -3.874389   -0.521820    0.000005
      9          1           0        3.670190   -1.602488    0.000003
     10          1           0        3.467434   -0.088752    0.890917
     11          1           0        3.467435   -0.088753   -0.890916
     12          1           0        2.205741    1.764493    0.000008
     13          1           0        0.706525    2.021865    0.885407
     14          1           0        0.706534    2.021865   -0.885407
     15          1           0       -1.376274    1.486851   -0.000004
 ---------------------------------------------------------------------
 Rotational constants (GHZ):           6.9670567           0.8965912           0.8023857
 Standard basis: 6-31G(2df,p) (6D, 7F)
 There are   283 symmetry adapted cartesian basis functions of A   symmetry.
 There are   259 symmetry adapted basis functions of A   symmetry.
   259 basis functions,   401 primitive gaussians,   283 cartesian basis functions
    29 alpha electrons       29 beta electrons
       nuclear repulsion energy       319.5081960124 Hartrees.
 NAtoms=   15 NActive=   15 NUniq=   15 SFac= 1.00D+00 NAtFMM=   60 NAOKFM=F Big=F
 Integral buffers will be    131072 words long.
 Raffenetti 2 integral format.
 Two-electron integral symmetry is turned on.
 One-electron integrals computed using PRISM.
 PrsmSu:  requested number of processors reduced to:  13 ShMem   1 Linda.
 NBasis=   259 RedAO= T EigKep=  1.44D-04  NBF=   259
 NBsUse=   259 1.00D-06 EigRej= -1.00D+00 NBFU=   259
 Initial guess from the checkpoint file:  "CNdCpCpNdCCtN.chk"
 B after Tr=     0.000000    0.000000   -0.000000
         Rot=    1.000000    0.000000    0.000000    0.000420 Ang=   0.05 deg.
 ExpMin= 1.61D-01 ExpMax= 4.17D+03 ExpMxC= 6.27D+02 IAcc=2 IRadAn=         4 AccDes= 0.00D+00
 Harris functional with IExCor=  402 and IRadAn=       4 diagonalized for initial guess.
 HarFok:  IExCor=  402 AccDes= 0.00D+00 IRadAn=         4 IDoV= 1 UseB2=F ITyADJ=14
 ICtDFT=  3500011 ScaDFX=  1.000000  1.000000  1.000000  1.000000
 FoFCou: FMM=F IPFlag=           0 FMFlag=      100000 FMFlg1=           0
         NFxFlg=           0 DoJE=T BraDBF=F KetDBF=T FulRan=T
         wScrn=  0.000000 ICntrl=       500 IOpCl=  0 I1Cent=   200000004 NGrid=           0
         NMat0=    1 NMatS0=      1 NMatT0=    0 NMatD0=    1 NMtDS0=    0 NMtDT0=    0
 Petite list used in FoFCou.
 Requested convergence on RMS density matrix=1.00D-08 within 128 cycles.
 Requested convergence on MAX density matrix=1.00D-06.
 Requested convergence on             energy=1.00D-06.
 No special actions if energy rises.
 Integral accuracy reduced to 1.0D-05 until final iterations.
 Initial convergence to 1.0D-05 achieved.  Increase integral accuracy.
 SCF Done:  E(RB3LYP) =  -358.955976388     A.U. after   12 cycles
            NFock= 12  Conv=0.81D-08     -V/T= 2.0077
 PrsmSu:  requested number of processors reduced to:  13 ShMem   1 Linda.
 Calling FoFJK, ICntrl=      2127 FMM=F ISym2X=0 I1Cent= 0 IOpClX= 0 NMat=1 NMatS=1 NMatT=0.
 ***** Axes restored to original set *****
 -------------------------------------------------------------------
 Center     Atomic                   Forces (Hartrees/Bohr)
 Number     Number              X              Y              Z
 -------------------------------------------------------------------
      1        6           0.002921035    0.000264479   -0.000709309
      2        7           0.000165584   -0.002267569    0.006096557
      3        6          -0.011491325    0.001740576   -0.004680941
      4        6           0.001955668    0.001243560   -0.003343378
      5        7           0.011513046   -0.001780322    0.004787642
      6        6          -0.001282293    0.001432208   -0.003850314
      7        6           0.000395118    0.001030866   -0.002771893
      8        7          -0.001287834   -0.000625369    0.001681232
      9        1          -0.000275726   -0.000118875    0.000319207
     10        1          -0.000442109   -0.000737312    0.001190374
     11        1          -0.000442092   -0.000219910    0.001382782
     12        1          -0.001855499    0.000710909   -0.001911729
     13        1           0.000660070   -0.000492246    0.000127301
     14        1           0.000660024    0.000289338    0.000418037
     15        1          -0.001193667   -0.000470334    0.001264432
 -------------------------------------------------------------------
 Cartesian Forces:  Max     0.011513046 RMS     0.003100766

 GradGradGradGradGradGradGradGradGradGradGradGradGradGradGradGradGradGrad
 Berny optimization.
 Using GEDIIS/GDIIS optimizer.
 FormGI is forming the generalized inverse of G from B-inverse, IUseBI=4.
 Internal  Forces:  Max     0.008815532 RMS     0.002794195
 Search for a local minimum.
 Step number   2 out of a maximum of   62
 All quantities printed in internal units (Hartrees-Bohrs-Radians)
 Mixed Optimization -- RFO/linear search
 Update second derivatives using D2CorX and points    1    2
 DE= -2.72D-03 DEPred=-3.53D-03 R= 7.72D-01
 TightC=F SS=  1.41D+00  RLast= 1.89D-01 DXNew= 5.0454D-01 5.6732D-01
 Trust test= 7.72D-01 RLast= 1.89D-01 DXMaxT set to 5.05D-01
 ITU=  1  0
 Use linear search instead of GDIIS.
     Eigenvalues ---    0.00564   0.00885   0.01277   0.01909   0.02162
     Eigenvalues ---    0.03174   0.03190   0.04789   0.05231   0.06989
     Eigenvalues ---    0.07119   0.09538   0.10163   0.14840   0.16000
     Eigenvalues ---    0.16000   0.16000   0.16000   0.16000   0.16156
     Eigenvalues ---    0.21238   0.24857   0.25000   0.25000   0.29495
     Eigenvalues ---    0.33364   0.34006   0.34054   0.34327   0.34439
     Eigenvalues ---    0.34471   0.34521   0.36131   0.37490   0.39001
     Eigenvalues ---    0.46200   0.68867   0.70996   1.22837
 RFO step:  Lambda=-9.19926348D-04 EMin= 5.64016799D-03
 Quartic linear search produced a step of -0.15621.
 Iteration  1 RMS(Cart)=  0.04406349 RMS(Int)=  0.00087509
 Iteration  2 RMS(Cart)=  0.00108976 RMS(Int)=  0.00001132
 Iteration  3 RMS(Cart)=  0.00000022 RMS(Int)=  0.00001132
 Variable       Old X    -DE/DX   Delta X   Delta X   Delta X     New X
                                 (Linear)    (Quad)   (Total)
    R1        2.74574  -0.00201   0.00237  -0.00904  -0.00667   2.73908
    R2        2.06516  -0.00028   0.00037  -0.00137  -0.00100   2.06416
    R3        2.07366   0.00051  -0.00020   0.00164   0.00144   2.07510
    R4        2.07366   0.00051  -0.00020   0.00164   0.00144   2.07510
    R5        2.42011  -0.00882   0.00216  -0.01458  -0.01242   2.40768
    R6        2.87925  -0.00512  -0.00247  -0.00935  -0.01182   2.86743
    R7        2.64798   0.00808  -0.00521   0.02383   0.01862   2.66660
    R8        2.05357   0.00203   0.00076   0.00348   0.00424   2.05781
    R9        2.07003  -0.00001  -0.00072   0.00131   0.00059   2.07062
   R10        2.07003  -0.00001  -0.00072   0.00131   0.00059   2.07062
   R11        2.41752  -0.00513   0.00219  -0.01022  -0.00803   2.40949
   R12        2.71690  -0.00081   0.00164  -0.00480  -0.00316   2.71373
   R13        2.06265   0.00168   0.00204   0.00036   0.00240   2.06505
   R14        2.18816  -0.00140   0.00235  -0.00539  -0.00304   2.18512
    A1        1.88937   0.00121   0.00535  -0.00084   0.00449   1.89386
    A2        1.95908  -0.00035  -0.00175   0.00004  -0.00175   1.95733
    A3        1.95909  -0.00035  -0.00175   0.00003  -0.00175   1.95733
    A4        1.87911   0.00049  -0.00242   0.00956   0.00711   1.88622
    A5        1.87911   0.00049  -0.00242   0.00956   0.00711   1.88623
    A6        1.89477  -0.00139   0.00292  -0.01723  -0.01435   1.88042
    A7        2.12161  -0.00821  -0.00785  -0.01299  -0.02084   2.10077
    A8        2.22500  -0.00626  -0.01053  -0.00144  -0.01197   2.21303
    A9        1.96479   0.00681   0.01015   0.00400   0.01415   1.97894
   A10        2.09340  -0.00055   0.00038  -0.00256  -0.00218   2.09122
   A11        1.95841  -0.00251   0.00296  -0.01817  -0.01521   1.94320
   A12        1.93326   0.00032  -0.00386   0.00859   0.00474   1.93800
   A13        1.93326   0.00032  -0.00386   0.00859   0.00474   1.93800
   A14        1.87669   0.00124  -0.00095   0.00865   0.00770   1.88440
   A15        1.87670   0.00124  -0.00095   0.00864   0.00770   1.88440
   A16        1.88247  -0.00051   0.00706  -0.01642  -0.00935   1.87312
   A17        2.11360  -0.00326  -0.00367  -0.00414  -0.00780   2.10580
   A18        2.08610   0.00071  -0.00717   0.01604   0.00887   2.09497
   A19        2.19597  -0.00102   0.00505  -0.01420  -0.00915   2.18682
   A20        2.00112   0.00031   0.00212  -0.00184   0.00028   2.00140
   A21        3.13416  -0.00373  -0.01670  -0.03595  -0.05265   3.08151
   A22        3.14160  -0.00000   0.00000  -0.00000  -0.00000   3.14160
    D1        3.14159   0.00000  -0.00000   0.00000   0.00000  -3.14159
    D2        1.06998  -0.00118   0.00061  -0.01129  -0.01067   1.05931
    D3       -1.06998   0.00118  -0.00061   0.01129   0.01067  -1.05931
    D4       -0.00000   0.00000   0.00000   0.00000   0.00000  -0.00000
    D5        3.14159   0.00000   0.00000   0.00000   0.00001  -3.14159
    D6       -0.00000   0.00000  -0.00000   0.00000   0.00000  -0.00000
    D7       -2.09753  -0.00011   0.00192  -0.00468  -0.00276  -2.10029
    D8        2.09752   0.00011  -0.00192   0.00468   0.00277   2.10029
    D9        3.14159  -0.00000  -0.00000  -0.00000  -0.00000   3.14159
   D10        1.04406  -0.00011   0.00192  -0.00468  -0.00277   1.04130
   D11       -1.04407   0.00011  -0.00192   0.00468   0.00276  -1.04131
   D12       -3.14159   0.00000   0.00000  -0.00000  -0.00000   3.14159
   D13       -0.00000   0.00000   0.00000   0.00000   0.00000   0.00000
   D14       -3.14159  -0.00000  -0.00000  -0.00001  -0.00001   3.14159
   D15        0.00000  -0.00000   0.00000   0.00000   0.00000   0.00000
   D16        3.14159   0.00000   0.00000   0.00000   0.00001  -3.14159
         Item               Value     Threshold  Converged?
 Maximum Force            0.008816     0.000450     NO 
 RMS     Force            0.002794     0.000300     NO 
 Maximum Displacement     0.163833     0.001800     NO 
 RMS     Displacement     0.044203     0.001200     NO 
 Predicted change in Energy=-5.475850D-04
 GradGradGradGradGradGradGradGradGradGradGradGradGradGradGradGradGradGrad

                          Input orientation:                          
 ---------------------------------------------------------------------
 Center     Atomic      Atomic             Coordinates (Angstroms)
 Number     Number       Type             X           Y           Z
 ---------------------------------------------------------------------
      1          6           0        1.054055   -0.009603    0.027970
      2          7           0        2.498802   -0.050304    0.137405
      3          6           0        3.052226   -0.450335    1.213046
      4          6           0        2.352567   -0.919671    2.475046
      5          7           0        4.462134   -0.430078    1.158580
      6          6           0        5.156829   -0.802766    2.160700
      7          6           0        6.590933   -0.776735    2.090703
      8          7           0        7.747209   -0.779980    2.099436
      9          1           0        0.791842    0.360014   -0.965892
     10          1           0        0.601339    0.660340    0.770960
     11          1           0        0.601337   -1.002232    0.152652
     12          1           0        1.269828   -0.879195    2.366220
     13          1           0        2.629548   -0.297092    3.333120
     14          1           0        2.629543   -1.951645    2.717791
     15          1           0        4.752938   -1.156709    3.112413
 ---------------------------------------------------------------------
                    Distance matrix (angstroms):
                    1          2          3          4          5
     1  C    0.000000
     2  N    1.449457   0.000000
     3  C    2.364601   1.274091   0.000000
     4  C    2.915911   2.498349   1.517380   0.000000
     5  N    3.615257   2.245373   1.411105   2.534376   0.000000
     6  C    4.691524   3.424184   2.334869   2.824246   1.275046
     7  C    5.958219   4.592234   3.660500   4.258156   2.349640
     8  N    7.048600   5.650466   4.789282   5.409507   3.435019
     9  H    1.092307   2.073484   3.242495   3.989174   4.313777
    10  H    1.098094   2.122916   2.726882   2.909835   4.030509
    11  H    1.098094   2.122916   2.726882   2.909835   4.030510
    12  H    2.504029   2.676762   2.165796   1.088946   3.442516
    13  H    3.672716   3.207895   2.167222   1.095725   2.846872
    14  H    3.672714   3.207894   2.167222   1.095724   2.846875
    15  H    4.950896   3.893062   2.645559   2.494836   2.104762
                    6          7          8          9         10
     6  C    0.000000
     7  C    1.436047   0.000000
     8  N    2.591204   1.156314   0.000000
     9  H    5.493701   6.653151   7.685893   0.000000
    10  H    4.982424   6.299376   7.409644   1.772892   0.000000
    11  H    4.982425   6.299377   7.409646   1.772892   1.773823
    12  H    3.893180   5.329217   6.483631   3.587072   2.315578
    13  H    2.831506   4.179261   5.286361   4.721277   3.405138
    14  H    2.831510   4.179265   5.286366   4.721274   3.837476
    15  H    1.092777   2.136936   3.183348   5.884157   5.100965
                   11         12         13         14         15
    11  H    0.000000
    12  H    2.315579   0.000000
    13  H    3.837478   1.767081   0.000000
    14  H    3.405135   1.767081   1.765269   0.000000
    15  H    5.100965   3.572936   2.301400   2.301403   0.000000
 Stoichiometry    C5H7N3
 Framework group  C1[X(C5H7N3)]
 Deg. of freedom    39
 Full point group                 C1      NOp   1
 Largest Abelian subgroup         C1      NOp   1
 Largest concise Abelian subgroup C1      NOp   1
                         Standard orientation:                         
 ---------------------------------------------------------------------
 Center     Atomic      Atomic             Coordinates (Angstroms)
 Number     Number       Type             X           Y           Z
 ---------------------------------------------------------------------
      1          6           0        3.149563   -0.593838    0.000001
      2          7           0        1.734837   -0.909237   -0.000001
      3          6           0        0.866993    0.023583   -0.000001
      4          6           0        1.137510    1.516655    0.000000
      5          7           0       -0.462774   -0.448580   -0.000000
      6          6           0       -1.442400    0.367555   -0.000000
      7          6           0       -2.790385   -0.127588   -0.000001
      8          7           0       -3.897773   -0.460384    0.000001
      9          1           0        3.713418   -1.529360    0.000001
     10          1           0        3.445277   -0.017861    0.886913
     11          1           0        3.445278   -0.017859   -0.886910
     12          1           0        2.206203    1.725695    0.000003
     13          1           0        0.699362    1.995817    0.882634
     14          1           0        0.699366    1.995817   -0.882635
     15          1           0       -1.356612    1.456959   -0.000002
 ---------------------------------------------------------------------
 Rotational constants (GHZ):           7.2802048           0.8911559           0.8019195
 Standard basis: 6-31G(2df,p) (6D, 7F)
 There are   283 symmetry adapted cartesian basis functions of A   symmetry.
 There are   259 symmetry adapted basis functions of A   symmetry.
   259 basis functions,   401 primitive gaussians,   283 cartesian basis functions
    29 alpha electrons       29 beta electrons
       nuclear repulsion energy       320.0848210006 Hartrees.
 NAtoms=   15 NActive=   15 NUniq=   15 SFac= 1.00D+00 NAtFMM=   60 NAOKFM=F Big=F
 Integral buffers will be    131072 words long.
 Raffenetti 2 integral format.
 Two-electron integral symmetry is turned on.
 One-electron integrals computed using PRISM.
 PrsmSu:  requested number of processors reduced to:  13 ShMem   1 Linda.
 NBasis=   259 RedAO= T EigKep=  1.43D-04  NBF=   259
 NBsUse=   259 1.00D-06 EigRej= -1.00D+00 NBFU=   259
 Initial guess from the checkpoint file:  "CNdCpCpNdCCtN.chk"
 B after Tr=     0.000000   -0.000000   -0.000000
         Rot=    1.000000   -0.000000   -0.000000   -0.000352 Ang=  -0.04 deg.
 ExpMin= 1.61D-01 ExpMax= 4.17D+03 ExpMxC= 6.27D+02 IAcc=2 IRadAn=         4 AccDes= 0.00D+00
 Harris functional with IExCor=  402 and IRadAn=       4 diagonalized for initial guess.
 HarFok:  IExCor=  402 AccDes= 0.00D+00 IRadAn=         4 IDoV= 1 UseB2=F ITyADJ=14
 ICtDFT=  3500011 ScaDFX=  1.000000  1.000000  1.000000  1.000000
 FoFCou: FMM=F IPFlag=           0 FMFlag=      100000 FMFlg1=           0
         NFxFlg=           0 DoJE=T BraDBF=F KetDBF=T FulRan=T
         wScrn=  0.000000 ICntrl=       500 IOpCl=  0 I1Cent=   200000004 NGrid=           0
         NMat0=    1 NMatS0=      1 NMatT0=    0 NMatD0=    1 NMtDS0=    0 NMtDT0=    0
 Petite list used in FoFCou.
 Requested convergence on RMS density matrix=1.00D-08 within 128 cycles.
 Requested convergence on MAX density matrix=1.00D-06.
 Requested convergence on             energy=1.00D-06.
 No special actions if energy rises.
 Integral accuracy reduced to 1.0D-05 until final iterations.
 Initial convergence to 1.0D-05 achieved.  Increase integral accuracy.
 SCF Done:  E(RB3LYP) =  -358.956534908     A.U. after   12 cycles
            NFock= 12  Conv=0.80D-08     -V/T= 2.0076
 PrsmSu:  requested number of processors reduced to:  13 ShMem   1 Linda.
 Calling FoFJK, ICntrl=      2127 FMM=F ISym2X=0 I1Cent= 0 IOpClX= 0 NMat=1 NMatS=1 NMatT=0.
 ***** Axes restored to original set *****
 -------------------------------------------------------------------
 Center     Atomic                   Forces (Hartrees/Bohr)
 Number     Number              X              Y              Z
 -------------------------------------------------------------------
      1        6          -0.000202477    0.000411344   -0.001106639
      2        7           0.000221479   -0.000517798    0.001392348
      3        6          -0.001745546   -0.000189588    0.000510693
      4        6           0.000240807    0.000296866   -0.000798054
      5        7           0.003295843    0.000160143   -0.000430906
      6        6          -0.001137216    0.000444751   -0.001196623
      7        6          -0.002006170   -0.000259108    0.000697409
      8        7           0.002342925    0.000076043   -0.000204735
      9        1          -0.000684123   -0.000116669    0.000313677
     10        1          -0.000259876    0.000067543   -0.000079350
     11        1          -0.000259858    0.000000875   -0.000104240
     12        1           0.000112226   -0.000105586    0.000283897
     13        1          -0.000056629    0.000001778   -0.000194054
     14        1          -0.000056592    0.000125250   -0.000147961
     15        1           0.000195208   -0.000395845    0.001064538
 -------------------------------------------------------------------
 Cartesian Forces:  Max     0.003295843 RMS     0.000871529

 GradGradGradGradGradGradGradGradGradGradGradGradGradGradGradGradGradGrad
 Berny optimization.
 Using GEDIIS/GDIIS optimizer.
 FormGI is forming the generalized inverse of G from B-inverse, IUseBI=4.
 Internal  Forces:  Max     0.002692627 RMS     0.000708351
 Search for a local minimum.
 Step number   3 out of a maximum of   62
 All quantities printed in internal units (Hartrees-Bohrs-Radians)
 Mixed Optimization -- En-DIIS/RFO-DIIS
 Update second derivatives using D2CorX and points    1    2    3
 DE= -5.59D-04 DEPred=-5.48D-04 R= 1.02D+00
 TightC=F SS=  1.41D+00  RLast= 7.52D-02 DXNew= 8.4853D-01 2.2551D-01
 Trust test= 1.02D+00 RLast= 7.52D-02 DXMaxT set to 5.05D-01
 ITU=  1  1  0
 Use linear search instead of GDIIS.
     Eigenvalues ---    0.00564   0.00885   0.01285   0.01909   0.02157
     Eigenvalues ---    0.03174   0.03190   0.04789   0.05372   0.07056
     Eigenvalues ---    0.07089   0.09503   0.10109   0.15140   0.16000
     Eigenvalues ---    0.16000   0.16000   0.16000   0.16133   0.16566
     Eigenvalues ---    0.20721   0.24808   0.25000   0.25708   0.29455
     Eigenvalues ---    0.33450   0.34032   0.34054   0.34211   0.34333
     Eigenvalues ---    0.34471   0.34502   0.35805   0.38545   0.39125
     Eigenvalues ---    0.41175   0.70143   0.71112   1.25052
 RFO step:  Lambda=-7.79340162D-05 EMin= 5.64016799D-03
 Quartic linear search produced a step of  0.00114.
 Iteration  1 RMS(Cart)=  0.00740347 RMS(Int)=  0.00001431
 Iteration  2 RMS(Cart)=  0.00002432 RMS(Int)=  0.00000162
 Iteration  3 RMS(Cart)=  0.00000000 RMS(Int)=  0.00000162
 Variable       Old X    -DE/DX   Delta X   Delta X   Delta X     New X
                                 (Linear)    (Quad)   (Total)
    R1        2.73908   0.00149  -0.00001   0.00336   0.00335   2.74243
    R2        2.06416  -0.00016  -0.00000  -0.00056  -0.00057   2.06360
    R3        2.07510   0.00010   0.00000   0.00040   0.00040   2.07550
    R4        2.07510   0.00010   0.00000   0.00040   0.00040   2.07550
    R5        2.40768   0.00011  -0.00001  -0.00090  -0.00091   2.40677
    R6        2.86743  -0.00092  -0.00001  -0.00366  -0.00367   2.86376
    R7        2.66660   0.00269   0.00002   0.00724   0.00726   2.67387
    R8        2.05781  -0.00014   0.00000  -0.00015  -0.00015   2.05766
    R9        2.07062  -0.00017   0.00000  -0.00038  -0.00038   2.07024
   R10        2.07062  -0.00016   0.00000  -0.00038  -0.00038   2.07024
   R11        2.40949  -0.00001  -0.00001  -0.00075  -0.00076   2.40873
   R12        2.71373   0.00031  -0.00000   0.00044   0.00044   2.71417
   R13        2.06505   0.00098   0.00000   0.00292   0.00292   2.06797
   R14        2.18512   0.00234  -0.00000   0.00149   0.00149   2.18660
    A1        1.89386   0.00099   0.00001   0.00626   0.00626   1.90012
    A2        1.95733   0.00012  -0.00000   0.00066   0.00065   1.95798
    A3        1.95733   0.00012  -0.00000   0.00066   0.00065   1.95798
    A4        1.88622  -0.00052   0.00001  -0.00238  -0.00238   1.88385
    A5        1.88623  -0.00052   0.00001  -0.00238  -0.00238   1.88385
    A6        1.88042  -0.00025  -0.00002  -0.00312  -0.00314   1.87728
    A7        2.10077   0.00161  -0.00002   0.00542   0.00539   2.10617
    A8        2.21303  -0.00045  -0.00001  -0.00194  -0.00196   2.21107
    A9        1.97894   0.00098   0.00002   0.00422   0.00423   1.98317
   A10        2.09122  -0.00053  -0.00000  -0.00227  -0.00228   2.08894
   A11        1.94320   0.00046  -0.00002   0.00165   0.00164   1.94483
   A12        1.93800  -0.00017   0.00001  -0.00050  -0.00050   1.93751
   A13        1.93800  -0.00017   0.00001  -0.00050  -0.00049   1.93751
   A14        1.88440  -0.00013   0.00001  -0.00006  -0.00005   1.88435
   A15        1.88440  -0.00013   0.00001  -0.00006  -0.00005   1.88435
   A16        1.87312   0.00014  -0.00001  -0.00060  -0.00061   1.87252
   A17        2.10580  -0.00142  -0.00001  -0.00596  -0.00597   2.09983
   A18        2.09497   0.00021   0.00001   0.00212   0.00213   2.09709
   A19        2.18682   0.00051  -0.00001   0.00235   0.00234   2.18915
   A20        2.00140  -0.00073   0.00000  -0.00447  -0.00447   1.99694
   A21        3.08151   0.00052  -0.00006   0.00823   0.00817   3.08968
   A22        3.14160  -0.00000  -0.00000  -0.00000  -0.00000   3.14159
    D1       -3.14159  -0.00000   0.00000   0.00000   0.00000  -3.14159
    D2        1.05931  -0.00007  -0.00001  -0.00155  -0.00157   1.05775
    D3       -1.05931   0.00007   0.00001   0.00155   0.00157  -1.05775
    D4       -0.00000  -0.00000   0.00000   0.00000   0.00000   0.00000
    D5       -3.14159  -0.00000   0.00000  -0.00001  -0.00001   3.14159
    D6       -0.00000  -0.00000   0.00000  -0.00000  -0.00000  -0.00000
    D7       -2.10029  -0.00003  -0.00000  -0.00071  -0.00071  -2.10100
    D8        2.10029   0.00003   0.00000   0.00070   0.00070   2.10099
    D9        3.14159   0.00000  -0.00000   0.00000   0.00000  -3.14159
   D10        1.04130  -0.00003  -0.00000  -0.00070  -0.00070   1.04059
   D11       -1.04131   0.00003   0.00000   0.00071   0.00071  -1.04059
   D12        3.14159   0.00000  -0.00000   0.00000   0.00000  -3.14159
   D13        0.00000  -0.00000   0.00000  -0.00000  -0.00000  -0.00000
   D14        3.14159   0.00000  -0.00000   0.00000   0.00000  -3.14159
   D15        0.00000  -0.00000   0.00000  -0.00000  -0.00000   0.00000
   D16       -3.14159  -0.00000   0.00000  -0.00000  -0.00000   3.14159
         Item               Value     Threshold  Converged?
 Maximum Force            0.002693     0.000450     NO 
 RMS     Force            0.000708     0.000300     NO 
 Maximum Displacement     0.020536     0.001800     NO 
 RMS     Displacement     0.007399     0.001200     NO 
 Predicted change in Energy=-3.898066D-05
 GradGradGradGradGradGradGradGradGradGradGradGradGradGradGradGradGradGrad

                          Input orientation:                          
 ---------------------------------------------------------------------
 Center     Atomic      Atomic             Coordinates (Angstroms)
 Number     Number       Type             X           Y           Z
 ---------------------------------------------------------------------
      1          6           0        1.048951   -0.009082    0.026567
      2          7           0        2.495377   -0.050210    0.137161
      3          6           0        3.053904   -0.449190    1.209979
      4          6           0        2.358747   -0.918578    2.472112
      5          7           0        4.467630   -0.428681    1.154829
      6          6           0        5.156146   -0.802596    2.160239
      7          6           0        6.591013   -0.780408    2.100577
      8          7           0        7.748081   -0.783464    2.108799
      9          1           0        0.780975    0.359924   -0.965654
     10          1           0        0.595032    0.659737    0.770148
     11          1           0        0.595034   -1.001247    0.152430
     12          1           0        1.275596   -0.879736    2.367673
     13          1           0        2.638121   -0.296000    3.329152
     14          1           0        2.638119   -1.949877    2.714072
     15          1           0        4.748404   -1.156582    3.112068
 ---------------------------------------------------------------------
                    Distance matrix (angstroms):
                    1          2          3          4          5
     1  C    0.000000
     2  N    1.451230   0.000000
     3  C    2.369387   1.273608   0.000000
     4  C    2.919493   2.494941   1.515437   0.000000
     5  N    3.624418   2.251371   1.414950   2.534290   0.000000
     6  C    4.695878   3.426167   2.333947   2.817120   1.274643
     7  C    5.967487   4.600264   3.662514   4.250789   2.350937
     8  N    7.057882   5.658261   4.791128   5.403256   3.434718
     9  H    1.092007   2.079323   3.248731   3.992765   4.325479
    10  H    1.098305   2.125090   2.732987   2.915210   4.040996
    11  H    1.098305   2.125090   2.732988   2.915209   4.040994
    12  H    2.508023   2.674166   2.165181   1.088867   3.444347
    13  H    3.676254   3.204621   2.165002   1.095523   2.844712
    14  H    3.676251   3.204619   2.165002   1.095523   2.844712
    15  H    4.952072   3.892333   2.643799   2.485287   2.107002
                    6          7          8          9         10
     6  C    0.000000
     7  C    1.436278   0.000000
     8  N    2.592516   1.157101   0.000000
     9  H    5.501344   6.667733   7.700659   0.000000
    10  H    4.987437   6.308394   7.418957   1.771291   0.000000
    11  H    4.987434   6.308392   7.418954   1.771291   1.772130
    12  H    3.886856   5.323051   6.478376   3.590610   2.320609
    13  H    2.821958   4.167661   5.276227   4.724890   3.411179
    14  H    2.821958   4.167662   5.276228   4.724886   3.842281
    15  H    1.094321   2.135376   3.184938   5.887962   5.102362
                   11         12         13         14         15
    11  H    0.000000
    12  H    2.320610   0.000000
    13  H    3.842283   1.766823   0.000000
    14  H    3.411173   1.766823   1.764548   0.000000
    15  H    5.102359   3.562466   2.289327   2.289327   0.000000
 Stoichiometry    C5H7N3
 Framework group  C1[X(C5H7N3)]
 Deg. of freedom    39
 Full point group                 C1      NOp   1
 Largest Abelian subgroup         C1      NOp   1
 Largest concise Abelian subgroup C1      NOp   1
                         Standard orientation:                         
 ---------------------------------------------------------------------
 Center     Atomic      Atomic             Coordinates (Angstroms)
 Number     Number       Type             X           Y           Z
 ---------------------------------------------------------------------
      1          6           0        3.156773   -0.587981   -0.000001
      2          7           0        1.740717   -0.905558    0.000001
      3          6           0        0.867013    0.021113    0.000002
      4          6           0        1.130174    1.513526    0.000001
      5          7           0       -0.465225   -0.455566    0.000001
      6          6           0       -1.441643    0.363778   -0.000002
      7          6           0       -2.792633   -0.123787   -0.000001
      8          7           0       -3.899941   -0.459574    0.000001
      9          1           0        3.727498   -1.518977   -0.000003
     10          1           0        3.452190   -0.010148    0.886063
     11          1           0        3.452187   -0.010147   -0.886067
     12          1           0        2.197445    1.729317    0.000002
     13          1           0        0.689062    1.990165    0.882274
     14          1           0        0.689064    1.990163   -0.882275
     15          1           0       -1.354414    1.454617   -0.000003
 ---------------------------------------------------------------------
 Rotational constants (GHZ):           7.3156270           0.8893541           0.8008756
 Standard basis: 6-31G(2df,p) (6D, 7F)
 There are   283 symmetry adapted cartesian basis functions of A   symmetry.
 There are   259 symmetry adapted basis functions of A   symmetry.
   259 basis functions,   401 primitive gaussians,   283 cartesian basis functions
    29 alpha electrons       29 beta electrons
       nuclear repulsion energy       319.9563748309 Hartrees.
 NAtoms=   15 NActive=   15 NUniq=   15 SFac= 1.00D+00 NAtFMM=   60 NAOKFM=F Big=F
 Integral buffers will be    131072 words long.
 Raffenetti 2 integral format.
 Two-electron integral symmetry is turned on.
 One-electron integrals computed using PRISM.
 PrsmSu:  requested number of processors reduced to:  13 ShMem   1 Linda.
 NBasis=   259 RedAO= T EigKep=  1.42D-04  NBF=   259
 NBsUse=   259 1.00D-06 EigRej= -1.00D+00 NBFU=   259
 Initial guess from the checkpoint file:  "CNdCpCpNdCCtN.chk"
 B after Tr=     0.000000    0.000000    0.000000
         Rot=    1.000000    0.000000   -0.000000   -0.000538 Ang=   0.06 deg.
 ExpMin= 1.61D-01 ExpMax= 4.17D+03 ExpMxC= 6.27D+02 IAcc=2 IRadAn=         4 AccDes= 0.00D+00
 Harris functional with IExCor=  402 and IRadAn=       4 diagonalized for initial guess.
 HarFok:  IExCor=  402 AccDes= 0.00D+00 IRadAn=         4 IDoV= 1 UseB2=F ITyADJ=14
 ICtDFT=  3500011 ScaDFX=  1.000000  1.000000  1.000000  1.000000
 FoFCou: FMM=F IPFlag=           0 FMFlag=      100000 FMFlg1=           0
         NFxFlg=           0 DoJE=T BraDBF=F KetDBF=T FulRan=T
         wScrn=  0.000000 ICntrl=       500 IOpCl=  0 I1Cent=   200000004 NGrid=           0
         NMat0=    1 NMatS0=      1 NMatT0=    0 NMatD0=    1 NMtDS0=    0 NMtDT0=    0
 Petite list used in FoFCou.
 Requested convergence on RMS density matrix=1.00D-08 within 128 cycles.
 Requested convergence on MAX density matrix=1.00D-06.
 Requested convergence on             energy=1.00D-06.
 No special actions if energy rises.
 Integral accuracy reduced to 1.0D-05 until final iterations.
 Initial convergence to 1.0D-05 achieved.  Increase integral accuracy.
 SCF Done:  E(RB3LYP) =  -358.956570884     A.U. after   10 cycles
            NFock= 10  Conv=0.86D-08     -V/T= 2.0076
 PrsmSu:  requested number of processors reduced to:  13 ShMem   1 Linda.
 Calling FoFJK, ICntrl=      2127 FMM=F ISym2X=0 I1Cent= 0 IOpClX= 0 NMat=1 NMatS=1 NMatT=0.
 ***** Axes restored to original set *****
 -------------------------------------------------------------------
 Center     Atomic                   Forces (Hartrees/Bohr)
 Number     Number              X              Y              Z
 -------------------------------------------------------------------
      1        6           0.000256193   -0.000111562    0.000300090
      2        7           0.000175464   -0.000038469    0.000103487
      3        6          -0.001195524   -0.000031288    0.000082722
      4        6           0.000008859    0.000011251   -0.000029855
      5        7           0.000764221    0.000286128   -0.000768780
      6        6          -0.000508206   -0.000173828    0.000467713
      7        6          -0.000157136    0.000101666   -0.000273441
      8        7           0.000425983   -0.000042711    0.000114766
      9        1           0.000118809    0.000001560   -0.000004147
     10        1           0.000038163    0.000092490   -0.000032199
     11        1           0.000038247   -0.000048931   -0.000084793
     12        1           0.000064668   -0.000047616    0.000128077
     13        1          -0.000135062    0.000062011   -0.000004321
     14        1          -0.000135032   -0.000044119   -0.000043826
     15        1           0.000240354   -0.000016581    0.000044508
 -------------------------------------------------------------------
 Cartesian Forces:  Max     0.001195524 RMS     0.000293752

 GradGradGradGradGradGradGradGradGradGradGradGradGradGradGradGradGradGrad
 Berny optimization.
 Using GEDIIS/GDIIS optimizer.
 FormGI is forming the generalized inverse of G from B-inverse, IUseBI=4.
 Internal  Forces:  Max     0.000784224 RMS     0.000237331
 Search for a local minimum.
 Step number   4 out of a maximum of   62
 All quantities printed in internal units (Hartrees-Bohrs-Radians)
 Mixed Optimization -- En-DIIS/RFO-DIIS
 Swapping is turned off.
 Update second derivatives using D2CorX and points    1    2    3    4
 DE= -3.60D-05 DEPred=-3.90D-05 R= 9.23D-01
 TightC=F SS=  1.41D+00  RLast= 1.87D-02 DXNew= 8.4853D-01 5.6184D-02
 Trust test= 9.23D-01 RLast= 1.87D-02 DXMaxT set to 5.05D-01
 ITU=  1  1  1  0
     Eigenvalues ---    0.00564   0.00885   0.01288   0.01909   0.02160
     Eigenvalues ---    0.03174   0.03190   0.04789   0.05522   0.07045
     Eigenvalues ---    0.07189   0.09675   0.10064   0.14757   0.15824
     Eigenvalues ---    0.16000   0.16000   0.16000   0.16102   0.16488
     Eigenvalues ---    0.21128   0.23927   0.24947   0.28084   0.28993
     Eigenvalues ---    0.33134   0.34005   0.34054   0.34198   0.34422
     Eigenvalues ---    0.34471   0.34502   0.36657   0.37690   0.39162
     Eigenvalues ---    0.41026   0.70208   0.71832   1.23160
 En-DIIS/RFO-DIIS/Sim-DIIS IScMMF=       -3 using points:     4    3
 RFO step:  Lambda=-9.45384873D-06.
 DidBck=F Rises=F RFO-DIIS coefs:    0.91879    0.08121
 Iteration  1 RMS(Cart)=  0.00258019 RMS(Int)=  0.00000214
 Iteration  2 RMS(Cart)=  0.00000317 RMS(Int)=  0.00000014
 Iteration  3 RMS(Cart)=  0.00000000 RMS(Int)=  0.00000014
 Variable       Old X    -DE/DX   Delta X   Delta X   Delta X     New X
                                 (Linear)    (Quad)   (Total)
    R1        2.74243  -0.00046  -0.00027  -0.00057  -0.00084   2.74159
    R2        2.06360  -0.00003   0.00005  -0.00020  -0.00015   2.06344
    R3        2.07550   0.00002  -0.00003   0.00015   0.00012   2.07561
    R4        2.07550   0.00002  -0.00003   0.00015   0.00012   2.07561
    R5        2.40677  -0.00055   0.00007  -0.00104  -0.00097   2.40580
    R6        2.86376   0.00014   0.00030  -0.00041  -0.00011   2.86365
    R7        2.67387   0.00078  -0.00059   0.00324   0.00265   2.67652
    R8        2.05766  -0.00008   0.00001  -0.00022  -0.00020   2.05746
    R9        2.07024  -0.00000   0.00003  -0.00007  -0.00004   2.07020
   R10        2.07024  -0.00000   0.00003  -0.00007  -0.00004   2.07020
   R11        2.40873   0.00032   0.00006   0.00017   0.00023   2.40896
   R12        2.71417   0.00028  -0.00004   0.00071   0.00068   2.71485
   R13        2.06797  -0.00005  -0.00024   0.00047   0.00024   2.06820
   R14        2.18660   0.00043  -0.00012   0.00058   0.00046   2.18706
    A1        1.90012  -0.00021  -0.00051  -0.00017  -0.00068   1.89944
    A2        1.95798   0.00000  -0.00005   0.00029   0.00023   1.95822
    A3        1.95798   0.00000  -0.00005   0.00029   0.00023   1.95822
    A4        1.88385   0.00003   0.00019  -0.00046  -0.00026   1.88359
    A5        1.88385   0.00003   0.00019  -0.00046  -0.00026   1.88359
    A6        1.87728   0.00014   0.00025   0.00045   0.00071   1.87799
    A7        2.10617  -0.00015  -0.00044   0.00046   0.00002   2.10619
    A8        2.21107   0.00015   0.00016   0.00017   0.00033   2.21140
    A9        1.98317  -0.00073  -0.00034  -0.00185  -0.00220   1.98098
   A10        2.08894   0.00058   0.00018   0.00168   0.00186   2.09081
   A11        1.94483   0.00012  -0.00013   0.00060   0.00047   1.94530
   A12        1.93751   0.00004   0.00004   0.00038   0.00042   1.93793
   A13        1.93751   0.00004   0.00004   0.00038   0.00042   1.93793
   A14        1.88435  -0.00014   0.00000  -0.00102  -0.00102   1.88333
   A15        1.88435  -0.00014   0.00000  -0.00102  -0.00102   1.88333
   A16        1.87252   0.00005   0.00005   0.00061   0.00066   1.87317
   A17        2.09983   0.00019   0.00048  -0.00053  -0.00005   2.09978
   A18        2.09709  -0.00028  -0.00017  -0.00062  -0.00079   2.09630
   A19        2.18915   0.00039  -0.00019   0.00243   0.00224   2.19139
   A20        1.99694  -0.00011   0.00036  -0.00181  -0.00144   1.99549
   A21        3.08968  -0.00026  -0.00066  -0.00367  -0.00433   3.08535
   A22        3.14159  -0.00000   0.00000  -0.00000  -0.00000   3.14159
    D1       -3.14159   0.00000  -0.00000   0.00000   0.00000  -3.14159
    D2        1.05775   0.00009   0.00013   0.00050   0.00063   1.05838
    D3       -1.05775  -0.00009  -0.00013  -0.00050  -0.00063  -1.05838
    D4        0.00000   0.00000  -0.00000  -0.00000  -0.00000  -0.00000
    D5        3.14159   0.00000   0.00000   0.00001   0.00001  -3.14159
    D6       -0.00000   0.00000   0.00000   0.00000   0.00000   0.00000
    D7       -2.10100   0.00006   0.00006   0.00063   0.00069  -2.10031
    D8        2.10099  -0.00006  -0.00006  -0.00063  -0.00068   2.10031
    D9       -3.14159  -0.00000  -0.00000  -0.00000  -0.00001   3.14159
   D10        1.04059   0.00006   0.00006   0.00063   0.00068   1.04128
   D11       -1.04059  -0.00006  -0.00006  -0.00064  -0.00069  -1.04129
   D12       -3.14159  -0.00000  -0.00000  -0.00000  -0.00000   3.14159
[...]
 ! D11   D(5,3,4,14)           -59.6749         -DE/DX =    0.0                 !
 ! D12   D(2,3,5,6)            180.0003         -DE/DX =    0.0                 !
 ! D13   D(4,3,5,6)             -0.0001         -DE/DX =    0.0                 !
 ! D14   D(3,5,6,7)            180.0001         -DE/DX =    0.0                 !
 ! D15   D(3,5,6,15)             0.0            -DE/DX =    0.0                 !
 ! D16   D(5,6,7,15)           179.9999         -DE/DX =    0.0                 !
 --------------------------------------------------------------------------------
 GradGradGradGradGradGradGradGradGradGradGradGradGradGradGradGradGradGrad


 ----------------------------------------------------------------------

 Electric dipole moment (input orientation):
 (Debye = 10**-18 statcoulomb cm , SI units = C m)
                  (au)            (Debye)         (10**-30 SI)
   Tot        0.229076D+01      0.582253D+01      0.194219D+02
   x         -0.203748D+01     -0.517875D+01     -0.172745D+02
   y         -0.364968D+00     -0.927657D+00     -0.309433D+01
   z          0.981358D+00      0.249436D+01      0.832030D+01

 Dipole polarizability, Alpha (input orientation).
 (esu units = cm**3 , SI units = C**2 m**2 J**-1)
 Alpha(0;0):
               (au)            (10**-24 esu)      (10**-40 SI)
   iso        0.805546D+02      0.119370D+02      0.132817D+02
   aniso      0.857446D+02      0.127060D+02      0.141374D+02
   xx         0.125605D+03      0.186128D+02      0.207095D+02
   yx        -0.934012D+01     -0.138406D+01     -0.153998D+01
   yy         0.470446D+02      0.697128D+01      0.775660D+01
   zx         0.251145D+02      0.372158D+01      0.414082D+01
   zy        -0.948192D+01     -0.140507D+01     -0.156336D+01
   zz         0.690141D+02      0.102268D+02      0.113789D+02

 ----------------------------------------------------------------------

 Dipole orientation:
     6          0.93132594         -0.20563432         -1.73993157
     7          2.34548163         -0.52006690         -4.06701359
     6          4.69342819         -1.04213004         -4.01469313
     6          6.31676094         -1.40308261         -1.68356210
     7          5.78687116         -1.28526406         -6.44578909
     6          8.12764355         -1.80574259         -6.67699893
     6          9.23041669         -2.05094746         -9.14602933
     7         10.22419019         -2.27191555        -11.08165575
     1         -1.03065139          0.23060943         -2.20754412
     1          1.67089759          1.34610470         -0.57669198
     1          0.94366860         -1.92456301         -0.57669540
     1          5.22155149         -1.15956094          0.04113105
     1          7.87536675         -0.04103352         -1.64514250
     1          7.15133756         -3.29726110         -1.64514317
     1          9.45424828         -2.10071583         -5.11822393

 Electric dipole moment (dipole orientation):
 (Debye = 10**-18 statcoulomb cm , SI units = C m)
                  (au)            (Debye)         (10**-30 SI)
   Tot        0.229076D+01      0.582253D+01      0.194219D+02
   x          0.000000D+00      0.000000D+00      0.000000D+00
   y          0.000000D+00      0.000000D+00      0.000000D+00
   z          0.229076D+01      0.582253D+01      0.194219D+02

 Dipole polarizability, Alpha (dipole orientation).
 (esu units = cm**3 , SI units = C**2 m**2 J**-1)
 Alpha(0;0):
               (au)            (10**-24 esu)      (10**-40 SI)
   iso        0.805546D+02      0.119370D+02      0.132817D+02
   aniso      0.857446D+02      0.127060D+02      0.141374D+02
   xx         0.102496D+03      0.151884D+02      0.168993D+02
   yx        -0.131138D+02     -0.194327D+01     -0.216218D+01
   yy         0.464341D+02      0.688082D+01      0.765595D+01
   zx        -0.362858D+02     -0.537701D+01     -0.598272D+01
   zy         0.806823D+01      0.119559D+01      0.133027D+01
   zz         0.927336D+02      0.137417D+02      0.152897D+02

 ----------------------------------------------------------------------
 1\1\GINC-LEWIS4-R630-HPC4-NODE227\Freq\RB3LYP\6-31G(2df,p)\C5H7N3\CZ9N
 3\01-Jun-2021\0\\#N Geom=AllCheck Guess=TCheck SCRF=Check GenChk RB3LY
 P/6-31G(2df,p) Freq\\Title Card Required\\0,1\C,1.0496133689,-0.009082
 9339,0.0265680967\N,2.4952884653,-0.0505614017,0.1381096724\C,3.052425
 8974,-0.4495889936,1.2110585327\C,2.3574596026,-0.9189604886,2.4731413
 809\N,4.4675929443,-0.4284022966,1.1540822992\C,5.1564019182,-0.802325
 3119,2.1595121799\C,6.5917350774,-0.7795065681,2.0981530769\N,7.749004
 71,-0.7833389957,2.1084566935\H,0.7835741318,0.3600885893,-0.966099017
 8\H,0.5952657974,0.6605716988,0.7691918622\H,0.5952696224,-1.001256254
 4,0.1511593137\H,1.2743361782,-0.8802964528,2.3691783335\H,2.635862794
 9,-0.2960660328,3.330270332\H,2.6358627312,-1.9505566006,2.714961889\H
 ,4.7514367599,-1.1567079575,3.1124053552\\Version=ES64L-G16RevA.03\Sta
 te=1-A\HF=-358.9565758\RMSD=6.765e-09\RMSF=3.238e-05\ZeroPoint=0.11582
 84\Thermal=0.1241695\Dipole=-2.037478,-0.3649684,0.9813577\DipoleDeriv
 =0.3058143,-0.0447564,0.1203459,-0.105419,0.2434183,-0.0648633,0.28346
 35,-0.0648639,0.393709,-0.3620036,-0.0240863,0.0647665,0.0257104,-0.30
 56083,0.1078615,-0.0691304,0.1078612,-0.5555218,0.6655238,0.0414819,-0
 .1115424,0.0669349,0.1729708,-0.1915506,-0.1799908,-0.1915474,0.616783
 1,-0.161803,-0.0126483,0.0340101,-0.0289093,0.0689632,0.0955555,0.0777
 348,0.095554,-0.1524337,-0.4143363,-0.0610705,0.1642116,-0.0394314,-0.
 2342968,0.0747556,0.106029,0.0747551,-0.4075031,0.4792626,0.0391103,-0
 .1051644,0.069314,0.1407324,-0.1033727,-0.186373,-0.1033736,0.3802471,
 -0.1062186,-0.0117296,0.03154,-0.0313221,0.1331302,0.0255594,0.0842214
 ,0.0255594,0.0739093,-0.2007839,0.0154698,-0.0415965,0.0019472,-0.2999
 493,-0.0090644,-0.005236,-0.0090644,-0.2789474,-0.0055206,0.0150005,-0
 .0403351,0.0368553,0.0403999,0.0614536,-0.0991008,0.0614535,-0.1019884
 ,-0.1068992,0.0546009,-0.0559264,0.078134,-0.0024652,-0.0543991,0.0284
 062,-0.0889459,-0.0508327,-0.1068984,-0.0047885,-0.0780133,-0.0777081,
 -0.0940203,0.0171199,-0.0295519,0.0516673,0.0407221,-0.0933055,-0.0037
 394,0.0100552,0.0039905,0.0705225,-0.0074231,-0.01073,-0.0074232,0.087
 7221,0.0551727,-0.0421728,-0.0401411,-0.0335654,0.0132908,-0.055324,-0
 .0312112,-0.0339279,-0.0388754,0.0551728,0.0581536,-0.0028291,0.045803
 1,-0.0531297,0.0430197,-0.0016941,0.0216233,0.0275449,-0.0031771,-0.01
 88252,0.0506189,-0.012334,0.1060417,0.0606721,0.0331633,0.0606725,-0.0
 345352\Polar=125.6052267,-9.3401167,47.0445621,25.1144609,-9.4819153,6
 9.014059\Quadrupole=-5.3236906,2.9759615,2.3477291,0.0696148,-0.187163
 5,0.2711486\PG=C01 [X(C5H7N3)]\NImag=1\\0.45465291,-0.00621116,0.54561
 847,0.01670069,-0.01571063,0.58202004,-0.20481858,0.00067351,-0.001811
 95,0.51831687,0.01385784,-0.06680520,0.00362658,-0.09062431,0.15431133
 ,-0.03726320,0.00362648,-0.07520821,0.24368172,-0.16872457,0.54524781,
 -0.03947728,0.01393537,-0.03747095,-0.17803335,0.04615339,-0.12410253,
 0.56093836,0.00099170,-0.00849155,0.00244783,0.07412733,-0.10660220,0.
 14071225,-0.04426714,0.27159459,-0.00266670,0.00244791,-0.01416314,-0.
 19932152,0.14071192,-0.43263342,0.11903004,-0.18874010,0.70890549,0.00
 300953,0.00030889,-0.00083054,0.01214946,0.00606965,-0.01632075,-0.109
 09182,-0.01427866,0.03839374,0.57694739,-0.00142867,-0.00850776,-0.002
 63710,-0.00220298,0.02488285,0.02511255,-0.01289945,-0.09500817,0.0211
 2839,-0.01669863,0.51913870,0.00384157,-0.00263709,-0.00239762,0.00592
 343,0.02511272,-0.03330304,0.03468494,0.02112816,-0.14396180,0.0449005
 7,0.01700111,0.47974796,0.00631986,0.00060374,-0.00162347,-0.06614534,
 0.02145040,-0.05767792,-0.18861063,-0.02976188,0.08002706,-0.03224450,
 -0.00092433,0.00248572,0.55311477,0.00018247,0.01790177,0.00765937,0.0
 2126477,-0.01448024,0.00119139,-0.00745793,-0.06880428,0.00138029,-0.0
 0906807,0.00997853,0.00295821,-0.08454239,0.13848760,-0.00049084,0.007
 65937,0.00015492,-0.05717880,0.00119140,-0.01724065,0.02005461,0.00138
 047,-0.07200263,0.02438308,0.00295813,0.00312446,0.22732226,-0.1592001
 3,0.50734923,-0.00245171,-0.00003435,0.00009238,-0.00180747,-0.0035161
 3,0.00945454,-0.05041836,0.02053799,-0.05522408,-0.00081405,0.00023029
 ,-0.00061928,-0.22928067,0.05918957,-0.15915247,0.66050981,0.00068519,
 -0.00090839,-0.00093561,-0.00159345,0.00476420,-0.00241541,0.00755704,
 -0.00189489,0.00891690,-0.00249691,-0.00072818,-0.00060060,0.08245540,
 -0.09755901,0.12537154,-0.03816492,0.21682756,-0.00184239,-0.00093558,
 0.00125940,0.00428465,-0.00241538,0.01036058,-0.02031980,0.00891675,-0
 .02255486,0.00671388,-0.00060060,0.00066339,-0.22171156,0.12537164,-0.
 38804060,0.10261911,-0.20636140,0.69496097,0.00113996,0.00028285,-0.00
 076059,-0.00413795,0.00200920,-0.00540249,0.01154208,-0.00179782,0.004
 83420,-0.00011680,-0.00016543,0.00044481,-0.06441893,0.01666229,-0.044
 80269,-0.25844778,-0.01837758,0.04941537,1.56001722,0.00000069,-0.0020
 3382,-0.00074964,0.00055501,0.00185247,0.00091987,0.00003142,0.0149316
 0,0.00652436,-0.00005543,-0.00084289,-0.00023202,0.01500584,-0.0097829
 7,-0.00388106,-0.00928784,-0.06220072,0.00727252,0.00012680,0.08547842
 ,-0.00000187,-0.00074965,-0.00029689,-0.00149226,0.00091984,-0.0002787
 6,-0.00008460,0.00652438,-0.00018520,0.00014902,-0.00023201,-0.0003053
 2,-0.04034856,-0.00388099,-0.00079061,0.02497405,0.00727251,-0.0790510
 8,-0.00034284,-0.01254706,0.11454963,-0.00033857,-0.00014550,0.0003912
 5,0.00113803,-0.00067706,0.00182055,-0.00373400,0.00073074,-0.00196492
 ,-0.00032391,0.00009933,-0.00026709,0.00921533,-0.00392647,0.01055780,
 -0.01882238,0.00314389,-0.00845347,-1.22583535,0.00332166,-0.00893022,
 1.23997198,0.00000694,0.00041439,0.00016654,-0.00010830,-0.00038585,-0
 .00025166,0.00018022,-0.00265498,-0.00104401,0.00000110,0.00006232,0.0
 0000258,-0.00159643,0.00339112,0.00127652,0.00050861,0.01622987,-0.001
 36922,0.00336474,-0.03470119,0.00079663,-0.00339154,0.01781567,-0.0000
 1865,0.00016654,0.00002852,0.00029118,-0.00025165,0.00019723,-0.000484
 57,-0.00104401,-0.00023603,-0.00000296,0.00000258,0.00005633,0.0042925
 6,0.00127651,0.00043344,-0.00136750,-0.00136922,0.01940234,-0.00904606
 ,0.00079663,-0.03654693,0.00911807,0.00015952,0.01744604,-0.05360981,0
 .01675448,-0.04505116,-0.02224718,0.01270296,-0.03415720,-0.00565804,0
 .00065481,-0.00176074,-0.00072512,-0.00021431,0.00057626,-0.00006756,0
 .00034366,-0.00092406,-0.00037474,-0.00004077,0.00010962,-0.00002104,0
 .00004242,-0.00011406,-0.00008289,-0.00000832,0.00002238,0.07534167,0.
 01986317,-0.08085749,0.08342877,0.00148798,0.00017234,-0.00095905,-0.0
 0038955,0.00148345,0.00013245,-0.00015241,0.00054944,0.00020090,0.0000
 2114,0.00020590,0.00008048,-0.00000149,-0.00002226,0.00001037,-0.00000
 415,-0.00008436,-0.00003303,0.00001888,0.00001383,0.00000386,-0.022252
 20,0.08181226,-0.05341013,0.08342875,-0.27416235,-0.00400118,-0.000958
 98,0.00239424,0.00104743,0.00013246,0.00117654,0.00040980,0.00020090,0
 .00008395,-0.00005685,0.00008048,0.00001942,0.00000400,0.00001037,-0.0
 0004627,0.00001116,-0.00003303,-0.00000783,-0.00005076,0.00000386,0.00
 000488,0.05983415,-0.09090112,0.29243065,-0.08175601,0.06024753,0.0643
 6504,-0.02543302,0.02083368,0.01682740,0.00166531,-0.00008372,0.007104
 24,-0.00008816,0.00160458,-0.00013534,-0.00081644,-0.00339236,-0.00238
 649,-0.00008644,0.00026697,0.00012252,-0.00001261,0.00044468,0.0000726
 2,-0.00008424,-0.00010282,-0.00001668,0.00328107,-0.00426485,-0.003315
 42,0.09663113,0.06069424,-0.13986273,-0.10627303,0.00176927,-0.0008898
 6,0.00104674,0.00074393,0.00230467,-0.00066388,0.00071501,0.00028841,0
 .00000094,-0.00022456,-0.00024060,0.00036959,0.00015707,0.00002592,-0.
 00002955,-0.00002386,-0.00002728,0.00004288,0.00002455,0.00000299,-0.0
 0000193,-0.00497284,0.00730416,0.00785861,-0.06927571,0.14909513,0.064
 10722,-0.10845756,-0.16715344,0.00368867,0.00621973,0.00637475,-0.0039
 4954,0.00136818,-0.00063043,0.00018549,-0.00081572,0.00032522,0.001493
 34,-0.00097706,0.00007198,-0.00062379,0.00027038,-0.00038958,0.0003233
 7,0.00001945,-0.00001516,-0.00013811,-0.00000427,0.00000371,0.01059341
 ,-0.01990553,-0.01967323,-0.07276132,0.11784985,0.17866910,-0.08175533
 ,-0.08766390,0.00935648,-0.02543286,-0.02676644,-0.00087509,0.00166533
 ,-0.00457876,0.00543257,-0.00008815,-0.00112621,-0.00115092,-0.0008164
 6,0.00412739,0.00041009,-0.00008643,-0.00028215,-0.00008169,-0.0000126
 2,-0.00038407,-0.00023560,-0.00008423,0.00008873,0.00005456,0.00328104
 ,0.00539485,0.00027702,0.00611011,0.01116627,-0.00217331,0.09663031,-0
 .08783358,-0.25772925,0.02808993,-0.00374970,0.00580600,-0.00153759,0.
 00201756,0.00139984,0.00241642,-0.00066246,-0.00009888,-0.00036704,-0.
 00080579,-0.00040760,-0.00078357,0.00028869,-0.00003237,0.00033789,-0.
 00019323,0.00000872,-0.00002226,0.00007166,0.00000023,-0.00000107,-0.0
 0315753,-0.01017304,0.00034181,-0.00703260,-0.01704636,0.00369675,0.09
 998444,0.27830871,0.00886942,0.03027447,-0.04928764,0.00163620,-0.0067
 1060,-0.00032124,-0.00347587,0.00038430,0.00027436,-0.00032680,0.00044
 963,0.00071253,0.00127717,0.00056309,0.00023900,-0.00057484,0.00003797
 ,-0.00033130,0.00026037,0.00000117,-0.00005116,-0.00012059,0.00000128,
 0.00000647,0.01126837,0.02810601,-0.00219602,-0.00894139,-0.02090662,0
 .00289124,-0.00981312,-0.03184309,0.04945634,0.00003152,0.00084550,-0.
 00227347,-0.00084620,0.00035490,-0.00095431,-0.01351254,0.00049726,-0.
 00133705,-0.32021879,0.01018526,-0.02738693,-0.00181402,-0.00053239,0.
 00143154,0.00127709,-0.00047153,0.00126787,-0.00014725,0.00003021,-0.0
 0008123,0.00001515,-0.00000510,0.00001371,0.00049176,0.00018765,-0.000
 50457,0.00027815,-0.00019606,-0.00062940,0.00027815,0.00055968,-0.0003
 4834,0.34725604,-0.00001319,0.00080082,0.00102446,0.00039876,0.0002976
 4,-0.00074958,-0.01042897,-0.00108638,-0.00281867,0.01150692,-0.046005
 73,0.00120703,-0.00223426,0.00062558,0.00213650,0.00068438,-0.00002945
 ,0.00115061,0.00001004,0.00007198,-0.00019866,-0.00000219,-0.00000661,
 0.00003610,0.00006066,-0.00044001,-0.00018598,0.00065642,-0.00084146,0
 .00079004,-0.00013788,-0.00007321,-0.00018799,-0.01210415,0.04650201,0
 .00003546,0.00102446,-0.00157286,-0.00107222,-0.00074958,0.00203440,0.
 02804222,-0.00281868,0.00544443,-0.03094074,0.00120704,-0.04880237,0.0
 0600767,0.00213649,-0.00432466,-0.00184020,0.00115061,-0.00269537,-0.0
 0002700,-0.00019866,0.00053226,0.00000588,0.00003610,-0.00009026,-0.00
 016310,-0.00018598,-0.00000908,-0.00054945,0.00070205,-0.00077069,-0.0
 0084484,-0.00010000,-0.00153895,0.03254662,-0.00361469,0.05487719,-0.0
 0038179,0.00127381,-0.00020415,-0.00116613,-0.00381766,0.00097552,0.00
 523257,0.01255327,0.00994132,-0.06331832,-0.03931172,-0.05052783,0.000
 39674,-0.00133408,-0.00081652,-0.00094130,0.00030425,0.00048312,-0.000
 19634,0.00019809,-0.00007068,0.00009958,-0.00002299,0.00000536,0.00020
 025,0.00018724,-0.00008191,-0.00015490,-0.00021815,-0.00024490,0.00052
 014,0.00019243,0.00039651,-0.00673050,-0.01959147,-0.02479147,0.066674
 29,-0.00040274,0.00068031,0.00020100,-0.00069263,-0.00350814,0.0016181
 0,0.00439730,0.00858935,0.00973048,-0.03948938,-0.12792863,-0.11698054
 ,0.00071529,-0.00067639,-0.00018854,-0.00039931,0.00081178,-0.00144217
 ,-0.00026045,-0.00003331,0.00047632,-0.00004445,0.00000477,-0.00006638
 ,0.00002338,-0.00001838,0.00001141,-0.00001855,-0.00006896,0.00006334,
 0.00022747,0.00003105,-0.00015459,0.00074052,0.00072948,0.00254850,0.0
 4365269,0.13937841,0.00106589,-0.00135728,-0.00007691,0.00323063,0.005
 42808,-0.00161330,-0.00915558,-0.01553039,-0.02346383,-0.05254492,-0.1
 2018361,-0.20300692,-0.00171325,0.00144012,0.00043817,0.00047950,0.000
 08672,0.00079394,-0.00002524,-0.00017157,0.00028332,0.00001279,0.00003
 284,-0.00004388,-0.00010389,0.00002611,-0.00000964,0.00004786,0.000013
 60,-0.00018358,-0.00032541,-0.00027965,0.00033785,-0.00068803,-0.00158
 890,-0.00241199,0.05749169,0.12830650,0.22258195,-0.00038178,-0.000830
 87,-0.00098688,-0.00116614,0.00225251,0.00323299,0.00523255,-0.0159986
 2,-0.00067717,-0.06331830,0.06277480,-0.01256163,0.00039676,0.00154343
 ,0.00025361,-0.00094132,-0.00054600,0.00016693,-0.00019634,-0.00010377
 ,-0.00018295,0.00009958,0.00001390,0.00001907,0.00020025,-0.00008822,-
 0.00018435,0.00052014,-0.00040475,0.00017442,-0.00015490,0.00032516,-0
 .00004285,-0.00673052,0.03102996,-0.00596524,0.00143228,-0.00862263,0.
 00183446,0.06667431,-0.00039160,-0.00021494,-0.00032015,-0.00158668,0.
 00078621,0.00045311,0.00265380,-0.00796517,0.00364786,0.06422731,-0.27
 729488,0.05285557,0.00057802,0.00041857,0.00017161,-0.00001103,0.00013
 371,0.00087227,0.00021365,0.00025263,-0.00050282,0.00002529,-0.0000325
 9,0.00007612,0.00005019,0.00000391,0.00000029,0.00004045,-0.00005275,-
 0.00018256,-0.00001723,-0.00007985,0.00002621,-0.00011099,-0.00013718,
 -0.00058489,0.00532855,-0.01751247,0.00421130,-0.07061126,0.30183399,0
 .00107002,0.00123816,0.00081833,0.00289815,-0.00335690,-0.00590757,-0.
 00980397,0.02890872,-0.00690933,-0.01397246,0.05605866,-0.05364058,-0.
 00176432,-0.00145703,-0.00065678,0.00062390,-0.00065663,0.00147201,0.0
 0015108,0.00014507,-0.00000261,0.00003872,-0.00002309,-0.00000652,-0.0
 0009392,-0.00001441,-0.00003193,-0.00039497,-0.00005752,0.00042165,0.0
 0004835,0.00007594,-0.00017270,-0.00100471,0.00355251,-0.00154533,0.00
 702295,-0.02450819,0.00600124,0.01499667,-0.05989652,0.06012623,-0.000
 18293,-0.00003991,0.00010730,-0.00037012,-0.00028293,0.00076077,0.0022
 5983,0.00067349,-0.00181099,-0.00175847,0.00007747,-0.00020828,0.01477
 110,0.00694012,-0.01866110,-0.09731425,-0.03243944,0.08722583,-0.01915
 623,-0.00992573,0.02668917,-0.00123408,0.00107125,-0.00288046,-0.00000
 967,-0.00000804,0.00002161,-0.00005410,0.00004557,-0.00004556,-0.00005
 410,-0.00000473,-0.00006426,0.00037198,0.00016497,-0.00044358,-0.00166
 656,0.00017350,0.00039352,-0.00166658,-0.00038848,0.00018452,0.1060641
 8,-0.00000130,-0.00000463,-0.00001833,0.00028141,-0.00020155,-0.000042
 63,-0.00222699,-0.00779587,-0.00377032,0.00007305,0.00151488,0.0003500
 6,-0.00074019,0.02094202,0.02145767,-0.03018153,-0.07541778,0.06922185
 ,-0.00184705,0.00711071,0.00213395,0.00075121,-0.00015396,0.00021640,0
 .00001341,0.00005025,0.00001017,0.00007630,0.00000874,0.00006500,-0.00
 003252,0.00008600,-0.00004124,0.00001923,-0.00040750,-0.00055277,0.000
 60573,-0.00047889,-0.00043388,-0.00073363,-0.00013920,-0.00000876,0.03
 394287,0.05488677,0.00000350,-0.00001834,0.00003785,-0.00075669,-0.000
 04261,-0.00010283,0.00598817,-0.00377033,0.00093986,-0.00019640,0.0003
 5006,0.00070381,0.00199015,0.02145762,-0.02877471,0.08115469,0.0692218
 8,-0.23580354,0.00496655,0.00213396,0.00216635,-0.00201990,0.00021640,
 -0.00065534,-0.00003606,0.00001017,0.00002668,-0.00003863,0.00004826,0
 .00005847,-0.00007910,-0.00002450,-0.00001879,-0.00005170,-0.00055278,
 0.00087327,0.00042101,0.00038476,0.00037358,-0.00007710,-0.00082740,0.
 00003391,-0.09126850,-0.08858716,0.26014143\\0.00006045,0.00000524,-0.
 00001453,-0.00002550,-0.00001458,0.00003913,0.00001405,0.00001278,-0.0
 0003228,-0.00002281,0.00000727,-0.00002009,-0.00000326,0.00000197,-0.0
 0000621,-0.00004417,0.00003820,-0.00010300,-0.00010141,-0.00000487,0.0
 0001331,0.00008849,-0.00000073,0.00000195,0.00002232,-0.00000590,0.000
 01587,-0.00000798,0.00000244,0.00001253,-0.00000806,-0.00001002,0.0000
 0788,0.00002316,-0.00000282,0.00000753,0.00000682,-0.00000372,0.000009
 61,0.00000679,-0.00000350,0.00000978,-0.00000889,-0.00002175,0.0000585
 1\\\@


 Discoveries are often made by not following instructions,
 by going off the main road, by trying the untried.
 -- Frank Tyger
 Job cpu time:       0 days  0 hours 58 minutes 18.9 seconds.
 Elapsed time:       0 days  0 hours 14 minutes 42.1 seconds.
 File lengths (MBytes):  RWF=     86 Int=      0 D2E=      0 Chk=      7 Scr=      1
 Normal termination of Gaussian 16 at Tue Jun  1 15:06:06 2021.
### All Done ###
