### Starting Gaussian ###
 Entering Gaussian System, Link 0=g16
 Initial command:
 /cluster/software/gaussian/gaussian-16-A.03/avx2/g16/l1.exe "/local/scratch/cz9n3/Gau-24532.inp" -scrdir="/local/scratch/cz9n3/"
 Entering Link 1 = /cluster/software/gaussian/gaussian-16-A.03/avx2/g16/l1.exe PID=     24533.
  
 Copyright (c) 1988,1990,1992,1993,1995,1998,2003,2009,2016,
            Gaussian, Inc.  All Rights Reserved.
  
 This is part of the Gaussian(R) 16 program.  It is based on
 the Gaussian(R) 09 system (copyright 2009, Gaussian, Inc.),
 the Gaussian(R) 03 system (copyright 2003, Gaussian, Inc.),
 the Gaussian(R) 98 system (copyright 1998, Gaussian, Inc.),
 the Gaussian(R) 94 system (copyright 1995, Gaussian, Inc.),
 the Gaussian 92(TM) system (copyright 1992, Gaussian, Inc.),
 the Gaussian 90(TM) system (copyright 1990, Gaussian, Inc.),
 the Gaussian 88(TM) system (copyright 1988, Gaussian, Inc.),
 the Gaussian 86(TM) system (copyright 1986, Carnegie Mellon
 University), and the Gaussian 82(TM) system (copyright 1983,
 Carnegie Mellon University). Gaussian is a federally registered
 trademark of Gaussian, Inc.
  
 This software contains proprietary and confidential information,
 including trade secrets, belonging to Gaussian, Inc.
  
 This software is provided under written license and may be
 used, copied, transmitted, or stored only in accord with that
 written license.
  
 The following legend is applicable only to US Government
 contracts under FAR:
  
                    RESTRICTED RIGHTS LEGEND
  
 Use, reproduction and disclosure by the US Government is
 subject to restrictions as set forth in subparagraphs (a)
 and (c) of the Commercial Computer Software - Restricted
 Rights clause in FAR 52.227-19.
  
 Gaussian, Inc.
 340 Quinnipiac St., Bldg. 40, Wallingford CT 06492
  
  
 ---------------------------------------------------------------
 Warning -- This program may not be used in any manner that
 competes with the business of Gaussian, Inc. or will provide
 assistance to any competitor of Gaussian, Inc.  The licensee
 of this program is prohibited from giving any competitor of
 Gaussian, Inc. access to this program.  By using this program,
 the user acknowledges that Gaussian, Inc. is engaged in the
 business of creating and licensing software in the field of
 computational chemistry and represents and warrants to the
 licensee that it is not a competitor of Gaussian, Inc. and that
 it will not use this program in any manner prohibited above.
 ---------------------------------------------------------------
  

 Cite this work as:
 Gaussian 16, Revision A.03,
 M. J. Frisch, G. W. Trucks, H. B. Schlegel, G. E. Scuseria, 
 M. A. Robb, J. R. Cheeseman, G. Scalmani, V. Barone, 
 G. A. Petersson, H. Nakatsuji, X. Li, M. Caricato, A. V. Marenich, 
 J. Bloino, B. G. Janesko, R. Gomperts, B. Mennucci, H. P. Hratchian, 
 J. V. Ortiz, A. F. Izmaylov, J. L. Sonnenberg, D. Williams-Young, 
 F. Ding, F. Lipparini, F. Egidi, J. Goings, B. Peng, A. Petrone, 
 T. Henderson, D. Ranasinghe, V. G. Zakrzewski, J. Gao, N. Rega, 
 G. Zheng, W. Liang, M. Hada, M. Ehara, K. Toyota, R. Fukuda, 
 J. Hasegawa, M. Ishida, T. Nakajima, Y. Honda, O. Kitao, H. Nakai, 
 T. Vreven, K. Throssell, J. A. Montgomery, Jr., J. E. Peralta, 
 F. Ogliaro, M. J. Bearpark, J. J. Heyd, E. N. Brothers, K. N. Kudin, 
 V. N. Staroverov, T. A. Keith, R. Kobayashi, J. Normand, 
 K. Raghavachari, A. P. Rendell, J. C. Burant, S. S. Iyengar, 
 J. Tomasi, M. Cossi, J. M. Millam, M. Klene, C. Adamo, R. Cammi, 
 J. W. Ochterski, R. L. Martin, K. Morokuma, O. Farkas, 
 J. B. Foresman, and D. J. Fox, Gaussian, Inc., Wallingford CT, 2016.
 
 ******************************************
 Gaussian 16:  ES64L-G16RevA.03 25-Dec-2016
                 1-Jun-2021 
 ******************************************
 %chk=CNNCCpNdCCtNpNC.chk
 %NProcShared=20
 Will use up to   20 processors via shared memory.
 -----------------------------
 # opt freq b3lyp/6-31g(2df,p)
 -----------------------------
 1/18=20,19=15,26=3,38=1/1,3;
 2/9=110,12=2,17=6,18=5,40=1/2;
 3/5=1,6=6,7=104,11=2,25=1,30=1,71=1,74=-5/1,2,3;
 4//1;
 5/5=2,38=5/2;
 6/7=2,8=2,9=2,10=2,28=1/1;
 7//1,2,3,16;
 1/18=20,19=15,26=3/3(2);
 2/9=110/2;
 99//99;
 2/9=110/2;
 3/5=1,6=6,7=104,11=2,25=1,30=1,71=1,74=-5/1,2,3;
 4/5=5,16=3,69=1/1;
 5/5=2,38=5/2;
 7//1,2,3,16;
 1/18=20,19=15,26=3/3(-5);
 2/9=110/2;
 6/7=2,8=2,9=2,10=2,19=2,28=1/1;
 99/9=1/99;
 -------------------
 Title Card Required
 -------------------
 Symbolic Z-matrix:
 Charge =  0 Multiplicity = 1
 C                     0.96538   0.01223   0.11903 
 N                     2.42865   0.06533   0.15643 
 N                     2.88873  -1.2584   -0.13442 
 C                     4.36194  -1.32183  -0.16125 
 C                     4.84717  -2.7776   -0.47838 
 N                     4.3866   -3.20505  -1.816 
 C                     3.14408  -3.48793  -1.94067 
 C                     2.71267  -3.85297  -3.26332 
 N                     2.25796  -4.15067  -4.29607 
 N                     6.3137   -2.79153  -0.43165 
 C                     6.84098  -4.13082  -0.64343 
 H                     0.56267   1.01204   0.28479 
 H                     0.57493  -0.66104   0.89086 
 H                     0.60116  -0.33675  -0.85701 
 H                     2.7291    0.37905   1.08248 
 H                     2.59601  -1.44547  -1.09325 
 H                     4.7628   -1.00637   0.81085 
 H                     4.74296  -0.63944  -0.93109 
 H                     4.46912  -3.45214   0.30477 
 H                     2.35663  -3.43077  -1.17391 
 H                     6.63565  -2.4448    0.47106 
 H                     6.54281  -4.52654  -1.61843 
 H                     6.50481  -4.81506   0.14168 
 H                     7.93499  -4.10653  -0.62807 
 

 GradGradGradGradGradGradGradGradGradGradGradGradGradGradGradGradGradGrad
 Berny optimization.
 Initialization pass.
                           ----------------------------
                           !    Initial Parameters    !
                           ! (Angstroms and Degrees)  !
 --------------------------                            --------------------------
 ! Name  Definition              Value          Derivative Info.                !
 --------------------------------------------------------------------------------
 ! R1    R(1,2)                  1.4647         estimate D2E/DX2                !
 ! R2    R(1,12)                 1.0905         estimate D2E/DX2                !
 ! R3    R(1,13)                 1.0961         estimate D2E/DX2                !
 ! R4    R(1,14)                 1.0987         estimate D2E/DX2                !
 ! R5    R(2,3)                  1.4313         estimate D2E/DX2                !
 ! R6    R(2,15)                 1.0229         estimate D2E/DX2                !
 ! R7    R(3,4)                  1.4748         estimate D2E/DX2                !
 ! R8    R(3,16)                 1.0198         estimate D2E/DX2                !
 ! R9    R(4,5)                  1.5669         estimate D2E/DX2                !
 ! R10   R(4,17)                 1.0978         estimate D2E/DX2                !
 ! R11   R(4,18)                 1.097          estimate D2E/DX2                !
 ! R12   R(5,6)                  1.4779         estimate D2E/DX2                !
 ! R13   R(5,10)                 1.4673         estimate D2E/DX2                !
 ! R14   R(5,19)                 1.1006         estimate D2E/DX2                !
 ! R15   R(6,7)                  1.2804         estimate D2E/DX2                !
 ! R16   R(7,8)                  1.4383         estimate D2E/DX2                !
 ! R17   R(7,20)                 1.1006         estimate D2E/DX2                !
 ! R18   R(8,9)                  1.167          estimate D2E/DX2                !
 ! R19   R(10,11)                1.4548         estimate D2E/DX2                !
 ! R20   R(10,21)                1.0192         estimate D2E/DX2                !
 ! R21   R(11,22)                1.0937         estimate D2E/DX2                !
 ! R22   R(11,23)                1.0943         estimate D2E/DX2                !
 ! R23   R(11,24)                1.0944         estimate D2E/DX2                !
 ! A1    A(2,1,12)             109.3778         estimate D2E/DX2                !
 ! A2    A(2,1,13)             111.1094         estimate D2E/DX2                !
 ! A3    A(2,1,14)             111.431          estimate D2E/DX2                !
 ! A4    A(12,1,13)            108.939          estimate D2E/DX2                !
 ! A5    A(12,1,14)            107.6874         estimate D2E/DX2                !
 ! A6    A(13,1,14)            108.2016         estimate D2E/DX2                !
 ! A7    A(1,2,3)              106.4044         estimate D2E/DX2                !
 ! A8    A(1,2,15)             109.128          estimate D2E/DX2                !
 ! A9    A(3,2,15)             111.9142         estimate D2E/DX2                !
 ! A10   A(2,3,4)              111.3813         estimate D2E/DX2                !
 ! A11   A(2,3,16)             105.5717         estimate D2E/DX2                !
 ! A12   A(4,3,16)             105.1724         estimate D2E/DX2                !
 ! A13   A(3,4,5)              110.6691         estimate D2E/DX2                !
 ! A14   A(3,4,17)             109.6504         estimate D2E/DX2                !
 ! A15   A(3,4,18)             109.4481         estimate D2E/DX2                !
 ! A16   A(5,4,17)             109.4575         estimate D2E/DX2                !
 ! A17   A(5,4,18)             109.167          estimate D2E/DX2                !
 ! A18   A(17,4,18)            108.4106         estimate D2E/DX2                !
 ! A19   A(4,5,6)              110.8175         estimate D2E/DX2                !
 ! A20   A(4,5,10)             108.1721         estimate D2E/DX2                !
 ! A21   A(4,5,19)             108.6043         estimate D2E/DX2                !
 ! A22   A(6,5,10)             109.7279         estimate D2E/DX2                !
 ! A23   A(6,5,19)             111.0841         estimate D2E/DX2                !
 ! A24   A(10,5,19)            108.3508         estimate D2E/DX2                !
 ! A25   A(5,6,7)              117.03           estimate D2E/DX2                !
 ! A26   A(6,7,8)              115.892          estimate D2E/DX2                !
 ! A27   A(6,7,20)             127.9529         estimate D2E/DX2                !
 ! A28   A(8,7,20)             116.0553         estimate D2E/DX2                !
 ! A29   A(5,10,11)            111.4897         estimate D2E/DX2                !
 ! A30   A(5,10,21)            109.9189         estimate D2E/DX2                !
 ! A31   A(11,10,21)           109.1246         estimate D2E/DX2                !
 ! A32   A(10,11,22)           111.3491         estimate D2E/DX2                !
 ! A33   A(10,11,23)           111.0891         estimate D2E/DX2                !
 ! A34   A(10,11,24)           109.8665         estimate D2E/DX2                !
 ! A35   A(22,11,23)           109.2442         estimate D2E/DX2                !
 ! A36   A(22,11,24)           107.0425         estimate D2E/DX2                !
 ! A37   A(23,11,24)           108.1129         estimate D2E/DX2                !
 ! A38   L(7,8,9,14,-1)        176.2881         estimate D2E/DX2                !
 ! A39   L(7,8,9,14,-2)        184.6812         estimate D2E/DX2                !
 ! D1    D(12,1,2,3)          -177.1221         estimate D2E/DX2                !
 ! D2    D(12,1,2,15)           61.9541         estimate D2E/DX2                !
 ! D3    D(13,1,2,3)            62.5742         estimate D2E/DX2                !
 ! D4    D(13,1,2,15)          -58.3496         estimate D2E/DX2                !
 ! D5    D(14,1,2,3)           -58.172          estimate D2E/DX2                !
 ! D6    D(14,1,2,15)         -179.0958         estimate D2E/DX2                !
 ! D7    D(1,2,3,4)            178.4497         estimate D2E/DX2                !
 ! D8    D(1,2,3,16)            64.8162         estimate D2E/DX2                !
 ! D9    D(15,2,3,4)           -62.4315         estimate D2E/DX2                !
 ! D10   D(15,2,3,16)         -176.065          estimate D2E/DX2                !
 ! D11   D(2,3,4,5)            179.9027         estimate D2E/DX2                !
 ! D12   D(2,3,4,17)            59.0557         estimate D2E/DX2                !
 ! D13   D(2,3,4,18)           -59.7428         estimate D2E/DX2                !
 ! D14   D(16,3,4,5)           -66.2144         estimate D2E/DX2                !
 ! D15   D(16,3,4,17)          172.9386         estimate D2E/DX2                !
 ! D16   D(16,3,4,18)           54.1401         estimate D2E/DX2                !
 ! D17   D(3,4,5,6)             62.2027         estimate D2E/DX2                !
 ! D18   D(3,4,5,10)          -177.4734         estimate D2E/DX2                !
 ! D19   D(3,4,5,19)           -60.0782         estimate D2E/DX2                !
 ! D20   D(17,4,5,6)          -176.8359         estimate D2E/DX2                !
 ! D21   D(17,4,5,10)          -56.512          estimate D2E/DX2                !
 ! D22   D(17,4,5,19)           60.8832         estimate D2E/DX2                !
 ! D23   D(18,4,5,6)           -58.3195         estimate D2E/DX2                !
 ! D24   D(18,4,5,10)           62.0045         estimate D2E/DX2                !
 ! D25   D(18,4,5,19)          179.3997         estimate D2E/DX2                !
 ! D26   D(4,5,6,7)            -73.4585         estimate D2E/DX2                !
 ! D27   D(10,5,6,7)           167.1481         estimate D2E/DX2                !
 ! D28   D(19,5,6,7)            47.3648         estimate D2E/DX2                !
 ! D29   D(4,5,10,11)          176.8143         estimate D2E/DX2                !
 ! D30   D(4,5,10,21)           55.6717         estimate D2E/DX2                !
 ! D31   D(6,5,10,11)          -62.1829         estimate D2E/DX2                !
 ! D32   D(6,5,10,21)          176.6745         estimate D2E/DX2                !
 ! D33   D(19,5,10,11)          59.2562         estimate D2E/DX2                !
 ! D34   D(19,5,10,21)         -61.8863         estimate D2E/DX2                !
 ! D35   D(5,6,7,8)            177.7753         estimate D2E/DX2                !
 ! D36   D(5,6,7,20)             1.5817         estimate D2E/DX2                !
 ! D37   D(6,7,8,20)          -176.6596         estimate D2E/DX2                !
 ! D38   D(5,10,11,22)          60.1919         estimate D2E/DX2                !
 ! D39   D(5,10,11,23)         -61.8151         estimate D2E/DX2                !
 ! D40   D(5,10,11,24)         178.6047         estimate D2E/DX2                !
 ! D41   D(21,10,11,22)       -178.2037         estimate D2E/DX2                !
 ! D42   D(21,10,11,23)         59.7893         estimate D2E/DX2                !
 ! D43   D(21,10,11,24)        -59.7909         estimate D2E/DX2                !
 --------------------------------------------------------------------------------
 Trust Radius=3.00D-01 FncErr=1.00D-07 GrdErr=1.00D-06 EigMax=2.50D+02 EigMin=1.00D-04
 Number of steps in this run=    115 maximum allowed number of steps=    144.
 GradGradGradGradGradGradGradGradGradGradGradGradGradGradGradGradGradGrad

                          Input orientation:                          
 ---------------------------------------------------------------------
 Center     Atomic      Atomic             Coordinates (Angstroms)
 Number     Number       Type             X           Y           Z
 ---------------------------------------------------------------------
      1          6           0        0.965380    0.012230    0.119030
      2          7           0        2.428650    0.065330    0.156430
      3          7           0        2.888730   -1.258400   -0.134420
      4          6           0        4.361940   -1.321830   -0.161250
      5          6           0        4.847170   -2.777600   -0.478380
      6          7           0        4.386600   -3.205050   -1.816000
      7          6           0        3.144080   -3.487930   -1.940670
      8          6           0        2.712670   -3.852970   -3.263320
      9          7           0        2.257960   -4.150670   -4.296070
     10          7           0        6.313700   -2.791530   -0.431650
     11          6           0        6.840980   -4.130820   -0.643430
     12          1           0        0.562670    1.012040    0.284790
     13          1           0        0.574930   -0.661040    0.890860
     14          1           0        0.601160   -0.336750   -0.857010
     15          1           0        2.729100    0.379050    1.082480
     16          1           0        2.596010   -1.445470   -1.093250
     17          1           0        4.762800   -1.006370    0.810850
     18          1           0        4.742960   -0.639440   -0.931090
     19          1           0        4.469120   -3.452140    0.304770
     20          1           0        2.356630   -3.430770   -1.173910
     21          1           0        6.635650   -2.444800    0.471060
     22          1           0        6.542810   -4.526540   -1.618430
     23          1           0        6.504810   -4.815060    0.141680
     24          1           0        7.934990   -4.106530   -0.628070
 ---------------------------------------------------------------------
                    Distance matrix (angstroms):
                    1          2          3          4          5
     1  C    0.000000
     2  N    1.464711   0.000000
     3  N    2.319054   1.431268   0.000000
     4  C    3.659903   2.400572   1.474819   0.000000
     5  C    4.817504   3.786090   2.502352   1.566935   0.000000
     6  N    5.079368   4.291787   2.976705   2.507055   1.477858
     7  C    4.608711   4.187520   2.880720   3.056388   2.354438
     8  C    5.425227   5.208496   4.068514   4.330081   3.669932
     9  N    6.204322   6.134211   5.107096   5.433765   4.812908
    10  N    6.063732   4.858096   3.764207   2.458150   1.467340
    11  C    7.229722   6.141344   4.912247   3.777375   2.415310
    12  H    1.090537   2.096334   3.277375   4.481111   5.770679
    13  H    1.096114   2.122093   2.600329   3.985602   4.960512
    14  H    1.098680   2.128015   2.569932   3.949422   4.912200
    15  H    2.042915   1.022868   2.046355   2.665713   4.109373
    16  H    2.500693   1.967797   1.019821   2.000605   2.687072
    17  H    3.992062   2.650483   2.114047   1.097808   2.192370
    18  H    3.974611   2.652439   2.110915   1.097035   2.188043
    19  H    4.930776   4.069167   2.739163   2.183319   1.100568
    20  H    3.932114   3.741351   2.466346   3.081295   2.667055
    21  H    6.189740   4.909032   3.976627   2.613548   2.052036
    22  H    7.397765   6.415739   5.122043   4.141224   2.689554
    23  H    7.347689   6.358735   5.079576   4.109296   2.698794
    24  H    8.130056   6.952671   5.815520   4.554027   3.364981
                    6          7          8          9         10
     6  N    0.000000
     7  C    1.280398   0.000000
     8  C    2.305770   1.438323   0.000000
     9  N    3.402360   2.602372   1.167030   0.000000
    10  N    2.408555   3.578911   4.702385   5.764549   0.000000
    11  C    2.873317   3.970291   4.897343   5.860567   1.454845
    12  H    6.067916   5.645005   6.393740   7.107170   6.932155
    13  H    5.322397   4.754934   5.658229   6.474129   6.262707
    14  H    4.845241   4.191741   4.755271   5.396120   6.232174
    15  H    4.898394   4.925970   6.065991   7.047633   5.019415
    16  H    2.612413   2.278189   3.243281   4.206001   4.008842
    17  H    3.446166   4.043421   5.376339   6.499344   2.671309
    18  H    2.737227   3.419000   4.459613   5.461415   2.710748
    19  H    2.136710   2.607492   3.997130   5.152174   2.093131
    20  H    2.141029   1.100575   2.161169   3.205601   4.076516
    21  H    3.296490   4.369854   5.596276   6.693257   1.019195
    22  H    2.536654   3.568461   4.222479   5.066653   2.114521
    23  H    3.303249   4.170367   5.186518   6.178250   2.111848
    24  H    3.849015   5.005837   5.855037   6.759056   2.096756
                   11         12         13         14         15
    11  C    0.000000
    12  H    8.168707   0.000000
    13  H    7.325080   1.779513   0.000000
    14  H    7.305884   1.767604   1.777892   0.000000
    15  H    6.342338   2.393826   2.399782   2.966837   0.000000
    16  H    5.043135   3.474597   2.938841   2.294449   2.842602
    17  H    4.024419   4.689543   4.202845   4.533144   2.475703
    18  H    4.083402   4.656240   4.548895   4.153507   3.024470
    19  H    2.642993   5.932087   4.826847   5.100637   4.279079
    20  H    4.569559   5.008459   3.887047   3.571423   4.443507
    21  H    2.031480   6.990388   6.331695   6.528607   4.858919
    22  H    1.093675   8.370196   7.540174   7.310082   6.775257
    23  H    1.094346   8.323737   7.278779   7.477013   6.489982
    24  H    1.094387   9.021318   8.267347   8.249165   7.081504
                   16         17         18         19         20
    16  H    0.000000
    17  H    2.917770   0.000000
    18  H    2.298994   1.780277   0.000000
    19  H    3.080540   2.514787   3.084416   0.000000
    20  H    2.001306   3.950524   3.680361   2.578675   0.000000
    21  H    4.445719   2.385813   2.967764   2.395045   4.689144
    22  H    5.034485   4.632649   4.338369   3.025430   4.349990
    23  H    5.306402   4.241286   4.657333   2.455236   4.566665
    24  H    5.983506   4.663075   4.722456   3.648379   5.645591
                   21         22         23         24
    21  H    0.000000
    22  H    2.950971   0.000000
    23  H    2.396611   1.784005   0.000000
    24  H    2.378596   1.759371   1.771989   0.000000
 Stoichiometry    C6H13N5
 Framework group  C1[X(C6H13N5)]
 Deg. of freedom    66
 Full point group                 C1      NOp   1
 Largest Abelian subgroup         C1      NOp   1
 Largest concise Abelian subgroup C1      NOp   1
                         Standard orientation:                         
 ---------------------------------------------------------------------
 Center     Atomic      Atomic             Coordinates (Angstroms)
 Number     Number       Type             X           Y           Z
 ---------------------------------------------------------------------
      1          6           0        3.834792    0.071859    0.241090
      2          7           0        2.864766   -0.860617   -0.337629
      3          7           0        1.583956   -0.482851    0.177488
      4          6           0        0.511888   -1.335741   -0.368718
      5          6           0       -0.881542   -0.909677    0.207570
      6          7           0       -1.210484    0.476685   -0.184684
      7          6           0       -0.570571    1.415741    0.405321
      8          6           0       -0.874079    2.752542   -0.030132
      9          7           0       -1.037710    3.872116   -0.316029
     10          7           0       -1.895977   -1.828180   -0.321922
     11          6           0       -3.212304   -1.542809    0.228006
     12          1           0        4.825847   -0.141179   -0.161026
     13          1           0        3.866814   -0.019006    1.332961
     14          1           0        3.589590    1.113077   -0.009587
     15          1           0        3.117133   -1.815261   -0.070749
     16          1           0        1.401739    0.447868   -0.197471
     17          1           0        0.708244   -2.385016   -0.112497
     18          1           0        0.493032   -1.243671   -1.461720
     19          1           0       -0.855896   -1.015780    1.302711
     20          1           0        0.222526    1.322372    1.162648
     21          1           0       -1.642873   -2.790233   -0.100222
     22          1           0       -3.534223   -0.526601   -0.016566
     23          1           0       -3.221658   -1.672447    1.314605
     24          1           0       -3.951240   -2.225694   -0.202488
 ---------------------------------------------------------------------
 Rotational constants (GHZ):           1.0175243           0.7332593           0.4407708
 Standard basis: 6-31G(2df,p) (6D, 7F)
 There are   406 symmetry adapted cartesian basis functions of A   symmetry.
 There are   373 symmetry adapted basis functions of A   symmetry.
   373 basis functions,   575 primitive gaussians,   406 cartesian basis functions
    42 alpha electrons       42 beta electrons
       nuclear repulsion energy       599.8479121866 Hartrees.
 NAtoms=   24 NActive=   24 NUniq=   24 SFac= 1.00D+00 NAtFMM=   60 NAOKFM=F Big=F
 Integral buffers will be    131072 words long.
 Raffenetti 2 integral format.
 Two-electron integral symmetry is turned on.
 One-electron integrals computed using PRISM.
 PrsmSu:  requested number of processors reduced to:  13 ShMem   1 Linda.
 NBasis=   373 RedAO= T EigKep=  1.48D-04  NBF=   373
 NBsUse=   373 1.00D-06 EigRej= -1.00D+00 NBFU=   373
 ExpMin= 1.61D-01 ExpMax= 4.17D+03 ExpMxC= 6.27D+02 IAcc=3 IRadAn=         5 AccDes= 0.00D+00
 Harris functional with IExCor=  402 and IRadAn=       5 diagonalized for initial guess.
 HarFok:  IExCor=  402 AccDes= 0.00D+00 IRadAn=         5 IDoV= 1 UseB2=F ITyADJ=14
 ICtDFT=  3500011 ScaDFX=  1.000000  1.000000  1.000000  1.000000
 FoFCou: FMM=F IPFlag=           0 FMFlag=      100000 FMFlg1=           0
         NFxFlg=           0 DoJE=T BraDBF=F KetDBF=T FulRan=T
         wScrn=  0.000000 ICntrl=       500 IOpCl=  0 I1Cent=   200000004 NGrid=           0
         NMat0=    1 NMatS0=      1 NMatT0=    0 NMatD0=    1 NMtDS0=    0 NMtDT0=    0
 Petite list used in FoFCou.
 Requested convergence on RMS density matrix=1.00D-08 within 128 cycles.
 Requested convergence on MAX density matrix=1.00D-06.
 Requested convergence on             energy=1.00D-06.
 No special actions if energy rises.
 Integral accuracy reduced to 1.0D-05 until final iterations.
 Initial convergence to 1.0D-05 achieved.  Increase integral accuracy.
 SCF Done:  E(RB3LYP) =  -510.135173819     A.U. after   14 cycles
            NFock= 14  Conv=0.65D-08     -V/T= 2.0079

 **********************************************************************

            Population analysis using the SCF density.

 **********************************************************************

 Orbital symmetries:
       Occupied  (A) (A) (A) (A) (A) (A) (A) (A) (A) (A) (A) (A)
                 (A) (A) (A) (A) (A) (A) (A) (A) (A) (A) (A) (A)
                 (A) (A) (A) (A) (A) (A) (A) (A) (A) (A) (A) (A)
                 (A) (A) (A) (A) (A) (A)
       Virtual   (A) (A) (A) (A) (A) (A) (A) (A) (A) (A) (A) (A)
                 (A) (A) (A) (A) (A) (A) (A) (A) (A) (A) (A) (A)
                 (A) (A) (A) (A) (A) (A) (A) (A) (A) (A) (A) (A)
                 (A) (A) (A) (A) (A) (A) (A) (A) (A) (A) (A) (A)
                 (A) (A) (A) (A) (A) (A) (A) (A) (A) (A) (A) (A)
                 (A) (A) (A) (A) (A) (A) (A) (A) (A) (A) (A) (A)
                 (A) (A) (A) (A) (A) (A) (A) (A) (A) (A) (A) (A)
                 (A) (A) (A) (A) (A) (A) (A) (A) (A) (A) (A) (A)
                 (A) (A) (A) (A) (A) (A) (A) (A) (A) (A) (A) (A)
                 (A) (A) (A) (A) (A) (A) (A) (A) (A) (A) (A) (A)
                 (A) (A) (A) (A) (A) (A) (A) (A) (A) (A) (A) (A)
                 (A) (A) (A) (A) (A) (A) (A) (A) (A) (A) (A) (A)
                 (A) (A) (A) (A) (A) (A) (A) (A) (A) (A) (A) (A)
                 (A) (A) (A) (A) (A) (A) (A) (A) (A) (A) (A) (A)
                 (A) (A) (A) (A) (A) (A) (A) (A) (A) (A) (A) (A)
                 (A) (A) (A) (A) (A) (A) (A) (A) (A) (A) (A) (A)
                 (A) (A) (A) (A) (A) (A) (A) (A) (A) (A) (A) (A)
                 (A) (A) (A) (A) (A) (A) (A) (A) (A) (A) (A) (A)
                 (A) (A) (A) (A) (A) (A) (A) (A) (A) (A) (A) (A)
                 (A) (A) (A) (A) (A) (A) (A) (A) (A) (A) (A) (A)
                 (A) (A) (A) (A) (A) (A) (A) (A) (A) (A) (A) (A)
                 (A) (A) (A) (A) (A) (A) (A) (A) (A) (A) (A) (A)
                 (A) (A) (A) (A) (A) (A) (A) (A) (A) (A) (A) (A)
                 (A) (A) (A) (A) (A) (A) (A) (A) (A) (A) (A) (A)
                 (A) (A) (A) (A) (A) (A) (A) (A) (A) (A) (A) (A)
                 (A) (A) (A) (A) (A) (A) (A) (A) (A) (A) (A) (A)
                 (A) (A) (A) (A) (A) (A) (A) (A) (A) (A) (A) (A)
                 (A) (A) (A) (A) (A) (A) (A)
 The electronic state is 1-A.
 Alpha  occ. eigenvalues --  -14.37016 -14.35081 -14.34819 -14.34660 -14.32369
 Alpha  occ. eigenvalues --  -10.28074 -10.25981 -10.23425 -10.22493 -10.20819
 Alpha  occ. eigenvalues --  -10.20176  -0.98256  -0.96352  -0.91361  -0.89674
 Alpha  occ. eigenvalues --   -0.81995  -0.74622  -0.69188  -0.66468  -0.65033
 Alpha  occ. eigenvalues --   -0.60643  -0.54583  -0.52247  -0.50573  -0.49571
 Alpha  occ. eigenvalues --   -0.46530  -0.44857  -0.43714  -0.42207  -0.41495
 Alpha  occ. eigenvalues --   -0.40860  -0.39632  -0.38887  -0.37697  -0.37264
 Alpha  occ. eigenvalues --   -0.35873  -0.34290  -0.31669  -0.30573  -0.29390
 Alpha  occ. eigenvalues --   -0.23311  -0.19246
 Alpha virt. eigenvalues --   -0.08004   0.01893   0.07059   0.07560   0.08543
 Alpha virt. eigenvalues --    0.10283   0.11490   0.11774   0.12759   0.13861
 Alpha virt. eigenvalues --    0.14894   0.16037   0.16175   0.16691   0.17660
 Alpha virt. eigenvalues --    0.17773   0.18937   0.20253   0.20487   0.21563
 Alpha virt. eigenvalues --    0.22602   0.24411   0.25658   0.27600   0.32896
 Alpha virt. eigenvalues --    0.37053   0.41842   0.43830   0.45579   0.46374
 Alpha virt. eigenvalues --    0.47924   0.49758   0.50422   0.50511   0.52153
 Alpha virt. eigenvalues --    0.52565   0.53329   0.54020   0.54938   0.55383
 Alpha virt. eigenvalues --    0.56965   0.58967   0.60703   0.62875   0.63764
 Alpha virt. eigenvalues --    0.64933   0.66397   0.67017   0.67328   0.68683
 Alpha virt. eigenvalues --    0.69365   0.71217   0.71496   0.71788   0.72611
 Alpha virt. eigenvalues --    0.73013   0.73563   0.74532   0.75184   0.76459
 Alpha virt. eigenvalues --    0.77148   0.77617   0.78336   0.80013   0.80072
 Alpha virt. eigenvalues --    0.81165   0.81963   0.83236   0.83310   0.84857
 Alpha virt. eigenvalues --    0.85684   0.86100   0.87771   0.88408   0.90144
 Alpha virt. eigenvalues --    0.91188   0.93062   0.93951   0.98320   0.98894
 Alpha virt. eigenvalues --    1.01443   1.02098   1.07591   1.09895   1.12591
 Alpha virt. eigenvalues --    1.14085   1.14633   1.15739   1.19246   1.21502
 Alpha virt. eigenvalues --    1.24102   1.24404   1.27432   1.28431   1.30106
 Alpha virt. eigenvalues --    1.30941   1.31950   1.33218   1.33550   1.36970
 Alpha virt. eigenvalues --    1.38886   1.40872   1.42640   1.44581   1.47022
 Alpha virt. eigenvalues --    1.48450   1.48987   1.50117   1.52268   1.52994
 Alpha virt. eigenvalues --    1.56855   1.58532   1.60394   1.62074   1.64034
 Alpha virt. eigenvalues --    1.65463   1.67057   1.70095   1.71630   1.73229
 Alpha virt. eigenvalues --    1.74719   1.78425   1.79154   1.79673   1.80783
 Alpha virt. eigenvalues --    1.83173   1.86401   1.87741   1.90078   1.92158
 Alpha virt. eigenvalues --    1.94310   1.95604   1.97701   2.00875   2.02998
 Alpha virt. eigenvalues --    2.04905   2.07658   2.14704   2.20593   2.21938
 Alpha virt. eigenvalues --    2.25879   2.26672   2.29252   2.29905   2.30466
 Alpha virt. eigenvalues --    2.34207   2.38670   2.41053   2.44254   2.45061
 Alpha virt. eigenvalues --    2.46247   2.49967   2.53410   2.54335   2.57509
 Alpha virt. eigenvalues --    2.61818   2.64491   2.69259   2.70777   2.71873
 Alpha virt. eigenvalues --    2.74852   2.75504   2.76055   2.77477   2.79931
 Alpha virt. eigenvalues --    2.80888   2.82796   2.83773   2.83953   2.84629
 Alpha virt. eigenvalues --    2.85545   2.88668   2.89137   2.90611   2.93126
 Alpha virt. eigenvalues --    2.94058   2.94558   2.96748   2.98999   2.99407
 Alpha virt. eigenvalues --    3.00264   3.02808   3.06676   3.08104   3.10397
 Alpha virt. eigenvalues --    3.12339   3.13520   3.15043   3.16266   3.17777
 Alpha virt. eigenvalues --    3.21245   3.22779   3.25569   3.27136   3.29111
 Alpha virt. eigenvalues --    3.29295   3.31478   3.34103   3.37142   3.39310
 Alpha virt. eigenvalues --    3.42030   3.45910   3.47702   3.49574   3.52176
 Alpha virt. eigenvalues --    3.53458   3.55809   3.56785   3.63094   3.64243
 Alpha virt. eigenvalues --    3.65072   3.65533   3.66378   3.66912   3.67289
 Alpha virt. eigenvalues --    3.70262   3.70857   3.72232   3.75588   3.76553
 Alpha virt. eigenvalues --    3.77605   3.79358   3.81574   3.85086   3.86184
 Alpha virt. eigenvalues --    3.87520   3.93629   3.95348   3.97468   3.99552
 Alpha virt. eigenvalues --    4.01026   4.03889   4.06274   4.08553   4.12734
 Alpha virt. eigenvalues --    4.14352   4.16364   4.17182   4.17661   4.21385
 Alpha virt. eigenvalues --    4.23117   4.24518   4.26749   4.28773   4.30674
 Alpha virt. eigenvalues --    4.31901   4.34272   4.35201   4.36341   4.37606
 Alpha virt. eigenvalues --    4.39843   4.40133   4.42043   4.42919   4.43454
 Alpha virt. eigenvalues --    4.45106   4.46177   4.46488   4.48168   4.48737
 Alpha virt. eigenvalues --    4.50623   4.52128   4.53904   4.55172   4.58725
 Alpha virt. eigenvalues --    4.59248   4.60027   4.62478   4.63849   4.64789
 Alpha virt. eigenvalues --    4.66449   4.68367   4.68872   4.69747   4.73159
 Alpha virt. eigenvalues --    4.75473   4.77032   4.78198   4.78383   4.80719
 Alpha virt. eigenvalues --    4.82464   4.84417   4.86763   4.88310   4.88910
 Alpha virt. eigenvalues --    4.91736   4.93002   4.94701   4.97052   4.99891
 Alpha virt. eigenvalues --    5.03802   5.06710   5.09653   5.12313   5.13145
 Alpha virt. eigenvalues --    5.15822   5.18376   5.19906   5.22754   5.23411
 Alpha virt. eigenvalues --    5.28780   5.29356   5.32294   5.32681   5.37359
 Alpha virt. eigenvalues --    5.40691   5.44441   5.47090   5.50616   5.57164
 Alpha virt. eigenvalues --    5.60791   5.60923   5.79141   5.91303   6.32537
 Alpha virt. eigenvalues --    9.08001  10.04035  10.75503  10.92914  11.15522
 Alpha virt. eigenvalues --   11.34632  11.42502  11.44114  11.45401  11.50832
 Alpha virt. eigenvalues --   11.77283  12.13765  12.50063  14.65170  15.65147
 Alpha virt. eigenvalues --   18.91216
          Condensed to atoms (all electrons):
               1          2          3          4          5          6
     1  C    4.903072   0.376975  -0.060566   0.004011  -0.000250  -0.000012
     2  N    0.376975   6.468438   0.243036  -0.045705   0.001766   0.000232
     3  N   -0.060566   0.243036   6.588305   0.347104  -0.026171  -0.007380
     4  C    0.004011  -0.045705   0.347104   4.957170   0.344677  -0.010412
     5  C   -0.000250   0.001766  -0.026171   0.344677   4.799443   0.311401
     6  N   -0.000012   0.000232  -0.007380  -0.010412   0.311401   6.430908
     7  C   -0.000103   0.000321  -0.013184  -0.006159  -0.083234   0.602404
     8  C    0.000008  -0.000010   0.000460  -0.000519   0.005904  -0.043733
     9  N   -0.000000   0.000000   0.000002   0.000011  -0.000093  -0.006124
    10  N    0.000001  -0.000007   0.001210  -0.034385   0.386789  -0.033537
    11  C   -0.000000   0.000000  -0.000112   0.003270  -0.066313  -0.006947
    12  H    0.377256  -0.022722   0.003543  -0.000284   0.000002  -0.000000
    13  H    0.365807  -0.048564   0.017420   0.000366   0.000095  -0.000002
    14  H    0.380986  -0.023832  -0.007484   0.000186  -0.000019   0.000000
    15  H   -0.044700   0.340232  -0.042722  -0.004814  -0.000308  -0.000004
    16  H   -0.005228  -0.030280   0.310610  -0.048246  -0.005448   0.003692
    17  H    0.000066  -0.003188  -0.022811   0.352256  -0.014504   0.002672
    18  H    0.000366   0.009013  -0.037600   0.343597  -0.017981  -0.006474
    19  H    0.000020  -0.000036   0.005626  -0.047771   0.366301  -0.062907
    20  H    0.000242  -0.000628   0.016492  -0.000386  -0.008868  -0.043567
    21  H    0.000000   0.000000  -0.000061  -0.001155  -0.042886   0.004268
    22  H   -0.000000   0.000000  -0.000003   0.000442  -0.006970   0.013476
    23  H    0.000000   0.000000   0.000016   0.000131   0.001786  -0.002870
    24  H    0.000000  -0.000000   0.000000  -0.000198   0.003168   0.000347
               7          8          9         10         11         12
     1  C   -0.000103   0.000008  -0.000000   0.000001  -0.000000   0.377256
     2  N    0.000321  -0.000010   0.000000  -0.000007   0.000000  -0.022722
     3  N   -0.013184   0.000460   0.000002   0.001210  -0.000112   0.003543
     4  C   -0.006159  -0.000519   0.000011  -0.034385   0.003270  -0.000284
     5  C   -0.083234   0.005904  -0.000093   0.386789  -0.066313   0.000002
     6  N    0.602404  -0.043733  -0.006124  -0.033537  -0.006947  -0.000000
     7  C    4.869130   0.401209  -0.006779   0.002039   0.000579  -0.000001
     8  C    0.401209   4.403498   0.990086   0.000017   0.000009  -0.000000
     9  N   -0.006779   0.990086   6.333302   0.000000  -0.000001   0.000000
    10  N    0.002039   0.000017   0.000000   6.409500   0.381032  -0.000000
    11  C    0.000579   0.000009  -0.000001   0.381032   4.933636   0.000000
    12  H   -0.000001  -0.000000   0.000000  -0.000000   0.000000   0.582118
    13  H   -0.000101   0.000003   0.000000   0.000000   0.000000  -0.033894
    14  H    0.000044  -0.000010  -0.000000  -0.000000  -0.000000  -0.028590
    15  H   -0.000004  -0.000000  -0.000000  -0.000007  -0.000000  -0.000234
    16  H    0.013386  -0.000154  -0.000015  -0.000289  -0.000005  -0.000321
    17  H   -0.000024   0.000003  -0.000000  -0.004294  -0.000132  -0.000000
    18  H    0.001582   0.000008  -0.000002   0.004977   0.000135   0.000028
    19  H   -0.000352  -0.000317  -0.000000  -0.065745  -0.003112   0.000000
    20  H    0.349430  -0.051281   0.000647  -0.000158   0.000034   0.000003
    21  H   -0.000258   0.000002  -0.000000   0.343814  -0.044317   0.000000
    22  H   -0.000049  -0.000048   0.000000  -0.022887   0.381754   0.000000
    23  H    0.000270  -0.000007  -0.000000  -0.048548   0.361269  -0.000000
    24  H   -0.000020   0.000000  -0.000000  -0.023532   0.381965  -0.000000
              13         14         15         16         17         18
     1  C    0.365807   0.380986  -0.044700  -0.005228   0.000066   0.000366
     2  N   -0.048564  -0.023832   0.340232  -0.030280  -0.003188   0.009013
     3  N    0.017420  -0.007484  -0.042722   0.310610  -0.022811  -0.037600
     4  C    0.000366   0.000186  -0.004814  -0.048246   0.352256   0.343597
     5  C    0.000095  -0.000019  -0.000308  -0.005448  -0.014504  -0.017981
     6  N   -0.000002   0.000000  -0.000004   0.003692   0.002672  -0.006474
     7  C   -0.000101   0.000044  -0.000004   0.013386  -0.000024   0.001582
     8  C    0.000003  -0.000010  -0.000000  -0.000154   0.000003   0.000008
     9  N    0.000000  -0.000000  -0.000000  -0.000015  -0.000000  -0.000002
    10  N    0.000000  -0.000000  -0.000007  -0.000289  -0.004294   0.004977
    11  C    0.000000  -0.000000  -0.000000  -0.000005  -0.000132   0.000135
    12  H   -0.033894  -0.028590  -0.000234  -0.000321  -0.000000   0.000028
    13  H    0.647282  -0.045454  -0.008007  -0.001978  -0.000082   0.000094
    14  H   -0.045454   0.587473   0.005567   0.007679   0.000018  -0.000095
    15  H   -0.008007   0.005567   0.511497   0.006459   0.005371  -0.001287
    16  H   -0.001978   0.007679   0.006459   0.521127   0.006910  -0.009254
    17  H   -0.000082   0.000018   0.005371   0.006910   0.617605  -0.046126
    18  H    0.000094  -0.000095  -0.001287  -0.009254  -0.046126   0.626255
    19  H    0.000008  -0.000001  -0.000010   0.000429  -0.004382   0.006986
    20  H    0.000449  -0.000186  -0.000059  -0.009424  -0.000329   0.001166
    21  H    0.000000  -0.000000  -0.000002   0.000005   0.003718  -0.000061
    22  H   -0.000000   0.000000  -0.000000  -0.000001  -0.000006  -0.000012
    23  H   -0.000000   0.000000   0.000000   0.000002  -0.000016   0.000028
    24  H    0.000000   0.000000   0.000000  -0.000000  -0.000001   0.000006
              19         20         21         22         23         24
     1  C    0.000020   0.000242   0.000000  -0.000000   0.000000   0.000000
     2  N   -0.000036  -0.000628   0.000000   0.000000   0.000000  -0.000000
     3  N    0.005626   0.016492  -0.000061  -0.000003   0.000016   0.000000
     4  C   -0.047771  -0.000386  -0.001155   0.000442   0.000131  -0.000198
     5  C    0.366301  -0.008868  -0.042886  -0.006970   0.001786   0.003168
     6  N   -0.062907  -0.043567   0.004268   0.013476  -0.002870   0.000347
     7  C   -0.000352   0.349430  -0.000258  -0.000049   0.000270  -0.000020
     8  C   -0.000317  -0.051281   0.000002  -0.000048  -0.000007   0.000000
     9  N   -0.000000   0.000647  -0.000000   0.000000  -0.000000  -0.000000
    10  N   -0.065745  -0.000158   0.343814  -0.022887  -0.048548  -0.023532
    11  C   -0.003112   0.000034  -0.044317   0.381754   0.361269   0.381965
    12  H    0.000000   0.000003   0.000000   0.000000  -0.000000  -0.000000
    13  H    0.000008   0.000449   0.000000  -0.000000  -0.000000   0.000000
    14  H   -0.000001  -0.000186  -0.000000   0.000000   0.000000   0.000000
    15  H   -0.000010  -0.000059  -0.000002  -0.000000   0.000000   0.000000
    16  H    0.000429  -0.009424   0.000005  -0.000001   0.000002  -0.000000
    17  H   -0.004382  -0.000329   0.003718  -0.000006  -0.000016  -0.000001
    18  H    0.006986   0.001166  -0.000061  -0.000012   0.000028   0.000006
    19  H    0.705429   0.008749  -0.003204  -0.000796   0.014725  -0.000234
    20  H    0.008749   0.567586  -0.000000   0.000064   0.000015   0.000000
    21  H   -0.003204  -0.000000   0.520382   0.005485  -0.005551  -0.002133
    22  H   -0.000796   0.000064   0.005485   0.549097  -0.040664  -0.027619
    23  H    0.014725   0.000015  -0.005551  -0.040664   0.669176  -0.039830
    24  H   -0.000234   0.000000  -0.002133  -0.027619  -0.039830   0.587475
 Mulliken charges:
               1
     1  C   -0.297950
     2  N   -0.265040
     3  N   -0.315729
     4  C   -0.153184
     5  C    0.051711
     6  N   -0.145430
     7  C   -0.130127
     8  C    0.294871
     9  N   -0.311035
    10  N   -0.295988
    11  C   -0.322744
    12  H    0.123095
    13  H    0.106559
    14  H    0.123719
    15  H    0.233033
    16  H    0.240345
    17  H    0.107276
    18  H    0.124650
    19  H    0.080595
    20  H    0.170008
    21  H    0.221954
    22  H    0.148739
    23  H    0.090067
    24  H    0.120604
 Sum of Mulliken charges =  -0.00000
 Mulliken charges with hydrogens summed into heavy atoms:
               1
     1  C    0.055423
     2  N   -0.032007
     3  N   -0.075384
     4  C    0.078742
     5  C    0.132307
     6  N   -0.145430
     7  C    0.039881
     8  C    0.294871
     9  N   -0.311035
    10  N   -0.074034
    11  C    0.036666
 Electronic spatial extent (au):  <R**2>=           2495.5985
 Charge=             -0.0000 electrons
 Dipole moment (field-independent basis, Debye):
    X=              1.8602    Y=             -4.1945    Z=              2.4835  Tot=              5.2175
 Quadrupole moment (field-independent basis, Debye-Ang):
   XX=            -62.9770   YY=            -75.3718   ZZ=            -70.0887
   XY=              5.2195   XZ=             -1.8271   YZ=              0.9652
 Traceless Quadrupole moment (field-independent basis, Debye-Ang):
   XX=              6.5021   YY=             -5.8926   ZZ=             -0.6095
   XY=              5.2195   XZ=             -1.8271   YZ=              0.9652
 Octapole moment (field-independent basis, Debye-Ang**2):
  XXX=             21.4259  YYY=           -106.4933  ZZZ=              2.2655  XYY=             24.4339
  XXY=            -17.6437  XXZ=              8.7333  XZZ=             -0.7180  YZZ=              2.0628
  YYZ=             13.5019  XYZ=             -2.3795
 Hexadecapole moment (field-independent basis, Debye-Ang**3):
 XXXX=          -1746.7233 YYYY=          -1576.6414 ZZZZ=           -133.9027 XXXY=             -2.1162
 XXXZ=             13.9900 YYYX=             94.3375 YYYZ=             34.7086 ZZZX=              0.7077
 ZZZY=             -1.1461 XXYY=           -511.6758 XXZZ=           -363.9835 YYZZ=           -245.1608
 XXYZ=             -6.3833 YYXZ=            -12.1425 ZZXY=              0.4358
 N-N= 5.998479121866D+02 E-N=-2.385625908070D+03  KE= 5.061491111984D+02
 PrsmSu:  requested number of processors reduced to:  13 ShMem   1 Linda.
 Calling FoFJK, ICntrl=      2127 FMM=F ISym2X=0 I1Cent= 0 IOpClX= 0 NMat=1 NMatS=1 NMatT=0.
 ***** Axes restored to original set *****
 -------------------------------------------------------------------
 Center     Atomic                   Forces (Hartrees/Bohr)
 Number     Number              X              Y              Z
 -------------------------------------------------------------------
      1        6           0.002689501    0.002505353    0.009013901
      2        7          -0.010751466    0.022770954   -0.017600463
      3        7           0.015290122   -0.023206997    0.014446374
      4        6          -0.007941354   -0.003027699   -0.012235285
      5        6           0.007253345    0.014651002    0.008484188
      6        7          -0.004578508    0.002777500    0.020921570
      7        6           0.013211596    0.000543001   -0.010794724
      8        6          -0.019196673   -0.008265685   -0.019564376
      9        7           0.010729643    0.005661478    0.018976436
     10        7          -0.005721005    0.003419738   -0.013341396
     11        6           0.007156506    0.000352610    0.002450093
     12        1           0.000009768    0.002187205    0.000103853
     13        1          -0.005010881   -0.003038796   -0.000148358
     14        1           0.004270287    0.001489634    0.000749142
     15        1          -0.000064561   -0.013025926   -0.002949301
     16        1          -0.001357992    0.009630406    0.002859079
     17        1          -0.001291479   -0.003081886   -0.000641432
     18        1           0.006675627    0.000469309    0.001540033
     19        1          -0.010188133   -0.002737470   -0.002087789
     20        1           0.006800941   -0.004068242    0.000386386
     21        1          -0.004544032   -0.000409156   -0.003910310
     22        1          -0.002417210    0.002515073    0.001096711
     23        1          -0.000934510   -0.008940807    0.001498794
     24        1          -0.000089533    0.000829401    0.000746875
 -------------------------------------------------------------------
 Cartesian Forces:  Max     0.023206997 RMS     0.008864501

 GradGradGradGradGradGradGradGradGradGradGradGradGradGradGradGradGradGrad
 Berny optimization.
 FormGI is forming the generalized inverse of G from B-inverse, IUseBI=4.
 Internal  Forces:  Max     0.022417791 RMS     0.006133090
 Search for a local minimum.
 Step number   1 out of a maximum of  115
 All quantities printed in internal units (Hartrees-Bohrs-Radians)
 Mixed Optimization -- RFO/linear search
 Second derivative matrix not updated -- first step.
 ITU=  0
     Eigenvalues ---    0.00230   0.00662   0.00702   0.00801   0.00836
     Eigenvalues ---    0.00881   0.00966   0.02259   0.02930   0.03274
     Eigenvalues ---    0.03661   0.03786   0.04315   0.04774   0.04774
     Eigenvalues ---    0.05350   0.05440   0.05450   0.07233   0.07266
     Eigenvalues ---    0.07412   0.07458   0.07521   0.09027   0.10914
     Eigenvalues ---    0.10927   0.11175   0.12598   0.15986   0.16000
     Eigenvalues ---    0.16000   0.16000   0.16000   0.16000   0.16000
     Eigenvalues ---    0.17037   0.19910   0.21969   0.22004   0.23398
     Eigenvalues ---    0.23405   0.23912   0.25000   0.26260   0.33619
     Eigenvalues ---    0.33619   0.33829   0.33926   0.34012   0.34116
     Eigenvalues ---    0.34310   0.34315   0.34391   0.34751   0.34816
     Eigenvalues ---    0.35170   0.36060   0.36381   0.37617   0.39816
     Eigenvalues ---    0.40808   0.43884   0.44367   0.44467   0.72945
     Eigenvalues ---    1.23301
 RFO step:  Lambda=-2.43081418D-02 EMin= 2.30000000D-03
 Linear search not attempted -- first point.
 Iteration  1 RMS(Cart)=  0.24008904 RMS(Int)=  0.01540177
 Iteration  2 RMS(Cart)=  0.03415807 RMS(Int)=  0.00083734
 Iteration  3 RMS(Cart)=  0.00083569 RMS(Int)=  0.00071116
 Iteration  4 RMS(Cart)=  0.00000123 RMS(Int)=  0.00071116
 Iteration  5 RMS(Cart)=  0.00000000 RMS(Int)=  0.00071116
 Variable       Old X    -DE/DX   Delta X   Delta X   Delta X     New X
                                 (Linear)    (Quad)   (Total)
    R1        2.76790  -0.00233   0.00000  -0.00600  -0.00600   2.76191
    R2        2.06082   0.00202   0.00000   0.00543   0.00543   2.06624
    R3        2.07135   0.00355   0.00000   0.00971   0.00971   2.08106
    R4        2.07620  -0.00257   0.00000  -0.00708  -0.00708   2.06912
    R5        2.70470   0.01256   0.00000   0.02905   0.02905   2.73376
    R6        1.93294  -0.00668   0.00000  -0.01443  -0.01443   1.91851
    R7        2.78700  -0.00499   0.00000  -0.01327  -0.01327   2.77374
    R8        1.92718  -0.00406   0.00000  -0.00869  -0.00869   1.91850
    R9        2.96108  -0.00765   0.00000  -0.02665  -0.02665   2.93443
   R10        2.07456  -0.00193   0.00000  -0.00530  -0.00530   2.06926
   R11        2.07310   0.00153   0.00000   0.00420   0.00420   2.07729
   R12        2.79275  -0.01017   0.00000  -0.02731  -0.02731   2.76544
   R13        2.77287  -0.00689   0.00000  -0.01790  -0.01790   2.75497
   R14        2.07977   0.00369   0.00000   0.01024   0.01024   2.09001
   R15        2.41960  -0.00877   0.00000  -0.01164  -0.01164   2.40797
   R16        2.71804   0.00375   0.00000   0.00889   0.00889   2.72692
   R17        2.07979  -0.00481   0.00000  -0.01334  -0.01334   2.06645
   R18        2.20537  -0.02242   0.00000  -0.01783  -0.01783   2.18754
   R19        2.74926   0.00533   0.00000   0.01331   0.01331   2.76257
   R20        1.92600  -0.00504   0.00000  -0.01074  -0.01074   1.91526
   R21        2.06675  -0.00123   0.00000  -0.00334  -0.00334   2.06341
   R22        2.06801   0.00695   0.00000   0.01892   0.01892   2.08693
   R23        2.06809  -0.00006   0.00000  -0.00016  -0.00016   2.06793
    A1        1.90900  -0.00117   0.00000  -0.00592  -0.00642   1.90258
    A2        1.93923   0.00785   0.00000   0.04732   0.04734   1.98657
    A3        1.94484  -0.00711   0.00000  -0.04370  -0.04371   1.90113
    A4        1.90134  -0.00068   0.00000   0.00637   0.00596   1.90730
    A5        1.87950   0.00165   0.00000  -0.00047  -0.00104   1.87846
    A6        1.88847  -0.00061   0.00000  -0.00410  -0.00363   1.88484
    A7        1.85711   0.01639   0.00000   0.04948   0.04959   1.90670
    A8        1.90464  -0.00256   0.00000  -0.02339  -0.02316   1.88149
    A9        1.95327  -0.01358   0.00000  -0.11086  -0.11070   1.84257
   A10        1.94397  -0.00978   0.00000  -0.04404  -0.04456   1.89941
   A11        1.84257  -0.00329   0.00000  -0.05027  -0.05070   1.79188
   A12        1.83560   0.00489   0.00000   0.01320   0.01142   1.84703
   A13        1.93154   0.01441   0.00000   0.06467   0.06334   1.99488
   A14        1.91376  -0.00560   0.00000  -0.04080  -0.03922   1.87454
   A15        1.91023   0.00067   0.00000   0.04560   0.04367   1.95390
   A16        1.91039  -0.00754   0.00000  -0.06053  -0.05996   1.85043
   A17        1.90532  -0.00374   0.00000   0.00209  -0.00139   1.90393
   A18        1.89212   0.00155   0.00000  -0.01238  -0.01246   1.87967
   A19        1.93413   0.01353   0.00000   0.05846   0.05768   1.99181
   A20        1.88796  -0.00741   0.00000  -0.03238  -0.03173   1.85623
   A21        1.89550  -0.00087   0.00000   0.01157   0.01174   1.90724
   A22        1.91511  -0.00821   0.00000  -0.05523  -0.05446   1.86065
   A23        1.93878  -0.00526   0.00000  -0.03644  -0.03648   1.90230
   A24        1.89108   0.00814   0.00000   0.05473   0.05454   1.94562
   A25        2.04256   0.00850   0.00000   0.03099   0.03099   2.07355
   A26        2.02270   0.01387   0.00000   0.05766   0.05650   2.07920
   A27        2.23320  -0.01061   0.00000  -0.04691  -0.04804   2.18515
   A28        2.02555  -0.00301   0.00000  -0.00581  -0.00698   2.01857
   A29        1.94586   0.00789   0.00000   0.02888   0.02896   1.97482
   A30        1.91845  -0.00509   0.00000  -0.03221  -0.03222   1.88623
   A31        1.90458  -0.00063   0.00000   0.00144   0.00171   1.90630
   A32        1.94341  -0.00645   0.00000  -0.03928  -0.03918   1.90423
   A33        1.93887   0.00928   0.00000   0.05286   0.05291   1.99179
   A34        1.91753  -0.00148   0.00000  -0.00630  -0.00667   1.91086
   A35        1.90667  -0.00241   0.00000  -0.01628  -0.01580   1.89087
   A36        1.86824   0.00261   0.00000   0.00909   0.00874   1.87698
   A37        1.88693  -0.00170   0.00000  -0.00083  -0.00120   1.88573
   A38        3.07681   0.00340   0.00000   0.04714   0.04714   3.12394
   A39        3.22329  -0.00300   0.00000  -0.04164  -0.04164   3.18165
    D1       -3.09136  -0.00285   0.00000  -0.06563  -0.06572   3.12610
    D2        1.08130   0.00525   0.00000   0.05081   0.05074   1.13205
    D3        1.09213  -0.00620   0.00000  -0.09964  -0.10000   0.99213
    D4       -1.01839   0.00189   0.00000   0.01679   0.01647  -1.00192
    D5       -1.01529  -0.00596   0.00000  -0.09707  -0.09667  -1.11196
    D6       -3.12581   0.00214   0.00000   0.01936   0.01980  -3.10601
    D7        3.11453  -0.00011   0.00000   0.01329   0.01424   3.12878
    D8        1.13126   0.00061   0.00000   0.04635   0.04559   1.17685
    D9       -1.08964  -0.00061   0.00000  -0.04643  -0.04567  -1.13530
   D10       -3.07291   0.00011   0.00000  -0.01337  -0.01432  -3.08723
   D11        3.13989  -0.00152   0.00000  -0.05648  -0.05757   3.08232
   D12        1.03072   0.00230   0.00000   0.00412   0.00409   1.03480
   D13       -1.04271   0.00336   0.00000   0.01623   0.01767  -1.02504
   D14       -1.15566  -0.00730   0.00000  -0.12888  -0.13018  -1.28584
   D15        3.01835  -0.00348   0.00000  -0.06827  -0.06852   2.94983
   D16        0.94492  -0.00242   0.00000  -0.05617  -0.05494   0.88999
   D17        1.08564   0.00588   0.00000   0.05901   0.05992   1.14556
   D18       -3.09749  -0.00074   0.00000   0.00595   0.00615  -3.09134
   D19       -1.04856   0.00438   0.00000   0.05943   0.05954  -0.98903
   D20       -3.08637   0.00319   0.00000   0.01004   0.01005  -3.07632
   D21       -0.98632  -0.00343   0.00000  -0.04302  -0.04372  -1.03004
   D22        1.06261   0.00169   0.00000   0.01046   0.00966   1.07227
   D23       -1.01787  -0.00156   0.00000  -0.03929  -0.03869  -1.05656
   D24        1.08218  -0.00818   0.00000  -0.09235  -0.09246   0.98972
   D25        3.13111  -0.00306   0.00000  -0.03887  -0.03908   3.09204
   D26       -1.28209  -0.01080   0.00000  -0.25927  -0.25933  -1.54142
   D27        2.91729  -0.00484   0.00000  -0.22047  -0.21925   2.69803
   D28        0.82667  -0.00630   0.00000  -0.22964  -0.23080   0.59587
   D29        3.08599  -0.00258   0.00000  -0.01380  -0.01448   3.07151
   D30        0.97165  -0.00355   0.00000  -0.01284  -0.01332   0.95834
   D31       -1.08530   0.00443   0.00000   0.00450   0.00536  -1.07994
   D32        3.08355   0.00346   0.00000   0.00546   0.00652   3.09007
   D33        1.03422  -0.00193   0.00000  -0.03958  -0.04006   0.99415
   D34       -1.08012  -0.00290   0.00000  -0.03863  -0.03890  -1.11902
   D35        3.10276  -0.00076   0.00000  -0.00743  -0.00840   3.09436
   D36        0.02761  -0.00547   0.00000  -0.10171  -0.10074  -0.07313
   D37       -3.08329  -0.00374   0.00000  -0.08073  -0.08178   3.11811
   D38        1.05055   0.00143   0.00000   0.02322   0.02284   1.07338
   D39       -1.07888   0.00251   0.00000   0.03443   0.03470  -1.04417
   D40        3.11724  -0.00030   0.00000   0.00602   0.00597   3.12321
   D41       -3.11024  -0.00026   0.00000   0.00250   0.00223  -3.10801
   D42        1.04352   0.00082   0.00000   0.01371   0.01410   1.05762
   D43       -1.04355  -0.00199   0.00000  -0.01470  -0.01464  -1.05819
         Item               Value     Threshold  Converged?
 Maximum Force            0.022418     0.000450     NO 
 RMS     Force            0.006133     0.000300     NO 
 Maximum Displacement     1.221381     0.001800     NO 
 RMS     Displacement     0.264774     0.001200     NO 
 Predicted change in Energy=-1.636799D-02
 GradGradGradGradGradGradGradGradGradGradGradGradGradGradGradGradGradGrad

                          Input orientation:                          
 ---------------------------------------------------------------------
 Center     Atomic      Atomic             Coordinates (Angstroms)
 Number     Number       Type             X           Y           Z
 ---------------------------------------------------------------------
      1          6           0        1.000778    0.291391    0.285159
      2          7           0        2.454002    0.139689    0.250223
      3          7           0        2.782913   -1.212574   -0.144714
      4          6           0        4.243461   -1.349732   -0.193887
      5          6           0        4.739804   -2.783093   -0.526154
      6          7           0        4.394341   -3.238341   -1.873360
      7          6           0        3.276693   -3.822350   -2.056351
      8          6           0        2.903023   -4.221436   -3.391799
      9          7           0        2.562637   -4.549876   -4.448346
     10          7           0        6.195576   -2.738607   -0.461868
     11          6           0        6.819854   -4.045332   -0.661521
     12          1           0        0.756450    1.309800    0.599309
     13          1           0        0.494582   -0.425630    0.950289
     14          1           0        0.604766    0.152339   -0.726136
     15          1           0        2.799230    0.237849    1.199894
     16          1           0        2.469100   -1.245242   -1.109668
     17          1           0        4.627730   -1.120943    0.805628
     18          1           0        4.699424   -0.639218   -0.897899
     19          1           0        4.323439   -3.493899    0.211818
     20          1           0        2.562191   -4.077097   -1.268714
     21          1           0        6.459257   -2.378342    0.448014
     22          1           0        6.562457   -4.416201   -1.655738
     23          1           0        6.521500   -4.806245    0.081179
     24          1           0        7.908292   -3.939970   -0.620355
 ---------------------------------------------------------------------
                    Distance matrix (angstroms):
                    1          2          3          4          5
     1  C    0.000000
     2  N    1.461538   0.000000
     3  N    2.371225   1.446642   0.000000
     4  C    3.665755   2.370184   1.467798   0.000000
     5  C    4.908258   3.790819   2.538002   1.552831   0.000000
     6  N    5.351119   4.436846   3.112659   2.531845   1.463407
     7  C    5.252173   4.657774   3.272476   3.243031   2.358443
     8  C    6.124065   5.699593   4.428458   4.502233   3.695202
     9  N    6.948621   6.639305   5.450445   5.582698   4.821324
    10  N    6.060104   4.773996   3.751751   2.410714   1.457869
    11  C    7.318812   6.116072   4.958679   3.758024   2.436837
    12  H    1.093408   2.091101   3.320014   4.456626   5.821130
    13  H    1.101250   2.156155   2.656082   4.027058   5.075375
    14  H    1.094934   2.091199   2.635406   3.972356   5.074968
    15  H    2.018424   1.015231   1.977869   2.559071   3.983864
    16  H    2.542194   1.941022   1.015225   1.999483   2.803850
    17  H    3.926876   2.573473   2.077234   1.095006   2.132826
    18  H    3.993200   2.639470   2.137532   1.099256   2.176241
    19  H    5.037249   4.086470   2.775749   2.183677   1.105987
    20  H    4.892466   4.483320   3.085058   3.379415   2.639667
    21  H    6.078568   4.735152   3.902031   2.525832   2.017262
    22  H    7.540609   6.424035   5.179901   4.113148   2.695378
    23  H    7.517039   6.405886   5.190620   4.148808   2.763410
    24  H    8.150958   6.866644   5.825327   4.508014   3.374396
                    6          7          8          9         10
     6  N    0.000000
     7  C    1.274240   0.000000
     8  C    2.344390   1.443025   0.000000
     9  N    3.421376   2.600156   1.157595   0.000000
    10  N    2.342326   3.498107   4.650181   5.689547   0.000000
    11  C    2.828940   3.814349   4.777761   5.720009   1.461887
    12  H    6.327237   6.304214   7.150615   7.942099   6.862928
    13  H    5.576061   5.321441   6.249997   7.101515   6.312320
    14  H    5.212841   4.970595   5.614059   6.308639   6.299568
    15  H    4.906442   5.226502   6.401535   7.408165   4.812059
    16  H    2.874408   2.861800   3.775466   4.698524   4.066498
    17  H    3.422692   4.160988   5.496005   6.605031   2.584864
    18  H    2.792855   3.674031   4.720051   5.697787   2.614579
    19  H    2.101976   2.519553   3.941186   5.092410   2.128195
    20  H    2.103777   1.093517   2.155108   3.214588   3.955255
    21  H    3.223702   4.299502   5.548690   6.623711   1.013511
    22  H    2.476982   3.362944   4.055034   4.880070   2.091471
    23  H    3.286845   4.008224   5.049451   6.021206   2.162464
    24  H    3.796071   4.850528   5.728250   6.603145   2.098044
                   11         12         13         14         15
    11  C    0.000000
    12  H    8.187307   0.000000
    13  H    7.463862   1.789826   0.000000
    14  H    7.500129   1.766219   1.776679   0.000000
    15  H    6.162461   2.383847   2.411204   2.921057   0.000000
    16  H    5.193304   3.518808   2.968822   2.361370   2.764530
    17  H    3.938272   4.575794   4.193721   4.489075   2.311964
    18  H    4.019167   4.646219   4.598056   4.174002   2.963229
    19  H    2.701645   5.995755   4.961830   5.291818   4.150356
    20  H    4.300858   5.980708   4.746809   4.691912   4.976844
    21  H    2.034688   6.793179   6.296246   6.485217   4.561314
    22  H    1.091909   8.460617   7.715902   7.565038   6.631493
    23  H    1.104358   8.420823   7.501259   7.761898   6.367865
    24  H    1.094300   8.955250   8.353478   8.372555   6.846167
                   16         17         18         19         20
    16  H    0.000000
    17  H    2.888511   0.000000
    18  H    2.320875   1.771780   0.000000
    19  H    3.200212   2.464979   3.085780   0.000000
    20  H    2.837845   4.160312   4.065007   2.373623   0.000000
    21  H    4.430761   2.250207   2.816566   2.421152   4.584763
    22  H    5.206606   4.545351   4.279113   3.058040   4.033225
    23  H    5.524564   4.206262   4.652168   2.563355   4.246174
    24  H    6.089811   4.554385   4.611813   3.707110   5.387018
                   21         22         23         24
    21  H    0.000000
    22  H    2.930750   0.000000
    23  H    2.456248   1.780644   0.000000
    24  H    2.383233   1.763544   1.779262   0.000000
 Stoichiometry    C6H13N5
 Framework group  C1[X(C6H13N5)]
 Deg. of freedom    66
 Full point group                 C1      NOp   1
 Largest Abelian subgroup         C1      NOp   1
 Largest concise Abelian subgroup C1      NOp   1
                         Standard orientation:                         
 ---------------------------------------------------------------------
 Center     Atomic      Atomic             Coordinates (Angstroms)
 Number     Number       Type             X           Y           Z
 ---------------------------------------------------------------------
      1          6           0        4.002960    0.828832    0.166942
      2          7           0        3.120757   -0.233671   -0.311491
      3          7           0        1.783534   -0.005595    0.191092
      4          6           0        0.902037   -1.067365   -0.308948
      5          6           0       -0.554653   -0.992142    0.223669
      6          7           0       -1.295173    0.187784   -0.224622
      7          6           0       -1.223248    1.256587    0.465432
      8          6           0       -1.902687    2.441042   -0.001205
      9          7           0       -2.426306    3.414526   -0.344976
     10          7           0       -1.250768   -2.152197   -0.319542
     11          6           0       -2.623204   -2.279054    0.167737
     12          1           0        5.015547    0.644095   -0.201950
     13          1           0        4.027623    0.926386    1.263585
     14          1           0        3.667223    1.783932   -0.250124
     15          1           0        3.426045   -1.104594    0.111574
     16          1           0        1.503450    0.839488   -0.296832
     17          1           0        1.304768   -2.021699    0.046147
     18          1           0        0.881809   -1.101246   -1.407496
     19          1           0       -0.540472   -1.009571    1.329428
     20          1           0       -0.697049    1.357198    1.418727
     21          1           0       -0.727578   -2.981436   -0.062950
     22          1           0       -3.194097   -1.400376   -0.139298
     23          1           0       -2.705173   -2.380929    1.264326
     24          1           0       -3.093631   -3.154583   -0.290130
 ---------------------------------------------------------------------
 Rotational constants (GHZ):           1.0665509           0.6469219           0.4159186
 Standard basis: 6-31G(2df,p) (6D, 7F)
 There are   406 symmetry adapted cartesian basis functions of A   symmetry.
 There are   373 symmetry adapted basis functions of A   symmetry.
   373 basis functions,   575 primitive gaussians,   406 cartesian basis functions
    42 alpha electrons       42 beta electrons
       nuclear repulsion energy       593.4049803741 Hartrees.
 NAtoms=   24 NActive=   24 NUniq=   24 SFac= 1.00D+00 NAtFMM=   60 NAOKFM=F Big=F
 Integral buffers will be    131072 words long.
 Raffenetti 2 integral format.
 Two-electron integral symmetry is turned on.
 One-electron integrals computed using PRISM.
 PrsmSu:  requested number of processors reduced to:  13 ShMem   1 Linda.
 NBasis=   373 RedAO= T EigKep=  1.48D-04  NBF=   373
 NBsUse=   373 1.00D-06 EigRej= -1.00D+00 NBFU=   373
 Initial guess from the checkpoint file:  "CNNCCpNdCCtNpNC.chk"
 B after Tr=     0.000000    0.000000    0.000000
         Rot=    0.990822    0.001955    0.000906   -0.135155 Ang=  15.54 deg.
 ExpMin= 1.61D-01 ExpMax= 4.17D+03 ExpMxC= 6.27D+02 IAcc=2 IRadAn=         4 AccDes= 0.00D+00
 Harris functional with IExCor=  402 and IRadAn=       4 diagonalized for initial guess.
 HarFok:  IExCor=  402 AccDes= 0.00D+00 IRadAn=         4 IDoV= 1 UseB2=F ITyADJ=14
 ICtDFT=  3500011 ScaDFX=  1.000000  1.000000  1.000000  1.000000
 FoFCou: FMM=F IPFlag=           0 FMFlag=      100000 FMFlg1=           0
         NFxFlg=           0 DoJE=T BraDBF=F KetDBF=T FulRan=T
         wScrn=  0.000000 ICntrl=       500 IOpCl=  0 I1Cent=   200000004 NGrid=           0
         NMat0=    1 NMatS0=      1 NMatT0=    0 NMatD0=    1 NMtDS0=    0 NMtDT0=    0
 Petite list used in FoFCou.
 Requested convergence on RMS density matrix=1.00D-08 within 128 cycles.
 Requested convergence on MAX density matrix=1.00D-06.
 Requested convergence on             energy=1.00D-06.
 No special actions if energy rises.
 Integral accuracy reduced to 1.0D-05 until final iterations.
 Initial convergence to 1.0D-05 achieved.  Increase integral accuracy.
 SCF Done:  E(RB3LYP) =  -510.145083757     A.U. after   14 cycles
            NFock= 14  Conv=0.43D-08     -V/T= 2.0077
 PrsmSu:  requested number of processors reduced to:  13 ShMem   1 Linda.
 Calling FoFJK, ICntrl=      2127 FMM=F ISym2X=0 I1Cent= 0 IOpClX= 0 NMat=1 NMatS=1 NMatT=0.
 ***** Axes restored to original set *****
 -------------------------------------------------------------------
 Center     Atomic                   Forces (Hartrees/Bohr)
 Number     Number              X              Y              Z
 -------------------------------------------------------------------
      1        6           0.000847688   -0.002646390    0.001290305
      2        7          -0.000637788    0.014947449   -0.001118340
      3        7           0.003922684   -0.017743685   -0.000336479
      4        6          -0.003810626    0.001022707   -0.007748499
      5        6           0.004083272   -0.001706325    0.002736935
      6        7          -0.011143026    0.009333814    0.000032199
      7        6           0.009164102    0.000956335   -0.000853808
      8        6          -0.001072165   -0.000648726    0.000066208
      9        7           0.000347572    0.000356969    0.001780791
     10        7           0.000193302   -0.003368632   -0.000546575
     11        6           0.002425330    0.000892307    0.000906926
     12        1           0.001135051   -0.000043279    0.000267930
     13        1          -0.000269895   -0.000409012   -0.000660029
     14        1          -0.000592425    0.000535590   -0.000637384
     15        1           0.000076693   -0.001491758    0.002689238
     16        1          -0.001609594   -0.001684189   -0.003502550
     17        1           0.000994167   -0.000045247    0.001176334
     18        1           0.002140846   -0.001009800    0.001004554
     19        1          -0.004376635    0.000551813    0.001273026
     20        1          -0.001212819    0.001135888    0.001845758
     21        1           0.001118232    0.000994997    0.000473055
     22        1          -0.000416293   -0.000211088   -0.000332386
     23        1          -0.000763131   -0.000356037   -0.000332535
     24        1          -0.000544543    0.000636299    0.000525324
 -------------------------------------------------------------------
 Cartesian Forces:  Max     0.017743685 RMS     0.003836315

 GradGradGradGradGradGradGradGradGradGradGradGradGradGradGradGradGradGrad
 Berny optimization.
 Using GEDIIS/GDIIS optimizer.
 FormGI is forming the generalized inverse of G from B-inverse, IUseBI=4.
 Internal  Forces:  Max     0.012133509 RMS     0.003255565
 Search for a local minimum.
 Step number   2 out of a maximum of  115
 All quantities printed in internal units (Hartrees-Bohrs-Radians)
 Mixed Optimization -- RFO/linear search
 Update second derivatives using D2CorX and points    1    2
 DE= -9.91D-03 DEPred=-1.64D-02 R= 6.05D-01
 TightC=F SS=  1.41D+00  RLast= 5.84D-01 DXNew= 5.0454D-01 1.7515D+00
 Trust test= 6.05D-01 RLast= 5.84D-01 DXMaxT set to 5.05D-01
 ITU=  1  0
 Use linear search instead of GDIIS.
     Eigenvalues ---    0.00230   0.00698   0.00799   0.00825   0.00875
     Eigenvalues ---    0.00886   0.00966   0.02275   0.02895   0.03315
     Eigenvalues ---    0.03783   0.03976   0.04285   0.04769   0.04782
     Eigenvalues ---    0.05081   0.05513   0.05597   0.07021   0.07037
     Eigenvalues ---    0.07586   0.07659   0.07814   0.09385   0.10740
     Eigenvalues ---    0.10885   0.11083   0.12985   0.15296   0.15999
     Eigenvalues ---    0.16000   0.16000   0.16000   0.16000   0.16015
     Eigenvalues ---    0.18159   0.20151   0.20481   0.22991   0.23316
     Eigenvalues ---    0.23699   0.24291   0.25647   0.29706   0.33428
     Eigenvalues ---    0.33715   0.33840   0.33978   0.33984   0.34040
     Eigenvalues ---    0.34181   0.34313   0.34392   0.34651   0.34792
     Eigenvalues ---    0.35158   0.36246   0.36397   0.37625   0.39772
     Eigenvalues ---    0.40550   0.43997   0.44429   0.44907   0.72588
     Eigenvalues ---    1.22073
 RFO step:  Lambda=-5.29564905D-03 EMin= 2.29825396D-03
 Quartic linear search produced a step of -0.04999.
 Iteration  1 RMS(Cart)=  0.10178681 RMS(Int)=  0.00275871
 Iteration  2 RMS(Cart)=  0.00403077 RMS(Int)=  0.00035057
 Iteration  3 RMS(Cart)=  0.00000961 RMS(Int)=  0.00035053
 Iteration  4 RMS(Cart)=  0.00000000 RMS(Int)=  0.00035053
 Variable       Old X    -DE/DX   Delta X   Delta X   Delta X     New X
                                 (Linear)    (Quad)   (Total)
    R1        2.76191  -0.00137   0.00030  -0.00475  -0.00445   2.75746
    R2        2.06624  -0.00022  -0.00027   0.00061   0.00034   2.06658
    R3        2.08106  -0.00001  -0.00049   0.00208   0.00160   2.08266
    R4        2.06912   0.00074   0.00035   0.00045   0.00080   2.06993
    R5        2.73376   0.01056  -0.00145   0.02996   0.02850   2.76226
    R6        1.91851   0.00240   0.00072   0.00186   0.00258   1.92109
    R7        2.77374  -0.00372   0.00066  -0.01254  -0.01187   2.76186
    R8        1.91850   0.00388   0.00043   0.00612   0.00655   1.92505
    R9        2.93443  -0.01023   0.00133  -0.04113  -0.03979   2.89463
   R10        2.06926   0.00141   0.00026   0.00265   0.00292   2.07218
   R11        2.07729  -0.00041  -0.00021  -0.00018  -0.00039   2.07690
   R12        2.76544  -0.00518   0.00137  -0.01950  -0.01813   2.74730
   R13        2.75497   0.00200   0.00089   0.00117   0.00206   2.75704
   R14        2.09001   0.00214  -0.00051   0.00803   0.00752   2.09753
   R15        2.40797  -0.00757   0.00058  -0.01208  -0.01150   2.39646
   R16        2.72692  -0.00144  -0.00044  -0.00138  -0.00182   2.72510
   R17        2.06645   0.00186   0.00067   0.00214   0.00281   2.06926
   R18        2.18754  -0.00183   0.00089  -0.00526  -0.00437   2.18317
   R19        2.76257  -0.00066  -0.00067   0.00128   0.00061   2.76318
   R20        1.91526   0.00107   0.00054  -0.00013   0.00040   1.91566
   R21        2.06341   0.00047   0.00017   0.00053   0.00070   2.06411
   R22        2.08693   0.00023  -0.00095   0.00471   0.00376   2.09070
   R23        2.06793  -0.00046   0.00001  -0.00126  -0.00125   2.06668
    A1        1.90258  -0.00184   0.00032  -0.01256  -0.01222   1.89036
    A2        1.98657   0.00064  -0.00237   0.01429   0.01193   1.99850
    A3        1.90113   0.00074   0.00219  -0.00495  -0.00280   1.89833
    A4        1.90730   0.00066  -0.00030   0.00442   0.00417   1.91147
    A5        1.87846   0.00020   0.00005  -0.00049  -0.00046   1.87799
    A6        1.88484  -0.00038   0.00018  -0.00129  -0.00114   1.88370
    A7        1.90670  -0.00283  -0.00248  -0.00535  -0.00813   1.89857
    A8        1.88149   0.00029   0.00116  -0.01608  -0.01559   1.86590
    A9        1.84257  -0.00081   0.00553  -0.04624  -0.04117   1.80140
   A10        1.89941  -0.00466   0.00223  -0.02520  -0.02292   1.87650
   A11        1.79188   0.00202   0.00253   0.00570   0.00833   1.80020
   A12        1.84703   0.00082  -0.00057   0.00922   0.00879   1.85582
   A13        1.99488  -0.01213  -0.00317  -0.03878  -0.04187   1.95300
   A14        1.87454   0.00355   0.00196   0.00612   0.00742   1.88195
   A15        1.95390   0.00548  -0.00218   0.03745   0.03530   1.98920
   A16        1.85043   0.00265   0.00300  -0.00858  -0.00576   1.84468
   A17        1.90393   0.00259   0.00007   0.00410   0.00472   1.90865
   A18        1.87967  -0.00182   0.00062  -0.00106  -0.00067   1.87899
   A19        1.99181  -0.01200  -0.00288  -0.05993  -0.06343   1.92838
   A20        1.85623   0.00531   0.00159   0.02212   0.02414   1.88037
   A21        1.90724  -0.00025  -0.00059  -0.01627  -0.01836   1.88888
   A22        1.86065   0.00538   0.00272   0.02527   0.02840   1.88905
   A23        1.90230   0.00251   0.00182  -0.00791  -0.00832   1.89398
   A24        1.94562  -0.00086  -0.00273   0.04057   0.03777   1.98340
   A25        2.07355  -0.00981  -0.00155  -0.02891  -0.03046   2.04309
   A26        2.07920   0.00357  -0.00282   0.02679   0.02401   2.10321
   A27        2.18515  -0.00279   0.00240  -0.02341  -0.02096   2.16419
   A28        2.01857  -0.00077   0.00035  -0.00330  -0.00291   2.01566
   A29        1.97482   0.00263  -0.00145   0.01742   0.01596   1.99078
   A30        1.88623  -0.00040   0.00161  -0.00452  -0.00292   1.88330
   A31        1.90630  -0.00101  -0.00009  -0.00230  -0.00242   1.90388
   A32        1.90423  -0.00005   0.00196  -0.00902  -0.00706   1.89717
   A33        1.99179   0.00004  -0.00265   0.01101   0.00837   2.00016
   A34        1.91086  -0.00091   0.00033  -0.00573  -0.00538   1.90548
   A35        1.89087  -0.00029   0.00079  -0.00649  -0.00571   1.88516
   A36        1.87698   0.00068  -0.00044   0.00678   0.00634   1.88332
   A37        1.88573   0.00060   0.00006   0.00351   0.00359   1.88932
   A38        3.12394  -0.00001  -0.00236   0.00936   0.00701   3.13095
   A39        3.18165   0.00050   0.00208   0.00032   0.00240   3.18405
    D1        3.12610  -0.00155   0.00329  -0.06736  -0.06404   3.06206
    D2        1.13205   0.00070  -0.00254  -0.00181  -0.00444   1.12761
    D3        0.99213  -0.00147   0.00500  -0.07358  -0.06849   0.92364
    D4       -1.00192   0.00078  -0.00082  -0.00803  -0.00889  -1.01081
    D5       -1.11196  -0.00192   0.00483  -0.07781  -0.07291  -1.18487
    D6       -3.10601   0.00032  -0.00099  -0.01226  -0.01331  -3.11932
    D7        3.12878   0.00052  -0.00071   0.00826   0.00724   3.13601
    D8        1.17685   0.00043  -0.00228   0.00485   0.00238   1.17922
    D9       -1.13530  -0.00093   0.00228  -0.03708  -0.03459  -1.16990
   D10       -3.08723  -0.00101   0.00072  -0.04048  -0.03945  -3.12669
   D11        3.08232  -0.00031   0.00288  -0.02168  -0.01857   3.06375
   D12        1.03480   0.00113  -0.00020   0.00762   0.00757   1.04238
   D13       -1.02504  -0.00199  -0.00088  -0.01623  -0.01745  -1.04249
   D14       -1.28584   0.00040   0.00651  -0.02158  -0.01487  -1.30071
   D15        2.94983   0.00184   0.00343   0.00772   0.01127   2.96110
   D16        0.88999  -0.00128   0.00275  -0.01613  -0.01375   0.87623
   D17        1.14556  -0.00287  -0.00300  -0.04855  -0.05107   1.09449
   D18       -3.09134   0.00049  -0.00031  -0.03656  -0.03701  -3.12836
   D19       -0.98903   0.00241  -0.00298   0.01570   0.01210  -0.97692
   D20       -3.07632  -0.00361  -0.00050  -0.06868  -0.06844   3.13842
   D21       -1.03004  -0.00024   0.00219  -0.05669  -0.05439  -1.08443
   D22        1.07227   0.00168  -0.00048  -0.00443  -0.00527   1.06701
   D23       -1.05656  -0.00308   0.00193  -0.07241  -0.06996  -1.12652
   D24        0.98972   0.00029   0.00462  -0.06041  -0.05591   0.93381
   D25        3.09204   0.00220   0.00195  -0.00815  -0.00679   3.08525
   D26       -1.54142   0.00263   0.01296  -0.06574  -0.05335  -1.59477
   D27        2.69803  -0.00067   0.01096  -0.07576  -0.06463   2.63341
   D28        0.59587  -0.00412   0.01154  -0.13427  -0.12233   0.47354
   D29        3.07151   0.00335   0.00072  -0.00221  -0.00131   3.07021
   D30        0.95834   0.00321   0.00067  -0.00729  -0.00646   0.95188
   D31       -1.07994  -0.00499  -0.00027  -0.04709  -0.04753  -1.12747
   D32        3.09007  -0.00513  -0.00033  -0.05217  -0.05268   3.03739
   D33        0.99415   0.00087   0.00200  -0.01856  -0.01654   0.97761
   D34       -1.11902   0.00073   0.00194  -0.02364  -0.02169  -1.14072
   D35        3.09436   0.00110   0.00042   0.02225   0.02275   3.11711
   D36       -0.07313   0.00176   0.00504   0.02584   0.03080  -0.04233
   D37        3.11811   0.00056   0.00409   0.00290   0.00708   3.12519
   D38        1.07338  -0.00016  -0.00114   0.01698   0.01584   1.08922
   D39       -1.04417   0.00023  -0.00173   0.02450   0.02275  -1.02142
   D40        3.12321   0.00011  -0.00030   0.01664   0.01635   3.13956
   D41       -3.10801   0.00036  -0.00011   0.02104   0.02094  -3.08707
   D42        1.05762   0.00075  -0.00070   0.02857   0.02785   1.08547
   D43       -1.05819   0.00062   0.00073   0.02071   0.02145  -1.03673
[...]
 0051656,0.00014961,0.00083556,0.00082300,0.00032485,0.00029085,-0.0000
 2290,0.00000741,-0.00015297,-0.00000358,-0.00004662,-0.00017110,0.0001
 7434,0.00035144,0.00009072,-0.00005237,0.00015166,-0.00035424,0.000144
 71,0.00001017,-0.00068647,-0.00152071,-0.00147397,-0.00041169,-0.00022
 221,-0.00048089,0.00024614,0.00087875,0.00173652,0.14341030,-0.0044374
 1,0.00352220,-0.00507412,-0.00537632,-0.01875892,-0.03810040,0.0200340
 7,-0.02545387,0.00818527,-0.01092655,-0.00163732,-0.00240324,0.0012064
 2,0.00085405,0.00090680,0.00034495,0.00076251,-0.00002712,-0.00045340,
 -0.00170331,-0.00050725,0.00005556,-0.00013738,-0.00005376,-0.00008538
 ,0.00000676,-0.00000575,0.00017139,-0.00044334,-0.00033632,-0.00007741
 ,0.00008149,0.00008200,0.00012786,0.00065856,0.00068861,0.00126323,0.0
 0067600,0.00184692,0.00004394,-0.00065992,0.00018501,-0.00051547,-0.00
 010429,0.00087614,-0.00255213,0.04188633,0.00220519,0.00343606,0.00491
 139,-0.00034523,-0.00551756,-0.02423397,-0.15361362,-0.03442904,-0.319
 29917,0.00709206,0.00619554,0.00275903,-0.00173727,-0.00010963,-0.0001
 8130,0.00016810,-0.00037708,-0.00013916,0.00054049,-0.00080790,-0.0002
 4924,0.00011777,0.00009816,0.00024382,-0.00004272,0.00000123,-0.000103
 89,-0.00001427,0.00036059,0.00013098,-0.00007865,-0.00009132,0.0000026
 9,-0.00004258,0.00084612,0.00004740,0.00074075,-0.00299457,0.00099545,
 -0.00017769,-0.00019592,0.00014600,-0.00118123,-0.00187122,-0.00265844
 ,0.14381776,0.03556499,0.33546558,-0.00018247,0.00081787,-0.00003171,0
 .00337537,-0.00133922,-0.00116978,-0.02446507,-0.01126119,-0.03307396,
 -0.08017562,-0.02164871,-0.08149024,0.00409355,0.00241018,0.01128132,-
 0.00158192,0.00210653,0.00066068,0.00041098,0.00050438,0.00049619,0.00
 027208,-0.00011570,-0.00024907,0.00001000,0.00004371,0.00013029,0.0009
 0250,0.00035649,0.00054305,0.00015312,-0.00004975,0.00008814,-0.000016
 48,0.00017039,0.00001193,0.00024656,-0.00020309,0.00038125,-0.00004128
 ,-0.00005654,0.00001352,0.00015727,-0.00019145,-0.00018129,-0.00704254
 ,0.00004241,0.00168678,0.10027889,0.00002206,-0.00046067,0.00022877,0.
 00109150,0.00082114,0.00080304,-0.00208944,-0.00128287,-0.00508558,-0.
 02533821,-0.06135321,-0.04978830,-0.01066539,-0.00831115,-0.02730140,0
 .00341813,-0.00442485,-0.00014646,-0.00047783,0.00008370,-0.00114914,-
 0.00084201,0.00023094,0.00038350,0.00008707,-0.00009681,-0.00021119,-0
 .00171277,0.00116507,0.00079171,0.00005203,-0.00024006,0.00018727,0.00
 004136,0.00002262,-0.00003320,-0.00005228,-0.00007771,-0.00009340,0.00
 008269,0.00006803,0.00004493,0.00026617,-0.00004438,0.00005292,-0.0003
 5576,0.00030030,-0.00027610,0.02712684,0.06599736,-0.00009085,-0.00009
 340,-0.00006794,0.00143973,0.00037305,0.00120214,0.00074728,0.00025837
 ,0.00371698,-0.09039797,-0.05295046,-0.25977674,-0.00375010,0.00034034
 ,-0.00831981,0.00057843,-0.00254883,0.00053113,0.00009755,0.00025622,-
 0.00009993,-0.00010023,-0.00008465,-0.00014003,0.00001556,0.00000873,0
 .00003597,-0.00036044,0.00024260,0.00055414,0.00048425,-0.00012679,0.0
 0038748,-0.00003493,0.00001046,0.00000177,0.00001219,-0.00009677,-0.00
 009796,-0.00011991,-0.00002807,-0.00015356,0.00035621,0.00039171,0.000
 39278,0.00119499,-0.00023260,0.00102494,0.09607750,0.05983689,0.277701
 05,-0.00013609,-0.00031410,0.00036132,0.00180486,-0.00195383,-0.001452
 57,-0.02340426,-0.02741825,0.02511881,-0.05978432,-0.03692494,0.032535
 68,0.00259598,0.00994478,-0.00832478,-0.00014223,-0.00070527,0.0000077
 7,0.00004804,-0.00019639,-0.00001988,0.00000614,0.00001734,0.00004272,
 0.00004610,0.00002096,0.00003270,0.00092984,0.00015038,0.00016655,0.00
 002245,0.00009580,-0.00022806,0.00015281,0.00034356,-0.00027266,-0.000
 11484,0.00003706,-0.00016092,-0.00025189,0.00098114,-0.00011527,0.0000
 2238,0.00075949,0.00013053,0.00221164,0.00101291,0.00100714,0.00376379
 ,0.00891984,-0.00751627,0.07357255,-0.00038969,-0.00035041,0.00107947,
 -0.00015955,0.00104709,-0.00083316,-0.00590103,0.00109303,0.00045783,-
 0.03508217,-0.16933021,0.11170388,-0.00436444,-0.02717285,0.02087574,0
 .00016133,0.00280832,0.00180796,-0.00051396,-0.00022724,-0.00009872,-0
 .00011870,0.00021051,0.00011393,-0.00002687,-0.00006669,-0.00014097,-0
 .00144604,0.00272994,-0.00003545,0.00036262,0.00007121,-0.00041325,-0.
 00023646,0.00031147,-0.00004470,0.00007705,0.00001124,-0.00011740,0.00
 081549,-0.00018748,-0.00015111,-0.00020170,0.00003246,-0.00005786,-0.0
 0054021,0.00053388,-0.00005469,0.00167953,0.00602227,-0.00528333,0.043
 20161,0.18639904,0.00068379,0.00072542,-0.00056671,-0.00028939,-0.0000
 9806,0.00063671,0.00586437,0.00217007,0.00221013,0.03203015,0.11500313
 ,-0.16141110,-0.00061351,-0.00798590,0.00447844,-0.00017647,0.00044452
 ,0.00174762,-0.00009039,-0.00057729,0.00006564,-0.00002023,0.00007786,
 -0.00002465,-0.00000861,-0.00002069,-0.00000028,-0.00067839,-0.0004594
 7,0.00046720,-0.00027074,-0.00016583,0.00020207,-0.00008753,-0.0003298
 3,0.00007278,-0.00014995,-0.00012530,0.00002643,-0.00021889,-0.0004593
 0,0.00029849,0.00009856,-0.00015703,-0.00002897,0.00028137,-0.00147853
 ,0.00126613,0.00495127,0.02112544,-0.01760817,-0.04220256,-0.12671981,
 0.16857467,0.00000110,0.00002413,-0.00000094,0.00011496,-0.00005400,0.
 00006654,0.00128085,0.00001886,-0.00054694,0.00248376,0.00946154,-0.00
 706325,-0.05372525,-0.02435140,0.02550901,0.00156494,0.00340063,-0.015
 87875,0.00100057,0.00358380,-0.00326141,0.00002442,0.00016615,0.000512
 32,-0.00000038,-0.00004014,-0.00011232,-0.02442946,-0.02433920,0.02549
 907,0.00391544,-0.00626674,0.00012492,-0.00003850,-0.00003285,0.000027
 18,0.00000616,0.00000086,-0.00000127,-0.00001129,-0.00008075,0.0000201
 2,-0.00001315,-0.00001540,0.00000876,-0.00000935,0.00001652,-0.0000794
 2,0.00027965,-0.00058023,0.00023736,-0.00114889,0.00210420,0.00073709,
 0.06802278,-0.00026980,-0.00009989,0.00020364,0.00021214,0.00033844,-0
 .00062690,-0.00134467,0.00238739,-0.00005284,-0.00411368,-0.02281899,0
 .01914817,-0.02001594,-0.15764917,0.10202955,-0.00426333,0.00226313,-0
 .00659481,0.00069574,0.00369133,-0.00601995,0.00012046,0.00075301,0.00
 041043,-0.00000152,-0.00011098,-0.00006425,-0.00761897,-0.00280427,0.0
 0562300,0.00136296,0.00175112,-0.00279182,0.00002518,0.00011106,-0.000
 06498,0.00002082,0.00002389,-0.00002406,0.00005749,0.00017100,-0.00004
 686,0.00015961,-0.00010267,0.00004379,-0.00009931,-0.00007956,-0.00001
 267,-0.00069165,0.00103341,-0.00020062,0.00207236,-0.00416402,-0.00147
 615,0.03434375,0.17367093,-0.00005735,-0.00005340,-0.00011595,-0.00014
 299,0.00004118,0.00022358,-0.00079056,-0.00029323,0.00016976,-0.000012
 41,-0.00737016,0.00615262,0.02233137,0.09959283,-0.14395120,-0.0073031
 2,0.01446024,-0.03808375,0.00395934,0.00623805,-0.00058319,0.00042092,
 -0.00113028,0.00097074,-0.00011024,0.00021008,-0.00018774,0.00713802,0
 .00474607,0.00095436,-0.00075705,-0.00014304,0.00084933,0.00005289,-0.
 00000514,-0.00000894,0.00003206,0.00001335,0.00002860,0.00000833,0.000
 05826,-0.00001378,-0.00001007,0.00002988,-0.00001892,0.00013530,-0.000
 10419,-0.00007658,-0.00028833,0.00054926,0.00081592,0.00128078,-0.0021
 6618,0.00029344,-0.02607229,-0.11157388,0.17182006,0.00003024,0.000061
 53,0.00000400,-0.00012277,-0.00009610,-0.00017155,-0.00005071,-0.00018
 817,0.00005363,0.00128346,0.00032421,0.00064993,-0.00617464,0.00402034
 ,0.00727346,0.01543474,-0.02863378,0.00954468,-0.05428127,-0.01498191,
 0.01510682,0.00517891,0.00584934,-0.01538929,-0.00118030,-0.00185071,-
 0.00011348,-0.00018361,-0.00045111,-0.00130480,0.00010084,-0.00033944,
 -0.00002714,0.00000567,-0.00001205,-0.00000609,-0.00001210,-0.00001055
 ,0.00000732,-0.00000274,-0.00000448,0.00001508,0.00000409,0.00001580,0
 .00002951,-0.00031034,0.00024088,-0.00005352,-0.00008207,0.00029229,-0
 .00017213,-0.00008201,0.00036691,0.00003746,0.00004353,0.00148897,-0.0
 0131536,0.04078532,-0.00003043,-0.00003756,0.00004647,0.00012038,0.000
 11458,-0.00000227,0.00010932,0.00046535,0.00001962,-0.00090910,-0.0002
 0457,-0.00051540,0.00687528,-0.00115068,0.00374365,-0.02213059,-0.0194
 9005,0.02644770,-0.01601610,-0.13261401,0.11079086,-0.00068853,0.00914
 741,-0.00674157,-0.00159081,-0.00195863,-0.00082384,0.00059167,0.00103
 424,-0.00024598,0.00000230,-0.00004304,0.00021471,-0.00000923,0.000023
 02,-0.00000738,-0.00000381,0.00000364,-0.00001311,0.00000964,0.0000166
 9,-0.00000806,0.00000949,-0.00003155,-0.00002470,0.00003761,-0.0002557
 9,0.00018497,0.00009219,-0.00023337,0.00000833,0.00007253,0.00015911,-
 0.00008658,-0.00040185,0.00026873,-0.00211230,0.03372425,0.14484683,-0
 .00000860,0.00000822,-0.00003396,-0.00005279,-0.00004490,0.00006972,0.
 00001498,-0.00015438,-0.00003597,-0.00050180,-0.00036802,-0.00043580,-
 0.00054637,-0.00765777,0.00341447,-0.00023895,0.01130706,0.00488778,0.
 01751408,0.11574711,-0.21224609,-0.00292364,0.01140020,-0.02520639,-0.
 00053539,-0.00132464,0.00133656,0.00043433,0.00036589,-0.00092888,-0.0
 0025268,0.00039131,0.00003082,-0.00000045,-0.00000658,0.00001187,0.000
 01252,0.00000621,0.00000325,-0.00000624,-0.00001426,-0.00000241,-0.000
 00579,0.00002032,0.00001284,0.00008723,0.00015046,-0.00009070,0.000030
 42,-0.00011029,0.00000977,-0.00005726,-0.00019133,-0.00028549,0.001272
 86,0.00143708,0.00131904,-0.01441071,-0.13060349,0.22805752,-0.0000369
 7,0.00005717,-0.00013261,0.00010015,0.00006280,0.00015838,0.00052545,0
 .00003850,0.00051502,0.00024719,-0.00075780,-0.00241880,-0.01729776,-0
 .01828240,-0.03108449,-0.00755780,-0.00134694,0.00267578,-0.00039173,-
 0.00021862,-0.00145597,0.00044272,-0.00086176,-0.00032422,-0.00016533,
 0.00009648,-0.00008594,-0.10989322,-0.06963252,-0.10395883,0.00813651,
 0.01318294,0.01725026,0.00003095,-0.00004101,-0.00000093,0.00002921,-0
 .00000284,0.00004800,-0.00000588,0.00002511,0.00000322,0.00005571,-0.0
 0006914,0.00000978,0.00041683,-0.00020193,-0.00001310,-0.00032586,0.00
 085457,0.00141157,0.00002207,0.00033646,0.00000294,0.00000305,-0.00028
 991,0.00056818,-0.00032609,0.00010009,0.00004627,0.12753786,0.00011114
 ,0.00004250,-0.00003712,0.00002319,-0.00014466,-0.00002436,-0.00009186
 ,-0.00084044,0.00029296,0.00215042,0.00183411,0.00014129,-0.00825091,-
 0.00469155,-0.00442870,0.00241848,-0.00057896,0.00180102,0.00008203,0.
 00095582,0.00043590,-0.00033911,0.00014853,-0.00034262,0.00015863,-0.0
 0000637,0.00022268,-0.06122522,-0.13321831,-0.15226843,-0.00974514,-0.
 02121900,-0.02605299,-0.00000251,-0.00002306,0.00000943,-0.00002410,-0
 .00001703,-0.00000140,-0.00001171,-0.00002642,0.00002731,-0.00001903,0
 .00001398,-0.00000813,0.00001429,0.00006650,0.00003184,0.00024812,0.00
 061833,-0.00027764,0.00005096,-0.00038303,0.00064576,0.00005423,-0.000
 14151,0.00011447,-0.00005591,0.00001968,-0.00018581,0.07228695,0.15916
 833,-0.00006806,-0.00005757,0.00002078,0.00000044,0.00007178,-0.000069
 09,0.00011783,0.00035036,-0.00010012,0.00079405,-0.00034841,0.00156791
 ,0.01188838,0.00863186,0.00039345,-0.00231157,-0.00045024,-0.00062572,
 0.00010367,-0.00017833,-0.00031020,0.00006841,-0.00007443,0.00022758,-
 0.00004523,0.00002191,-0.00008923,-0.12702768,-0.19095768,-0.24884297,
 -0.00260323,0.00497947,-0.00582319,0.00000815,0.00000849,-0.00000896,0
 .00000879,0.00001666,-0.00000752,0.00001255,0.00002172,-0.00000890,0.0
 0003213,-0.00002471,0.00000968,0.00007620,-0.00011896,0.00000856,0.000
 16287,0.00007025,-0.00009382,-0.00049998,0.00044567,-0.00031563,0.0010
 2475,0.00020294,-0.00032296,0.00014964,-0.00013568,0.00010039,0.115975
 60,0.17885319,0.25232129,0.00001429,0.00001593,-0.00001390,0.00001896,
 -0.00003909,-0.00001211,-0.00007958,-0.00005397,-0.00014990,0.00003268
 ,0.00012393,0.00010909,0.00110616,-0.00030629,0.00140673,0.00006791,-0
 .00009488,-0.00021836,-0.00079952,-0.00013787,-0.00024407,-0.00015933,
 0.00004231,-0.00004366,0.00003942,0.00000741,0.00003947,0.00636725,0.0
 1253211,0.01632145,-0.07216074,-0.03542184,-0.06907778,0.00000500,-0.0
 0000947,-0.00000047,-0.00000180,-0.00000435,0.00000453,-0.00000361,0.0
 0000135,0.00000412,0.00000904,-0.00000520,0.00000679,-0.00007338,0.000
 06255,0.00001030,-0.00004559,-0.00008738,-0.00012184,0.00003841,-0.000
 03672,-0.00000061,-0.00019661,0.00000145,0.00004029,-0.00005884,0.0000
 8364,0.00014794,-0.00186870,0.00324336,0.00174847,0.07355062,-0.000018
 04,0.00000866,-0.00003903,0.00002476,0.00000070,0.00004909,0.00012664,
 0.00002364,0.00010477,-0.00002843,-0.00003980,-0.00017139,-0.00218168,
 0.00003861,-0.00081328,-0.00016545,0.00062519,0.00049967,0.00040661,0.
 00036111,0.00020309,-0.00003062,0.00010268,-0.00002831,0.00001141,-0.0
 0002367,0.00004552,-0.00761066,-0.02231647,-0.02683106,-0.03034438,-0.
 09177431,-0.08891229,0.00000820,-0.00001141,0.00000031,0.00001214,0.00
 000302,0.00001364,-0.00000300,0.00000841,-0.00000311,0.00001530,-0.000
 01444,0.00000497,0.00009836,-0.00004655,-0.00000079,0.00001498,0.00011
 672,0.00021309,-0.00002815,0.00002384,-0.00003174,0.00054913,0.0000326
 5,0.00009002,0.00007008,-0.00012264,0.00000247,0.00476538,-0.00344343,
 -0.00211448,0.03102621,0.11009824,-0.00001536,-0.00000239,-0.00001456,
 0.00004346,0.00001804,0.00003215,0.00003468,-0.00002354,-0.00003055,0.
 00017182,-0.00004119,0.00002195,-0.00154685,-0.00086985,-0.00038523,-0
 .00033644,-0.00009509,0.00033357,0.00013003,0.00073490,0.00012808,0.00
 000924,0.00009178,0.00005170,-0.00000022,0.00000092,-0.00001390,0.0019
 7361,-0.00551024,-0.00012508,-0.06568973,-0.09500409,-0.24232226,0.000
 00136,-0.00000134,0.00000013,0.00000681,0.00000200,0.00000634,0.000000
 46,0.00000340,-0.00000144,0.00000187,-0.00000764,-0.00000780,0.0000459
 1,-0.00005011,0.00002804,-0.00001261,0.00009827,0.00005965,-0.00001057
 ,0.00004075,-0.00000323,0.00005206,0.00019487,-0.00012066,0.00012735,-
 0.00000804,-0.00013598,0.00093396,0.00067811,0.00071243,0.07155922,0.1
 0633590,0.25983221,0.00001429,-0.00000209,-0.00000594,-0.00000513,-0.0
 0003383,0.00001211,-0.00004769,-0.00013333,0.00009015,0.00002408,0.000
 35580,0.00006603,0.00540712,0.00321987,-0.00395691,-0.00049801,-0.0004
 3097,0.00036868,-0.00017130,-0.00011595,-0.00023616,0.00002123,0.00000
 164,0.00004694,-0.00000532,-0.00000423,-0.00001356,-0.00110391,0.01776
 045,-0.01181661,-0.05699468,-0.02178902,0.02541752,-0.00000009,-0.0000
 0312,0.00000189,-0.00000268,-0.00000042,-0.00000178,-0.00000181,-0.000
 00323,0.00000066,-0.00000563,0.00001013,0.00000208,0.00000074,0.000018
 52,0.00000464,-0.00000212,-0.00001881,-0.00001457,-0.00013951,-0.00019
 986,0.00013361,0.00060494,-0.00182105,0.00096654,-0.00001438,-0.000044
 52,-0.00001739,-0.00008123,-0.00100838,-0.00008657,0.00180266,0.005815
 29,-0.00835297,0.05419706,-0.00001299,0.00000516,-0.00005844,0.0000397
 9,-0.00000254,0.00003278,0.00025775,0.00001041,-0.00025949,-0.00004531
 ,0.00024314,-0.00009063,-0.00685312,-0.00006443,0.00028376,0.00057757,
 -0.00008360,-0.00027453,-0.00000267,0.00014043,0.00034132,-0.00004014,
 0.00005120,-0.00007701,0.00004690,0.00004054,0.00009592,0.00883697,-0.
 03285118,0.01848501,-0.02226964,-0.13762783,0.10861535,0.00002434,-0.0
 0003120,-0.00000396,0.00000694,-0.00000096,0.00001796,-0.00000082,0.00
 002310,0.00000593,0.00005360,-0.00004327,0.00002275,-0.00000340,-0.000
 05096,-0.00001068,-0.00003241,-0.00000881,0.00001594,-0.00009543,0.000
 42716,-0.00009418,0.00220049,0.00125592,-0.00090522,0.00007873,0.00003
 309,-0.00007740,0.00029031,0.00021400,0.00093278,0.00162130,0.00950578
 ,-0.00907027,0.01724435,0.16303815,-0.00000321,0.00000395,0.00001632,-
 0.00002563,0.00001079,-0.00000310,-0.00011963,0.00008639,0.00001546,-0
 .00015634,-0.00037736,0.00025275,-0.00024842,-0.00087156,0.00164375,-0
 .00027292,0.00002558,0.00005234,0.00027029,0.00042856,-0.00049044,-0.0
 0001977,-0.00004627,0.00005341,-0.00001293,-0.00001533,0.00000571,-0.0
 0230798,-0.00052431,0.00964827,0.02614220,0.10788387,-0.18667039,-0.00
 000580,0.00001088,0.00000140,0.00000147,0.00000020,-0.00000363,-0.0000
 0024,-0.00000678,-0.00000165,-0.00001926,0.00001474,-0.00000924,-0.000
 01842,0.00002519,-0.00000584,-0.00001662,-0.00002837,-0.00005737,0.000
 15090,-0.00014281,-0.00008360,-0.00162387,0.00043193,-0.00034647,-0.00
 006387,-0.00006764,0.00019700,-0.00052431,-0.00000679,0.00114726,0.005
 94534,0.01764922,-0.02126772,-0.02700680,-0.12464858,0.19751454,-0.000
 02185,-0.00003417,0.00009092,-0.00013663,0.00005806,-0.00005615,-0.000
 10681,0.00036847,0.00029539,-0.00078079,-0.00082704,-0.00028062,0.0007
 5816,0.00399044,0.00087416,0.00020609,0.00010582,0.00031524,0.00015160
 ,0.00007665,0.00006272,-0.00001201,-0.00000188,0.00001343,-0.00002471,
 -0.00002263,-0.00006730,-0.01905130,-0.00125854,0.00018488,-0.29531802
 ,-0.06024487,0.01852208,-0.00002118,0.00003706,-0.00000489,-0.00000874
 ,0.00000693,-0.00002491,0.00001167,-0.00001395,-0.00001097,-0.00005190
 ,0.00004370,-0.00001479,-0.00000138,-0.00001521,-0.00001168,0.00001724
 ,-0.00003443,0.00002663,-0.00003304,0.00011222,-0.00001332,0.00022673,
 -0.00003110,-0.00007423,0.00001507,-0.00000343,-0.00000255,0.00040288,
 -0.00006792,0.00047038,-0.00760469,-0.00253410,0.00087293,-0.00299861,
 -0.00192312,-0.00006418,0.32438224,0.00002293,0.00001002,-0.00006943,0
 .00018672,-0.00004736,0.00001797,0.00010425,-0.00049815,-0.00030996,0.
 00142440,0.00084845,-0.00004880,0.00189104,-0.00550202,-0.00101806,-0.
 00040819,-0.00013231,-0.00050613,0.00003710,0.00024400,0.00031196,0.00
 002580,0.00005818,-0.00005293,0.00000364,0.00000809,0.00003679,0.03591
 692,0.00418435,-0.00110270,-0.06997844,-0.06485307,0.00481427,0.000009
 41,-0.00002499,0.00000984,0.00000544,-0.00000356,0.00001404,-0.0000080
 2,0.00000408,0.00000761,0.00004672,-0.00004547,-0.00000186,0.00001999,
 -0.00001739,0.00002965,-0.00002393,0.00005399,-0.00003259,-0.00004437,
 0.00000136,0.00007351,0.00023828,0.00021903,-0.00028667,0.00009086,0.0
 0000951,-0.00009746,-0.00039189,0.00165201,-0.00014660,-0.01256449,-0.
 00315651,0.00248485,-0.01881722,-0.00422329,0.00016451,0.06221303,0.07
 121103,-0.00000248,-0.00000378,-0.00000142,0.00002818,0.00001061,-0.00
 000283,-0.00003113,-0.00005298,-0.00000526,0.00026326,-0.00013204,0.00
 028868,0.00086610,-0.00114591,-0.00033772,-0.00038681,-0.00001110,0.00
 024878,0.00022351,0.00036510,-0.00004471,-0.00000110,0.00001028,0.0000
 2800,0.00000101,0.00000255,-0.00000010,0.00561946,-0.00033307,-0.00065
 458,0.01756247,0.00502726,-0.04872077,0.00000143,-0.00000046,-0.000000
 04,0.00000004,-0.00000041,-0.00000071,0.00000019,0.00000248,0.00000187
 ,0.00000625,-0.00000318,-0.00000071,0.00001344,-0.00001904,0.00000828,
 -0.00000161,0.00005118,-0.00001838,0.00002588,-0.00007446,-0.00001192,
 -0.00045158,-0.00017559,0.00023271,0.00002906,-0.00006026,-0.00004937,
 0.00040023,0.00038004,0.00010898,-0.02746104,-0.00626628,0.00322216,0.
 02439842,0.00672088,-0.00160875,-0.02110316,-0.00429180,0.04731778\\0.
 00003350,-0.00004629,0.00003715,-0.00002178,0.00003445,-0.00002739,-0.
 00002266,-0.00001884,0.00002078,0.00003196,0.00001129,-0.00000587,-0.0
 0001331,0.00000533,0.00000141,-0.00000654,-0.00000695,0.00000537,0.000
 00939,-0.00000548,-0.00000183,-0.00000468,0.00000674,-0.00000384,0.000
 00112,-0.00000158,0.00000256,0.00001661,0.00001084,-0.00000866,-0.0000
 0513,-0.00000763,0.00000420,-0.00000617,-0.00000189,-0.00000474,-0.000
 00778,0.00000569,-0.00001107,-0.00000041,0.00000405,-0.00000050,0.0000
 1690,0.00000048,-0.00000657,-0.00001066,0.00000990,-0.00000397,-0.0000
 0411,-0.00000133,-0.00000080,0.00000080,-0.00000373,0.00000188,-0.0000
 0232,0.00000262,-0.00000297,-0.00000022,0.00000092,-0.00000035,-0.0000
 0294,-0.00000595,0.00000436,-0.00000197,0.00000263,0.00000183,0.000002
 64,0.00000136,0.00000165,-0.00000225,0.00000339,-0.00000263\\\@


 MY DESCRIPTION OF EXPERIENCE IS NOT WHAT HAPPENS
 TO A MAN.  EXPERIENCE IS WHAT A MAN DOES WITH WHAT
 HAPPENS TO HIM.
                         - CHUCK KNOX, SEATTLE SEAHAWKS, 1985
 Job cpu time:       0 days  2 hours 27 minutes 16.9 seconds.
 Elapsed time:       0 days  0 hours 36 minutes 50.5 seconds.
 File lengths (MBytes):  RWF=    251 Int=      0 D2E=      0 Chk=     12 Scr=      1
 Normal termination of Gaussian 16 at Tue Jun  1 03:16:23 2021.
### All Done ###
