### Starting Gaussian ###
 Entering Gaussian System, Link 0=g16
 Initial command:
 /cluster/software/gaussian/gaussian-16-A.03/avx2/g16/l1.exe "/local/scratch/linjian/Gau-21614.inp" -scrdir="/local/scratch/linjian/"
 Entering Link 1 = /cluster/software/gaussian/gaussian-16-A.03/avx2/g16/l1.exe PID=     21615.
  
 Copyright (c) 1988,1990,1992,1993,1995,1998,2003,2009,2016,
            Gaussian, Inc.  All Rights Reserved.
  
 This is part of the Gaussian(R) 16 program.  It is based on
 the Gaussian(R) 09 system (copyright 2009, Gaussian, Inc.),
 the Gaussian(R) 03 system (copyright 2003, Gaussian, Inc.),
 the Gaussian(R) 98 system (copyright 1998, Gaussian, Inc.),
 the Gaussian(R) 94 system (copyright 1995, Gaussian, Inc.),
 the Gaussian 92(TM) system (copyright 1992, Gaussian, Inc.),
 the Gaussian 90(TM) system (copyright 1990, Gaussian, Inc.),
 the Gaussian 88(TM) system (copyright 1988, Gaussian, Inc.),
 the Gaussian 86(TM) system (copyright 1986, Carnegie Mellon
 University), and the Gaussian 82(TM) system (copyright 1983,
 Carnegie Mellon University). Gaussian is a federally registered
 trademark of Gaussian, Inc.
  
 This software contains proprietary and confidential information,
 including trade secrets, belonging to Gaussian, Inc.
  
 This software is provided under written license and may be
 used, copied, transmitted, or stored only in accord with that
 written license.
  
 The following legend is applicable only to US Government
 contracts under FAR:
  
                    RESTRICTED RIGHTS LEGEND
  
 Use, reproduction and disclosure by the US Government is
 subject to restrictions as set forth in subparagraphs (a)
 and (c) of the Commercial Computer Software - Restricted
 Rights clause in FAR 52.227-19.
  
 Gaussian, Inc.
 340 Quinnipiac St., Bldg. 40, Wallingford CT 06492
  
  
 ---------------------------------------------------------------
 Warning -- This program may not be used in any manner that
 competes with the business of Gaussian, Inc. or will provide
 assistance to any competitor of Gaussian, Inc.  The licensee
 of this program is prohibited from giving any competitor of
 Gaussian, Inc. access to this program.  By using this program,
 the user acknowledges that Gaussian, Inc. is engaged in the
 business of creating and licensing software in the field of
 computational chemistry and represents and warrants to the
 licensee that it is not a competitor of Gaussian, Inc. and that
 it will not use this program in any manner prohibited above.
 ---------------------------------------------------------------
  

 Cite this work as:
 Gaussian 16, Revision A.03,
 M. J. Frisch, G. W. Trucks, H. B. Schlegel, G. E. Scuseria, 
 M. A. Robb, J. R. Cheeseman, G. Scalmani, V. Barone, 
 G. A. Petersson, H. Nakatsuji, X. Li, M. Caricato, A. V. Marenich, 
 J. Bloino, B. G. Janesko, R. Gomperts, B. Mennucci, H. P. Hratchian, 
 J. V. Ortiz, A. F. Izmaylov, J. L. Sonnenberg, D. Williams-Young, 
 F. Ding, F. Lipparini, F. Egidi, J. Goings, B. Peng, A. Petrone, 
 T. Henderson, D. Ranasinghe, V. G. Zakrzewski, J. Gao, N. Rega, 
 G. Zheng, W. Liang, M. Hada, M. Ehara, K. Toyota, R. Fukuda, 
 J. Hasegawa, M. Ishida, T. Nakajima, Y. Honda, O. Kitao, H. Nakai, 
 T. Vreven, K. Throssell, J. A. Montgomery, Jr., J. E. Peralta, 
 F. Ogliaro, M. J. Bearpark, J. J. Heyd, E. N. Brothers, K. N. Kudin, 
 V. N. Staroverov, T. A. Keith, R. Kobayashi, J. Normand, 
 K. Raghavachari, A. P. Rendell, J. C. Burant, S. S. Iyengar, 
 J. Tomasi, M. Cossi, J. M. Millam, M. Klene, C. Adamo, R. Cammi, 
 J. W. Ochterski, R. L. Martin, K. Morokuma, O. Farkas, 
 J. B. Foresman, and D. J. Fox, Gaussian, Inc., Wallingford CT, 2016.
 
 ******************************************
 Gaussian 16:  ES64L-G16RevA.03 25-Dec-2016
                31-May-2021 
 ******************************************
 %chk=CNNCpNpNNCNdO.chk
 %NProcShared=20
 Will use up to   20 processors via shared memory.
 -----------------------------
 # opt freq b3lyp/6-31g(2df,p)
 -----------------------------
 1/18=20,19=15,26=3,38=1/1,3;
 2/9=110,12=2,17=6,18=5,40=1/2;
 3/5=1,6=6,7=104,11=2,25=1,30=1,71=1,74=-5/1,2,3;
 4//1;
 5/5=2,38=5/2;
 6/7=2,8=2,9=2,10=2,28=1/1;
 7//1,2,3,16;
 1/18=20,19=15,26=3/3(2);
 2/9=110/2;
 99//99;
 2/9=110/2;
 3/5=1,6=6,7=104,11=2,25=1,30=1,71=1,74=-5/1,2,3;
 4/5=5,16=3,69=1/1;
 5/5=2,38=5/2;
 7//1,2,3,16;
 1/18=20,19=15,26=3/3(-5);
 2/9=110/2;
 6/7=2,8=2,9=2,10=2,19=2,28=1/1;
 99/9=1/99;
 -------------------
 Title Card Required
 -------------------
 Symbolic Z-matrix:
 Charge =  0 Multiplicity = 1
 C                     0.96983  -0.03815   0.04825 
 N                     2.41592   0.03573   0.07329 
 N                     3.06988  -0.97744  -0.64805 
 C                     4.5015   -1.11603  -0.5418 
 N                     4.82958  -1.16918   0.85087 
 N                     5.04532  -2.27495  -1.22222 
 N                     6.43145  -2.51036  -1.16522 
 C                     6.93962  -3.72375  -1.787 
 N                     8.42774  -3.73541  -1.79546 
 O                     8.88025  -4.75602  -2.31199 
 H                     0.57053   0.8637    0.52104 
 H                     0.61545  -0.91019   0.60356 
 H                     0.59975  -0.07789  -0.97874 
 H                     2.7642    0.06687   1.03504 
 H                     2.52665  -1.34292  -1.43031 
 H                     4.96137  -0.22966  -0.98958 
 H                     4.75027  -2.02687   1.3827 
 H                     4.98988  -0.31056   1.36346 
 H                     4.59627  -2.67251  -2.04886 
 H                     6.7826   -2.40108  -0.21022 
 H                     6.60961  -3.78628  -2.82901 
 H                     6.60024  -4.60993  -1.24162 
 

 GradGradGradGradGradGradGradGradGradGradGradGradGradGradGradGradGradGrad
 Berny optimization.
 Initialization pass.
                           ----------------------------
                           !    Initial Parameters    !
                           ! (Angstroms and Degrees)  !
 --------------------------                            --------------------------
 ! Name  Definition              Value          Derivative Info.                !
 --------------------------------------------------------------------------------
 ! R1    R(1,2)                  1.4482         estimate D2E/DX2                !
 ! R2    R(1,11)                 1.0938         estimate D2E/DX2                !
 ! R3    R(1,12)                 1.0929         estimate D2E/DX2                !
 ! R4    R(1,13)                 1.0924         estimate D2E/DX2                !
 ! R5    R(2,3)                  1.4052         estimate D2E/DX2                !
 ! R6    R(2,14)                 1.0233         estimate D2E/DX2                !
 ! R7    R(3,4)                  1.4422         estimate D2E/DX2                !
 ! R8    R(3,15)                 1.0201         estimate D2E/DX2                !
 ! R9    R(4,5)                  1.4318         estimate D2E/DX2                !
 ! R10   R(4,6)                  1.4498         estimate D2E/DX2                !
 ! R11   R(4,16)                 1.0944         estimate D2E/DX2                !
 ! R12   R(5,17)                 1.0123         estimate D2E/DX2                !
 ! R13   R(5,18)                 1.0128         estimate D2E/DX2                !
 ! R14   R(6,7)                  1.4071         estimate D2E/DX2                !
 ! R15   R(6,19)                 1.0213         estimate D2E/DX2                !
 ! R16   R(7,8)                  1.455          estimate D2E/DX2                !
 ! R17   R(7,20)                 1.0234         estimate D2E/DX2                !
 ! R18   R(8,9)                  1.4882         estimate D2E/DX2                !
 ! R19   R(8,21)                 1.0948         estimate D2E/DX2                !
 ! R20   R(8,22)                 1.0945         estimate D2E/DX2                !
 ! R21   R(9,10)                 1.2301         estimate D2E/DX2                !
 ! A1    A(2,1,11)             108.361          estimate D2E/DX2                !
 ! A2    A(2,1,12)             110.8369         estimate D2E/DX2                !
 ! A3    A(2,1,13)             110.8799         estimate D2E/DX2                !
 ! A4    A(11,1,12)            108.6572         estimate D2E/DX2                !
 ! A5    A(11,1,13)            108.2226         estimate D2E/DX2                !
 ! A6    A(12,1,13)            109.8051         estimate D2E/DX2                !
 ! A7    A(1,2,3)              114.7752         estimate D2E/DX2                !
 ! A8    A(1,2,14)             110.9555         estimate D2E/DX2                !
 ! A9    A(3,2,14)             110.2428         estimate D2E/DX2                !
 ! A10   A(2,3,4)              119.5669         estimate D2E/DX2                !
 ! A11   A(2,3,15)             113.838          estimate D2E/DX2                !
 ! A12   A(4,3,15)             123.4132         estimate D2E/DX2                !
 ! A13   A(3,4,5)              107.6187         estimate D2E/DX2                !
 ! A14   A(3,4,6)              114.4935         estimate D2E/DX2                !
 ! A15   A(3,4,16)             108.008          estimate D2E/DX2                !
 ! A16   A(5,4,6)              109.9308         estimate D2E/DX2                !
 ! A17   A(5,4,16)             109.3762         estimate D2E/DX2                !
 ! A18   A(6,4,16)             107.325          estimate D2E/DX2                !
 ! A19   A(4,5,17)             121.6355         estimate D2E/DX2                !
 ! A20   A(4,5,18)             119.8087         estimate D2E/DX2                !
 ! A21   A(17,5,18)            117.698          estimate D2E/DX2                !
 ! A22   A(4,6,7)              118.9624         estimate D2E/DX2                !
 ! A23   A(4,6,19)             121.7443         estimate D2E/DX2                !
 ! A24   A(7,6,19)             113.6275         estimate D2E/DX2                !
 ! A25   A(6,7,8)              117.7902         estimate D2E/DX2                !
 ! A26   A(6,7,20)             110.9743         estimate D2E/DX2                !
 ! A27   A(8,7,20)             111.5918         estimate D2E/DX2                !
 ! A28   A(7,8,9)              110.9893         estimate D2E/DX2                !
 ! A29   A(7,8,21)             110.4307         estimate D2E/DX2                !
 ! A30   A(7,8,22)             110.7302         estimate D2E/DX2                !
 ! A31   A(9,8,21)             107.1911         estimate D2E/DX2                !
 ! A32   A(9,8,22)             107.8515         estimate D2E/DX2                !
 ! A33   A(21,8,22)            109.5451         estimate D2E/DX2                !
 ! A34   A(8,9,10)             112.1311         estimate D2E/DX2                !
 ! D1    D(11,1,2,3)          -172.477          estimate D2E/DX2                !
 ! D2    D(11,1,2,14)           61.7326         estimate D2E/DX2                !
 ! D3    D(12,1,2,3)            68.3811         estimate D2E/DX2                !
 ! D4    D(12,1,2,14)          -57.4093         estimate D2E/DX2                !
 ! D5    D(13,1,2,3)           -53.8407         estimate D2E/DX2                !
 ! D6    D(13,1,2,14)         -179.6311         estimate D2E/DX2                !
 ! D7    D(1,2,3,4)           -171.3743         estimate D2E/DX2                !
 ! D8    D(1,2,3,15)            28.0934         estimate D2E/DX2                !
 ! D9    D(14,2,3,4)           -45.2148         estimate D2E/DX2                !
 ! D10   D(14,2,3,15)          154.2529         estimate D2E/DX2                !
 ! D11   D(2,3,4,5)             51.5689         estimate D2E/DX2                !
 ! D12   D(2,3,4,6)            174.0973         estimate D2E/DX2                !
 ! D13   D(2,3,4,16)           -66.4176         estimate D2E/DX2                !
 ! D14   D(15,3,4,5)          -149.8513         estimate D2E/DX2                !
 ! D15   D(15,3,4,6)           -27.3229         estimate D2E/DX2                !
 ! D16   D(15,3,4,16)           92.1622         estimate D2E/DX2                !
 ! D17   D(3,4,5,17)            81.7522         estimate D2E/DX2                !
 ! D18   D(3,4,5,18)           -87.3989         estimate D2E/DX2                !
 ! D19   D(6,4,5,17)           -43.5483         estimate D2E/DX2                !
 ! D20   D(6,4,5,18)           147.3006         estimate D2E/DX2                !
 ! D21   D(16,4,5,17)         -161.1489         estimate D2E/DX2                !
 ! D22   D(16,4,5,18)           29.7            estimate D2E/DX2                !
 ! D23   D(3,4,6,7)           -179.2222         estimate D2E/DX2                !
 ! D24   D(3,4,6,19)            29.0064         estimate D2E/DX2                !
 ! D25   D(5,4,6,7)            -57.9569         estimate D2E/DX2                !
 ! D26   D(5,4,6,19)           150.2718         estimate D2E/DX2                !
 ! D27   D(16,4,6,7)            60.9109         estimate D2E/DX2                !
 ! D28   D(16,4,6,19)          -90.8604         estimate D2E/DX2                !
 ! D29   D(4,6,7,8)            176.3111         estimate D2E/DX2                !
 ! D30   D(4,6,7,20)            45.9562         estimate D2E/DX2                !
 ! D31   D(19,6,7,8)           -29.7315         estimate D2E/DX2                !
 ! D32   D(19,6,7,20)         -160.0863         estimate D2E/DX2                !
 ! D33   D(6,7,8,9)            172.613          estimate D2E/DX2                !
 ! D34   D(6,7,8,21)            53.8801         estimate D2E/DX2                !
 ! D35   D(6,7,8,22)           -67.6337         estimate D2E/DX2                !
 ! D36   D(20,7,8,9)           -57.3167         estimate D2E/DX2                !
 ! D37   D(20,7,8,21)         -176.0496         estimate D2E/DX2                !
 ! D38   D(20,7,8,22)           62.4366         estimate D2E/DX2                !
 ! D39   D(7,8,9,10)           179.7088         estimate D2E/DX2                !
 ! D40   D(21,8,9,10)          -59.6233         estimate D2E/DX2                !
 ! D41   D(22,8,9,10)           58.2519         estimate D2E/DX2                !
 --------------------------------------------------------------------------------
 Trust Radius=3.00D-01 FncErr=1.00D-07 GrdErr=1.00D-06 EigMax=2.50D+02 EigMin=1.00D-04
 Number of steps in this run=    106 maximum allowed number of steps=    132.
 GradGradGradGradGradGradGradGradGradGradGradGradGradGradGradGradGradGrad

                          Input orientation:                          
 ---------------------------------------------------------------------
 Center     Atomic      Atomic             Coordinates (Angstroms)
 Number     Number       Type             X           Y           Z
 ---------------------------------------------------------------------
      1          6           0        0.969830   -0.038150    0.048250
      2          7           0        2.415920    0.035730    0.073290
      3          7           0        3.069880   -0.977440   -0.648050
      4          6           0        4.501500   -1.116030   -0.541800
      5          7           0        4.829580   -1.169180    0.850870
      6          7           0        5.045320   -2.274950   -1.222220
      7          7           0        6.431450   -2.510360   -1.165220
      8          6           0        6.939620   -3.723750   -1.787000
      9          7           0        8.427740   -3.735410   -1.795460
     10          8           0        8.880250   -4.756020   -2.311990
     11          1           0        0.570530    0.863700    0.521040
     12          1           0        0.615450   -0.910190    0.603560
     13          1           0        0.599750   -0.077890   -0.978740
     14          1           0        2.764200    0.066870    1.035040
     15          1           0        2.526650   -1.342920   -1.430310
     16          1           0        4.961370   -0.229660   -0.989580
     17          1           0        4.750270   -2.026870    1.382700
     18          1           0        4.989880   -0.310560    1.363460
     19          1           0        4.596270   -2.672510   -2.048860
     20          1           0        6.782600   -2.401080   -0.210220
     21          1           0        6.609610   -3.786280   -2.829010
     22          1           0        6.600240   -4.609930   -1.241620
 ---------------------------------------------------------------------
                    Distance matrix (angstroms):
                    1          2          3          4          5
     1  C    0.000000
     2  N    1.448193   0.000000
     3  N    2.403603   1.405172   0.000000
     4  C    3.739342   2.460596   1.442232   0.000000
     5  N    4.101353   2.807524   2.319498   1.431779   0.000000
     6  N    4.819438   3.732470   2.432194   1.449761   2.359443
     7  N    6.116668   4.913345   3.730611   2.461202   2.903338
     8  C    7.251909   6.169135   4.879991   3.780894   4.235145
     9  N    8.525809   7.338645   6.134298   4.883459   5.151248
    10  O    9.508090   8.392734   7.127886   5.962931   6.267139
    11  H    1.093757   2.071588   3.317125   4.527857   4.730845
    12  H    1.092890   2.101819   2.755953   4.056551   4.229318
    13  H    1.092358   2.101940   2.649545   4.061072   4.736016
    14  H    2.050499   1.023343   2.004199   2.627525   2.414028
    15  H    2.512420   2.042976   1.020101   2.177375   3.246145
    16  H    4.128699   2.771180   2.062414   1.094367   2.070585
    17  H    4.475208   3.379062   2.837069   2.143646   1.012307
    18  H    4.238489   2.899953   2.859598   2.125397   1.012755
    19  H    4.948615   4.073329   2.676826   2.168604   3.274579
    20  H    6.280011   5.008624   4.000342   2.639075   2.541216
    21  H    7.357596   6.373236   5.017555   4.099475   4.853786
    22  H    7.366577   6.389028   5.100074   4.135432   4.399149
                    6          7          8          9         10
     6  N    0.000000
     7  N    1.407133   0.000000
     8  C    2.450790   1.455047   0.000000
     9  N    3.728581   2.425515   1.488190   0.000000
    10  O    4.695742   3.514924   2.259920   1.230127   0.000000
    11  H    5.737057   6.969802   8.181507   9.394346  10.423951
    12  H    4.981946   6.286094   7.322979   8.646909   9.570672
    13  H    4.964821   6.321425   7.357957   8.678820   9.603600
    14  H    3.972764   4.993193   6.306096   7.385442   8.477555
    15  H    2.693637   4.084195   5.026916   6.378104   7.266006
    16  H    2.060189   2.719113   4.093656   4.995543   6.131421
    17  H    2.633288   3.090635   4.209472   5.152048   6.177032
    18  H    3.247713   3.648488   5.037534   5.790272   6.957444
    19  H    1.021290   2.043281   2.581659   3.984235   4.771031
    20  H    2.014496   1.023364   2.064061   2.645734   3.789896
    21  H    2.704237   2.104260   1.094807   2.091987   2.522600
    22  H    2.805403   2.107729   1.094501   2.100305   2.522990
                   11         12         13         14         15
    11  H    0.000000
    12  H    1.776376   0.000000
    13  H    1.771097   1.787916   0.000000
    14  H    2.389837   2.399572   2.959917   0.000000
    15  H    3.536007   2.824282   2.348864   2.849893   0.000000
    16  H    4.770418   4.678487   4.364273   3.002428   2.713200
    17  H    5.154423   4.353248   5.157687   2.906732   3.650383
    18  H    4.649646   4.480250   4.981293   2.281220   3.865025
    19  H    5.942706   5.097846   4.883583   4.513438   2.536482
    20  H    7.055731   6.396775   6.649471   4.877396   4.552080
    21  H    8.325601   7.482271   7.300279   6.675689   4.959529
    22  H    8.332166   7.273959   7.524252   6.463037   5.225236
                   16         17         18         19         20
    16  H    0.000000
    17  H    2.983662   0.000000
    18  H    2.354603   1.733062   0.000000
    19  H    2.687543   3.495164   4.168653   0.000000
    20  H    2.939276   2.609175   3.171843   2.869549   0.000000
    21  H    4.330097   4.928607   5.681634   2.429538   2.967620
    22  H    4.683608   4.120879   5.278663   2.901918   2.444598
                   21         22
    21  H    0.000000
    22  H    1.788378   0.000000
 Stoichiometry    C3H12N6O
 Framework group  C1[X(C3H12N6O)]
 Deg. of freedom    60
 Full point group                 C1      NOp   1
 Largest Abelian subgroup         C1      NOp   1
 Largest concise Abelian subgroup C1      NOp   1
                         Standard orientation:                         
 ---------------------------------------------------------------------
 Center     Atomic      Atomic             Coordinates (Angstroms)
 Number     Number       Type             X           Y           Z
 ---------------------------------------------------------------------
      1          6           0       -4.546913   -0.625522    0.240335
      2          7           0       -3.417717    0.117960   -0.278713
      3          7           0       -2.167385   -0.488371   -0.070055
      4          6           0       -0.962166    0.242890   -0.374582
      5          7           0       -1.046187    1.510831    0.285158
      6          7           0        0.262959   -0.432204    0.006369
      7          7           0        1.494642    0.204884   -0.232584
      8          6           0        2.703061   -0.458160    0.233527
      9          7           0        3.919681    0.249941   -0.249313
     10          8           0        4.954717   -0.290416    0.137893
     11          1           0       -5.465500   -0.134529   -0.093474
     12          1           0       -4.534652   -0.638496    1.333079
     13          1           0       -4.548209   -1.648798   -0.141962
     14          1           0       -3.411976    1.075029    0.083528
     15          1           0       -2.207330   -1.506000   -0.011382
     16          1           0       -0.925356    0.398640   -1.457184
     17          1           0       -0.811625    1.616520    1.264227
     18          1           0       -1.498857    2.289917   -0.177214
     19          1           0        0.328106   -1.450973    0.036354
     20          1           0        1.464162    1.183974    0.063606
     21          1           0        2.750154   -1.481849   -0.151759
     22          1           0        2.737504   -0.476647    1.327330
 ---------------------------------------------------------------------
 Rotational constants (GHZ):           6.0050508           0.3732243           0.3586884
 Standard basis: 6-31G(2df,p) (6D, 7F)
 There are   370 symmetry adapted cartesian basis functions of A   symmetry.
 There are   340 symmetry adapted basis functions of A   symmetry.
   340 basis functions,   524 primitive gaussians,   370 cartesian basis functions
    40 alpha electrons       40 beta electrons
       nuclear repulsion energy       541.9086926731 Hartrees.
 NAtoms=   22 NActive=   22 NUniq=   22 SFac= 1.00D+00 NAtFMM=   60 NAOKFM=F Big=F
 Integral buffers will be    131072 words long.
 Raffenetti 2 integral format.
 Two-electron integral symmetry is turned on.
 One-electron integrals computed using PRISM.
 PrsmSu:  requested number of processors reduced to:  13 ShMem   1 Linda.
 NBasis=   340 RedAO= T EigKep=  2.39D-04  NBF=   340
 NBsUse=   340 1.00D-06 EigRej= -1.00D+00 NBFU=   340
 ExpMin= 1.61D-01 ExpMax= 5.48D+03 ExpMxC= 8.25D+02 IAcc=3 IRadAn=         5 AccDes= 0.00D+00
 Harris functional with IExCor=  402 and IRadAn=       5 diagonalized for initial guess.
 HarFok:  IExCor=  402 AccDes= 0.00D+00 IRadAn=         5 IDoV= 1 UseB2=F ITyADJ=14
 ICtDFT=  3500011 ScaDFX=  1.000000  1.000000  1.000000  1.000000
 FoFCou: FMM=F IPFlag=           0 FMFlag=      100000 FMFlg1=           0
         NFxFlg=           0 DoJE=T BraDBF=F KetDBF=T FulRan=T
         wScrn=  0.000000 ICntrl=       500 IOpCl=  0 I1Cent=   200000004 NGrid=           0
         NMat0=    1 NMatS0=      1 NMatT0=    0 NMatD0=    1 NMtDS0=    0 NMtDT0=    0
 Petite list used in FoFCou.
 Requested convergence on RMS density matrix=1.00D-08 within 128 cycles.
 Requested convergence on MAX density matrix=1.00D-06.
 Requested convergence on             energy=1.00D-06.
 No special actions if energy rises.
 Integral accuracy reduced to 1.0D-05 until final iterations.
 EnCoef did     5 forward-backward iterations
 Initial convergence to 1.0D-05 achieved.  Increase integral accuracy.
 SCF Done:  E(RB3LYP) =  -525.059038354     A.U. after   20 cycles
            NFock= 20  Conv=0.67D-08     -V/T= 2.0074

 **********************************************************************

            Population analysis using the SCF density.

 **********************************************************************

 Orbital symmetries:
       Occupied  (A) (A) (A) (A) (A) (A) (A) (A) (A) (A) (A) (A)
                 (A) (A) (A) (A) (A) (A) (A) (A) (A) (A) (A) (A)
                 (A) (A) (A) (A) (A) (A) (A) (A) (A) (A) (A) (A)
                 (A) (A) (A) (A)
       Virtual   (A) (A) (A) (A) (A) (A) (A) (A) (A) (A) (A) (A)
                 (A) (A) (A) (A) (A) (A) (A) (A) (A) (A) (A) (A)
                 (A) (A) (A) (A) (A) (A) (A) (A) (A) (A) (A) (A)
                 (A) (A) (A) (A) (A) (A) (A) (A) (A) (A) (A) (A)
                 (A) (A) (A) (A) (A) (A) (A) (A) (A) (A) (A) (A)
                 (A) (A) (A) (A) (A) (A) (A) (A) (A) (A) (A) (A)
                 (A) (A) (A) (A) (A) (A) (A) (A) (A) (A) (A) (A)
                 (A) (A) (A) (A) (A) (A) (A) (A) (A) (A) (A) (A)
                 (A) (A) (A) (A) (A) (A) (A) (A) (A) (A) (A) (A)
                 (A) (A) (A) (A) (A) (A) (A) (A) (A) (A) (A) (A)
                 (A) (A) (A) (A) (A) (A) (A) (A) (A) (A) (A) (A)
                 (A) (A) (A) (A) (A) (A) (A) (A) (A) (A) (A) (A)
                 (A) (A) (A) (A) (A) (A) (A) (A) (A) (A) (A) (A)
                 (A) (A) (A) (A) (A) (A) (A) (A) (A) (A) (A) (A)
                 (A) (A) (A) (A) (A) (A) (A) (A) (A) (A) (A) (A)
                 (A) (A) (A) (A) (A) (A) (A) (A) (A) (A) (A) (A)
                 (A) (A) (A) (A) (A) (A) (A) (A) (A) (A) (A) (A)
                 (A) (A) (A) (A) (A) (A) (A) (A) (A) (A) (A) (A)
                 (A) (A) (A) (A) (A) (A) (A) (A) (A) (A) (A) (A)
                 (A) (A) (A) (A) (A) (A) (A) (A) (A) (A) (A) (A)
                 (A) (A) (A) (A) (A) (A) (A) (A) (A) (A) (A) (A)
                 (A) (A) (A) (A) (A) (A) (A) (A) (A) (A) (A) (A)
                 (A) (A) (A) (A) (A) (A) (A) (A) (A) (A) (A) (A)
                 (A) (A) (A) (A) (A) (A) (A) (A) (A) (A) (A) (A)
                 (A) (A) (A) (A) (A) (A) (A) (A) (A) (A) (A) (A)
 The electronic state is 1-A.
 Alpha  occ. eigenvalues --  -19.20344 -14.44856 -14.34356 -14.34142 -14.32829
 Alpha  occ. eigenvalues --  -14.31792 -14.30724 -10.27161 -10.24737 -10.20247
 Alpha  occ. eigenvalues --   -1.14324  -0.98597  -0.95564  -0.88095  -0.82134
 Alpha  occ. eigenvalues --   -0.78378  -0.72626  -0.65420  -0.62920  -0.61669
 Alpha  occ. eigenvalues --   -0.54004  -0.52451  -0.50590  -0.49381  -0.48399
 Alpha  occ. eigenvalues --   -0.48110  -0.45354  -0.44621  -0.43611  -0.41718
 Alpha  occ. eigenvalues --   -0.40275  -0.39920  -0.39120  -0.38134  -0.32011
 Alpha  occ. eigenvalues --   -0.28663  -0.23465  -0.23075  -0.16297  -0.14640
 Alpha virt. eigenvalues --   -0.09458   0.07246   0.07775   0.09856   0.10476
 Alpha virt. eigenvalues --    0.11787   0.12792   0.13310   0.14306   0.15831
 Alpha virt. eigenvalues --    0.16833   0.17657   0.18730   0.19257   0.20093
 Alpha virt. eigenvalues --    0.22519   0.25188   0.25944   0.27067   0.28909
 Alpha virt. eigenvalues --    0.30330   0.32454   0.40742   0.44222   0.45755
 Alpha virt. eigenvalues --    0.46674   0.48086   0.50890   0.51885   0.52945
 Alpha virt. eigenvalues --    0.53670   0.54104   0.55130   0.57536   0.58435
 Alpha virt. eigenvalues --    0.60631   0.61640   0.64159   0.65835   0.67228
 Alpha virt. eigenvalues --    0.67948   0.69662   0.71185   0.71859   0.72695
 Alpha virt. eigenvalues --    0.73418   0.73718   0.73847   0.75015   0.76024
 Alpha virt. eigenvalues --    0.76229   0.78157   0.79643   0.80250   0.80787
 Alpha virt. eigenvalues --    0.81758   0.83377   0.83869   0.85499   0.85998
 Alpha virt. eigenvalues --    0.87961   0.89144   0.89246   0.91264   0.92732
 Alpha virt. eigenvalues --    0.92949   0.93990   0.94863   0.97535   0.99461
 Alpha virt. eigenvalues --    1.00061   1.01245   1.04262   1.07194   1.08874
 Alpha virt. eigenvalues --    1.12892   1.16976   1.18728   1.19865   1.21961
 Alpha virt. eigenvalues --    1.24122   1.25627   1.28659   1.30518   1.32366
 Alpha virt. eigenvalues --    1.33330   1.35234   1.37584   1.39609   1.44059
 Alpha virt. eigenvalues --    1.44913   1.45871   1.47244   1.52265   1.53672
 Alpha virt. eigenvalues --    1.53961   1.55728   1.56101   1.59179   1.60156
 Alpha virt. eigenvalues --    1.61656   1.63681   1.64726   1.66667   1.67733
 Alpha virt. eigenvalues --    1.72298   1.74221   1.75300   1.79384   1.79798
 Alpha virt. eigenvalues --    1.83218   1.86099   1.87257   1.90016   1.92591
 Alpha virt. eigenvalues --    1.93334   1.94896   1.95324   2.00120   2.02579
 Alpha virt. eigenvalues --    2.04963   2.05861   2.07704   2.15800   2.19589
 Alpha virt. eigenvalues --    2.23423   2.28003   2.32165   2.35173   2.40675
 Alpha virt. eigenvalues --    2.42222   2.43494   2.46364   2.47388   2.51614
 Alpha virt. eigenvalues --    2.55748   2.58332   2.61361   2.64289   2.66420
 Alpha virt. eigenvalues --    2.71769   2.74498   2.77490   2.78933   2.80620
 Alpha virt. eigenvalues --    2.81709   2.83900   2.84031   2.85022   2.89741
 Alpha virt. eigenvalues --    2.92504   2.92997   2.94179   2.95869   2.96588
 Alpha virt. eigenvalues --    2.99670   3.03825   3.04791   3.08390   3.10018
 Alpha virt. eigenvalues --    3.11434   3.13126   3.14091   3.20086   3.26155
 Alpha virt. eigenvalues --    3.27176   3.28253   3.29173   3.32334   3.34241
 Alpha virt. eigenvalues --    3.38079   3.40623   3.43021   3.44223   3.47260
 Alpha virt. eigenvalues --    3.48400   3.52317   3.53404   3.57307   3.59577
 Alpha virt. eigenvalues --    3.62240   3.64340   3.67574   3.67709   3.71580
 Alpha virt. eigenvalues --    3.75503   3.77010   3.77962   3.79416   3.81785
 Alpha virt. eigenvalues --    3.84539   3.86159   3.88121   3.92600   3.97751
 Alpha virt. eigenvalues --    4.00665   4.04066   4.04453   4.07361   4.09448
 Alpha virt. eigenvalues --    4.11561   4.11651   4.13649   4.14633   4.15474
 Alpha virt. eigenvalues --    4.16477   4.17845   4.21493   4.23198   4.24388
 Alpha virt. eigenvalues --    4.26054   4.29094   4.30256   4.30554   4.33318
 Alpha virt. eigenvalues --    4.35060   4.36594   4.38215   4.40348   4.43463
 Alpha virt. eigenvalues --    4.44247   4.44758   4.46013   4.47825   4.48460
 Alpha virt. eigenvalues --    4.51117   4.52087   4.53558   4.55033   4.56119
 Alpha virt. eigenvalues --    4.57033   4.57953   4.58967   4.60516   4.61530
 Alpha virt. eigenvalues --    4.62736   4.64563   4.67410   4.68320   4.69322
 Alpha virt. eigenvalues --    4.72726   4.73113   4.74509   4.76988   4.79512
 Alpha virt. eigenvalues --    4.80340   4.82589   4.85182   4.86593   4.88955
 Alpha virt. eigenvalues --    4.91397   4.93608   4.95063   4.98310   4.99522
 Alpha virt. eigenvalues --    5.01179   5.03332   5.05638   5.06368   5.07511
 Alpha virt. eigenvalues --    5.08616   5.11958   5.14460   5.16507   5.21789
 Alpha virt. eigenvalues --    5.24779   5.27565   5.28015   5.30200   5.32117
 Alpha virt. eigenvalues --    5.34685   5.44468   5.47675   5.51278   5.54700
 Alpha virt. eigenvalues --    5.57478   5.60149   5.67560   5.71825   5.81014
 Alpha virt. eigenvalues --    6.06086   6.07039   6.27571   6.72277   7.58638
 Alpha virt. eigenvalues --    8.05247   8.40524  10.41576  11.18017  11.24086
 Alpha virt. eigenvalues --   11.35010  11.42876  11.47771  11.49491  11.57592
 Alpha virt. eigenvalues --   11.82044  12.84484  13.42515  14.59282  18.20827
          Condensed to atoms (all electrons):
               1          2          3          4          5          6
     1  C    4.885555   0.395534  -0.054157   0.002981   0.000391  -0.000094
     2  N    0.395534   6.446423   0.258506  -0.040631  -0.012683   0.000670
     3  N   -0.054157   0.258506   6.624277   0.393558  -0.097595  -0.026122
     4  C    0.002981  -0.040631   0.393558   4.576483   0.310481   0.392980
     5  N    0.000391  -0.012683  -0.097595   0.310481   6.715676  -0.036591
     6  N   -0.000094   0.000670  -0.026122   0.392980  -0.036591   6.589300
     7  N    0.000000  -0.000036   0.001555  -0.046409  -0.010827   0.215716
     8  C   -0.000000  -0.000000  -0.000058   0.000516   0.000330  -0.054319
     9  N    0.000000  -0.000000   0.000000  -0.000049   0.000003   0.000638
    10  O   -0.000000   0.000000  -0.000000   0.000001  -0.000000  -0.000002
    11  H    0.384598  -0.025904   0.001937  -0.000201   0.000020   0.000000
    12  H    0.359263  -0.056248   0.014945   0.000776  -0.000143   0.000020
    13  H    0.374700  -0.024697  -0.005160  -0.000033   0.000012  -0.000006
    14  H   -0.044663   0.323580  -0.059984  -0.007656   0.034031   0.000244
    15  H   -0.004278  -0.032165   0.339971  -0.041762   0.005700   0.001547
    16  H    0.000225   0.010359  -0.076899   0.358745  -0.090411  -0.069595
    17  H   -0.000022  -0.000001   0.002722  -0.020825   0.322676   0.004001
    18  H   -0.000030   0.001682   0.000632  -0.025180   0.338433   0.002612
    19  H   -0.000001  -0.000117   0.002294  -0.044928   0.003373   0.348923
    20  H   -0.000000  -0.000005   0.000511  -0.004917   0.025858  -0.042786
    21  H   -0.000000  -0.000000  -0.000006   0.000049   0.000007  -0.000940
    22  H    0.000000   0.000000   0.000008   0.000735  -0.000147   0.015388
               7          8          9         10         11         12
     1  C    0.000000  -0.000000   0.000000  -0.000000   0.384598   0.359263
     2  N   -0.000036  -0.000000  -0.000000   0.000000  -0.025904  -0.056248
     3  N    0.001555  -0.000058   0.000000  -0.000000   0.001937   0.014945
     4  C   -0.046409   0.000516  -0.000049   0.000001  -0.000201   0.000776
     5  N   -0.010827   0.000330   0.000003  -0.000000   0.000020  -0.000143
     6  N    0.215716  -0.054319   0.000638  -0.000002   0.000000   0.000020
     7  N    6.529610   0.367803  -0.017688   0.003565  -0.000000   0.000000
     8  C    0.367803   4.928392   0.274218  -0.088593   0.000000   0.000000
     9  N   -0.017688   0.274218   6.338613   0.414969  -0.000000   0.000000
    10  O    0.003565  -0.088593   0.414969   7.869193   0.000000  -0.000000
    11  H   -0.000000   0.000000  -0.000000   0.000000   0.578630  -0.038570
    12  H    0.000000   0.000000   0.000000  -0.000000  -0.038570   0.684913
    13  H   -0.000000  -0.000000  -0.000000  -0.000000  -0.026474  -0.051345
    14  H   -0.000013  -0.000000  -0.000000   0.000000   0.000187  -0.009906
    15  H   -0.000111  -0.000002  -0.000000   0.000000  -0.000237   0.000916
    16  H    0.014087   0.000169   0.000015   0.000000   0.000017   0.000099
    17  H    0.000398  -0.000027   0.000002   0.000000   0.000002   0.000056
    18  H    0.000426   0.000005   0.000000   0.000000  -0.000005   0.000051
    19  H   -0.032606  -0.004835  -0.000024   0.000006  -0.000000   0.000004
    20  H    0.327619  -0.050614   0.005621  -0.000113  -0.000000   0.000000
    21  H   -0.025407   0.329510  -0.006595   0.001498   0.000000   0.000000
    22  H   -0.054453   0.332401  -0.039028   0.010856   0.000000  -0.000000
              13         14         15         16         17         18
     1  C    0.374700  -0.044663  -0.004278   0.000225  -0.000022  -0.000030
     2  N   -0.024697   0.323580  -0.032165   0.010359  -0.000001   0.001682
     3  N   -0.005160  -0.059984   0.339971  -0.076899   0.002722   0.000632
     4  C   -0.000033  -0.007656  -0.041762   0.358745  -0.020825  -0.025180
     5  N    0.000012   0.034031   0.005700  -0.090411   0.322676   0.338433
     6  N   -0.000006   0.000244   0.001547  -0.069595   0.004001   0.002612
     7  N   -0.000000  -0.000013  -0.000111   0.014087   0.000398   0.000426
     8  C   -0.000000  -0.000000  -0.000002   0.000169  -0.000027   0.000005
     9  N   -0.000000  -0.000000  -0.000000   0.000015   0.000002   0.000000
    10  O   -0.000000   0.000000   0.000000   0.000000   0.000000   0.000000
    11  H   -0.026474   0.000187  -0.000237   0.000017   0.000002  -0.000005
    12  H   -0.051345  -0.009906   0.000916   0.000099   0.000056   0.000051
    13  H    0.602298   0.006201   0.005638  -0.000120  -0.000003  -0.000005
    14  H    0.006201   0.541312   0.007154  -0.001489  -0.000085  -0.001547
    15  H    0.005638   0.007154   0.494165   0.003197  -0.000042  -0.000164
    16  H   -0.000120  -0.001489   0.003197   0.785707   0.008351   0.002878
    17  H   -0.000003  -0.000085  -0.000042   0.008351   0.476300  -0.026511
    18  H   -0.000005  -0.001547  -0.000164   0.002878  -0.026511   0.467446
    19  H   -0.000003  -0.000019   0.002881   0.001793  -0.000094  -0.000158
    20  H   -0.000000  -0.000021  -0.000027  -0.002406  -0.001091  -0.000535
    21  H   -0.000000  -0.000000  -0.000001  -0.000129  -0.000007  -0.000001
    22  H    0.000000   0.000000   0.000001   0.000098   0.000103   0.000003
              19         20         21         22
     1  C   -0.000001  -0.000000  -0.000000   0.000000
     2  N   -0.000117  -0.000005  -0.000000   0.000000
     3  N    0.002294   0.000511  -0.000006   0.000008
     4  C   -0.044928  -0.004917   0.000049   0.000735
     5  N    0.003373   0.025858   0.000007  -0.000147
     6  N    0.348923  -0.042786  -0.000940   0.015388
     7  N   -0.032606   0.327619  -0.025407  -0.054453
     8  C   -0.004835  -0.050614   0.329510   0.332401
     9  N   -0.000024   0.005621  -0.006595  -0.039028
    10  O    0.000006  -0.000113   0.001498   0.010856
    11  H   -0.000000  -0.000000   0.000000   0.000000
    12  H    0.000004   0.000000   0.000000  -0.000000
    13  H   -0.000003  -0.000000  -0.000000   0.000000
    14  H   -0.000019  -0.000021  -0.000000   0.000000
    15  H    0.002881  -0.000027  -0.000001   0.000001
    16  H    0.001793  -0.002406  -0.000129   0.000098
    17  H   -0.000094  -0.001091  -0.000007   0.000103
    18  H   -0.000158  -0.000535  -0.000001   0.000003
    19  H    0.477609   0.006340   0.006154   0.000042
    20  H    0.006340   0.501896   0.006536  -0.006319
    21  H    0.006154   0.006536   0.602575  -0.046240
    22  H    0.000042  -0.006319  -0.046240   0.676907
 Mulliken charges:
               1
     1  C   -0.300002
     2  N   -0.244266
     3  N   -0.320937
     4  C    0.195286
     5  N   -0.508593
     6  N   -0.341584
     7  N   -0.273227
     8  C   -0.034894
     9  N    0.029306
    10  O   -0.211380
    11  H    0.126001
    12  H    0.095171
    13  H    0.118997
    14  H    0.212676
    15  H    0.217618
    16  H    0.055308
    17  H    0.234098
    18  H    0.239968
    19  H    0.233364
    20  H    0.234453
    21  H    0.132995
    22  H    0.109644
 Sum of Mulliken charges =  -0.00000
 Mulliken charges with hydrogens summed into heavy atoms:
               1
     1  C    0.040166
     2  N   -0.031590
     3  N   -0.103318
     4  C    0.250594
     5  N   -0.034527
     6  N   -0.108220
     7  N   -0.038775
     8  C    0.207745
     9  N    0.029306
    10  O   -0.211380
 Electronic spatial extent (au):  <R**2>=           2925.6616
 Charge=             -0.0000 electrons
 Dipole moment (field-independent basis, Debye):
    X=             -2.8037    Y=             -0.5651    Z=              1.7737  Tot=              3.3654
 Quadrupole moment (field-independent basis, Debye-Ang):
   XX=            -72.3004   YY=            -51.4696   ZZ=            -62.7438
   XY=             -2.9578   XZ=              0.1474   YZ=              2.8589
 Traceless Quadrupole moment (field-independent basis, Debye-Ang):
   XX=            -10.1291   YY=             10.7017   ZZ=             -0.5726
   XY=             -2.9578   XZ=              0.1474   YZ=              2.8589
 Octapole moment (field-independent basis, Debye-Ang**2):
  XXX=            -95.7599  YYY=              1.9166  ZZZ=              5.7006  XYY=             -6.8838
  XXY=             -1.2111  XXZ=             13.0355  XZZ=             11.1042  YZZ=              3.2107
  YYZ=              1.0210  XYZ=              3.4554
 Hexadecapole moment (field-independent basis, Debye-Ang**3):
 XXXX=          -3664.9118 YYYY=           -208.5001 ZZZZ=           -105.4926 XXXY=            -22.6293
 XXXZ=            -14.2891 YYYX=            -21.1041 YYYZ=              5.0514 ZZZX=              0.0057
 ZZZY=              7.7958 XXYY=           -554.6941 XXZZ=           -589.2219 YYZZ=            -56.9686
 XXYZ=             26.5041 YYXZ=              3.3168 ZZXY=             -7.0768
 N-N= 5.419086926731D+02 E-N=-2.310102668945D+03  KE= 5.212275567372D+02
 PrsmSu:  requested number of processors reduced to:  13 ShMem   1 Linda.
 Calling FoFJK, ICntrl=      2127 FMM=F ISym2X=0 I1Cent= 0 IOpClX= 0 NMat=1 NMatS=1 NMatT=0.
 ***** Axes restored to original set *****
 -------------------------------------------------------------------
 Center     Atomic                   Forces (Hartrees/Bohr)
 Number     Number              X              Y              Z
 -------------------------------------------------------------------
      1        6           0.010432551   -0.006487662    0.007208049
      2        7           0.008820955    0.047067903    0.000956335
      3        7          -0.018325712   -0.061212635   -0.021505931
      4        6          -0.000454549    0.015287808   -0.003016170
      5        7           0.025358203    0.005602488    0.012778155
      6        7          -0.044746427   -0.039857791    0.005246967
      7        7           0.048225666    0.026452872   -0.009742440
      8        6          -0.025624424    0.007897503    0.011159155
      9        7           0.017393140   -0.022493094   -0.009422436
     10        8          -0.017901652    0.031591874    0.015219631
     11        1           0.000554177    0.000056585   -0.000579144
     12        1          -0.010059197   -0.006921941   -0.000952309
     13        1           0.000034658    0.000132350   -0.001949323
     14        1          -0.003821271   -0.011805102   -0.007550502
     15        1           0.010968204    0.009450734    0.006216763
     16        1           0.010810479    0.013745743    0.008435819
     17        1          -0.006751037    0.005291880   -0.006553089
     18        1           0.001602029   -0.007976870   -0.005250197
     19        1           0.005789403    0.012853335    0.009261812
     20        1          -0.010863121   -0.004364011   -0.004853933
     21        1          -0.002157419   -0.000752645   -0.001533701
     22        1           0.000715344   -0.013559322   -0.003573508
 -------------------------------------------------------------------
 Cartesian Forces:  Max     0.061212635 RMS     0.017409311

 GradGradGradGradGradGradGradGradGradGradGradGradGradGradGradGradGradGrad
 Berny optimization.
 FormGI is forming the generalized inverse of G from B-inverse, IUseBI=4.
 Internal  Forces:  Max     0.039187080 RMS     0.010051356
 Search for a local minimum.
 Step number   1 out of a maximum of  106
 All quantities printed in internal units (Hartrees-Bohrs-Radians)
 Mixed Optimization -- RFO/linear search
 Second derivative matrix not updated -- first step.
 ITU=  0
     Eigenvalues ---    0.00525   0.00964   0.01034   0.01054   0.01133
     Eigenvalues ---    0.01200   0.01226   0.01271   0.01354   0.01384
     Eigenvalues ---    0.01491   0.02521   0.02971   0.05447   0.06235
     Eigenvalues ---    0.06441   0.07032   0.07318   0.07400   0.07767
     Eigenvalues ---    0.11499   0.12397   0.12982   0.13950   0.14819
     Eigenvalues ---    0.15303   0.16000   0.16000   0.16000   0.16000
     Eigenvalues ---    0.16000   0.18130   0.19050   0.22127   0.22128
     Eigenvalues ---    0.22240   0.23027   0.23202   0.25000   0.33649
     Eigenvalues ---    0.34263   0.34298   0.34313   0.34382   0.34481
     Eigenvalues ---    0.34542   0.37591   0.38276   0.38483   0.39281
     Eigenvalues ---    0.40735   0.43806   0.43809   0.44133   0.44322
     Eigenvalues ---    0.44459   0.44774   0.45514   0.45588   0.91033
 RFO step:  Lambda=-4.21154112D-02 EMin= 5.25199379D-03
 Linear search not attempted -- first point.
 Maximum step size (   0.300) exceeded in Quadratic search.
    -- Step size scaled by   0.899
 Iteration  1 RMS(Cart)=  0.13901423 RMS(Int)=  0.00398455
 Iteration  2 RMS(Cart)=  0.00753400 RMS(Int)=  0.00144102
 Iteration  3 RMS(Cart)=  0.00001223 RMS(Int)=  0.00144099
 Iteration  4 RMS(Cart)=  0.00000003 RMS(Int)=  0.00144099
 Variable       Old X    -DE/DX   Delta X   Delta X   Delta X     New X
                                 (Linear)    (Quad)   (Total)
    R1        2.73669  -0.00035   0.00000  -0.00074  -0.00074   2.73595
    R2        2.06690  -0.00041   0.00000  -0.00095  -0.00095   2.06596
    R3        2.06526   0.00830   0.00000   0.01928   0.01928   2.08454
    R4        2.06426   0.00182   0.00000   0.00421   0.00421   2.06847
    R5        2.65539   0.01165   0.00000   0.02137   0.02137   2.67676
    R6        1.93384  -0.00876   0.00000  -0.01639  -0.01639   1.91745
    R7        2.72542  -0.00013   0.00000  -0.00027  -0.00027   2.72515
    R8        1.92771  -0.01399   0.00000  -0.02591  -0.02591   1.90180
    R9        2.70567   0.00547   0.00000   0.01094   0.01094   2.71661
   R10        2.73965  -0.01468   0.00000  -0.03105  -0.03105   2.70860
   R11        2.06805   0.01222   0.00000   0.02852   0.02852   2.09657
   R12        1.91298  -0.00740   0.00000  -0.01335  -0.01335   1.89963
   R13        1.91383  -0.00917   0.00000  -0.01657  -0.01657   1.89726
   R14        2.65910   0.00539   0.00000   0.00995   0.00995   2.66904
   R15        1.92996  -0.01505   0.00000  -0.02797  -0.02797   1.90199
   R16        2.74964  -0.01693   0.00000  -0.03640  -0.03640   2.71324
   R17        1.93388  -0.00872   0.00000  -0.01633  -0.01633   1.91755
   R18        2.81227  -0.00061   0.00000  -0.00145  -0.00145   2.81082
   R19        2.06888   0.00215   0.00000   0.00503   0.00503   2.07391
   R20        2.06831   0.00898   0.00000   0.02095   0.02095   2.08926
   R21        2.32460  -0.03919   0.00000  -0.03697  -0.03697   2.28763
    A1        1.89126  -0.00184   0.00000  -0.00755  -0.00796   1.88330
    A2        1.93447   0.01279   0.00000   0.06028   0.06018   1.99465
    A3        1.93522  -0.00420   0.00000  -0.02272  -0.02271   1.91251
    A4        1.89643  -0.00190   0.00000  -0.00007  -0.00053   1.89589
    A5        1.88884   0.00006   0.00000  -0.00687  -0.00717   1.88167
    A6        1.91646  -0.00512   0.00000  -0.02396  -0.02371   1.89275
    A7        2.00321  -0.01400   0.00000  -0.05921  -0.06142   1.94178
    A8        1.93654   0.00468   0.00000  -0.00607  -0.01013   1.92641
    A9        1.92410  -0.00242   0.00000  -0.04804  -0.05084   1.87326
   A10        2.08684  -0.01017   0.00000  -0.04038  -0.04217   2.04466
   A11        1.98685   0.00679   0.00000   0.01668   0.01460   2.00145
   A12        2.15397   0.00101   0.00000  -0.00926  -0.01088   2.14309
   A13        1.87830   0.03023   0.00000   0.11387   0.11236   1.99066
   A14        1.99829  -0.03242   0.00000  -0.13143  -0.12938   1.86891
   A15        1.88510   0.00575   0.00000   0.04672   0.04799   1.93308
   A16        1.91865  -0.00273   0.00000  -0.01808  -0.01508   1.90357
   A17        1.90897  -0.01490   0.00000  -0.06643  -0.06879   1.84019
   A18        1.87317   0.01368   0.00000   0.05408   0.05470   1.92788
   A19        2.12294  -0.00657   0.00000  -0.03036  -0.03052   2.09242
   A20        2.09106   0.00320   0.00000   0.01308   0.01292   2.10398
   A21        2.05422   0.00301   0.00000   0.01218   0.01202   2.06623
   A22        2.07628  -0.01746   0.00000  -0.06834  -0.07130   2.00499
   A23        2.12484   0.00257   0.00000  -0.01123  -0.01387   2.11097
   A24        1.98317   0.01039   0.00000   0.02388   0.02016   2.00334
   A25        2.05583  -0.02296   0.00000  -0.08719  -0.08947   1.96636
   A26        1.93687   0.00185   0.00000  -0.02753  -0.02998   1.90688
   A27        1.94764   0.00952   0.00000   0.01561   0.01158   1.95923
   A28        1.93713  -0.01863   0.00000  -0.06364  -0.06341   1.87372
   A29        1.92738   0.00055   0.00000  -0.00727  -0.00797   1.91941
   A30        1.93261   0.01619   0.00000   0.08048   0.08062   2.01322
   A31        1.87084   0.00665   0.00000   0.01362   0.01286   1.88369
   A32        1.88236   0.00040   0.00000  -0.00414  -0.00293   1.87943
   A33        1.91192  -0.00551   0.00000  -0.02134  -0.02177   1.89016
   A34        1.95706  -0.00871   0.00000  -0.02680  -0.02680   1.93025
    D1       -3.01029  -0.00398   0.00000  -0.06088  -0.06057  -3.07086
    D2        1.07744   0.00663   0.00000   0.05743   0.05724   1.13467
    D3        1.19347  -0.00809   0.00000  -0.09180  -0.09182   1.10165
    D4       -1.00198   0.00252   0.00000   0.02652   0.02599  -0.97599
    D5       -0.93970  -0.00751   0.00000  -0.08724  -0.08677  -1.02647
    D6       -3.13515   0.00311   0.00000   0.03107   0.03104  -3.10411
    D7       -2.99105  -0.00194   0.00000  -0.03507  -0.03677  -3.02781
    D8        0.49032   0.00465   0.00000   0.06320   0.06199   0.55231
    D9       -0.78915  -0.00874   0.00000  -0.13073  -0.12951  -0.91866
   D10        2.69222  -0.00215   0.00000  -0.03246  -0.03076   2.66146
   D11        0.90005   0.00446   0.00000   0.05970   0.06266   0.96270
   D12        3.03857   0.00178   0.00000   0.03336   0.03176   3.07033
   D13       -1.15921   0.00272   0.00000   0.05199   0.04945  -1.10976
   D14       -2.61540  -0.00194   0.00000  -0.04407  -0.04033  -2.65572
   D15       -0.47687  -0.00461   0.00000  -0.07041  -0.07122  -0.54810
   D16        1.60853  -0.00367   0.00000  -0.05179  -0.05354   1.55500
   D17        1.42684  -0.01598   0.00000  -0.11729  -0.11633   1.31051
   D18       -1.52540  -0.01409   0.00000  -0.08673  -0.08579  -1.61119
   D19       -0.76006   0.00589   0.00000  -0.01826  -0.01761  -0.77768
   D20        2.57088   0.00778   0.00000   0.01231   0.01293   2.58381
   D21       -2.81258  -0.00029   0.00000  -0.03394  -0.03552  -2.84810
   D22        0.51836   0.00160   0.00000  -0.00338  -0.00498   0.51338
   D23       -3.12802  -0.01147   0.00000  -0.09850  -0.09905   3.05611
   D24        0.50626  -0.00366   0.00000   0.02526   0.02316   0.52942
   D25       -1.01154   0.00316   0.00000  -0.05582  -0.05348  -1.06502
   D26        2.62274   0.01097   0.00000   0.06794   0.06873   2.69147
   D27        1.06310  -0.00823   0.00000  -0.11392  -0.11339   0.94971
   D28       -1.58581  -0.00041   0.00000   0.00984   0.00883  -1.57698
   D29        3.07721   0.00196   0.00000   0.02716   0.02898   3.10619
   D30        0.80209   0.00786   0.00000   0.11500   0.11381   0.91589
   D31       -0.51891  -0.00659   0.00000  -0.09399  -0.09279  -0.61170
   D32       -2.79403  -0.00070   0.00000  -0.00615  -0.00797  -2.80200
   D33        3.01266   0.00465   0.00000   0.05282   0.05360   3.06627
   D34        0.94038   0.00785   0.00000   0.08094   0.08076   1.02115
   D35       -1.18043   0.00360   0.00000   0.05889   0.05816  -1.12227
   D36       -1.00036  -0.00494   0.00000  -0.05581  -0.05494  -1.05530
   D37       -3.07264  -0.00174   0.00000  -0.02769  -0.02778  -3.10043
   D38        1.08972  -0.00599   0.00000  -0.04973  -0.05038   1.03934
   D39        3.13651   0.00547   0.00000   0.04119   0.04133  -3.10534
   D40       -1.04062  -0.00062   0.00000   0.00352   0.00362  -1.03700
   D41        1.01669  -0.00336   0.00000  -0.01645  -0.01669   0.99999
         Item               Value     Threshold  Converged?
 Maximum Force            0.039187     0.000450     NO 
 RMS     Force            0.010051     0.000300     NO 
 Maximum Displacement     0.420704     0.001800     NO 
 RMS     Displacement     0.141301     0.001200     NO 
 Predicted change in Energy=-2.599371D-02
 GradGradGradGradGradGradGradGradGradGradGradGradGradGradGradGradGradGrad

                          Input orientation:                          
 ---------------------------------------------------------------------
 Center     Atomic      Atomic             Coordinates (Angstroms)
 Number     Number       Type             X           Y           Z
 ---------------------------------------------------------------------
      1          6           0        1.008495   -0.121535   -0.072450
      2          7           0        2.443914    0.024168    0.047857
      3          7           0        3.123929   -1.032316   -0.606231
      4          6           0        4.555592   -1.093382   -0.444281
      5          7           0        4.989477   -1.126212    0.925852
      6          7           0        5.003749   -2.283235   -1.105979
      7          7           0        6.405694   -2.450913   -1.141992
      8          6           0        6.800006   -3.678565   -1.773551
      9          7           0        8.285823   -3.684901   -1.842305
     10          8           0        8.681863   -4.681325   -2.404220
     11          1           0        0.542153    0.754998    0.385180
     12          1           0        0.602622   -1.027757    0.408009
     13          1           0        0.728648   -0.135595   -1.130566
     14          1           0        2.720557    0.003205    1.023863
     15          1           0        2.650782   -1.399386   -1.415063
     16          1           0        5.039809   -0.198209   -0.885977
     17          1           0        4.892166   -1.970964    1.461983
     18          1           0        5.212507   -0.275996    1.411015
     19          1           0        4.514842   -2.644932   -1.907956
     20          1           0        6.777161   -2.365944   -0.201535
     21          1           0        6.414160   -3.712694   -2.800387
     22          1           0        6.483960   -4.601389   -1.253135
 ---------------------------------------------------------------------
                    Distance matrix (angstroms):
                    1          2          3          4          5
     1  C    0.000000
     2  N    1.447802   0.000000
     3  N    2.364214   1.416478   0.000000
     4  C    3.696571   2.439324   1.442087   0.000000
     5  N    4.225423   2.928163   2.415856   1.437566   0.000000
     6  N    4.658667   3.634308   2.312632   1.433332   2.338213
     7  N    5.974920   4.820525   3.615167   2.398451   2.834868
     8  C    7.006268   6.000274   4.677478   3.672536   4.132710
     9  N    8.293941   7.173409   5.933736   4.752374   5.007542
    10  O    9.225476   8.189405   6.887573   5.808684   6.112440
    11  H    1.093257   2.065089   3.292864   4.495798   4.859009
    12  H    1.103093   2.150956   2.717663   4.044338   4.418410
    13  H    1.094587   2.087186   2.610825   4.004228   4.833719
    14  H    2.036816   1.014672   1.972871   2.593319   2.536373
    15  H    2.476413   2.051691   1.006388   2.159712   3.320241
    16  H    4.113295   2.767701   2.108219   1.109457   2.036282
    17  H    4.567031   3.460381   2.878407   2.125388   1.005242
    18  H    4.460744   3.100549   3.000576   2.131145   1.003989
    19  H    4.693728   3.903593   2.495928   2.133381   3.249962
    20  H    6.191247   4.954983   3.910043   2.571713   2.450255
    21  H    7.039835   6.151380   4.777485   3.983254   4.754415
    22  H    7.172435   6.277765   4.944347   4.083989   4.365584
                    6          7          8          9         10
     6  N    0.000000
     7  N    1.412396   0.000000
     8  C    2.370472   1.435784   0.000000
     9  N    3.644016   2.355430   1.487420   0.000000
    10  O    4.578733   3.427668   2.223659   1.210561   0.000000
    11  H    5.600022   6.855014   7.967265   9.199935  10.177880
    12  H    4.820611   6.172804   7.084740   8.435395   9.302221
    13  H    4.784291   6.131042   7.058856   8.379441   9.248756
    14  H    3.870013   4.928880   6.166267   7.265619   8.320682
    15  H    2.532424   3.908917   4.747549   6.095883   6.937110
    16  H    2.096911   2.646858   3.999869   4.858826   5.972265
    17  H    2.589284   3.049885   4.126067   5.037142   6.054369
    18  H    3.226120   3.559748   4.923321   5.625833   6.782284
    19  H    1.006490   2.049308   2.511660   3.912306   4.664466
    20  H    1.992448   1.014724   2.048103   2.589948   3.720309
    21  H    2.627476   2.083852   1.097467   2.102811   2.497533
    22  H    2.754364   2.154768   1.105587   2.105654   2.482371
                   11         12         13         14         15
    11  H    0.000000
    12  H    1.783927   0.000000
    13  H    1.767887   1.782988   0.000000
    14  H    2.391349   2.434709   2.937436   0.000000
    15  H    3.511205   2.767066   2.317910   2.814337   0.000000
    16  H    4.770047   4.695868   4.318548   3.011144   2.725841
    17  H    5.245282   4.516711   5.236866   2.967352   3.691598
    18  H    4.891573   4.777259   5.156000   2.537253   3.976324
    19  H    5.709663   4.825392   4.608293   4.339084   2.295440
    20  H    6.997130   6.347221   6.513222   4.854946   4.408388
    21  H    8.036701   7.160772   6.921631   6.486563   4.629636
    22  H    8.165784   7.079575   7.285736   6.367905   4.997229
                   16         17         18         19         20
    16  H    0.000000
    17  H    2.945738   0.000000
    18  H    2.304788   1.725727   0.000000
    19  H    2.703051   3.457325   4.136927   0.000000
    20  H    2.861106   2.544898   3.068606   2.847419   0.000000
    21  H    4.231479   4.849524   5.566936   2.354561   2.949497
    22  H    4.648481   4.101806   5.236728   2.852007   2.487779
                   21         22
    21  H    0.000000
    22  H    1.785675   0.000000
 Stoichiometry    C3H12N6O
 Framework group  C1[X(C3H12N6O)]
 Deg. of freedom    60
 Full point group                 C1      NOp   1
 Largest Abelian subgroup         C1      NOp   1
 Largest concise Abelian subgroup C1      NOp   1
                         Standard orientation:                         
 ---------------------------------------------------------------------
 Center     Atomic      Atomic             Coordinates (Angstroms)
 Number     Number       Type             X           Y           Z
 ---------------------------------------------------------------------
      1          6           0       -4.413052   -0.771537    0.190596
      2          7           0       -3.360387    0.095746   -0.295048
      3          7           0       -2.081423   -0.459480   -0.045274
      4          6           0       -0.936381    0.363801   -0.346441
      5          7           0       -0.949469    1.646130    0.303219
      6          7           0        0.226099   -0.361977    0.073470
      7          7           0        1.457340    0.252262   -0.245308
      8          6           0        2.587425   -0.490524    0.237033
      9          7           0        3.812149    0.198456   -0.250591
     10          8           0        4.804598   -0.405051    0.090411
     11          1           0       -5.371332   -0.328628   -0.093551
     12          1           0       -4.406179   -0.925604    1.282855
     13          1           0       -4.337855   -1.748406   -0.297454
     14          1           0       -3.397209    0.993814    0.175777
     15          1           0       -2.049314   -1.465204   -0.062757
     16          1           0       -0.884923    0.583625   -1.432685
     17          1           0       -0.740209    1.712832    1.284174
     18          1           0       -1.343954    2.446942   -0.156211
     19          1           0        0.240768   -1.368276    0.060429
     20          1           0        1.452320    1.208303    0.094731
     21          1           0        2.578532   -1.503249   -0.185747
     22          1           0        2.664460   -0.574146    1.336758
 ---------------------------------------------------------------------
 Rotational constants (GHZ):           5.2960273           0.3964947           0.3767886
 Standard basis: 6-31G(2df,p) (6D, 7F)
 There are   370 symmetry adapted cartesian basis functions of A   symmetry.
 There are   340 symmetry adapted basis functions of A   symmetry.
   340 basis functions,   524 primitive gaussians,   370 cartesian basis functions
    40 alpha electrons       40 beta electrons
       nuclear repulsion energy       548.0819038454 Hartrees.
 NAtoms=   22 NActive=   22 NUniq=   22 SFac= 1.00D+00 NAtFMM=   60 NAOKFM=F Big=F
 Integral buffers will be    131072 words long.
 Raffenetti 2 integral format.
 Two-electron integral symmetry is turned on.
 One-electron integrals computed using PRISM.
 PrsmSu:  requested number of processors reduced to:  13 ShMem   1 Linda.
 NBasis=   340 RedAO= T EigKep=  2.26D-04  NBF=   340
 NBsUse=   340 1.00D-06 EigRej= -1.00D+00 NBFU=   340
 Initial guess from the checkpoint file:  "CNNCpNpNNCNdO.chk"
 B after Tr=     0.000000    0.000000   -0.000000
         Rot=    0.999882   -0.015267   -0.000207    0.001523 Ang=  -1.76 deg.
 ExpMin= 1.61D-01 ExpMax= 5.48D+03 ExpMxC= 8.25D+02 IAcc=2 IRadAn=         4 AccDes= 0.00D+00
 Harris functional with IExCor=  402 and IRadAn=       4 diagonalized for initial guess.
 HarFok:  IExCor=  402 AccDes= 0.00D+00 IRadAn=         4 IDoV= 1 UseB2=F ITyADJ=14
 ICtDFT=  3500011 ScaDFX=  1.000000  1.000000  1.000000  1.000000
 FoFCou: FMM=F IPFlag=           0 FMFlag=      100000 FMFlg1=           0
         NFxFlg=           0 DoJE=T BraDBF=F KetDBF=T FulRan=T
         wScrn=  0.000000 ICntrl=       500 IOpCl=  0 I1Cent=   200000004 NGrid=           0
         NMat0=    1 NMatS0=      1 NMatT0=    0 NMatD0=    1 NMtDS0=    0 NMtDT0=    0
 Petite list used in FoFCou.
 Requested convergence on RMS density matrix=1.00D-08 within 128 cycles.
 Requested convergence on MAX density matrix=1.00D-06.
 Requested convergence on             energy=1.00D-06.
 No special actions if energy rises.
 Integral accuracy reduced to 1.0D-05 until final iterations.
 Initial convergence to 1.0D-05 achieved.  Increase integral accuracy.
 SCF Done:  E(RB3LYP) =  -525.083791331     A.U. after   14 cycles
            NFock= 14  Conv=0.50D-08     -V/T= 2.0069
 PrsmSu:  requested number of processors reduced to:  13 ShMem   1 Linda.
 Calling FoFJK, ICntrl=      2127 FMM=F ISym2X=0 I1Cent= 0 IOpClX= 0 NMat=1 NMatS=1 NMatT=0.
 ***** Axes restored to original set *****
 -------------------------------------------------------------------
 Center     Atomic                   Forces (Hartrees/Bohr)
 Number     Number              X              Y              Z
 -------------------------------------------------------------------
      1        6           0.000862984   -0.001114525    0.005817386
      2        7           0.002081626    0.026452363   -0.008791792
      3        7          -0.002794135   -0.033586620    0.014887955
      4        6          -0.002099770    0.013892866   -0.014520735
      5        7           0.006225391   -0.000317478   -0.001851700
      6        7          -0.014415425   -0.025218552    0.024338333
      7        7           0.020111244    0.015212341   -0.021256708
      8        6          -0.009136035    0.005266316    0.008587985
      9        7           0.003469409   -0.012172630   -0.004374691
     10        8           0.002476442    0.007956181    0.003274181
     11        1          -0.001012915   -0.000138114   -0.000163029
     12        1          -0.000911180   -0.002047710   -0.001791571
     13        1          -0.000422842    0.000632202   -0.001081536
     14        1          -0.001403215   -0.007066979    0.001631321
     15        1           0.005235384    0.006876722   -0.002912708
     16        1           0.001984208    0.004372043    0.003403014
     17        1          -0.007191821    0.000593812    0.000323321
     18        1          -0.000180974   -0.000729383   -0.001701547
     19        1           0.003276208    0.008346654   -0.003833536
     20        1          -0.005455918   -0.003529255    0.002481956
     21        1          -0.000369762   -0.000547747   -0.000853897
     22        1          -0.000328905   -0.003132507   -0.001612001
 -------------------------------------------------------------------
 Cartesian Forces:  Max     0.033586620 RMS     0.009526535

 GradGradGradGradGradGradGradGradGradGradGradGradGradGradGradGradGradGrad
 Berny optimization.
 Using GEDIIS/GDIIS optimizer.
 FormGI is forming the generalized inverse of G from B-inverse, IUseBI=4.
 Internal  Forces:  Max     0.011832493 RMS     0.003540449
 Search for a local minimum.
 Step number   2 out of a maximum of  106
 All quantities printed in internal units (Hartrees-Bohrs-Radians)
 Mixed Optimization -- RFO/linear search
 Update second derivatives using D2CorX and points    1    2
 DE= -2.48D-02 DEPred=-2.60D-02 R= 9.52D-01
 TightC=F SS=  1.41D+00  RLast= 5.01D-01 DXNew= 5.0454D-01 1.5026D+00
 Trust test= 9.52D-01 RLast= 5.01D-01 DXMaxT set to 5.05D-01
 ITU=  1  0
 Use linear search instead of GDIIS.
     Eigenvalues ---    0.00525   0.00961   0.01029   0.01054   0.01133
     Eigenvalues ---    0.01201   0.01229   0.01262   0.01356   0.01469
     Eigenvalues ---    0.01711   0.03006   0.03535   0.05722   0.06415
     Eigenvalues ---    0.06473   0.06961   0.07094   0.07249   0.07832
     Eigenvalues ---    0.11253   0.11616   0.12040   0.13671   0.14014
     Eigenvalues ---    0.14753   0.15918   0.16000   0.16000   0.16000
     Eigenvalues ---    0.16065   0.18419   0.20394   0.21891   0.22144
     Eigenvalues ---    0.22749   0.23005   0.23449   0.28538   0.33687
     Eigenvalues ---    0.34255   0.34303   0.34338   0.34388   0.34516
     Eigenvalues ---    0.34579   0.37625   0.38464   0.38949   0.39498
     Eigenvalues ---    0.41117   0.43307   0.43812   0.43942   0.44252
     Eigenvalues ---    0.44619   0.45263   0.45544   0.46983   0.90234
 RFO step:  Lambda=-1.74448809D-02 EMin= 5.24985492D-03
 Quartic linear search produced a step of  0.38382.
 Iteration  1 RMS(Cart)=  0.12203912 RMS(Int)=  0.00966743
 Iteration  2 RMS(Cart)=  0.02032343 RMS(Int)=  0.00405045
 Iteration  3 RMS(Cart)=  0.00031411 RMS(Int)=  0.00404836
 Iteration  4 RMS(Cart)=  0.00000183 RMS(Int)=  0.00404836
 Iteration  5 RMS(Cart)=  0.00000003 RMS(Int)=  0.00404836
 Variable       Old X    -DE/DX   Delta X   Delta X   Delta X     New X
                                 (Linear)    (Quad)   (Total)
    R1        2.73595   0.00151  -0.00028   0.00475   0.00447   2.74042
    R2        2.06596   0.00025  -0.00036   0.00103   0.00066   2.06662
    R3        2.08454   0.00124   0.00740   0.00089   0.00829   2.09283
    R4        2.06847   0.00115   0.00162   0.00317   0.00478   2.07325
    R5        2.67676   0.01083   0.00820   0.02520   0.03340   2.71016
    R6        1.91745   0.00133  -0.00629   0.00632   0.00003   1.91748
    R7        2.72515  -0.00290  -0.00010  -0.00867  -0.00878   2.71637
    R8        1.90180  -0.00263  -0.00995  -0.00276  -0.01270   1.88909
    R9        2.71661  -0.00341   0.00420  -0.01175  -0.00755   2.70906
   R10        2.70860   0.00326  -0.01192   0.01529   0.00337   2.71198
   R11        2.09657   0.00304   0.01095   0.00548   0.01642   2.11299
   R12        1.89963   0.00037  -0.00512   0.00316  -0.00197   1.89767
   R13        1.89726  -0.00148  -0.00636  -0.00114  -0.00750   1.88977
   R14        2.66904   0.00996   0.00382   0.02496   0.02877   2.69781
   R15        1.90199  -0.00154  -0.01073   0.00049  -0.01024   1.89175
   R16        2.71324  -0.00103  -0.01397   0.00295  -0.01102   2.70222
   R17        1.91755   0.00001  -0.00627   0.00272  -0.00355   1.91401
   R18        2.81082   0.00601  -0.00056   0.02119   0.02063   2.83145
   R19        2.07391   0.00095   0.00193   0.00237   0.00430   2.07822
   R20        2.08926   0.00195   0.00804   0.00306   0.01110   2.10036
   R21        2.28763  -0.00726  -0.01419  -0.00404  -0.01823   2.26940
    A1        1.88330   0.00163  -0.00305   0.01572   0.01233   1.89563
    A2        1.99465   0.00109   0.02310  -0.00458   0.01834   2.01299
    A3        1.91251  -0.00084  -0.00872  -0.00426  -0.01292   1.89959
    A4        1.89589  -0.00011  -0.00020   0.00516   0.00446   1.90035
    A5        1.88167  -0.00079  -0.00275  -0.00480  -0.00763   1.87404
    A6        1.89275  -0.00106  -0.00910  -0.00718  -0.01612   1.87663
    A7        1.94178  -0.00257  -0.02358  -0.01572  -0.04223   1.89956
    A8        1.92641  -0.00052  -0.00389  -0.02984  -0.03979   1.88661
    A9        1.87326  -0.00323  -0.01951  -0.04985  -0.07424   1.79902
   A10        2.04466  -0.00432  -0.01619  -0.03220  -0.05909   1.98557
   A11        2.00145   0.00313   0.00560  -0.01248  -0.02061   1.98084
   A12        2.14309  -0.00198  -0.00418  -0.04351  -0.05805   2.08504
   A13        1.99066  -0.00212   0.04313  -0.04548  -0.00324   1.98742
   A14        1.86891  -0.00116  -0.04966   0.01641  -0.03250   1.83641
   A15        1.93308   0.00206   0.01842   0.01001   0.02902   1.96210
   A16        1.90357   0.00099  -0.00579   0.00432  -0.00054   1.90303
   A17        1.84019  -0.00114  -0.02640   0.00069  -0.02654   1.81365
   A18        1.92788   0.00150   0.02100   0.01488   0.03627   1.96415
   A19        2.09242  -0.00261  -0.01171  -0.01877  -0.03372   2.05871
   A20        2.10398  -0.00010   0.00496  -0.01031  -0.00857   2.09540
   A21        2.06623   0.00195   0.00461   0.00393   0.00509   2.07132
   A22        2.00499  -0.00121  -0.02737  -0.01907  -0.05988   1.94511
   A23        2.11097  -0.00283  -0.00532  -0.05935  -0.07974   2.03123
   A24        2.00334  -0.00073   0.00774  -0.05344  -0.06415   1.93918
   A25        1.96636  -0.00441  -0.03434  -0.02227  -0.06068   1.90567
   A26        1.90688  -0.00308  -0.01151  -0.05845  -0.07569   1.83120
   A27        1.95923   0.00109   0.00445  -0.02610  -0.02956   1.92967
   A28        1.87372  -0.00110  -0.02434   0.00790  -0.01632   1.85740
   A29        1.91941  -0.00054  -0.00306  -0.00310  -0.00646   1.91295
   A30        2.01322   0.00341   0.03094   0.01105   0.04207   2.05529
   A31        1.88369   0.00080   0.00493   0.00177   0.00632   1.89002
   A32        1.87943  -0.00118  -0.00113  -0.00789  -0.00847   1.87096
   A33        1.89016  -0.00149  -0.00835  -0.01001  -0.01856   1.87160
   A34        1.93025   0.01183  -0.01029   0.05951   0.04922   1.97947
    D1       -3.07086  -0.00324  -0.02325  -0.07215  -0.09444   3.11788
    D2        1.13467   0.00277   0.02197   0.01965   0.04097   1.17565
    D3        1.10165  -0.00498  -0.03524  -0.08706  -0.12175   0.97990
    D4       -0.97599   0.00104   0.00998   0.00474   0.01365  -0.96234
    D5       -1.02647  -0.00372  -0.03330  -0.07131  -0.10371  -1.13018
    D6       -3.10411   0.00229   0.01191   0.02049   0.03170  -3.07242
    D7       -3.02781  -0.00290  -0.01411  -0.09913  -0.11535   3.14002
    D8        0.55231   0.00450   0.02379   0.10476   0.12636   0.67867
    D9       -0.91866  -0.00713  -0.04971  -0.17699  -0.22451  -1.14317
   D10        2.66146   0.00027  -0.01181   0.02690   0.01721   2.67867
   D11        0.96270   0.00329   0.02405   0.10869   0.13126   1.09396
   D12        3.07033   0.00241   0.01219   0.09732   0.10654  -3.10632
   D13       -1.10976   0.00471   0.01898   0.13141   0.14698  -0.96278
   D14       -2.65572  -0.00346  -0.01548  -0.10438  -0.11610  -2.77182
   D15       -0.54810  -0.00434  -0.02734  -0.11575  -0.14082  -0.68892
   D16        1.55500  -0.00204  -0.02055  -0.08166  -0.10038   1.45462
   D17        1.31051  -0.00475  -0.04465  -0.12170  -0.16570   1.14482
   D18       -1.61119  -0.00098  -0.03293   0.01048  -0.02251  -1.63370
   D19       -0.77768  -0.00260  -0.00676  -0.11605  -0.12219  -0.89987
   D20        2.58381   0.00116   0.00496   0.01613   0.02099   2.60480
   D21       -2.84810  -0.00423  -0.01363  -0.13603  -0.14986  -2.99795
   D22        0.51338  -0.00047  -0.00191  -0.00385  -0.00667   0.50671
   D23        3.05611  -0.00386  -0.03802  -0.14720  -0.18239   2.87372
   D24        0.52942   0.00435   0.00889   0.09134   0.09617   0.62559
   D25       -1.06502  -0.00656  -0.02053  -0.18975  -0.20617  -1.27119
   D26        2.69147   0.00165   0.02638   0.04879   0.07239   2.76386
   D27        0.94971  -0.00651  -0.04352  -0.17809  -0.21821   0.73150
   D28       -1.57698   0.00170   0.00339   0.06046   0.06035  -1.51663
   D29        3.10619   0.00230   0.01112   0.06587   0.07778  -3.09921
   D30        0.91589   0.00642   0.04368   0.16065   0.19939   1.11529
   D31       -0.61170  -0.00614  -0.03562  -0.16073  -0.19141  -0.80311
   D32       -2.80200  -0.00202  -0.00306  -0.06595  -0.06979  -2.87179
   D33        3.06627   0.00421   0.02057   0.09030   0.11053  -3.10638
   D34        1.02115   0.00418   0.03100   0.08536   0.11554   1.13669
   D35       -1.12227   0.00407   0.02232   0.09299   0.11429  -1.00798
   D36       -1.05530  -0.00244  -0.02109  -0.02500  -0.04497  -1.10028
   D37       -3.10043  -0.00247  -0.01066  -0.02994  -0.03996  -3.14039
   D38        1.03934  -0.00258  -0.01934  -0.02231  -0.04122   0.99813
   D39       -3.10534   0.00179   0.01586   0.03039   0.04634  -3.05901
   D40       -1.03700   0.00099   0.00139   0.03193   0.03334  -1.00366
   D41        0.99999  -0.00096  -0.00641   0.01699   0.01049   1.01048
         Item               Value     Threshold  Converged?
 Maximum Force            0.011832     0.000450     NO 
 RMS     Force            0.003540     0.000300     NO 
 Maximum Displacement     0.378749     0.001800     NO 
 RMS     Displacement     0.133772     0.001200     NO 
 Predicted change in Energy=-1.458529D-02
 GradGradGradGradGradGradGradGradGradGradGradGradGradGradGradGradGradGrad

                          Input orientation:                          
 ---------------------------------------------------------------------
 Center     Atomic      Atomic             Coordinates (Angstroms)
 Number     Number       Type             X           Y           Z
 ---------------------------------------------------------------------
      1          6           0        1.066921   -0.081748   -0.179486
      2          7           0        2.500128    0.024360    0.014534
      3          7           0        3.123514   -1.170456   -0.475978
      4          6           0        4.554160   -1.176587   -0.336501
      5          7           0        5.004734   -1.119360    1.023219
      6          7           0        4.984293   -2.414970   -0.920414
      7          7           0        6.389087   -2.412066   -1.174674
      8          6           0        6.754947   -3.641815   -1.806046
      9          7           0        8.240184   -3.593988   -1.997882
     10          8           0        8.673576   -4.535373   -2.604646
     11          1           0        0.593204    0.820351    0.217738
     12          1           0        0.590729   -0.969162    0.281217
     13          1           0        0.856662   -0.115415   -1.255743
     14          1           0        2.686762   -0.011890    1.011251
     15          1           0        2.709915   -1.519542   -1.316458
     16          1           0        5.033214   -0.287378   -0.816155
     17          1           0        4.797753   -1.899294    1.620951
     18          1           0        5.221295   -0.237657    1.442438
     19          1           0        4.473565   -2.730035   -1.721682
     20          1           0        6.819386   -2.339683   -0.260636
     21          1           0        6.280837   -3.703447   -2.796429
     22          1           0        6.523045   -4.587725   -1.270491
 ---------------------------------------------------------------------
                    Distance matrix (angstroms):
                    1          2          3          4          5
     1  C    0.000000
     2  N    1.450167   0.000000
     3  N    2.345797   1.434154   0.000000
     4  C    3.658437   2.405109   1.437442   0.000000
     5  N    4.246117   2.932336   2.406074   1.433573   0.000000
     6  N    4.619383   3.604932   2.282288   1.435117   2.335965
     7  N    5.894593   4.740716   3.562827   2.365565   2.901423
     8  C    6.904593   5.904137   4.589554   3.616681   4.175017
     9  N    8.191343   7.077465   5.862595   4.710710   5.071388
    10  O    9.142066   8.109422   6.830599   5.778885   6.187968
    11  H    1.093608   2.076355   3.293482   4.470359   4.885988
    12  H    1.107480   2.168873   2.651201   4.016639   4.478456
    13  H    1.097119   2.081855   2.619115   3.955071   4.838189
    14  H    2.011621   1.014687   1.935169   2.580722   2.568974
    15  H    2.461581   2.049190   0.999665   2.116406   3.301580
    16  H    4.022326   2.683981   2.131314   1.118147   2.018985
    17  H    4.523732   3.400015   2.780539   2.100776   1.004202
    18  H    4.462484   3.084204   2.991842   2.119264   1.000022
    19  H    4.582249   3.807307   2.409710   2.082888   3.226592
    20  H    6.180267   4.931573   3.882388   2.547508   2.535830
    21  H    6.866586   6.007647   4.665750   3.926536   4.784941
    22  H    7.159847   6.253518   4.885263   4.047803   4.426729
                    6          7          8          9         10
     6  N    0.000000
     7  N    1.427622   0.000000
     8  C    2.329101   1.429954   0.000000
     9  N    3.626548   2.345458   1.498338   0.000000
    10  O    4.576413   3.431056   2.262155   1.200915   0.000000
    11  H    5.571746   6.780825   7.872338   9.103388  10.096635
    12  H    4.778879   6.150004   7.035434   8.402272   9.294003
    13  H    4.736849   5.990735   6.894063   8.195587   9.080733
    14  H    3.845097   4.924055   6.137072   7.261323   8.329379
    15  H    2.476174   3.788537   4.594130   5.945717   6.805874
    16  H    2.130707   2.545825   3.898269   4.755503   5.873363
    17  H    2.599856   3.257421   4.314081   5.274302   6.310830
    18  H    3.221790   3.597370   4.949044   5.675778   6.838676
    19  H    1.001069   2.017312   2.458285   3.874290   4.656068
    20  H    1.951548   1.012848   2.021878   2.570987   3.708565
    21  H    2.619281   2.075927   1.099744   2.118655   2.540488
    22  H    2.685363   2.181885   1.111460   2.113097   2.531303
                   11         12         13         14         15
    11  H    0.000000
    12  H    1.790640   0.000000
    13  H    1.765281   1.778159   0.000000
    14  H    2.388571   2.417162   2.915346   0.000000
    15  H    3.508464   2.710430   2.325898   2.773405   0.000000
    16  H    4.691448   4.626525   4.203141   2.986828   2.676985
    17  H    5.200357   4.512104   5.195170   2.896604   3.623762
    18  H    4.902906   4.829666   5.132752   2.580843   3.944840
    19  H    5.605693   4.710488   4.487240   4.248517   2.177146
    20  H    6.998571   6.400633   6.441404   4.910692   4.321475
    21  H    7.867600   7.023216   6.683514   6.406512   4.439735
    22  H    8.162422   7.119984   7.218703   6.392314   4.894469
                   16         17         18         19         20
    16  H    0.000000
    17  H    2.931416   0.000000
    18  H    2.266955   1.724034   0.000000
    19  H    2.664537   3.459540   4.096670   0.000000
    20  H    2.776863   2.796660   3.142112   2.791040   0.000000
    21  H    4.140963   4.996774   5.576946   2.317077   2.929186
    22  H    4.573730   4.308680   5.289389   2.802669   2.482200
                   21         22
    21  H    0.000000
    22  H    1.780197   0.000000
 Stoichiometry    C3H12N6O
 Framework group  C1[X(C3H12N6O)]
 Deg. of freedom    60
[...]
 45704,-0.01137034,0.05867961,0.07895035,-0.09690732,-0.04520918,-0.126
 21989,-0.02035938,0.00442040,-0.01803318,0.00389527,-0.00156597,0.0016
 4459,0.00054964,0.00041470,-0.00053433,-0.00035645,0.00004165,0.000283
 25,-0.00023885,-0.00004028,0.00008611,-0.00003383,0.00010329,0.0001138
 2,0.00000776,-0.00009686,0.00009153,0.00011773,-0.00002125,-0.00004511
 ,-0.00010571,0.00006769,0.00000182,-0.01544400,-0.00720364,-0.01101643
 ,0.11707921,0.04290863,0.14133835,-0.19029536,-0.07830082,0.10860310,0
 .01407287,0.00638030,-0.01122802,0.00097763,-0.00025853,0.00105580,-0.
 00035681,-0.00050562,0.00003933,0.00013703,0.00005368,-0.00017556,0.00
 014213,-0.00016615,0.00002385,-0.00001506,-0.00002247,-0.00001959,0.00
 001204,0.00001840,-0.00003034,-0.00002917,0.00000293,0.00001107,0.0000
 2503,-0.00001202,-0.00000182,-0.00764158,-0.00461515,0.00434528,-0.017
 29563,-0.00866366,0.01291215,0.20113338,-0.07425361,-0.08910970,0.0540
 1636,-0.01496853,-0.01359580,0.02283365,-0.00140623,0.00205919,-0.0012
 4083,-0.00021113,-0.00114236,0.00078650,0.00015991,0.00024987,-0.00028
 189,-0.00000579,0.00062675,-0.00007515,0.00006668,-0.00002576,-0.00000
 053,0.00008558,-0.00007058,0.00006528,0.00005995,-0.00002237,-0.000026
 76,-0.00006867,0.00005042,-0.00000430,0.01641691,0.01074821,-0.0121264
 1,-0.00964651,-0.00386218,0.00535043,0.08194603,0.09909846,0.10215002,
 0.05697361,-0.12633479,0.01309839,0.01037591,-0.01725846,-0.00068312,-
 0.00095159,0.00079357,0.00074120,0.00088898,0.00019431,-0.00034214,-0.
 00011996,0.00016510,-0.00021572,-0.00035545,-0.00000039,-0.00010555,0.
 00007018,0.00002774,0.00001268,-0.00001470,0.00004993,0.00001959,-0.00
 000673,-0.00002016,-0.00002595,0.00001321,0.00000476,0.01431641,0.0084
 5002,-0.01045864,-0.01419010,-0.00831821,0.01087043,-0.11288921,-0.070
 50052,0.14123571,0.00563378,0.00931853,-0.01868775,-0.21234982,-0.0869
 4848,0.20236501,-0.01036799,-0.00020776,0.00102364,0.00095851,0.002724
 25,0.00400958,0.00010660,0.00022292,-0.00027233,-0.00130360,-0.0003176
 9,-0.00023746,-0.00027652,0.00048496,0.00033075,0.00019440,-0.00015853
 ,0.00025807,0.00008282,-0.00002321,-0.00006408,-0.00011983,0.00007712,
 0.00000397,0.00066290,-0.00116666,0.00091668,0.00091738,0.00055174,-0.
 00068266,0.00024880,0.00142165,-0.00160567,0.21511326,-0.02252574,-0.0
 1117433,0.01777955,-0.08907193,-0.09813916,0.10823736,0.03061711,-0.00
 166689,-0.02988579,-0.00137272,-0.00318511,-0.00519207,0.00012990,0.00
 013373,0.00048609,0.00158414,0.00044510,-0.00014818,0.00038629,-0.0006
 2480,-0.00026127,-0.00006903,0.00016393,-0.00023144,-0.00008192,-0.000
 00468,0.00007378,0.00013053,-0.00007198,-0.00001512,-0.00007337,0.0000
 6953,-0.00075980,0.00055967,0.00127895,-0.00035395,0.00334077,-0.00445
 923,0.00369626,0.07488588,0.11720605,0.01250757,0.01304632,-0.01552967
 ,0.15550440,0.08497333,-0.18148116,0.01841223,-0.00623842,-0.01509643,
 -0.00166895,-0.00233696,-0.00144334,-0.00036852,0.00041264,-0.00017724
 ,0.00053716,0.00038068,-0.00012628,0.00005797,-0.00022004,0.00008966,0
 .00005187,-0.00002419,-0.00002035,0.00003649,-0.00002499,0.00000311,-0
 .00001583,0.00002179,-0.00001002,0.00004319,-0.00028931,0.00072898,0.0
 0091666,-0.00113242,0.00013808,-0.00235109,0.00188554,0.00013202,-0.18
 541254,-0.09131533,0.21510139,0.00418411,0.00012959,0.00420935,0.00753
 319,0.00365158,0.01124354,-0.15862278,0.00003564,-0.14387601,-0.016191
 93,0.00204928,-0.03511406,-0.01002592,-0.00079044,0.00002750,0.0003605
 4,-0.00107346,-0.00086615,0.00073106,-0.00035163,0.00088295,-0.0002766
 2,0.00039044,-0.00044608,0.00009353,-0.00001996,0.00012613,0.00012387,
 -0.00006363,-0.00003782,-0.00044431,0.00027588,0.00010253,-0.00075644,
 -0.00185188,-0.00106295,-0.00048931,-0.00035746,-0.00038509,0.00020583
 ,0.00103280,0.00162745,0.17166559,-0.00476402,0.00335134,-0.00408146,-
 0.01097099,-0.01968287,-0.03870135,0.02404280,-0.02262401,0.00855356,-
 0.01116852,-0.00236101,-0.00001391,0.00351142,0.00083283,0.00030084,0.
 00206588,-0.00034213,0.00068163,-0.00039462,-0.00043528,-0.00026623,0.
 00002614,-0.00015129,0.00004715,-0.00011175,0.00002017,-0.00000260,0.0
 0003207,-0.00003835,0.00001296,0.00011684,0.00068166,0.00057674,0.0015
 4461,0.00075099,0.00146437,0.00002539,-0.00072411,0.00014952,-0.000443
 13,-0.00035942,0.00074073,-0.00427042,0.04055474,0.00223317,0.00410136
 ,0.00346116,-0.00546462,-0.00571573,-0.02515177,-0.16649273,-0.0307101
 7,-0.27944397,0.00850251,0.00521153,0.00197461,0.00006068,-0.00112739,
 0.00116150,0.00053247,0.00044774,0.00095003,-0.00020432,0.00018192,0.0
 0029792,-0.00003502,0.00002099,-0.00000778,0.00003467,0.00001227,0.000
 04758,-0.00000479,0.00000541,-0.00001040,0.00002234,0.00082558,0.00011
 584,0.00125871,-0.00262589,0.00118387,-0.00016007,-0.00022093,0.000343
 49,-0.00194609,-0.00240225,-0.00270504,0.16033982,0.03290318,0.2967728
 3,-0.00050973,-0.00016397,0.00061227,0.00291113,-0.00081754,-0.0029659
 5,-0.02511105,-0.03091612,0.01979653,-0.05362531,-0.03232959,0.0193414
 0,0.00102308,0.01827349,-0.01586549,0.00105141,0.00575345,0.00182110,0
 .00286059,0.00369418,-0.00194460,-0.00021472,-0.00011380,-0.00009445,0
 .00013425,-0.00002487,-0.00001626,-0.00008003,0.00005599,-0.00001585,0
 .00015237,0.00042976,-0.00031395,-0.00003116,-0.00002172,-0.00010438,-
 0.00050954,0.00103366,-0.00024483,0.00042944,0.00039622,-0.00015906,0.
 00104177,0.00032210,0.00054032,0.07087812,-0.00020603,-0.00066613,0.00
 146395,-0.00003675,0.00153752,-0.00118207,-0.00505901,-0.00055722,0.00
 175393,-0.02923217,-0.20092798,0.08506239,0.00095730,-0.00228978,0.005
 40242,-0.00113256,-0.03759069,-0.00123194,-0.00450816,0.00300886,0.001
 67925,0.00044244,0.00062967,-0.00012114,-0.00025844,0.00009140,0.00019
 322,0.00036415,-0.00019623,-0.00002319,-0.00015328,0.00039141,-0.00018
 522,0.00012478,0.00014581,-0.00020295,0.00071394,0.00027591,-0.0003656
 9,-0.00025082,0.00021634,0.00012404,-0.00066331,0.00001467,-0.00006052
 ,0.03611230,0.23411930,0.00061980,0.00049596,-0.00055047,-0.00106053,0
 .00025974,0.00152615,0.00945000,0.00818501,-0.00069829,0.01494261,0.07
 860212,-0.09701169,-0.00279799,0.02990105,-0.01972851,0.00227475,-0.02
 546757,0.00467093,-0.00504856,-0.00298127,0.00330528,-0.00016069,0.000
 26260,-0.00010701,0.00003958,0.00006726,-0.00005186,0.00006761,-0.0000
 8309,0.00007008,-0.00000530,-0.00026110,0.00010878,-0.00010517,-0.0000
 9237,0.00011122,-0.00003323,-0.00036166,0.00038236,-0.00028039,-0.0001
 4342,-0.00009484,0.00051803,-0.00023562,0.00017729,-0.01600064,-0.0920
 2807,0.11186026,0.00007418,0.00031007,-0.00024402,-0.00092813,0.000054
 53,0.00063597,0.00282269,0.00107231,0.00121263,-0.00137418,0.02250881,
 -0.01949868,-0.04138374,-0.10426944,0.05169752,-0.00026580,0.00011038,
 0.00131278,-0.00059335,-0.00007229,0.00034107,0.00115863,0.00000539,0.
 00063466,-0.00053722,0.00017895,0.00001240,0.00020924,-0.00019334,-0.0
 0003585,0.00005040,-0.00015401,-0.00000257,0.00005321,-0.00005624,0.00
 009458,-0.00002185,-0.00004861,0.00009192,-0.00019317,0.00004087,-0.00
 013343,0.00045265,-0.00065574,0.00042337,-0.00055577,-0.00004867,-0.00
 323880,0.04373766,-0.00019438,-0.00026342,0.00004090,0.00026704,-0.000
 17476,-0.00047311,-0.00078178,0.00021840,-0.00172238,-0.00101755,-0.00
 353582,0.00513737,-0.05983870,-0.30534023,0.13872204,-0.00028240,0.001
 92226,0.00033753,0.00054234,-0.00031230,-0.00051131,-0.00004911,0.0001
 5190,0.00004711,0.00004441,-0.00006970,0.00000808,-0.00004626,0.000031
 71,-0.00000610,-0.00001951,0.00003183,0.00003594,0.00000506,0.00009949
 ,-0.00008081,0.00001833,0.00001053,-0.00007840,0.00036550,0.00002304,0
 .00023044,-0.00052811,0.00048740,-0.00041373,0.00036250,0.00149883,0.0
 0050494,0.07123649,0.32968587,0.00015196,0.00016952,-0.00026337,0.0003
 3655,0.00000635,0.00012799,0.00052108,-0.00143725,0.00280137,0.0095236
 9,0.03513408,-0.02269698,0.02648715,0.15011861,-0.14571715,0.00137915,
 -0.00045015,0.00322353,0.00057087,-0.00023018,-0.00018389,-0.00030150,
 -0.00014456,-0.00026065,0.00040074,-0.00015383,-0.00005970,-0.00027068
 ,0.00020760,-0.00001796,-0.00002672,-0.00007983,0.00004415,-0.00003006
 ,-0.00000983,0.00002842,-0.00006889,-0.00010241,0.00002508,0.00006815,
 0.00003554,0.00009722,0.00044982,-0.00018660,0.00030558,-0.00471072,0.
 00019293,-0.00560630,-0.03007385,-0.16031925,0.15484653,-0.00009855,0.
 00186276,-0.00059776,-0.00009376,-0.00070138,-0.00011241,0.00031515,-0
 .00086240,0.00005591,0.00037636,-0.02028446,-0.01767041,-0.04244976,0.
 10524562,0.06919176,-0.00211787,-0.00005238,-0.00278738,0.00030120,0.0
 0025523,-0.00056506,-0.00091580,0.00003650,0.00063833,0.00069950,-0.00
 012354,-0.00017732,-0.00049954,0.00034455,-0.00002169,0.00005703,-0.00
 007894,-0.00002773,0.00038156,-0.00039175,0.00059690,-0.00010015,-0.00
 018383,0.00022633,0.00009858,0.00002128,0.00031718,0.00041869,0.000190
 87,0.00012029,0.00003102,-0.00006632,0.00052924,-0.00196280,-0.0100122
 9,-0.00431644,0.04483398,0.00049475,0.00031370,0.00021830,0.00103042,-
 0.00054166,0.00131040,0.00142924,-0.00040543,0.00003438,-0.00203908,0.
 00088884,-0.00114907,0.06303090,-0.26930631,-0.15292480,0.00036549,0.0
 0049696,-0.00072302,0.00003012,0.00019205,-0.00019046,0.00008115,0.000
 09064,0.00060557,0.00008888,-0.00001746,-0.00005112,-0.00010191,0.0000
 6084,-0.00000134,0.00007058,-0.00006387,-0.00002945,0.00000517,-0.0002
 0312,0.00007719,0.00002230,0.00000211,0.00011144,-0.00045712,-0.000056
 73,-0.00035098,0.00039011,-0.00040313,-0.00002444,-0.00051381,0.000138
 58,0.00034683,0.01029559,-0.02438192,-0.02248644,-0.07494022,0.2924161
 2,-0.00028735,0.00028420,-0.00018514,0.00168132,0.00061417,0.00016536,
 0.00079483,-0.00062247,0.00029821,0.01201223,-0.02842709,-0.01928508,0
 .03772377,-0.16574640,-0.18531589,-0.00644819,-0.00047533,-0.00501348,
 0.00015952,0.00024518,0.00038762,-0.00009149,0.00028616,0.00016260,0.0
 0001443,-0.00005077,0.00010854,0.00006966,-0.00001837,-0.00003714,0.00
 004235,-0.00002990,-0.00001530,0.00010000,-0.00006641,0.00009222,-0.00
 008642,0.00001539,-0.00009687,0.00039744,0.00019431,0.00043493,0.00031
 345,-0.00034853,0.00003949,0.00025494,0.00102564,0.00059624,-0.0032048
 5,0.01856467,0.01254309,-0.04451515,0.17569341,0.19723611,0.00010145,0
 .00011929,-0.00010810,-0.00006220,-0.00099787,-0.00018268,0.00053898,0
 .00123852,0.00227765,0.00575330,0.00383053,0.00204642,0.00026104,0.000
 52298,0.00133938,-0.23932353,-0.04725195,-0.17472864,-0.03554907,0.002
 23235,-0.00918112,-0.00417233,-0.00470411,0.00319803,0.00022345,0.0007
 1497,-0.00170409,-0.00125701,0.00046885,0.00054987,0.00000410,-0.00004
 012,0.00002209,-0.00000548,-0.00002234,0.00003415,-0.00000881,-0.00005
 772,0.00002823,0.00000788,0.00005675,0.00010955,-0.00033009,0.00129025
 ,0.00011061,-0.00008038,0.00039739,0.00029747,-0.00003452,-0.00005354,
 0.00004654,0.00003755,0.00037740,0.00064361,0.27541936,-0.00001297,-0.
 00016773,-0.00000105,-0.00031702,-0.00023700,0.00096644,-0.00125049,0.
 00074833,0.00012727,-0.02178802,-0.01111024,-0.02363940,0.00137987,-0.
 00288378,-0.00092207,-0.01621750,-0.02752186,-0.03646042,-0.00630076,-
 0.00169303,0.00167032,0.00224130,0.00117109,-0.00043656,-0.00025385,-0
 .00001477,0.00072567,0.00095384,-0.00057172,-0.00024371,-0.00001395,0.
 00001991,0.00004575,0.00002291,0.00002410,-0.00004701,-0.00000235,-0.0
 0007924,-0.00004446,-0.00008651,0.00025959,0.00013716,0.00218830,0.000
 40909,-0.00041307,-0.00004994,-0.00040776,0.00024725,0.00015726,-0.000
 05387,-0.00033448,-0.00031600,0.00107164,-0.00086553,0.04204214,0.0427
 1286,-0.00002973,-0.00009128,0.00031364,0.00080100,0.00058442,0.000305
 98,-0.00040936,0.00076670,0.00024028,-0.01929426,0.00744376,-0.0140071
 8,0.00137201,-0.00683725,-0.00372515,-0.19489903,-0.06961001,-0.217761
 92,0.02944790,0.00619771,0.01134028,0.00198048,0.00172729,-0.00045852,
 0.00058623,-0.00042736,0.00036742,0.00028513,-0.00007021,-0.00022381,-
 0.00006176,0.00011566,-0.00005867,-0.00000507,-0.00002651,-0.00004827,
 0.00001114,0.00003831,-0.00004837,0.00000298,0.00005250,-0.00003502,0.
 00203258,-0.00175057,0.00054056,0.00014040,0.00022620,0.00091150,-0.00
 016842,-0.00004255,0.00057569,-0.00093748,0.00004412,-0.00178796,0.176
 41163,0.06054905,0.22339855,-0.00006068,-0.00005616,0.00014682,-0.0000
 0699,0.00021053,-0.00011335,0.00048938,0.00102805,-0.00041541,0.000812
 74,-0.00646138,-0.00171911,0.00013572,0.00098933,0.00008665,-0.0194804
 3,-0.03310868,0.01104152,-0.06931775,-0.05582244,0.01607312,0.00438415
 ,0.03324785,-0.00667029,0.00268041,0.00069062,-0.00189577,-0.00025829,
 -0.00140014,0.00121579,-0.00000747,0.00003252,-0.00002787,-0.00001327,
 0.00000189,-0.00002042,0.00002990,0.00004602,0.00000481,0.00000375,-0.
 00002125,-0.00001441,-0.00001110,-0.00030679,0.00006926,0.00027063,0.0
 0289043,-0.00035452,-0.00017367,-0.00001170,-0.00045408,0.00008097,0.0
 0004686,0.00018537,-0.00166937,-0.00241730,0.00244434,0.08651686,0.000
 05382,-0.00002773,0.00002080,-0.00000348,0.00000201,-0.00005716,0.0006
 3374,-0.00035772,-0.00069154,0.00231413,0.00796753,-0.00358801,-0.0000
 1866,-0.00068002,0.00002272,-0.00524710,-0.00135418,-0.00335006,-0.052
 39999,-0.37973479,0.07667712,-0.00321066,-0.01957150,-0.00306736,-0.00
 127936,-0.00047390,0.00023129,0.00045299,0.00082408,-0.00036402,-0.000
 01199,0.00000201,0.00000152,-0.00003005,-0.00000698,-0.00001102,0.0000
 1734,-0.00003555,0.00002497,-0.00000721,-0.00003504,-0.00001413,-0.000
 01039,-0.00004593,0.00003768,-0.00140699,0.00046564,0.00274835,0.00012
 898,-0.00022451,-0.00001196,-0.00006374,-0.00005199,-0.00008532,-0.000
 33194,-0.00165813,0.00155796,0.05853952,0.39342915,0.00012366,-0.00015
 564,0.00014167,-0.00030136,-0.00004769,0.00001217,-0.00047969,-0.00059
 849,0.00075362,0.00034541,0.00616907,0.00105102,-0.00045738,-0.0006868
 8,0.00003216,0.01930270,0.02062294,-0.01385373,0.00357416,0.02656841,-
 0.02245928,-0.00310471,0.02323661,-0.00838861,-0.00081335,-0.00159288,
 0.00136316,0.00069170,0.00042659,-0.00047770,-0.00002040,0.00003120,-0
 .00000666,-0.00008165,0.00000023,-0.00005380,0.00003712,-0.00002406,0.
 00001000,-0.00010824,0.00011267,0.00000708,-0.00014177,0.00014723,-0.0
 0003724,-0.00002951,-0.00167165,0.00027500,-0.00008941,0.00013198,0.00
 027279,-0.00013886,-0.00026214,-0.00004201,-0.00129819,-0.00113898,0.0
 0011782,-0.01689835,-0.07196187,0.04077405,0.00001599,0.00000702,0.000
 01196,-0.00002842,0.00001527,-0.00001098,-0.00013888,-0.00010770,0.000
 20120,-0.00008286,0.00026939,0.00029534,0.00005414,-0.00019964,0.00000
 715,0.00218623,-0.00038364,-0.00062037,0.00211999,0.03013558,-0.007545
 60,-0.05443930,-0.03841141,0.00051893,-0.00861922,-0.02654175,0.010504
 48,0.00410391,0.00102960,-0.00341958,-0.00000792,0.00000706,0.00000342
 ,-0.00000553,-0.00000083,-0.00000551,-0.00000355,-0.00001221,-0.000000
 66,-0.00001481,0.00001573,-0.00000215,0.00001730,0.00003684,-0.0000128
 4,-0.00009775,-0.00035947,0.00010420,-0.00002432,0.00003759,0.00006509
 ,0.00001472,-0.00001039,-0.00000662,0.00007196,0.00035435,-0.00020868,
 -0.00494108,0.00280910,-0.00135867,0.05770089,-0.00001276,-0.00000057,
 -0.00001476,0.00003799,-0.00000272,-0.00000675,0.00012519,0.00003780,-
 0.00016397,0.00003961,-0.00008003,0.00004410,0.00015959,-0.00000062,-0
 .00009862,-0.00048284,0.00122520,-0.00048099,0.00051815,-0.01160826,0.
 00571495,-0.03431125,-0.30633600,0.01709023,-0.00178894,-0.00522883,0.
 00535709,0.00133850,0.00334108,-0.00296720,0.00000547,-0.00000768,-0.0
 0000308,0.00000507,0.00000131,0.00000669,0.00000085,0.00000866,0.00000
 044,0.00001646,-0.00002214,0.00000365,-0.00001361,-0.00002260,0.000009
 60,-0.00005628,0.00022437,0.00006375,0.00014960,-0.00008067,-0.0001055
 8,0.00001047,0.00003118,-0.00004524,0.00014077,-0.00002757,-0.00021279
 ,0.00211092,-0.00009183,0.00005832,0.03502985,0.33021604,0.00000663,0.
 00000111,0.00001827,-0.00002258,0.00002375,-0.00000303,0.00004395,0.00
 003229,0.00017693,-0.00035038,-0.00008752,-0.00025223,0.00044280,0.000
 04463,-0.00001023,0.00078352,-0.00041650,0.00044285,0.00104491,0.01915
 300,-0.00420476,-0.00059523,0.01245485,-0.04211186,0.01152598,0.020428
 31,-0.01157546,-0.00559549,-0.00029072,0.00286840,-0.00000858,0.000007
 45,0.00000191,-0.00000356,0.00000085,-0.00000477,-0.00000055,-0.000007
 41,-0.00000544,-0.00001230,0.00000889,0.00000224,0.00004450,0.00000400
 ,-0.00000766,0.00001751,-0.00011167,-0.00004561,0.00017459,-0.00010172
 ,-0.00007952,-0.00003987,0.00000619,-0.00005717,0.00012071,-0.00002136
 ,0.00000831,-0.00238262,0.00221796,-0.00030707,0.00115228,-0.02583816,
 0.05131234,-0.00002349,0.00011707,-0.00002376,0.00009319,0.00004357,0.
 00014912,0.00024655,0.00031656,0.00059566,-0.00166830,-0.00074797,-0.0
 0283589,0.00026743,-0.00063487,0.00091617,0.00420058,0.00058399,0.0005
 7067,-0.01603137,-0.00199414,-0.03465503,-0.04708212,-0.01705322,-0.02
 475065,-0.00170106,0.00616152,0.01899309,-0.00124019,0.00092850,0.0016
 0683,-0.00000508,0.00000176,-0.00000389,0.00003235,-0.00002153,0.00003
 405,-0.00001198,-0.00001609,-0.00000155,-0.00003818,0.00001802,0.00000
 426,0.00032037,-0.00011925,0.00007226,0.00003162,-0.00002772,0.0002425
 3,-0.00051016,-0.00004393,0.00025215,0.00059191,0.00030358,0.00024714,
 0.00007372,-0.00031331,0.00049796,0.00053559,-0.00092807,0.00124677,0.
 00211849,-0.00302280,-0.00634620,0.05980012,0.00002146,-0.00005931,0.0
 0002035,-0.00004049,-0.00003103,-0.00007334,-0.00012820,-0.00030578,-0
 .00025808,0.00066984,0.00068115,0.00166433,0.00008473,-0.00060688,-0.0
 0076051,-0.00120808,-0.00044416,-0.00023144,0.00859229,0.00804047,0.01
 579370,-0.02040708,-0.09258799,-0.08728968,0.00100960,-0.00113501,0.00
 072039,-0.00029119,0.00279731,0.00128246,-0.00000508,0.00000643,0.0000
 0823,-0.00001985,0.00001099,-0.00002211,0.00000651,-0.00000322,0.00000
 116,-0.00000189,0.00000326,-0.00000953,-0.00014932,0.00008722,-0.00004
 314,-0.00001904,-0.00012252,-0.00003071,-0.00075088,0.00027594,0.00018
 775,0.00010999,-0.00027108,-0.00014180,0.00002742,0.00001007,-0.000235
 15,-0.00022869,0.00165938,0.00063502,-0.00372035,-0.01157612,-0.027508
 21,0.01644832,0.09357088,-0.00000491,-0.00005314,0.00006936,-0.0001236
 3,0.00008245,0.00001522,0.00028276,0.00006833,0.00005759,-0.00084186,-
 0.00032894,0.00142533,0.00125119,-0.00047231,-0.00178658,0.00194605,0.
 00134669,0.00080659,-0.01293232,-0.00120453,-0.01646506,-0.03850569,-0
 .09336787,-0.23622189,0.00739865,-0.00399690,-0.01639391,-0.00179537,0
 .00043333,0.00008114,-0.00002326,0.00002542,0.00000654,-0.00001558,0.0
 0001562,-0.00002793,0.00000594,-0.00001861,-0.00001137,-0.00006678,0.0
 0003168,-0.00001536,0.00001228,0.00000498,-0.00000790,-0.00005882,0.00
 006013,-0.00010053,0.00005841,-0.00001162,-0.00000592,0.00023161,-0.00
 025458,-0.00022837,-0.00003310,0.00009919,0.00003483,-0.00030148,-0.00
 033793,0.00081554,0.00032761,0.00158831,0.00383356,0.04318829,0.096290
 30,0.26411912\\-0.00000444,0.00000211,0.00000288,0.00000169,-0.0000089
 2,-0.00001036,0.00002982,0.00001393,0.00000410,-0.00006345,-0.00004328
 ,-0.00004416,0.00003486,0.00000338,0.00003003,-0.00001551,0.00001743,0
 .00003724,0.00001654,0.00000123,-0.00002011,0.00004254,0.00000264,0.00
 000991,-0.00002750,-0.00000379,0.00000428,0.00000291,-0.00000204,0.000
 00223,-0.00000242,-0.00000318,-0.00000271,0.00000117,-0.00000176,-0.00
 000387,-0.00000122,0.00000344,-0.00000057,0.00000236,0.00000703,0.0000
 0545,-0.00000045,0.00000301,-0.00000176,0.00001214,0.00000910,0.000000
 11,-0.00000358,-0.00000005,-0.00000214,-0.00000425,-0.00000132,-0.0000
 0504,-0.00000126,0.00000061,-0.00000082,-0.00000859,0.00000602,-0.0000
 0087,-0.00000469,-0.00000178,-0.00000023,-0.00000668,-0.00000381,-0.00
 000358\\\@


 THE ONLY DIFFERENCE BETWEEN ECCENTRICS AND JOGGERS
 IS THAT JOGGERS WEAR SWEATBANDS WHEN THEY RUN IN THE RAIN.
 Job cpu time:       0 days  2 hours 29 minutes  9.4 seconds.
 Elapsed time:       0 days  0 hours 37 minutes 39.8 seconds.
 File lengths (MBytes):  RWF=    201 Int=      0 D2E=      0 Chk=     10 Scr=      1
 Normal termination of Gaussian 16 at Tue Jun  1 04:32:37 2021.
### All Done ###
