### Starting Gaussian ###
 Entering Gaussian System, Link 0=g16
 Initial command:
 /cluster/software/gaussian/gaussian-16-A.03/avx2/g16/l1.exe "/local/scratch/linjian/Gau-15252.inp" -scrdir="/local/scratch/linjian/"
 Entering Link 1 = /cluster/software/gaussian/gaussian-16-A.03/avx2/g16/l1.exe PID=     15253.
  
 Copyright (c) 1988,1990,1992,1993,1995,1998,2003,2009,2016,
            Gaussian, Inc.  All Rights Reserved.
  
 This is part of the Gaussian(R) 16 program.  It is based on
 the Gaussian(R) 09 system (copyright 2009, Gaussian, Inc.),
 the Gaussian(R) 03 system (copyright 2003, Gaussian, Inc.),
 the Gaussian(R) 98 system (copyright 1998, Gaussian, Inc.),
 the Gaussian(R) 94 system (copyright 1995, Gaussian, Inc.),
 the Gaussian 92(TM) system (copyright 1992, Gaussian, Inc.),
 the Gaussian 90(TM) system (copyright 1990, Gaussian, Inc.),
 the Gaussian 88(TM) system (copyright 1988, Gaussian, Inc.),
 the Gaussian 86(TM) system (copyright 1986, Carnegie Mellon
 University), and the Gaussian 82(TM) system (copyright 1983,
 Carnegie Mellon University). Gaussian is a federally registered
 trademark of Gaussian, Inc.
  
 This software contains proprietary and confidential information,
 including trade secrets, belonging to Gaussian, Inc.
  
 This software is provided under written license and may be
 used, copied, transmitted, or stored only in accord with that
 written license.
  
 The following legend is applicable only to US Government
 contracts under FAR:
  
                    RESTRICTED RIGHTS LEGEND
  
 Use, reproduction and disclosure by the US Government is
 subject to restrictions as set forth in subparagraphs (a)
 and (c) of the Commercial Computer Software - Restricted
 Rights clause in FAR 52.227-19.
  
 Gaussian, Inc.
 340 Quinnipiac St., Bldg. 40, Wallingford CT 06492
  
  
 ---------------------------------------------------------------
 Warning -- This program may not be used in any manner that
 competes with the business of Gaussian, Inc. or will provide
 assistance to any competitor of Gaussian, Inc.  The licensee
 of this program is prohibited from giving any competitor of
 Gaussian, Inc. access to this program.  By using this program,
 the user acknowledges that Gaussian, Inc. is engaged in the
 business of creating and licensing software in the field of
 computational chemistry and represents and warrants to the
 licensee that it is not a competitor of Gaussian, Inc. and that
 it will not use this program in any manner prohibited above.
 ---------------------------------------------------------------
  

 Cite this work as:
 Gaussian 16, Revision A.03,
 M. J. Frisch, G. W. Trucks, H. B. Schlegel, G. E. Scuseria, 
 M. A. Robb, J. R. Cheeseman, G. Scalmani, V. Barone, 
 G. A. Petersson, H. Nakatsuji, X. Li, M. Caricato, A. V. Marenich, 
 J. Bloino, B. G. Janesko, R. Gomperts, B. Mennucci, H. P. Hratchian, 
 J. V. Ortiz, A. F. Izmaylov, J. L. Sonnenberg, D. Williams-Young, 
 F. Ding, F. Lipparini, F. Egidi, J. Goings, B. Peng, A. Petrone, 
 T. Henderson, D. Ranasinghe, V. G. Zakrzewski, J. Gao, N. Rega, 
 G. Zheng, W. Liang, M. Hada, M. Ehara, K. Toyota, R. Fukuda, 
 J. Hasegawa, M. Ishida, T. Nakajima, Y. Honda, O. Kitao, H. Nakai, 
 T. Vreven, K. Throssell, J. A. Montgomery, Jr., J. E. Peralta, 
 F. Ogliaro, M. J. Bearpark, J. J. Heyd, E. N. Brothers, K. N. Kudin, 
 V. N. Staroverov, T. A. Keith, R. Kobayashi, J. Normand, 
 K. Raghavachari, A. P. Rendell, J. C. Burant, S. S. Iyengar, 
 J. Tomasi, M. Cossi, J. M. Millam, M. Klene, C. Adamo, R. Cammi, 
 J. W. Ochterski, R. L. Martin, K. Morokuma, O. Farkas, 
 J. B. Foresman, and D. J. Fox, Gaussian, Inc., Wallingford CT, 2016.
 
 ******************************************
 Gaussian 16:  ES64L-G16RevA.03 25-Dec-2016
                31-May-2021 
 ******************************************
 %chk=CNNCCpdNpCNCdCdN.chk
 %NProcShared=20
 Will use up to   20 processors via shared memory.
 -----------------------------
 # opt freq b3lyp/6-31g(2df,p)
 -----------------------------
 1/18=20,19=15,26=3,38=1/1,3;
 2/9=110,12=2,17=6,18=5,40=1/2;
 3/5=1,6=6,7=104,11=2,25=1,30=1,71=1,74=-5/1,2,3;
 4//1;
 5/5=2,38=5/2;
 6/7=2,8=2,9=2,10=2,28=1/1;
 7//1,2,3,16;
 1/18=20,19=15,26=3/3(2);
 2/9=110/2;
 99//99;
 2/9=110/2;
 3/5=1,6=6,7=104,11=2,25=1,30=1,71=1,74=-5/1,2,3;
 4/5=5,16=3,69=1/1;
 5/5=2,38=5/2;
 7//1,2,3,16;
 1/18=20,19=15,26=3/3(-5);
 2/9=110/2;
 6/7=2,8=2,9=2,10=2,19=2,28=1/1;
 99/9=1/99;
 -------------------
 Title Card Required
 -------------------
 Symbolic Z-matrix:
 Charge =  0 Multiplicity = 1
 C                     0.94804   0.02984  -0.07238 
 N                     2.41406   0.02035  -0.07704 
 N                     2.87508   1.21502   0.6189 
 C                     4.35356   1.23716   0.62107 
 C                     4.84438   2.50248   1.34227 
 N                     4.02454   3.38497   1.84371 
 C                     6.36102   2.70671   1.46031 
 N                     6.66693   3.9398    2.17697 
 C                     7.90876   4.44287   2.46796 
 C                     8.09953   5.5718    3.08733 
 N                     8.27305   6.60859   3.61449 
 H                     0.57266  -0.86511  -0.57823 
 H                     0.55488   0.90735  -0.59743 
 H                     0.55551   0.02065   0.95042 
 H                     2.71803   0.01641  -1.05677 
 H                     2.56598   1.17068   1.59715 
 H                     4.74226   1.24401  -0.40396 
 H                     4.74754   0.35649   1.14199 
 H                     3.05891   3.10466   1.62273 
 H                     6.78197   2.73928   0.44942 
 H                     6.78303   1.84911   1.99329 
 H                     5.84393   4.48399   2.45836 
 H                     8.74886   3.8574    2.11176 
 H                     9.01688   6.58468   4.32119 
 

 GradGradGradGradGradGradGradGradGradGradGradGradGradGradGradGradGradGrad
 Berny optimization.
 Initialization pass.
                           ----------------------------
                           !    Initial Parameters    !
                           ! (Angstroms and Degrees)  !
 --------------------------                            --------------------------
 ! Name  Definition              Value          Derivative Info.                !
 --------------------------------------------------------------------------------
 ! R1    R(1,2)                  1.4661         estimate D2E/DX2                !
 ! R2    R(1,12)                 1.0944         estimate D2E/DX2                !
 ! R3    R(1,13)                 1.0956         estimate D2E/DX2                !
 ! R4    R(1,14)                 1.0956         estimate D2E/DX2                !
 ! R5    R(2,3)                  1.4574         estimate D2E/DX2                !
 ! R6    R(2,15)                 1.0258         estimate D2E/DX2                !
 ! R7    R(3,4)                  1.4786         estimate D2E/DX2                !
 ! R8    R(3,16)                 1.0269         estimate D2E/DX2                !
 ! R9    R(4,5)                  1.5369         estimate D2E/DX2                !
 ! R10   R(4,17)                 1.0963         estimate D2E/DX2                !
 ! R11   R(4,18)                 1.0964         estimate D2E/DX2                !
 ! R12   R(5,6)                  1.3047         estimate D2E/DX2                !
 ! R13   R(5,7)                  1.5349         estimate D2E/DX2                !
 ! R14   R(6,19)                 1.0295         estimate D2E/DX2                !
 ! R15   R(7,8)                  1.4587         estimate D2E/DX2                !
 ! R16   R(7,20)                 1.0955         estimate D2E/DX2                !
 ! R17   R(7,21)                 1.0944         estimate D2E/DX2                !
 ! R18   R(8,9)                  1.3711         estimate D2E/DX2                !
 ! R19   R(8,22)                 1.026          estimate D2E/DX2                !
 ! R20   R(9,10)                 1.3017         estimate D2E/DX2                !
 ! R21   R(9,23)                 1.0842         estimate D2E/DX2                !
 ! R22   R(10,11)                1.176          estimate D2E/DX2                !
 ! R23   R(11,24)                1.0263         estimate D2E/DX2                !
 ! A1    A(2,1,12)             109.6471         estimate D2E/DX2                !
 ! A2    A(2,1,13)             111.2547         estimate D2E/DX2                !
 ! A3    A(2,1,14)             111.1733         estimate D2E/DX2                !
 ! A4    A(12,1,13)            108.0821         estimate D2E/DX2                !
 ! A5    A(12,1,14)            107.5633         estimate D2E/DX2                !
 ! A6    A(13,1,14)            108.9993         estimate D2E/DX2                !
 ! A7    A(1,2,3)              108.0286         estimate D2E/DX2                !
 ! A8    A(1,2,15)             107.4201         estimate D2E/DX2                !
 ! A9    A(3,2,15)             111.4369         estimate D2E/DX2                !
 ! A10   A(2,3,4)              109.224          estimate D2E/DX2                !
 ! A11   A(2,3,16)             108.9224         estimate D2E/DX2                !
 ! A12   A(4,3,16)             107.471          estimate D2E/DX2                !
 ! A13   A(3,4,5)              109.4107         estimate D2E/DX2                !
 ! A14   A(3,4,17)             110.6859         estimate D2E/DX2                !
 ! A15   A(3,4,18)             110.3626         estimate D2E/DX2                !
 ! A16   A(5,4,17)             108.6861         estimate D2E/DX2                !
 ! A17   A(5,4,18)             108.8797         estimate D2E/DX2                !
 ! A18   A(17,4,18)            108.7744         estimate D2E/DX2                !
 ! A19   A(4,5,6)              122.4474         estimate D2E/DX2                !
 ! A20   A(4,5,7)              117.4644         estimate D2E/DX2                !
 ! A21   A(6,5,7)              120.0882         estimate D2E/DX2                !
 ! A22   A(5,6,19)             108.8274         estimate D2E/DX2                !
 ! A23   A(5,7,8)              110.9465         estimate D2E/DX2                !
 ! A24   A(5,7,20)             108.2205         estimate D2E/DX2                !
 ! A25   A(5,7,21)             108.3138         estimate D2E/DX2                !
 ! A26   A(8,7,20)             110.3432         estimate D2E/DX2                !
 ! A27   A(8,7,21)             110.0178         estimate D2E/DX2                !
 ! A28   A(20,7,21)            108.9367         estimate D2E/DX2                !
 ! A29   A(7,8,9)              127.1851         estimate D2E/DX2                !
 ! A30   A(7,8,22)             114.5133         estimate D2E/DX2                !
 ! A31   A(9,8,22)             118.2753         estimate D2E/DX2                !
 ! A32   A(8,9,10)             123.499          estimate D2E/DX2                !
 ! A33   A(8,9,23)             115.7191         estimate D2E/DX2                !
 ! A34   A(10,9,23)            120.737          estimate D2E/DX2                !
 ! A35   A(10,11,24)           113.2709         estimate D2E/DX2                !
 ! A36   L(9,10,11,22,-1)      180.0163         estimate D2E/DX2                !
 ! A37   L(9,10,11,22,-2)      182.2461         estimate D2E/DX2                !
 ! D1    D(12,1,2,3)          -179.2549         estimate D2E/DX2                !
 ! D2    D(12,1,2,15)           60.4175         estimate D2E/DX2                !
 ! D3    D(13,1,2,3)            61.2407         estimate D2E/DX2                !
 ! D4    D(13,1,2,15)          -59.0869         estimate D2E/DX2                !
 ! D5    D(14,1,2,3)           -60.4458         estimate D2E/DX2                !
 ! D6    D(14,1,2,15)          179.2266         estimate D2E/DX2                !
 ! D7    D(1,2,3,4)           -179.5888         estimate D2E/DX2                !
 ! D8    D(1,2,3,16)            63.3039         estimate D2E/DX2                !
 ! D9    D(15,2,3,4)           -61.8123         estimate D2E/DX2                !
 ! D10   D(15,2,3,16)         -178.9196         estimate D2E/DX2                !
 ! D11   D(2,3,4,5)            179.4584         estimate D2E/DX2                !
 ! D12   D(2,3,4,17)            59.7129         estimate D2E/DX2                !
 ! D13   D(2,3,4,18)           -60.7576         estimate D2E/DX2                !
 ! D14   D(16,3,4,5)           -62.5203         estimate D2E/DX2                !
 ! D15   D(16,3,4,17)          177.7342         estimate D2E/DX2                !
 ! D16   D(16,3,4,18)           57.2637         estimate D2E/DX2                !
 ! D17   D(3,4,5,6)             -0.4433         estimate D2E/DX2                !
 ! D18   D(3,4,5,7)            179.5673         estimate D2E/DX2                !
 ! D19   D(17,4,5,6)           120.5239         estimate D2E/DX2                !
 ! D20   D(17,4,5,7)           -59.4655         estimate D2E/DX2                !
 ! D21   D(18,4,5,6)          -121.1344         estimate D2E/DX2                !
 ! D22   D(18,4,5,7)            58.8763         estimate D2E/DX2                !
 ! D23   D(4,5,6,19)            -3.0705         estimate D2E/DX2                !
 ! D24   D(7,5,6,19)           176.9186         estimate D2E/DX2                !
 ! D25   D(4,5,7,8)           -179.4874         estimate D2E/DX2                !
 ! D26   D(4,5,7,20)            59.3212         estimate D2E/DX2                !
 ! D27   D(4,5,7,21)           -58.6376         estimate D2E/DX2                !
 ! D28   D(6,5,7,8)              0.523          estimate D2E/DX2                !
 ! D29   D(6,5,7,20)          -120.6684         estimate D2E/DX2                !
 ! D30   D(6,5,7,21)           121.3728         estimate D2E/DX2                !
 ! D31   D(5,7,8,9)           -179.9597         estimate D2E/DX2                !
 ! D32   D(5,7,8,22)            -1.8743         estimate D2E/DX2                !
 ! D33   D(20,7,8,9)           -60.0259         estimate D2E/DX2                !
 ! D34   D(20,7,8,22)          118.0594         estimate D2E/DX2                !
 ! D35   D(21,7,8,9)            60.2023         estimate D2E/DX2                !
 ! D36   D(21,7,8,22)         -121.7123         estimate D2E/DX2                !
 ! D37   D(7,8,9,10)           178.3177         estimate D2E/DX2                !
 ! D38   D(7,8,9,23)             0.7457         estimate D2E/DX2                !
 ! D39   D(22,8,9,10)            0.2958         estimate D2E/DX2                !
 ! D40   D(22,8,9,23)         -177.2762         estimate D2E/DX2                !
 ! D41   D(8,9,11,24)          138.4449         estimate D2E/DX2                !
 ! D42   D(23,9,11,24)         -45.1604         estimate D2E/DX2                !
 --------------------------------------------------------------------------------
 Trust Radius=3.00D-01 FncErr=1.00D-07 GrdErr=1.00D-06 EigMax=2.50D+02 EigMin=1.00D-04
 Number of steps in this run=    112 maximum allowed number of steps=    144.
 GradGradGradGradGradGradGradGradGradGradGradGradGradGradGradGradGradGrad

                          Input orientation:                          
 ---------------------------------------------------------------------
 Center     Atomic      Atomic             Coordinates (Angstroms)
 Number     Number       Type             X           Y           Z
 ---------------------------------------------------------------------
      1          6           0        0.948040    0.029840   -0.072380
      2          7           0        2.414060    0.020350   -0.077040
      3          7           0        2.875080    1.215020    0.618900
      4          6           0        4.353560    1.237160    0.621070
      5          6           0        4.844380    2.502480    1.342270
      6          7           0        4.024540    3.384970    1.843710
      7          6           0        6.361020    2.706710    1.460310
      8          7           0        6.666930    3.939800    2.176970
      9          6           0        7.908760    4.442870    2.467960
     10          6           0        8.099530    5.571800    3.087330
     11          7           0        8.273050    6.608590    3.614490
     12          1           0        0.572660   -0.865110   -0.578230
     13          1           0        0.554880    0.907350   -0.597430
     14          1           0        0.555510    0.020650    0.950420
     15          1           0        2.718030    0.016410   -1.056770
     16          1           0        2.565980    1.170680    1.597150
     17          1           0        4.742260    1.244010   -0.403960
     18          1           0        4.747540    0.356490    1.141990
     19          1           0        3.058910    3.104660    1.622730
     20          1           0        6.781970    2.739280    0.449420
     21          1           0        6.783030    1.849110    1.993290
     22          1           0        5.843930    4.483990    2.458360
     23          1           0        8.748860    3.857400    2.111760
     24          1           0        9.016880    6.584680    4.321190
 ---------------------------------------------------------------------
                    Distance matrix (angstroms):
                    1          2          3          4          5
     1  C    0.000000
     2  N    1.466058   0.000000
     3  N    2.365587   1.457432   0.000000
     4  C    3.679139   2.393668   1.478647   0.000000
     5  C    4.826660   3.752581   2.461495   1.536902   0.000000
     6  N    4.938942   4.195664   2.744103   2.493229   1.304748
     7  C    6.230178   5.015822   3.883927   2.625604   1.534875
     8  N    7.283754   6.207218   4.922411   3.882881   2.466638
     9  C    8.624372   7.498496   6.259071   5.130987   3.797725
    10  C    9.583366   8.553152   7.236681   6.237294   4.802287
    11  N   10.513265   9.558246   8.197697   7.292134   5.811962
    12  H    1.094408   2.103802   3.325838   4.489216   5.768585
    13  H    1.095571   2.124647   2.637697   4.002935   4.970582
    14  H    1.095575   2.123648   2.629987   4.001694   4.970657
    15  H    2.025356   1.025809   2.066204   2.642033   4.056760
    16  H    2.589706   2.036971   1.026880   2.037791   2.651370
    17  H    3.997532   2.650422   2.129189   1.096276   2.154877
    18  H    4.002199   2.654082   2.125277   1.096429   2.157490
    19  H    4.096790   3.580226   2.147605   2.483344   1.905041
    20  H    6.453532   5.171883   4.197128   2.860595   2.146511
    21  H    6.451654   5.168997   4.190834   2.856535   2.146878
    22  H    7.086172   6.173843   4.783707   4.017305   2.484178
    23  H    8.959547   7.722920   6.611512   5.329773   4.203913
    24  H   11.286078  10.297188   8.958901   8.002088   6.553478
                    6          7          8          9         10
     6  N    0.000000
     7  C    2.462960   0.000000
     8  N    2.720501   1.458662   0.000000
     9  C    4.073820   2.534780   1.371093   0.000000
    10  C    4.788983   3.725366   2.354681   1.301728   0.000000
    11  N    5.619362   4.849847   3.430528   2.477414   1.175985
    12  H    5.987023   7.100609   8.235194   9.553653  10.560488
    13  H    4.912871   6.417418   7.365474   8.716425   9.605014
    14  H    4.914345   6.417075   7.362990   8.713739   9.606971
    15  H    4.633244   5.181195   6.437692   7.678603   8.774763
    16  H    2.662944   4.096394   4.982169   6.325412   7.225695
    17  H    3.186040   2.869735   4.199147   5.339228   6.495393
    18  H    3.191682   2.868480   4.194681   5.333855   6.497664
    19  H    1.029489   3.329966   3.744656   5.101594   5.799973
    20  H    3.156641   1.095517   2.106872   2.871651   4.088729
    21  H    3.160776   1.094366   2.101952   2.867084   4.097379
    22  H    2.212650   2.102905   1.025988   2.065262   2.581989
    23  H    4.755443   2.729515   2.084580   1.084169   2.076664
    24  H    6.426469   5.502443   4.137068   3.041339   1.841159
                   11         12         13         14         15
    11  N    0.000000
    12  H   11.520898   0.000000
    13  H   10.479244   1.772653   0.000000
    14  H   10.490884   1.766815   1.783838   0.000000
    15  H    9.804884   2.368267   2.384111   2.950478   0.000000
    16  H    8.137025   3.584696   2.988318   2.404749   2.898060
    17  H    7.575826   4.675930   4.205344   4.567256   2.455742
    18  H    7.591524   4.677722   4.572464   4.209822   3.011496
    19  H    6.590287   5.175397   4.003430   4.028664   4.102829
    20  H    5.216565   7.252808   6.574839   6.812544   5.118421
    21  H    5.244149   7.249028   6.810917   6.573648   5.402396
    22  H    3.428000   8.100620   7.078436   7.082561   6.487423
    23  H    3.170747   9.817759   9.120516   9.121422   7.820722
    24  H    1.026294  12.280413  11.315049  11.226904  10.570721
                   16         17         18         19         20
    16  H    0.000000
    17  H    2.957366   0.000000
    18  H    2.372610   1.782605   0.000000
    19  H    1.995974   3.225393   3.261138   0.000000
    20  H    4.642452   2.669177   3.208777   3.920629   0.000000
    21  H    4.289604   3.205885   2.663803   3.947504   1.782116
    22  H    4.739690   4.461392   4.468910   3.218255   2.821307
    23  H    6.761013   5.404766   5.404386   5.760321   2.807530
    24  H    8.851322   8.313975   8.192980   7.408754   5.896823
                   21         22         23         24
    21  H    0.000000
    22  H    2.835629   0.000000
    23  H    2.812784   2.991883   0.000000
    24  H    5.730168   4.236820   3.520152   0.000000
 Stoichiometry    C6H13N5
 Framework group  C1[X(C6H13N5)]
 Deg. of freedom    66
 Full point group                 C1      NOp   1
 Largest Abelian subgroup         C1      NOp   1
 Largest concise Abelian subgroup C1      NOp   1
                         Standard orientation:                         
 ---------------------------------------------------------------------
 Center     Atomic      Atomic             Coordinates (Angstroms)
 Number     Number       Type             X           Y           Z
 ---------------------------------------------------------------------
      1          6           0        5.098192   -0.611567   -0.008692
      2          7           0        4.058117    0.421321    0.017975
      3          7           0        2.761407   -0.243923    0.007854
      4          6           0        1.690868    0.775917    0.024317
      5          6           0        0.321214    0.079120    0.000015
      6          7           0        0.196852   -1.219111   -0.038704
      7          6           0       -0.927448    0.971401    0.022768
      8          7           0       -2.143862    0.166534    0.007909
      9          6           0       -3.437747    0.619970    0.020298
     10          6           0       -4.474768   -0.165462   -0.026382
     11          7           0       -5.411400   -0.872202   -0.104993
     12          1           0        6.085621   -0.140080    0.011643
     13          1           0        5.030525   -1.219969   -0.917286
     14          1           0        5.026977   -1.267523    0.865914
     15          1           0        4.185524    1.007000   -0.814509
     16          1           0        2.667450   -0.803357    0.863826
     17          1           0        1.767018    1.431456   -0.851063
     18          1           0        1.761308    1.388371    0.931012
     19          1           0        1.133899   -1.640923   -0.100859
     20          1           0       -0.894872    1.628552   -0.853160
     21          1           0       -0.895234    1.584909    0.928422
     22          1           0       -1.984021   -0.845524   -0.045400
     23          1           0       -3.558650    1.697323    0.031022
     24          1           0       -6.175202   -0.604836    0.526197
 ---------------------------------------------------------------------
 Rotational constants (GHZ):           5.5805272           0.2912521           0.2788502
 Standard basis: 6-31G(2df,p) (6D, 7F)
 There are   406 symmetry adapted cartesian basis functions of A   symmetry.
 There are   373 symmetry adapted basis functions of A   symmetry.
   373 basis functions,   575 primitive gaussians,   406 cartesian basis functions
    42 alpha electrons       42 beta electrons
       nuclear repulsion energy       567.1823323270 Hartrees.
 NAtoms=   24 NActive=   24 NUniq=   24 SFac= 1.00D+00 NAtFMM=   60 NAOKFM=F Big=F
 Integral buffers will be    131072 words long.
 Raffenetti 2 integral format.
 Two-electron integral symmetry is turned on.
 One-electron integrals computed using PRISM.
 PrsmSu:  requested number of processors reduced to:  13 ShMem   1 Linda.
 NBasis=   373 RedAO= T EigKep=  1.38D-04  NBF=   373
 NBsUse=   373 1.00D-06 EigRej= -1.00D+00 NBFU=   373
 ExpMin= 1.61D-01 ExpMax= 4.17D+03 ExpMxC= 6.27D+02 IAcc=3 IRadAn=         5 AccDes= 0.00D+00
 Harris functional with IExCor=  402 and IRadAn=       5 diagonalized for initial guess.
 HarFok:  IExCor=  402 AccDes= 0.00D+00 IRadAn=         5 IDoV= 1 UseB2=F ITyADJ=14
 ICtDFT=  3500011 ScaDFX=  1.000000  1.000000  1.000000  1.000000
 FoFCou: FMM=F IPFlag=           0 FMFlag=      100000 FMFlg1=           0
         NFxFlg=           0 DoJE=T BraDBF=F KetDBF=T FulRan=T
         wScrn=  0.000000 ICntrl=       500 IOpCl=  0 I1Cent=   200000004 NGrid=           0
         NMat0=    1 NMatS0=      1 NMatT0=    0 NMatD0=    1 NMtDS0=    0 NMtDT0=    0
 Petite list used in FoFCou.
 Requested convergence on RMS density matrix=1.00D-08 within 128 cycles.
 Requested convergence on MAX density matrix=1.00D-06.
 Requested convergence on             energy=1.00D-06.
 No special actions if energy rises.
 Integral accuracy reduced to 1.0D-05 until final iterations.
 Initial convergence to 1.0D-05 achieved.  Increase integral accuracy.
 SCF Done:  E(RB3LYP) =  -510.081768071     A.U. after   15 cycles
            NFock= 15  Conv=0.57D-08     -V/T= 2.0074

 **********************************************************************

            Population analysis using the SCF density.

 **********************************************************************

 Orbital symmetries:
       Occupied  (A) (A) (A) (A) (A) (A) (A) (A) (A) (A) (A) (A)
                 (A) (A) (A) (A) (A) (A) (A) (A) (A) (A) (A) (A)
                 (A) (A) (A) (A) (A) (A) (A) (A) (A) (A) (A) (A)
                 (A) (A) (A) (A) (A) (A)
       Virtual   (A) (A) (A) (A) (A) (A) (A) (A) (A) (A) (A) (A)
                 (A) (A) (A) (A) (A) (A) (A) (A) (A) (A) (A) (A)
                 (A) (A) (A) (A) (A) (A) (A) (A) (A) (A) (A) (A)
                 (A) (A) (A) (A) (A) (A) (A) (A) (A) (A) (A) (A)
                 (A) (A) (A) (A) (A) (A) (A) (A) (A) (A) (A) (A)
                 (A) (A) (A) (A) (A) (A) (A) (A) (A) (A) (A) (A)
                 (A) (A) (A) (A) (A) (A) (A) (A) (A) (A) (A) (A)
                 (A) (A) (A) (A) (A) (A) (A) (A) (A) (A) (A) (A)
                 (A) (A) (A) (A) (A) (A) (A) (A) (A) (A) (A) (A)
                 (A) (A) (A) (A) (A) (A) (A) (A) (A) (A) (A) (A)
                 (A) (A) (A) (A) (A) (A) (A) (A) (A) (A) (A) (A)
                 (A) (A) (A) (A) (A) (A) (A) (A) (A) (A) (A) (A)
                 (A) (A) (A) (A) (A) (A) (A) (A) (A) (A) (A) (A)
                 (A) (A) (A) (A) (A) (A) (A) (A) (A) (A) (A) (A)
                 (A) (A) (A) (A) (A) (A) (A) (A) (A) (A) (A) (A)
                 (A) (A) (A) (A) (A) (A) (A) (A) (A) (A) (A) (A)
                 (A) (A) (A) (A) (A) (A) (A) (A) (A) (A) (A) (A)
                 (A) (A) (A) (A) (A) (A) (A) (A) (A) (A) (A) (A)
                 (A) (A) (A) (A) (A) (A) (A) (A) (A) (A) (A) (A)
                 (A) (A) (A) (A) (A) (A) (A) (A) (A) (A) (A) (A)
                 (A) (A) (A) (A) (A) (A) (A) (A) (A) (A) (A) (A)
                 (A) (A) (A) (A) (A) (A) (A) (A) (A) (A) (A) (A)
                 (A) (A) (A) (A) (A) (A) (A) (A) (A) (A) (A) (A)
                 (A) (A) (A) (A) (A) (A) (A) (A) (A) (A) (A) (A)
                 (A) (A) (A) (A) (A) (A) (A) (A) (A) (A) (A) (A)
                 (A) (A) (A) (A) (A) (A) (A) (A) (A) (A) (A) (A)
                 (A) (A) (A) (A) (A) (A) (A) (A) (A) (A) (A) (A)
                 (A) (A) (A) (A) (A) (A) (A)
 The electronic state is 1-A.
 Alpha  occ. eigenvalues --  -14.35657 -14.34988 -14.31848 -14.31717 -14.31296
 Alpha  occ. eigenvalues --  -10.24767 -10.22974 -10.22788 -10.20883 -10.20410
 Alpha  occ. eigenvalues --  -10.19350  -0.97160  -0.92883  -0.91474  -0.88431
 Alpha  occ. eigenvalues --   -0.81341  -0.75145  -0.70310  -0.66259  -0.64938
 Alpha  occ. eigenvalues --   -0.56849  -0.54226  -0.51543  -0.50159  -0.50110
 Alpha  occ. eigenvalues --   -0.48188  -0.46374  -0.44684  -0.43569  -0.41923
 Alpha  occ. eigenvalues --   -0.41569  -0.39753  -0.38700  -0.37056  -0.36822
 Alpha  occ. eigenvalues --   -0.34005  -0.31754  -0.30083  -0.27908  -0.27060
 Alpha  occ. eigenvalues --   -0.19644  -0.13916
 Alpha virt. eigenvalues --   -0.01220  -0.00669   0.06939   0.08185   0.08941
 Alpha virt. eigenvalues --    0.09841   0.11907   0.12785   0.13461   0.14045
 Alpha virt. eigenvalues --    0.14845   0.15903   0.16474   0.17240   0.17573
 Alpha virt. eigenvalues --    0.18302   0.19394   0.21093   0.21568   0.23703
 Alpha virt. eigenvalues --    0.25238   0.28792   0.30582   0.34054   0.36588
 Alpha virt. eigenvalues --    0.39989   0.41460   0.44225   0.46862   0.48106
 Alpha virt. eigenvalues --    0.49301   0.50562   0.51140   0.52379   0.53381
 Alpha virt. eigenvalues --    0.54024   0.54499   0.55631   0.56297   0.56704
 Alpha virt. eigenvalues --    0.58042   0.58883   0.59630   0.62941   0.63569
 Alpha virt. eigenvalues --    0.65322   0.65753   0.67698   0.68430   0.69960
 Alpha virt. eigenvalues --    0.70776   0.71683   0.72156   0.72299   0.73237
 Alpha virt. eigenvalues --    0.73639   0.74348   0.75965   0.76470   0.77633
 Alpha virt. eigenvalues --    0.78334   0.78923   0.79832   0.80336   0.81292
 Alpha virt. eigenvalues --    0.81886   0.83162   0.83543   0.84284   0.84585
 Alpha virt. eigenvalues --    0.85968   0.87381   0.88457   0.90265   0.91179
 Alpha virt. eigenvalues --    0.91533   0.94893   0.96349   0.98695   0.98925
 Alpha virt. eigenvalues --    1.03710   1.06280   1.07548   1.09687   1.10932
 Alpha virt. eigenvalues --    1.11956   1.16622   1.20535   1.22092   1.22656
 Alpha virt. eigenvalues --    1.25904   1.26078   1.27690   1.29325   1.30421
 Alpha virt. eigenvalues --    1.31563   1.32293   1.34478   1.35017   1.36550
 Alpha virt. eigenvalues --    1.38851   1.39066   1.42525   1.44004   1.48649
 Alpha virt. eigenvalues --    1.48812   1.49986   1.51692   1.53453   1.55474
 Alpha virt. eigenvalues --    1.56874   1.58786   1.60370   1.61595   1.64829
 Alpha virt. eigenvalues --    1.67455   1.70484   1.72007   1.74413   1.76414
 Alpha virt. eigenvalues --    1.77258   1.79223   1.80877   1.82530   1.86782
 Alpha virt. eigenvalues --    1.87909   1.90447   1.91228   1.93526   1.94522
 Alpha virt. eigenvalues --    1.96533   2.01932   2.02343   2.06129   2.07767
 Alpha virt. eigenvalues --    2.12298   2.16364   2.17080   2.18989   2.23139
 Alpha virt. eigenvalues --    2.27692   2.28547   2.32627   2.34535   2.35259
 Alpha virt. eigenvalues --    2.38295   2.42055   2.42878   2.43543   2.46313
 Alpha virt. eigenvalues --    2.47446   2.49490   2.52124   2.53801   2.57313
 Alpha virt. eigenvalues --    2.58691   2.62661   2.64833   2.67185   2.68825
 Alpha virt. eigenvalues --    2.71591   2.73631   2.77349   2.78844   2.79625
 Alpha virt. eigenvalues --    2.80500   2.81483   2.83130   2.85066   2.86370
 Alpha virt. eigenvalues --    2.86757   2.87856   2.89286   2.90890   2.92490
 Alpha virt. eigenvalues --    2.92966   2.93873   2.95346   2.98659   2.99283
 Alpha virt. eigenvalues --    3.03179   3.06396   3.09741   3.10784   3.12874
 Alpha virt. eigenvalues --    3.13876   3.15207   3.16105   3.18473   3.19347
 Alpha virt. eigenvalues --    3.24727   3.26004   3.26429   3.27521   3.31282
 Alpha virt. eigenvalues --    3.33527   3.34453   3.37619   3.40382   3.40980
 Alpha virt. eigenvalues --    3.43213   3.43815   3.44941   3.46897   3.48058
 Alpha virt. eigenvalues --    3.51801   3.54833   3.56379   3.59595   3.60269
 Alpha virt. eigenvalues --    3.63131   3.65220   3.66687   3.69359   3.71909
 Alpha virt. eigenvalues --    3.76507   3.78129   3.80180   3.83358   3.84793
 Alpha virt. eigenvalues --    3.86147   3.86217   3.87230   3.91703   3.94056
 Alpha virt. eigenvalues --    3.95977   3.97478   3.99765   4.02405   4.04581
 Alpha virt. eigenvalues --    4.05557   4.08149   4.10704   4.11703   4.14861
 Alpha virt. eigenvalues --    4.16093   4.16406   4.17599   4.17769   4.21058
 Alpha virt. eigenvalues --    4.22212   4.25113   4.26684   4.28494   4.29256
 Alpha virt. eigenvalues --    4.30905   4.32858   4.34723   4.35115   4.37395
 Alpha virt. eigenvalues --    4.37823   4.40396   4.41646   4.42417   4.43265
 Alpha virt. eigenvalues --    4.45931   4.47800   4.48019   4.49577   4.51316
 Alpha virt. eigenvalues --    4.52181   4.54538   4.56401   4.57122   4.57367
 Alpha virt. eigenvalues --    4.58372   4.60018   4.60678   4.61570   4.62024
 Alpha virt. eigenvalues --    4.64509   4.70302   4.70864   4.71610   4.73218
 Alpha virt. eigenvalues --    4.75393   4.76761   4.78202   4.78998   4.81056
 Alpha virt. eigenvalues --    4.83132   4.85654   4.88202   4.89661   4.93639
 Alpha virt. eigenvalues --    4.94348   4.94465   4.95692   4.97454   5.00438
 Alpha virt. eigenvalues --    5.02820   5.05109   5.07301   5.09855   5.12612
 Alpha virt. eigenvalues --    5.13803   5.18093   5.19581   5.24743   5.28041
 Alpha virt. eigenvalues --    5.31780   5.34148   5.41786   5.44485   5.47045
 Alpha virt. eigenvalues --    5.48934   5.55763   5.57443   5.60293   5.64983
 Alpha virt. eigenvalues --    5.71364   5.72988   5.86026   6.00213   6.63173
 Alpha virt. eigenvalues --    8.81985  10.01466  10.52037  10.79654  11.06730
 Alpha virt. eigenvalues --   11.16809  11.38843  11.43926  11.45791  11.51816
 Alpha virt. eigenvalues --   11.60981  11.82418  12.70811  14.17642  15.98988
 Alpha virt. eigenvalues --   19.59597
          Condensed to atoms (all electrons):
               1          2          3          4          5          6
     1  C    4.903191   0.374202  -0.058693   0.004006  -0.000257  -0.000017
     2  N    0.374202   6.477273   0.230274  -0.043482   0.001993   0.000856
     3  N   -0.058693   0.230274   6.562142   0.371046  -0.029272  -0.019984
     4  C    0.004006  -0.043482   0.371046   5.029010   0.378250  -0.069142
     5  C   -0.000257   0.001993  -0.029272   0.378250   4.479220   0.718436
     6  N   -0.000017   0.000856  -0.019984  -0.069142   0.718436   6.509472
     7  C    0.000001  -0.000052   0.001084  -0.090772   0.337634  -0.020087
     8  N   -0.000000   0.000000  -0.000013   0.001632  -0.026220  -0.013661
     9  C    0.000000  -0.000000   0.000000  -0.000074   0.002855   0.000995
    10  C    0.000000  -0.000000  -0.000000  -0.000000  -0.000116  -0.000075
    11  N   -0.000000  -0.000000  -0.000000  -0.000000  -0.000000   0.000001
    12  H    0.378364  -0.022419   0.003277  -0.000278   0.000001   0.000000
    13  H    0.367088  -0.046602   0.016079   0.000392   0.000075  -0.000034
    14  H    0.380796  -0.024095  -0.006297   0.000167  -0.000014   0.000002
    15  H   -0.046007   0.339630  -0.042298  -0.004147  -0.000197   0.000008
    16  H   -0.004138  -0.024156   0.312708  -0.050999   0.003602   0.006903
    17  H    0.000093  -0.002180  -0.021729   0.344697  -0.011951   0.001062
    18  H    0.000319   0.008165  -0.038786   0.345954  -0.024156   0.001311
    19  H    0.000157  -0.001397   0.037683  -0.028514  -0.085166   0.328407
    20  H    0.000000   0.000003   0.000050   0.000150  -0.013602  -0.001987
    21  H    0.000000   0.000002   0.000016   0.000717  -0.014036  -0.001092
    22  H   -0.000000  -0.000000   0.000005   0.001274   0.005578   0.028684
    23  H    0.000000   0.000000   0.000000  -0.000001   0.000207  -0.000018
    24  H   -0.000000  -0.000000  -0.000000   0.000000  -0.000000   0.000000
               7          8          9         10         11         12
     1  C    0.000001  -0.000000   0.000000   0.000000  -0.000000   0.378364
     2  N   -0.000052   0.000000  -0.000000  -0.000000  -0.000000  -0.022419
     3  N    0.001084  -0.000013   0.000000  -0.000000  -0.000000   0.003277
     4  C   -0.090772   0.001632  -0.000074  -0.000000  -0.000000  -0.000278
     5  C    0.337634  -0.026220   0.002855  -0.000116  -0.000000   0.000001
     6  N   -0.020087  -0.013661   0.000995  -0.000075   0.000001   0.000000
     7  C    5.005580   0.416527  -0.060161   0.002991   0.000042  -0.000000
     8  N    0.416527   6.378610   0.364670  -0.032864  -0.005576   0.000000
     9  C   -0.060161   0.364670   4.906863   0.637301  -0.018516  -0.000000
    10  C    0.002991  -0.032864   0.637301   4.575254   0.693197   0.000000
    11  N    0.000042  -0.005576  -0.018516   0.693197   6.460897   0.000000
    12  H   -0.000000   0.000000  -0.000000   0.000000   0.000000   0.581538
    13  H    0.000000   0.000000   0.000000   0.000000   0.000000  -0.034814
    14  H   -0.000000  -0.000000  -0.000000  -0.000000  -0.000000  -0.028795
    15  H   -0.000005   0.000000  -0.000000  -0.000000  -0.000000  -0.000696
    16  H   -0.000122   0.000001  -0.000000  -0.000000  -0.000000  -0.000266
    17  H   -0.000932  -0.000025  -0.000001  -0.000000  -0.000000  -0.000002
    18  H    0.002142   0.000003   0.000006   0.000000   0.000000   0.000022
    19  H    0.010767   0.000201  -0.000015   0.000001  -0.000000  -0.000000
    20  H    0.334570  -0.042556   0.002855   0.001052   0.000014   0.000000
    21  H    0.335334  -0.032416   0.000092  -0.000737  -0.000019   0.000000
    22  H   -0.068296   0.348473  -0.032391  -0.003012   0.000238   0.000000
    23  H   -0.005725  -0.036483   0.361444  -0.031198  -0.001155   0.000000
    24  H    0.000004   0.000114  -0.011904  -0.125254   0.358503   0.000000
              13         14         15         16         17         18
     1  C    0.367088   0.380796  -0.046007  -0.004138   0.000093   0.000319
     2  N   -0.046602  -0.024095   0.339630  -0.024156  -0.002180   0.008165
     3  N    0.016079  -0.006297  -0.042298   0.312708  -0.021729  -0.038786
     4  C    0.000392   0.000167  -0.004147  -0.050999   0.344697   0.345954
     5  C    0.000075  -0.000014  -0.000197   0.003602  -0.011951  -0.024156
     6  N   -0.000034   0.000002   0.000008   0.006903   0.001062   0.001311
     7  C    0.000000  -0.000000  -0.000005  -0.000122  -0.000932   0.002142
     8  N    0.000000  -0.000000   0.000000   0.000001  -0.000025   0.000003
     9  C    0.000000  -0.000000  -0.000000  -0.000000  -0.000001   0.000006
    10  C    0.000000  -0.000000  -0.000000  -0.000000  -0.000000   0.000000
    11  N    0.000000  -0.000000  -0.000000  -0.000000  -0.000000   0.000000
    12  H   -0.034814  -0.028795  -0.000696  -0.000266  -0.000002   0.000022
    13  H    0.640114  -0.043957  -0.008225  -0.001780  -0.000092   0.000089
    14  H   -0.043957   0.587398   0.005769   0.006041   0.000016  -0.000076
    15  H   -0.008225   0.005769   0.510510   0.005729   0.005223  -0.001311
    16  H   -0.001780   0.006041   0.005729   0.517667   0.006669  -0.011094
    17  H   -0.000092   0.000016   0.005223   0.006669   0.599005  -0.047186
    18  H    0.000089  -0.000076  -0.001311  -0.011094  -0.047186   0.641537
    19  H    0.000324  -0.000103  -0.000105  -0.006161  -0.000398   0.002438
    20  H    0.000000  -0.000000  -0.000002   0.000009   0.001798  -0.000173
    21  H   -0.000000   0.000000   0.000001  -0.000027  -0.000372   0.002447
    22  H    0.000000   0.000000  -0.000000  -0.000006  -0.000030  -0.000022
    23  H   -0.000000   0.000000  -0.000000   0.000000   0.000000   0.000000
    24  H    0.000000   0.000000  -0.000000  -0.000000  -0.000000   0.000000
              19         20         21         22         23         24
     1  C    0.000157   0.000000   0.000000  -0.000000   0.000000  -0.000000
     2  N   -0.001397   0.000003   0.000002  -0.000000   0.000000  -0.000000
     3  N    0.037683   0.000050   0.000016   0.000005   0.000000  -0.000000
     4  C   -0.028514   0.000150   0.000717   0.001274  -0.000001   0.000000
     5  C   -0.085166  -0.013602  -0.014036   0.005578   0.000207  -0.000000
     6  N    0.328407  -0.001987  -0.001092   0.028684  -0.000018   0.000000
     7  C    0.010767   0.334570   0.335334  -0.068296  -0.005725   0.000004
     8  N    0.000201  -0.042556  -0.032416   0.348473  -0.036483   0.000114
     9  C   -0.000015   0.002855   0.000092  -0.032391   0.361444  -0.011904
    10  C    0.000001   0.001052  -0.000737  -0.003012  -0.031198  -0.125254
    11  N   -0.000000   0.000014  -0.000019   0.000238  -0.001155   0.358503
    12  H   -0.000000   0.000000   0.000000   0.000000   0.000000   0.000000
    13  H    0.000324   0.000000  -0.000000   0.000000  -0.000000   0.000000
    14  H   -0.000103  -0.000000   0.000000   0.000000   0.000000   0.000000
    15  H   -0.000105  -0.000002   0.000001  -0.000000  -0.000000  -0.000000
    16  H   -0.006161   0.000009  -0.000027  -0.000006   0.000000  -0.000000
    17  H   -0.000398   0.001798  -0.000372  -0.000030   0.000000  -0.000000
    18  H    0.002438  -0.000173   0.002447  -0.000022   0.000000   0.000000
    19  H    0.516123  -0.000229  -0.000213  -0.001412   0.000000   0.000000
    20  H   -0.000229   0.660060  -0.063342   0.004181   0.004019   0.000002
    21  H   -0.000213  -0.063342   0.656739   0.003628  -0.000200  -0.000003
    22  H   -0.001412   0.004181   0.003628   0.450932   0.005013   0.000007
    23  H    0.000000   0.004019  -0.000200   0.005013   0.594243   0.000129
    24  H    0.000000   0.000002  -0.000003   0.000007   0.000129   0.531992
 Mulliken charges:
               1
     1  C   -0.299105
     2  N   -0.268013
     3  N   -0.317292
     4  C   -0.189885
     5  C    0.277136
     6  N   -0.470040
     7  C   -0.200523
     8  N   -0.320416
     9  C   -0.154019
    10  C    0.283460
    11  N   -0.487625
    12  H    0.124068
    13  H    0.111343
    14  H    0.123149
    15  H    0.236125
    16  H    0.239418
    17  H    0.126336
    18  H    0.118371
    19  H    0.227612
    20  H    0.113130
    21  H    0.113481
    22  H    0.257155
    23  H    0.109724
    24  H    0.246410
 Sum of Mulliken charges =  -0.00000
 Mulliken charges with hydrogens summed into heavy atoms:
               1
     1  C    0.059454
     2  N   -0.031889
     3  N   -0.077874
     4  C    0.054822
     5  C    0.277136
     6  N   -0.242428
     7  C    0.026088
     8  N   -0.063261
     9  C   -0.044295
    10  C    0.283460
    11  N   -0.241215
 Electronic spatial extent (au):  <R**2>=           3755.2011
 Charge=              0.0000 electrons
 Dipole moment (field-independent basis, Debye):
    X=              3.3299    Y=              2.5063    Z=              0.9548  Tot=              4.2757
 Quadrupole moment (field-independent basis, Debye-Ang):
   XX=            -62.6620   YY=            -65.8001   ZZ=            -67.0387
   XY=             -7.7464   XZ=             -8.4315   YZ=             -3.8513
 Traceless Quadrupole moment (field-independent basis, Debye-Ang):
   XX=              2.5049   YY=             -0.6331   ZZ=             -1.8718
   XY=             -7.7464   XZ=             -8.4315   YZ=             -3.8513
 Octapole moment (field-independent basis, Debye-Ang**2):
  XXX=             43.4347  YYY=              4.1528  ZZZ=              0.8620  XYY=              9.2050
  XXY=             22.8351  XXZ=             27.2154  XZZ=             11.2701  YZZ=              0.5234
  YYZ=              0.3025  XYZ=             -5.5631
 Hexadecapole moment (field-independent basis, Debye-Ang**3):
 XXXX=          -4108.4202 YYYY=           -308.9261 ZZZZ=            -91.3105 XXXY=           -169.1793
 XXXZ=           -310.5541 YYYX=            -18.3748 YYYZ=             -5.5908 ZZZX=             -6.7992
 ZZZY=             -4.1553 XXYY=           -832.9301 XXZZ=           -787.9513 YYZZ=            -63.8657
 XXYZ=            -74.8980 YYXZ=            -10.3835 ZZXY=              1.6068
 N-N= 5.671823323270D+02 E-N=-2.321164300732D+03  KE= 5.063193260761D+02
 PrsmSu:  requested number of processors reduced to:  13 ShMem   1 Linda.
 Calling FoFJK, ICntrl=      2127 FMM=F ISym2X=0 I1Cent= 0 IOpClX= 0 NMat=1 NMatS=1 NMatT=0.
 ***** Axes restored to original set *****
 -------------------------------------------------------------------
 Center     Atomic                   Forces (Hartrees/Bohr)
 Number     Number              X              Y              Z
 -------------------------------------------------------------------
      1        6           0.003285794    0.001694371   -0.007773022
      2        7          -0.010000360   -0.019187532    0.014940826
      3        7           0.015239951    0.012223994   -0.017299655
      4        6          -0.008843115    0.010214527    0.014440883
      5        6          -0.023986593    0.023576002    0.011999578
      6        7           0.027109410   -0.026337661   -0.015028057
      7        6          -0.005722670    0.020515902    0.019591292
      8        7          -0.049698295   -0.014365822    0.001650783
      9        6           0.005591311   -0.016022644   -0.016615405
     10        6          -0.010144526   -0.083484575   -0.031465874
     11        7           0.046334525    0.099629359    0.027836535
     12        1           0.002448643   -0.000909849    0.000558363
     13        1          -0.005066264    0.003452346    0.001845440
     14        1           0.002627492    0.000036981    0.000309373
     15        1           0.002127814    0.012957366    0.009663165
     16        1           0.001023230   -0.012089322   -0.008786102
     17        1          -0.002776649   -0.002226490   -0.000997907
     18        1           0.005906084   -0.003341991   -0.002738514
     19        1           0.005558237    0.004065141   -0.000426082
     20        1           0.002574497   -0.004361775   -0.004929148
     21        1           0.001832168   -0.007907205   -0.002851685
     22        1           0.010412959   -0.010768802   -0.006388804
     23        1           0.003505938    0.008854058   -0.010000106
     24        1          -0.019339580    0.003783620    0.022464121
 -------------------------------------------------------------------
 Cartesian Forces:  Max     0.099629359 RMS     0.021045951

 GradGradGradGradGradGradGradGradGradGradGradGradGradGradGradGradGradGrad
 Berny optimization.
 FormGI is forming the generalized inverse of G from B-inverse, IUseBI=4.
 Internal  Forces:  Max     0.117654743 RMS     0.014772787
 Search for a local minimum.
 Step number   1 out of a maximum of  112
 All quantities printed in internal units (Hartrees-Bohrs-Radians)
 Mixed Optimization -- RFO/linear search
 Second derivative matrix not updated -- first step.
 ITU=  0
     Eigenvalues ---    0.00230   0.00278   0.00305   0.00535   0.00651
     Eigenvalues ---    0.00696   0.00818   0.00916   0.01399   0.01408
     Eigenvalues ---    0.02074   0.02952   0.03498   0.03535   0.04419
     Eigenvalues ---    0.04655   0.05159   0.05218   0.06475   0.06536
     Eigenvalues ---    0.07195   0.07453   0.09360   0.09647   0.10977
     Eigenvalues ---    0.11036   0.12901   0.13076   0.15990   0.15995
     Eigenvalues ---    0.16000   0.16000   0.16000   0.16000   0.16000
     Eigenvalues ---    0.21989   0.22001   0.22002   0.22033   0.23494
     Eigenvalues ---    0.23619   0.25000   0.25000   0.28795   0.28978
     Eigenvalues ---    0.34080   0.34097   0.34176   0.34177   0.34183
     Eigenvalues ---    0.34308   0.34313   0.34725   0.35495   0.36216
     Eigenvalues ---    0.37132   0.37288   0.42858   0.43258   0.43349
     Eigenvalues ---    0.43396   0.43424   0.50767   0.65891   0.66715
     Eigenvalues ---    1.17878
 RFO step:  Lambda=-5.50066004D-02 EMin= 2.30000000D-03
 Linear search not attempted -- first point.
 Iteration  1 RMS(Cart)=  0.09752422 RMS(Int)=  0.03146928
 Iteration  2 RMS(Cart)=  0.02984588 RMS(Int)=  0.00428474
 Iteration  3 RMS(Cart)=  0.00439842 RMS(Int)=  0.00025349
 Iteration  4 RMS(Cart)=  0.00006797 RMS(Int)=  0.00024315
 Iteration  5 RMS(Cart)=  0.00000002 RMS(Int)=  0.00024315
 Variable       Old X    -DE/DX   Delta X   Delta X   Delta X     New X
                                 (Linear)    (Quad)   (Total)
    R1        2.77045  -0.00328   0.00000  -0.00787  -0.00787   2.76258
    R2        2.06813  -0.00035   0.00000  -0.00089  -0.00089   2.06724
    R3        2.07033   0.00370   0.00000   0.00932   0.00932   2.07965
    R4        2.07034  -0.00065   0.00000  -0.00165  -0.00165   2.06869
    R5        2.75415  -0.00628   0.00000  -0.01468  -0.01468   2.73947
    R6        1.93850  -0.00865   0.00000  -0.01768  -0.01768   1.92082
    R7        2.79424  -0.01165   0.00000  -0.02896  -0.02896   2.76528
    R8        1.94052  -0.00816   0.00000  -0.01673  -0.01673   1.92379
    R9        2.90432  -0.00619   0.00000  -0.01804  -0.01804   2.88629
   R10        2.07166  -0.00007   0.00000  -0.00016  -0.00016   2.07150
   R11        2.07195   0.00351   0.00000   0.00886   0.00886   2.08081
   R12        2.46562  -0.04153   0.00000  -0.05817  -0.05817   2.40744
   R13        2.90049  -0.01508   0.00000  -0.04375  -0.04375   2.85675
   R14        1.94545  -0.00623   0.00000  -0.01288  -0.01288   1.93257
   R15        2.75647  -0.01941   0.00000  -0.04553  -0.04553   2.71095
   R16        2.07023   0.00541   0.00000   0.01363   0.01363   2.08386
   R17        2.06805   0.00551   0.00000   0.01385   0.01385   2.08190
   R18        2.59099   0.02654   0.00000   0.04716   0.04716   2.63815
   R19        1.93884  -0.01576   0.00000  -0.03223  -0.03223   1.90660
   R20        2.45991   0.02871   0.00000   0.03975   0.03976   2.49967
   R21        2.04878   0.00122   0.00000   0.00298   0.00298   2.05176
   R22        2.22229   0.11765   0.00000   0.09536   0.09535   2.31764
   R23        1.93941   0.00136   0.00000   0.00279   0.00279   1.94221
    A1        1.91370  -0.00360   0.00000  -0.01607  -0.01632   1.89738
    A2        1.94176   0.00775   0.00000   0.03896   0.03905   1.98081
    A3        1.94034  -0.00526   0.00000  -0.02804  -0.02812   1.91222
    A4        1.88639   0.00083   0.00000   0.01093   0.01086   1.89725
    A5        1.87733   0.00211   0.00000   0.00401   0.00356   1.88090
    A6        1.90240  -0.00185   0.00000  -0.00986  -0.00962   1.89278
    A7        1.88545   0.00621   0.00000   0.01310   0.01295   1.89841
    A8        1.87483   0.00325   0.00000   0.01073   0.01016   1.88499
    A9        1.94494  -0.01299   0.00000  -0.08994  -0.08992   1.85502
   A10        1.90632   0.00344   0.00000   0.00355   0.00327   1.90958
   A11        1.90105  -0.00884   0.00000  -0.06668  -0.06697   1.83409
   A12        1.87572   0.00078   0.00000  -0.00636  -0.00713   1.86860
   A13        1.90958   0.00945   0.00000   0.03900   0.03874   1.94832
   A14        1.93183  -0.00513   0.00000  -0.02698  -0.02692   1.90491
   A15        1.92619   0.00014   0.00000   0.01079   0.01027   1.93646
   A16        1.89693  -0.00133   0.00000  -0.00420  -0.00393   1.89300
   A17        1.90031  -0.00196   0.00000   0.00123   0.00064   1.90094
   A18        1.89847  -0.00123   0.00000  -0.02001  -0.02007   1.87840
   A19        2.13711   0.01617   0.00000   0.05301   0.05301   2.19012
   A20        2.05014  -0.00916   0.00000  -0.03004  -0.03004   2.02010
   A21        2.09593  -0.00701   0.00000  -0.02297  -0.02298   2.07296
   A22        1.89940   0.00227   0.00000   0.01055   0.01055   1.90995
   A23        1.93638  -0.00517   0.00000  -0.01589  -0.01580   1.92058
   A24        1.88880   0.00036   0.00000  -0.00488  -0.00484   1.88397
   A25        1.89043  -0.00040   0.00000  -0.00513  -0.00505   1.88538
   A26        1.92585   0.00310   0.00000   0.01563   0.01552   1.94137
   A27        1.92017   0.00575   0.00000   0.03386   0.03380   1.95398
   A28        1.90130  -0.00381   0.00000  -0.02493  -0.02523   1.87608
   A29        2.21980  -0.01307   0.00000  -0.04747  -0.04749   2.17230
   A30        1.99863   0.00290   0.00000   0.00695   0.00692   2.00555
   A31        2.06429   0.01019   0.00000   0.04089   0.04087   2.10517
   A32        2.15546   0.01212   0.00000   0.04448   0.04376   2.19922
   A33        2.01968  -0.00084   0.00000   0.00280   0.00209   2.02177
   A34        2.10726  -0.01106   0.00000  -0.04466  -0.04538   2.06188
   A35        1.97695   0.02187   0.00000   0.10170   0.10170   2.07865
   A36        3.14188  -0.00139   0.00000  -0.01371  -0.01368   3.12820
   A37        3.18079   0.01017   0.00000   0.10119   0.10099   3.28179
    D1       -3.12859  -0.00366   0.00000  -0.04188  -0.04213   3.11246
    D2        1.05448   0.00651   0.00000   0.05176   0.05170   1.10618
    D3        1.06885  -0.00724   0.00000  -0.06961  -0.06983   0.99903
    D4       -1.03126   0.00293   0.00000   0.02403   0.02400  -1.00726
    D5       -1.05498  -0.00661   0.00000  -0.06457  -0.06439  -1.11936
    D6        3.12809   0.00357   0.00000   0.02907   0.02944  -3.12565
    D7       -3.13442  -0.00140   0.00000  -0.00934  -0.00931   3.13946
    D8        1.10486   0.00074   0.00000   0.03411   0.03345   1.13831
    D9       -1.07883  -0.00109   0.00000  -0.03990  -0.03924  -1.11807
   D10       -3.12274   0.00105   0.00000   0.00355   0.00352  -3.11921
   D11        3.13214   0.00248   0.00000   0.01734   0.01705  -3.13399
   D12        1.04219   0.00130   0.00000   0.01448   0.01465   1.05684
   D13       -1.06042   0.00610   0.00000   0.05007   0.05024  -1.01018
   D14       -1.09119  -0.00573   0.00000  -0.06365  -0.06398  -1.15516
   D15        3.10205  -0.00691   0.00000  -0.06651  -0.06638   3.03567
   D16        0.99944  -0.00212   0.00000  -0.03092  -0.03079   0.96865
   D17       -0.00774  -0.00004   0.00000  -0.01904  -0.01901  -0.02675
   D18        3.13404   0.00019   0.00000  -0.01541  -0.01531   3.11873
   D19        2.10354  -0.00140   0.00000  -0.03093  -0.03093   2.07261
   D20       -1.03787  -0.00117   0.00000  -0.02730  -0.02723  -1.06510
   D21       -2.11419  -0.00474   0.00000  -0.05664  -0.05677  -2.17097
   D22        1.02759  -0.00452   0.00000  -0.05301  -0.05307   0.97451
   D23       -0.05359  -0.00240   0.00000  -0.02785  -0.02781  -0.08140
   D24        3.08781  -0.00263   0.00000  -0.03157  -0.03161   3.05620
   D25       -3.13265  -0.00107   0.00000  -0.00967  -0.00960   3.14093
   D26        1.03535  -0.00194   0.00000  -0.01603  -0.01596   1.01939
   D27       -1.02342   0.00260   0.00000   0.01907   0.01909  -1.00433
   D28        0.00913  -0.00085   0.00000  -0.00614  -0.00618   0.00295
   D29       -2.10606  -0.00172   0.00000  -0.01249  -0.01253  -2.11859
   D30        2.11835   0.00282   0.00000   0.02260   0.02252   2.14087
   D31       -3.14089  -0.00004   0.00000  -0.00018  -0.00014  -3.14103
   D32       -0.03271   0.00098   0.00000   0.01415   0.01409  -0.01862
   D33       -1.04765  -0.00091   0.00000  -0.00635  -0.00643  -1.05408
   D34        2.06053   0.00010   0.00000   0.00798   0.00780   2.06833
   D35        1.05073   0.00002   0.00000  -0.00565  -0.00547   1.04526
   D36       -2.12428   0.00104   0.00000   0.00868   0.00876  -2.11552
   D37        3.11223   0.00527   0.00000   0.06885   0.06913  -3.10182
   D38        0.01301  -0.00027   0.00000  -0.00054  -0.00068   0.01234
   D39        0.00516   0.00437   0.00000   0.05469   0.05483   0.05999
   D40       -3.09405  -0.00117   0.00000  -0.01470  -0.01498  -3.10904
   D41        2.41632  -0.02517   0.00000  -0.44314  -0.44272   1.97360
   D42       -0.78820  -0.02412   0.00000  -0.41691  -0.41733  -1.20553
         Item               Value     Threshold  Converged?
 Maximum Force            0.117655     0.000450     NO 
 RMS     Force            0.014773     0.000300     NO 
 Maximum Displacement     0.466782     0.001800     NO 
 RMS     Displacement     0.104982     0.001200     NO 
 Predicted change in Energy=-4.120712D-02
 GradGradGradGradGradGradGradGradGradGradGradGradGradGradGradGradGradGrad

                          Input orientation:                          
 ---------------------------------------------------------------------
 Center     Atomic      Atomic             Coordinates (Angstroms)
 Number     Number       Type             X           Y           Z
 ---------------------------------------------------------------------
      1          6           0        0.985797   -0.051270   -0.082633
      2          7           0        2.446158    0.010603   -0.057196
      3          7           0        2.849727    1.232160    0.610978
      4          6           0        4.310695    1.306995    0.646887
      5          6           0        4.792415    2.573478    1.351718
      6          7           0        4.041511    3.484126    1.831143
      7          6           0        6.291451    2.730034    1.468723
      8          7           0        6.606451    3.954721    2.146152
      9          6           0        7.902662    4.397899    2.415194
     10          6           0        8.227296    5.498447    3.073316
     11          7           0        8.520060    6.582220    3.567170
     12          1           0        0.682161   -0.958440   -0.613244
     13          1           0        0.518391    0.816775   -0.571650
     14          1           0        0.603928   -0.119385    0.941044
     15          1           0        2.774023    0.088569   -1.016157
     16          1           0        2.532366    1.125561    1.572383
     17          1           0        4.695660    1.313146   -0.379463
     18          1           0        4.737430    0.429869    1.157772
     19          1           0        3.066472    3.275928    1.603522
     20          1           0        6.714933    2.716467    0.450642
     21          1           0        6.685360    1.850732    2.002948
     22          1           0        5.807643    4.509745    2.414103
     23          1           0        8.704706    3.755071    2.065427
     24          1           0        8.962092    6.605741    4.494730
 ---------------------------------------------------------------------
                    Distance matrix (angstroms):
                    1          2          3          4          5
     1  C    0.000000
     2  N    1.461892   0.000000
     3  N    2.366965   1.449664   0.000000
     4  C    3.664973   2.377575   1.463324   0.000000
     5  C    4.841178   3.749438   2.474241   1.527357   0.000000
     6  N    5.049649   4.263372   2.824979   2.492955   1.273965
     7  C    6.188080   4.950760   3.850302   2.573685   1.511725
     8  N    7.253083   6.141568   4.886929   3.811660   2.414474
     9  C    8.595189   7.425263   6.229708   5.057947   3.759406
    10  C    9.653947   8.563767   7.292638   6.228611   4.828846
    11  N   10.681263   9.654764   8.337559   7.353557   5.905385
    12  H    1.093938   2.088042   3.315990   4.459415   5.764521
    13  H    1.100504   2.151944   2.646938   4.013317   5.005260
    14  H    1.094704   2.099331   2.641823   3.982612   4.996357
    15  H    2.022072   1.016455   1.990251   2.571310   3.981898
    16  H    2.552624   1.976384   1.018028   2.012937   2.693135
    17  H    3.963941   2.619301   2.096426   1.096189   2.143545
    18  H    3.980560   2.627140   2.122753   1.101116   2.153066
    19  H    4.271133   3.715524   2.282348   2.517924   1.880351
    20  H    6.384963   5.079571   4.143512   2.793830   2.128018
    21  H    6.360211   5.059754   4.127021   2.788116   2.128310
    22  H    7.091316   6.135893   4.768972   3.952407   2.430737
    23  H    8.870398   7.595788   6.539211   5.226152   4.148683
    24  H   11.352944  10.328276   9.017756   8.032317   6.597263
                    6          7          8          9         10
     6  N    0.000000
     7  C    2.400466   0.000000
     8  N    2.626711   1.434571   0.000000
     9  C    4.010559   2.504712   1.396049   0.000000
    10  C    4.808459   3.739829   2.422780   1.322768   0.000000
    11  N    5.715713   4.920315   3.547526   2.545483   1.226444
    12  H    6.082488   7.028767   8.176224   9.486698  10.592978
    13  H    5.029965   6.414976   7.368693   8.733450   9.727849
    14  H    5.059105   6.383224   7.353972   8.709219   9.706820
    15  H    4.609062   5.052155   6.295620   7.526449   8.702227
    16  H    2.811993   4.088496   4.993148   6.344967   7.335337
    17  H    3.166678   2.823104   4.124048   5.254586   6.473861
    18  H    3.204094   2.793283   4.110318   5.229251   6.445072
    19  H    1.022673   3.273632   3.645087   5.030544   5.808098
    20  H    3.105201   1.102729   2.102332   2.845590   4.111578
    21  H    3.112464   1.101695   2.110332   2.853039   4.102325
    22  H    2.123902   2.072483   1.008932   2.098003   2.695703
    23  H    4.676932   2.688969   2.109278   1.085744   2.069570
    24  H    6.407128   5.595547   4.253560   3.212698   1.945879
                   11         12         13         14         15
    11  N    0.000000
    12  H   11.652042   0.000000
    13  H   10.695648   1.783239   0.000000
    14  H   10.699214   1.768035   1.780998   0.000000
    15  H    9.807717   2.373701   2.411587   2.929709   0.000000
    16  H    8.343068   3.541650   2.957757   2.380620   2.798981
    17  H    7.613480   4.617676   4.211045   4.531904   2.365937
    18  H    7.613468   4.637792   4.576122   4.175463   2.949139
    19  H    6.673013   5.341242   4.155902   4.246310   4.136122
    20  H    5.283491   7.143608   6.561329   6.754771   4.958640
    21  H    5.310356   7.125610   6.762332   6.480187   5.245834
    22  H    3.603043   8.083097   7.108371   7.118806   6.365244
    23  H    3.206571   9.682649   9.088647   9.049765   7.623148
    24  H    1.027772  12.323372  11.422628  11.301102  10.542087
                   16         17         18         19         20
    16  H    0.000000
    17  H    2.919715   0.000000
    18  H    2.349084   1.773419   0.000000
    19  H    2.215924   3.230944   3.330292   0.000000
    20  H    4.613367   2.595351   3.104687   3.866963   0.000000
    21  H    4.237761   3.150205   2.554918   3.909870   1.777646
    22  H    4.784207   4.388481   4.401035   3.113418   2.809662
    23  H    6.727198   5.292724   5.255481   5.677378   2.765036
    24  H    8.939456   8.364913   8.192951   7.362410   6.044074
                   21         22         23         24
    21  H    0.000000
    22  H    2.830156   0.000000
    23  H    2.776358   3.013981   0.000000
    24  H    5.831174   4.321198   3.754209   0.000000
 Stoichiometry    C6H13N5
 Framework group  C1[X(C6H13N5)]
 Deg. of freedom    66
 Full point group                 C1      NOp   1
 Largest Abelian subgroup         C1      NOp   1
 Largest concise Abelian subgroup C1      NOp   1
                         Standard orientation:                         
 ---------------------------------------------------------------------
 Center     Atomic      Atomic             Coordinates (Angstroms)
 Number     Number       Type             X           Y           Z
 ---------------------------------------------------------------------
      1          6           0        5.138453   -0.505866    0.024815
      2          7           0        4.041808    0.460756    0.036628
      3          7           0        2.784506   -0.259686   -0.004382
      4          6           0        1.675998    0.695471    0.009853
      5          6           0        0.322749   -0.012035   -0.021339
      6          7           0        0.148512   -1.272500   -0.083423
      7          6           0       -0.890376    0.888960    0.021636
      8          7           0       -2.089039    0.101617   -0.014303
      9          6           0       -3.381509    0.628736    0.010604
     10          6           0       -4.505578   -0.068450    0.021395
     11          7           0       -5.540003   -0.715849   -0.101105
     12          1           0        6.086850    0.039333    0.025608
     13          1           0        5.119655   -1.180021   -0.844823
     14          1           0        5.101525   -1.113227    0.934830
     15          1           0        4.089344    1.000290   -0.823502
     16          1           0        2.745839   -0.775260    0.872584
     17          1           0        1.748991    1.344032   -0.870868
     18          1           0        1.721995    1.338754    0.902337
     19          1           0        1.053941   -1.736400   -0.187609
     20          1           0       -0.836047    1.573275   -0.841366
     21          1           0       -0.827494    1.502027    0.934832
     22          1           0       -1.941462   -0.894428   -0.078016
     23          1           0       -3.450265    1.711632    0.048660
     24          1           0       -6.191784   -0.771260    0.691629
 ---------------------------------------------------------------------
 Rotational constants (GHZ):           6.0098515           0.2881539           0.2770803
 Standard basis: 6-31G(2df,p) (6D, 7F)
 There are   406 symmetry adapted cartesian basis functions of A   symmetry.
 There are   373 symmetry adapted basis functions of A   symmetry.
   373 basis functions,   575 primitive gaussians,   406 cartesian basis functions
    42 alpha electrons       42 beta electrons
       nuclear repulsion energy       567.3574547159 Hartrees.
 NAtoms=   24 NActive=   24 NUniq=   24 SFac= 1.00D+00 NAtFMM=   60 NAOKFM=F Big=F
 Integral buffers will be    131072 words long.
 Raffenetti 2 integral format.
 Two-electron integral symmetry is turned on.
 One-electron integrals computed using PRISM.
 PrsmSu:  requested number of processors reduced to:  13 ShMem   1 Linda.
 NBasis=   373 RedAO= T EigKep=  1.68D-04  NBF=   373
 NBsUse=   373 1.00D-06 EigRej= -1.00D+00 NBFU=   373
 Initial guess from the checkpoint file:  "CNNCCpdNpCNCdCdN.chk"
 B after Tr=     0.000000    0.000000    0.000000
         Rot=    0.999999   -0.000666   -0.000261    0.001387 Ang=  -0.18 deg.
 ExpMin= 1.61D-01 ExpMax= 4.17D+03 ExpMxC= 6.27D+02 IAcc=2 IRadAn=         4 AccDes= 0.00D+00
 Harris functional with IExCor=  402 and IRadAn=       4 diagonalized for initial guess.
 HarFok:  IExCor=  402 AccDes= 0.00D+00 IRadAn=         4 IDoV= 1 UseB2=F ITyADJ=14
 ICtDFT=  3500011 ScaDFX=  1.000000  1.000000  1.000000  1.000000
 FoFCou: FMM=F IPFlag=           0 FMFlag=      100000 FMFlg1=           0
         NFxFlg=           0 DoJE=T BraDBF=F KetDBF=T FulRan=T
         wScrn=  0.000000 ICntrl=       500 IOpCl=  0 I1Cent=   200000004 NGrid=           0
         NMat0=    1 NMatS0=      1 NMatT0=    0 NMatD0=    1 NMtDS0=    0 NMtDT0=    0
 Petite list used in FoFCou.
 Requested convergence on RMS density matrix=1.00D-08 within 128 cycles.
 Requested convergence on MAX density matrix=1.00D-06.
 Requested convergence on             energy=1.00D-06.
 No special actions if energy rises.
 Integral accuracy reduced to 1.0D-05 until final iterations.
 Initial convergence to 1.0D-05 achieved.  Increase integral accuracy.
 SCF Done:  E(RB3LYP) =  -510.115270903     A.U. after   14 cycles
            NFock= 14  Conv=0.45D-08     -V/T= 2.0077
 PrsmSu:  requested number of processors reduced to:  13 ShMem   1 Linda.
 Calling FoFJK, ICntrl=      2127 FMM=F ISym2X=0 I1Cent= 0 IOpClX= 0 NMat=1 NMatS=1 NMatT=0.
 ***** Axes restored to original set *****
 -------------------------------------------------------------------
 Center     Atomic                   Forces (Hartrees/Bohr)
 Number     Number              X              Y              Z
 -------------------------------------------------------------------
      1        6           0.000911027    0.001342310   -0.004333506
      2        7          -0.002746056   -0.012698013    0.004453228
      3        7           0.004388260    0.013895327   -0.003271354
      4        6          -0.003845192    0.002707486    0.007339471
      5        6          -0.005586762    0.001429774   -0.000679030
      6        7          -0.000003603   -0.005157874   -0.006034744
      7        6           0.003225549    0.008319452    0.008566411
      8        7          -0.002362087   -0.001036494    0.004564651
      9        6          -0.004354173    0.002568510   -0.000956159
     10        6          -0.002138958   -0.017741619    0.003019279
     11        7           0.017707031    0.014710787   -0.006763409
     12        1           0.000889849   -0.000193450    0.000454393
     13        1          -0.000660403    0.000896899    0.001539012
     14        1           0.000147901   -0.000323183    0.000588022
     15        1          -0.000060757    0.003841086   -0.000665663
     16        1           0.000116684   -0.003237047    0.000381504
     17        1          -0.000202922   -0.001301213   -0.001219132
     18        1           0.004279427   -0.000899570   -0.002451214
     19        1          -0.001191550    0.000738036    0.001506580
     20        1           0.001038614   -0.003716622   -0.001605937
     21        1           0.001752223   -0.002815084   -0.001842591
     22        1           0.001198915   -0.001063478   -0.000771181
     23        1           0.000914112    0.004513935   -0.004869324
     24        1          -0.013417129   -0.004779955    0.003050696
 -------------------------------------------------------------------
 Cartesian Forces:  Max     0.017741619 RMS     0.005365208

 GradGradGradGradGradGradGradGradGradGradGradGradGradGradGradGradGradGrad
 Berny optimization.
 Using GEDIIS/GDIIS optimizer.
 FormGI is forming the generalized inverse of G from B-inverse, IUseBI=4.
 Internal  Forces:  Max     0.011336211 RMS     0.003002004
 Search for a local minimum.
 Step number   2 out of a maximum of  112
 All quantities printed in internal units (Hartrees-Bohrs-Radians)
 Mixed Optimization -- RFO/linear search
 Update second derivatives using D2CorX and points    1    2
 DE= -3.35D-02 DEPred=-4.12D-02 R= 8.13D-01
 TightC=F SS=  1.41D+00  RLast= 7.06D-01 DXNew= 5.0454D-01 2.1173D+00
 Trust test= 8.13D-01 RLast= 7.06D-01 DXMaxT set to 5.05D-01
 ITU=  1  0
 Use linear search instead of GDIIS.
     Eigenvalues ---    0.00277   0.00305   0.00399   0.00535   0.00653
     Eigenvalues ---    0.00713   0.00819   0.00916   0.01410   0.01443
     Eigenvalues ---    0.02082   0.02971   0.03772   0.03885   0.04416
     Eigenvalues ---    0.04671   0.04899   0.05194   0.06371   0.06462
     Eigenvalues ---    0.07045   0.07616   0.09530   0.09744   0.10881
     Eigenvalues ---    0.10890   0.13025   0.13119   0.15730   0.15998
     Eigenvalues ---    0.15998   0.16000   0.16000   0.16000   0.17241
     Eigenvalues ---    0.20948   0.21966   0.21999   0.22413   0.23717
     Eigenvalues ---    0.23888   0.24792   0.25618   0.28558   0.29418
     Eigenvalues ---    0.33858   0.34096   0.34115   0.34177   0.34183
     Eigenvalues ---    0.34263   0.34308   0.34543   0.35498   0.36167
     Eigenvalues ---    0.36616   0.37543   0.42848   0.43050   0.43284
     Eigenvalues ---    0.43397   0.43512   0.50728   0.63244   0.67233
     Eigenvalues ---    1.02049
 RFO step:  Lambda=-1.56010507D-02 EMin= 2.76613442D-03
 Quartic linear search produced a step of  0.29766.
 Iteration  1 RMS(Cart)=  0.06788673 RMS(Int)=  0.05942639
 Iteration  2 RMS(Cart)=  0.03211395 RMS(Int)=  0.03131941
 Iteration  3 RMS(Cart)=  0.03113530 RMS(Int)=  0.00433239
 Iteration  4 RMS(Cart)=  0.00452581 RMS(Int)=  0.00014880
 Iteration  5 RMS(Cart)=  0.00006685 RMS(Int)=  0.00013283
 Iteration  6 RMS(Cart)=  0.00000001 RMS(Int)=  0.00013283
 Variable       Old X    -DE/DX   Delta X   Delta X   Delta X     New X
                                 (Linear)    (Quad)   (Total)
    R1        2.76258  -0.00133  -0.00234   0.00108  -0.00127   2.76131
    R2        2.06724  -0.00031  -0.00026  -0.00041  -0.00067   2.06657
    R3        2.07965   0.00030   0.00277  -0.00510  -0.00233   2.07732
    R4        2.06869   0.00052  -0.00049   0.00275   0.00226   2.07095
    R5        2.73947   0.00550  -0.00437   0.02594   0.02157   2.76104
    R6        1.92082   0.00090  -0.00526   0.01388   0.00862   1.92944
    R7        2.76528  -0.00314  -0.00862   0.00890   0.00028   2.76556
    R8        1.92379   0.00066  -0.00498   0.01265   0.00767   1.93147
    R9        2.88629  -0.00566  -0.00537  -0.00978  -0.01515   2.87114
   R10        2.07150   0.00106  -0.00005   0.00355   0.00350   2.07500
   R11        2.08081   0.00124   0.00264  -0.00177   0.00087   2.08168
   R12        2.40744  -0.00416  -0.01732   0.03104   0.01372   2.42117
   R13        2.85675   0.00361  -0.01302   0.04217   0.02915   2.88590
   R14        1.93257   0.00065  -0.00383   0.01012   0.00628   1.93886
   R15        2.71095  -0.00424  -0.01355   0.01708   0.00353   2.71447
   R16        2.08386   0.00193   0.00406  -0.00267   0.00139   2.08525
   R17        2.08190   0.00198   0.00412  -0.00266   0.00146   2.08336
   R18        2.63815  -0.00268   0.01404  -0.03680  -0.02276   2.61539
   R19        1.90660  -0.00164  -0.00959   0.01689   0.00730   1.91390
   R20        2.49967  -0.00637   0.01184  -0.03688  -0.02505   2.47462
   R21        2.05176  -0.00043   0.00089  -0.00328  -0.00239   2.04936
   R22        2.31764   0.00827   0.02838  -0.05470  -0.02631   2.29133
   R23        1.94221  -0.00313   0.00083  -0.00987  -0.00904   1.93317
    A1        1.89738  -0.00106  -0.00486   0.00490  -0.00003   1.89735
    A2        1.98081   0.00128   0.01162  -0.01509  -0.00344   1.97737
    A3        1.91222  -0.00090  -0.00837   0.00936   0.00097   1.91319
    A4        1.89725   0.00097   0.00323   0.00495   0.00816   1.90541
    A5        1.88090   0.00025   0.00106  -0.00413  -0.00321   1.87769
    A6        1.89278  -0.00056  -0.00286   0.00035  -0.00245   1.89033
    A7        1.89841   0.00030   0.00386  -0.01573  -0.01212   1.88629
    A8        1.88499  -0.00001   0.00302  -0.02277  -0.02023   1.86476
    A9        1.85502  -0.00300  -0.02676   0.01107  -0.01610   1.83893
   A10        1.90958  -0.00140   0.00097  -0.01444  -0.01363   1.89596
   A11        1.83409  -0.00125  -0.01993   0.01589  -0.00431   1.82978
   A12        1.86860  -0.00003  -0.00212  -0.00879  -0.01124   1.85735
   A13        1.94832  -0.00299   0.01153  -0.03593  -0.02446   1.92386
   A14        1.90491  -0.00003  -0.00801   0.00919   0.00108   1.90599
   A15        1.93646   0.00324   0.00306   0.02533   0.02830   1.96477
   A16        1.89300   0.00116  -0.00117   0.00242   0.00124   1.89424
   A17        1.90094   0.00072   0.00019   0.00996   0.01011   1.91105
   A18        1.87840  -0.00211  -0.00597  -0.01063  -0.01664   1.86176
   A19        2.19012  -0.00221   0.01578  -0.04409  -0.02832   2.16180
   A20        2.02010  -0.00339  -0.00894   0.00477  -0.00418   2.01592
   A21        2.07296   0.00561  -0.00684   0.03935   0.03250   2.10545
   A22        1.90995   0.00324   0.00314   0.01450   0.01764   1.92759
   A23        1.92058   0.00436  -0.00470   0.03865   0.03377   1.95435
   A24        1.88397  -0.00228  -0.00144  -0.01117  -0.01288   1.87109
   A25        1.88538  -0.00116  -0.00150  -0.00042  -0.00208   1.88331
   A26        1.94137   0.00077   0.00462   0.00324   0.00779   1.94916
   A27        1.95398  -0.00011   0.01006  -0.01381  -0.00389   1.95009
   A28        1.87608  -0.00184  -0.00751  -0.01783  -0.02552   1.85056
   A29        2.17230  -0.00656  -0.01414  -0.00129  -0.01545   2.15686
   A30        2.00555   0.00306   0.00206   0.01017   0.01221   2.01776
   A31        2.10517   0.00351   0.01217  -0.00878   0.00336   2.10853
   A32        2.19922   0.00272   0.01303  -0.01490  -0.00208   2.19714
   A33        2.02177   0.00059   0.00062   0.00511   0.00552   2.02729
   A34        2.06188  -0.00334  -0.01351   0.01004  -0.00367   2.05821
   A35        2.07865  -0.00989   0.03027  -0.13075  -0.10048   1.97816
   A36        3.12820   0.00262  -0.00407   0.05674   0.05264   3.18083
   A37        3.28179   0.00509   0.03006   0.03563   0.06584   3.34762
    D1        3.11246  -0.00148  -0.01254  -0.02276  -0.03528   3.07718
    D2        1.10618   0.00190   0.01539  -0.01568  -0.00041   1.10577
    D3        0.99903  -0.00281  -0.02078  -0.02263  -0.04338   0.95564
    D4       -1.00726   0.00057   0.00714  -0.01555  -0.00851  -1.01577
    D5       -1.11936  -0.00230  -0.01916  -0.01959  -0.03861  -1.15797
    D6       -3.12565   0.00108   0.00876  -0.01251  -0.00373  -3.12938
    D7        3.13946  -0.00015  -0.00277   0.00010  -0.00273   3.13673
    D8        1.13831   0.00116   0.00996   0.00874   0.01841   1.15672
    D9       -1.11807  -0.00158  -0.01168  -0.02839  -0.03978  -1.15785
   D10       -3.11921  -0.00026   0.00105  -0.01975  -0.01865  -3.13786
   D11       -3.13399   0.00016   0.00508  -0.02310  -0.01809   3.13110
   D12        1.05684   0.00061   0.00436  -0.00959  -0.00524   1.05160
   D13       -1.01018   0.00128   0.01496  -0.01752  -0.00262  -1.01280
   D14       -1.15516  -0.00199  -0.01904  -0.01613  -0.03514  -1.19031
   D15        3.03567  -0.00154  -0.01976  -0.00262  -0.02230   3.01337
   D16        0.96865  -0.00087  -0.00916  -0.01054  -0.01967   0.94898
   D17       -0.02675   0.00019  -0.00566  -0.04103  -0.04680  -0.07354
   D18        3.11873   0.00002  -0.00456  -0.05110  -0.05558   3.06316
   D19        2.07261  -0.00095  -0.00921  -0.05025  -0.05950   2.01310
   D20       -1.06510  -0.00111  -0.00810  -0.06031  -0.06828  -1.13338
   D21       -2.17097  -0.00242  -0.01690  -0.05610  -0.07312  -2.24408
   D22        0.97451  -0.00258  -0.01580  -0.06617  -0.08190   0.89262
   D23       -0.08140   0.00084  -0.00828   0.03619   0.02791  -0.05348
   D24        3.05620   0.00099  -0.00941   0.04646   0.03704   3.09324
   D25        3.14093   0.00012  -0.00286   0.00560   0.00276  -3.13949
   D26        1.01939  -0.00202  -0.00475  -0.01471  -0.01926   1.00013
   D27       -1.00433   0.00193   0.00568   0.01222   0.01798  -0.98636
   D28        0.00295  -0.00002  -0.00184  -0.00356  -0.00558  -0.00262
   D29       -2.11859  -0.00216  -0.00373  -0.02387  -0.02759  -2.14619
   D30        2.14087   0.00179   0.00670   0.00306   0.00964   2.15051
   D31       -3.14103   0.00026  -0.00004   0.00237   0.00225  -3.13878
   D32       -0.01862   0.00061   0.00419   0.00809   0.01219  -0.00644
   D33       -1.05408   0.00075  -0.00191   0.01575   0.01393  -1.04015
   D34        2.06833   0.00110   0.00232   0.02147   0.02387   2.09220
   D35        1.04526  -0.00115  -0.00163  -0.01425  -0.01587   1.02939
   D36       -2.11552  -0.00080   0.00261  -0.00853  -0.00593  -2.12145
   D37       -3.10182   0.00175   0.02058   0.00991   0.03033  -3.07150
   D38        0.01234   0.00040  -0.00020   0.02129   0.02127   0.03361
   D39        0.05999   0.00139   0.01632   0.00368   0.01981   0.07980
   D40       -3.10904   0.00004  -0.00446   0.01506   0.01076  -3.09828
   D41        1.97360  -0.01034  -0.13178  -0.46312  -0.59522   1.37838
   D42       -1.20553  -0.01134  -0.12422  -0.48828  -0.61218  -1.81770
         Item               Value     Threshold  Converged?
 Maximum Force            0.011336     0.000450     NO 
 RMS     Force            0.003002     0.000300     NO 
 Maximum Displacement     0.636199     0.001800     NO 
 RMS     Displacement     0.092091     0.001200     NO 
 Predicted change in Energy=-1.336935D-02
 GradGradGradGradGradGradGradGradGradGradGradGradGradGradGradGradGradGrad

                          Input orientation:                          
 ---------------------------------------------------------------------
[...]
 .00145245,-0.01339681,-0.05582587,-0.01793651,0.05880668,-0.01771203,-
 0.00451068,0.04252521,0.00035654,0.00074415,0.00029009,0.00037292,-0.0
 0036481,0.00016437,-0.00025856,0.00022763,-0.00004129,0.00020141,0.000
 07500,-0.00004306,-0.00007494,0.00004306,0.00000314,0.00002013,-0.0000
 8350,-0.00006230,0.00000549,0.00009779,0.00005442,-0.00033654,0.000297
 60,0.00045000,-0.00069639,0.00034043,-0.00030555,0.00016712,-0.0005126
 4,0.00122364,-0.00172027,-0.00280558,-0.00236925,0.07741861,0.00010058
 ,0.00282539,-0.00187573,0.00633314,-0.00610881,-0.04398302,-0.03547068
 ,-0.04123726,0.06850688,0.00637654,-0.00183536,0.00210993,-0.00194558,
 0.00292387,0.00163137,0.00147448,-0.00067035,-0.00188509,-0.00009746,-
 0.00018097,-0.00009272,0.00009408,-0.00009910,0.00000834,-0.00004061,-
 0.00005356,-0.00002953,0.00000376,-0.00000556,0.00000839,0.00001780,0.
 00001571,0.00000492,0.00055156,-0.00016106,0.00038834,0.00003447,-0.00
 043074,0.00054602,-0.00038869,-0.00019344,0.00091398,-0.00154133,-0.00
 644287,-0.00321645,0.02683940,0.05204204,-0.00035358,-0.00000385,0.001
 47088,0.00192820,0.00178513,-0.01964964,0.08901121,0.02199854,-0.38797
 816,-0.00426217,0.00400404,-0.00311163,0.00029775,-0.00012379,0.000455
 75,-0.00000117,0.00046380,0.00009792,0.00001970,0.00010125,-0.00000385
 ,0.00001823,0.00004317,-0.00002360,0.00000952,-0.00000417,0.00002149,-
 0.00000187,0.00000493,0.00001376,0.00000313,-0.00000619,-0.00001931,0.
 00010096,0.00010943,0.00062478,-0.00023430,0.00022849,-0.00040425,-0.0
 0102221,-0.00037251,-0.00004297,-0.00160704,-0.00411941,0.00034184,-0.
 08370077,-0.02346349,0.40501374,0.00004270,0.00006931,0.00013108,0.002
 01155,0.00134846,0.00137761,-0.01733071,0.00267097,0.03814203,-0.05736
 150,0.00114092,0.04529028,0.00346095,0.00219601,-0.00855854,0.00010457
 ,-0.00125203,0.00095451,-0.00034807,0.00064305,-0.00031634,-0.00048718
 ,-0.00040220,0.00046732,0.00021281,0.00007221,0.00010036,-0.00001842,0
 .00009747,0.00001564,0.00000294,-0.00011606,-0.00005370,0.00003750,-0.
 00000550,-0.00015305,0.00003714,-0.00000638,0.00007931,0.00009307,0.00
 008513,-0.00023013,-0.00053911,-0.00032774,-0.00095577,-0.00711099,-0.
 00154542,0.00067304,0.07365192,-0.00005095,-0.00014237,0.00011266,0.00
 004047,0.00043251,0.00143039,-0.00254982,0.00067358,0.00214945,0.00519
 232,-0.04363124,-0.01792555,0.00851584,-0.00400318,-0.03075217,-0.0022
 6916,-0.00403124,0.00446520,-0.00011347,-0.00069510,0.00134137,-0.0003
 9143,0.00009257,0.00030569,0.00006244,0.00011730,0.00014509,0.00000977
 ,0.00001692,-0.00002362,-0.00001419,-0.00002996,-0.00001321,-0.0000101
 7,0.00000447,-0.00002997,0.00008615,-0.00001076,-0.00002670,0.00001832
 ,-0.00002923,-0.00008990,-0.00035031,0.00042457,-0.00031245,-0.0011801
 1,0.00025832,-0.00031454,-0.00345148,0.04845381,-0.00026368,0.00032746
 ,0.00057979,-0.00105633,0.00003404,0.00170551,0.00432323,-0.00101587,-
 0.00186805,0.05582290,-0.01263198,-0.28155740,0.00254161,-0.00321324,-
 0.01083818,-0.00153703,-0.00038795,0.00159555,0.00044083,-0.00121784,-
 0.00025893,-0.00046895,0.00004022,0.00024892,0.00005830,0.00001897,-0.
 00000696,-0.00002766,0.00004309,0.00000749,-0.00001605,-0.00004179,-0.
 00001439,0.00012353,0.00004707,-0.00003865,-0.00012439,-0.00005941,0.0
 0001194,-0.00020136,-0.00009680,-0.00004600,0.00137216,0.00057637,-0.0
 0014564,0.00006331,-0.00001652,0.00172228,-0.06308368,0.01715374,0.305
 56797,0.00042367,-0.00025834,-0.00024041,0.00428098,0.00054627,0.00176
 438,-0.03550066,0.02673068,-0.01418623,-0.09610760,0.07681088,-0.05024
 365,0.00573056,-0.00433383,0.00697612,0.00080303,-0.00212195,-0.003037
 15,0.00010613,-0.00050449,-0.00066135,0.00011780,0.00018214,0.00020517
 ,0.00007906,0.00002524,0.00003099,-0.00000323,0.00008300,0.00005159,-0
 .00001361,-0.00009782,-0.00004773,-0.00007997,-0.00021644,0.00006844,0
 .00050809,0.00011434,0.00009561,-0.00004159,0.00005633,0.00004714,-0.0
 0038795,-0.00002710,0.00008510,0.00205089,-0.00077746,-0.00098573,0.00
 393007,-0.00382959,0.00242493,0.11489050,-0.00065172,-0.00004240,0.000
 31128,0.00069434,0.00399654,0.00081037,0.00030688,0.00263379,-0.004243
 57,0.07828091,-0.18265737,0.08747447,0.01540708,-0.02232605,0.01494243
 ,-0.00295701,-0.00294813,-0.00507760,0.00069405,0.00009200,-0.00003128
 ,-0.00009156,0.00079366,-0.00023849,-0.00016470,0.00009799,0.00001153,
 0.00003048,-0.00016396,-0.00010828,-0.00000437,0.00016402,0.00009157,0
 .00005074,-0.00001907,0.00003953,0.00007667,-0.00028388,-0.00008988,0.
 00000836,-0.00002101,-0.00009879,0.00025595,-0.00037447,0.00006014,0.0
 0057233,0.00070200,-0.00078312,-0.00044315,0.00128795,-0.00039474,-0.0
 9119938,0.19839905,-0.00006340,-0.00036379,0.00017753,0.00052109,0.000
 56154,-0.00016430,0.00030598,-0.00434169,0.00533841,-0.05069414,0.0865
 3155,-0.10206849,0.00617987,-0.01113264,0.00615157,-0.00066415,-0.0019
 6318,-0.00230689,-0.00007522,0.00042270,0.00003661,0.00041276,-0.00009
 695,0.00007823,-0.00002378,0.00005944,0.00000321,0.00002067,0.00001011
 ,0.00000731,0.00000929,-0.00000878,0.00000095,-0.00006889,0.00001879,-
 0.00003784,0.00016277,-0.00002920,-0.00003666,0.00003056,0.00001020,-0
 .00003375,0.00011261,0.00037900,-0.00031971,0.00024253,-0.00141027,0.0
 0172244,-0.01341130,0.02481603,-0.01667169,0.05706713,-0.09351120,0.10
 761930,0.00022504,0.00000858,-0.00002029,-0.00049113,-0.00009062,-0.00
 036741,0.00051172,-0.00209370,0.00045512,0.00059856,-0.00237556,0.0011
 9646,-0.03553361,-0.00437685,-0.00913337,-0.35251971,-0.05508175,-0.08
 014488,0.00080804,0.00401826,-0.00115514,0.00112697,0.00051161,0.00006
 330,-0.00002898,-0.00004601,-0.00000796,0.00001105,0.00002151,0.000046
 00,0.00000115,-0.00003424,-0.00001606,-0.00001991,0.00003201,-0.000015
 78,-0.00013624,0.00006289,-0.00001433,0.,0.00000721,0.00001351,0.00013
 260,-0.00009902,-0.00003395,0.00034128,-0.00013999,0.00017726,-0.00017
 078,0.00012731,-0.00004540,-0.00090600,-0.00024665,-0.00000863,0.38729
 252,-0.00111868,0.00007962,0.00045057,-0.00091788,0.00225292,-0.001187
 54,0.00168694,-0.00209435,0.00236113,0.00240288,-0.00114033,0.00290626
 ,0.04481015,-0.00201012,0.00748314,-0.10857258,-0.05623231,-0.02696040
 ,0.00194469,-0.00340029,-0.00607981,-0.00192827,0.00003615,-0.00048170
 ,0.00000461,0.00046378,0.00038996,-0.00000609,0.00018525,0.00014661,0.
 00004197,-0.00025688,-0.00013677,0.00019702,0.00005950,0.00000819,0.00
 018161,-0.00025185,-0.00011104,0.00006531,-0.00002473,-0.00009133,0.00
 018752,-0.00013358,-0.00013801,0.00004529,-0.00117443,0.00041376,-0.00
 019026,0.00038085,0.00031105,-0.00101467,0.00047817,-0.00000612,0.0593
 0967,0.06142953,-0.00022805,0.00002642,0.00021529,0.00025010,0.0005037
 3,-0.00048001,0.00060627,0.00000820,-0.00099122,0.00241801,0.00254271,
 -0.01028727,0.00756168,-0.00289327,0.00269667,-0.09766935,-0.01633046,
 -0.06386579,-0.00288432,-0.00514402,0.01557756,-0.00104634,0.00074625,
 0.00014503,0.00011002,0.00013261,0.00019633,-0.00000108,0.00003892,-0.
 00001909,0.00001546,-0.00010261,-0.00007911,0.00005698,0.00001108,-0.0
 0001506,-0.00000074,-0.00003975,0.00000789,-0.00000903,0.00005270,-0.0
 0007300,0.00022414,-0.00030652,-0.00001114,-0.00039226,0.00190578,-0.0
 0017640,-0.00056638,-0.00244559,-0.00077594,0.00027908,0.00136955,0.00
 075401,0.08938123,0.01972341,0.05801642,-0.00003667,0.00003763,0.00004
 970,0.00013432,-0.00015910,-0.00003682,0.00049294,-0.00005104,-0.00021
 214,0.00058072,0.00060304,-0.00053101,-0.01634942,0.01594392,0.0253701
 6,-0.00531855,-0.00190426,-0.00055220,-0.11829612,0.05667004,0.0937114
 0,0.00881447,-0.00765662,-0.00896186,0.00104540,-0.00011785,-0.0003248
 5,-0.00013838,0.00008948,0.00033097,0.00036611,0.00017577,-0.00000570,
 0.00001725,0.00000565,0.00000015,0.00001806,-0.00001208,0.00000257,0.0
 0000100,-0.00000036,-0.00000505,-0.00003595,0.00002100,-0.00000923,0.0
 0011222,0.00019455,-0.00000879,-0.00048205,-0.00054024,-0.00065696,0.0
 0006131,-0.00043137,0.00014193,-0.00029713,0.00189549,-0.00247605,0.12
 684624,0.00002236,-0.00000573,-0.00001582,-0.00002820,0.00002916,-0.00
 000462,0.00033850,-0.00006822,0.00030496,-0.00076082,0.00038261,-0.000
 44216,0.00260447,-0.00046745,0.00181473,-0.00069143,0.00116551,-0.0002
 9973,0.05423238,-0.09041621,-0.07581396,0.01539191,-0.02977420,-0.0193
 5513,0.00212570,0.00020594,0.00027344,-0.00076306,0.00028217,-0.000097
 92,0.00026170,-0.00053220,-0.00024358,-0.00000716,-0.00000344,-0.00000
 406,-0.00000393,0.00000468,0.00000074,-0.00000211,0.00000355,0.0000035
 5,0.00001293,0.00000312,-0.00000023,-0.00009272,-0.00001399,0.00001618
 ,-0.00018753,0.00014533,0.00028865,0.00018834,-0.00006297,0.00026250,0
 .00017120,0.00023224,-0.00024936,-0.06205628,0.11572438,0.00003153,0.0
 0001866,-0.00000750,0.00005523,0.00002574,0.00000946,-0.00011517,0.000
 49976,0.00023357,0.00030827,-0.00032289,-0.00011227,-0.00523657,0.0041
 5669,0.00632870,-0.00146551,0.00019991,0.00019344,0.09445843,-0.078116
 73,-0.16985947,-0.00242560,-0.00580260,0.00434485,0.00091514,-0.000113
 60,0.00059955,-0.00021396,0.00027644,-0.00021090,-0.00008692,-0.000169
 37,0.00000975,0.00000681,-0.00000042,-0.00000019,-0.00000936,0.0000062
 4,0.00000270,-0.00000343,-0.00000261,0.00000406,0.00002303,-0.00000920
 ,0.00000826,-0.00009038,-0.00007792,-0.00002135,-0.00012477,-0.0000921
 2,0.00029674,0.00021922,0.00025611,-0.00022270,-0.00028910,0.00046547,
 -0.00087044,-0.10198814,0.08796630,0.18383070,0.00001756,0.00001062,-0
 .00005177,0.00001384,-0.00014027,0.00008659,0.00000262,-0.00047875,0.0
 0020434,-0.00012643,0.00021971,0.00123390,-0.00652243,0.01709272,-0.02
 852557,-0.00226119,-0.00015390,-0.00178206,-0.05119147,0.01947762,-0.0
 3320632,0.00084567,-0.01228435,0.00598956,0.00242713,0.00070528,0.0027
 9662,0.00006521,-0.00034959,-0.00102471,-0.00010589,0.00043081,0.00026
 295,-0.00001418,-0.00000665,-0.00000182,0.00000247,0.00000326,0.000010
 55,-0.00000227,0.00000077,0.00000809,-0.00001974,0.00001309,0.00000744
 ,-0.00013063,0.00008816,-0.00006716,0.00014315,0.00038044,0.00015646,-
 0.00006882,-0.00069942,-0.00020384,-0.00094942,-0.00056917,0.00353583,
 0.00361973,-0.00690312,0.01750354,0.05519976,0.00004920,0.00000392,-0.
 00001149,0.00000264,0.00004687,0.00003495,-0.00022249,0.00004629,0.000
 31925,0.00083521,-0.00056651,-0.00074734,0.00424815,0.00016099,0.00110
 802,-0.00062795,0.00096138,-0.00030823,0.01481937,-0.09641702,0.090963
 43,-0.00328770,-0.03310443,0.02348178,0.00567724,0.00314104,0.00213853
 ,-0.00058287,0.00141028,-0.00160713,0.00032416,-0.00175425,-0.00038367
 ,-0.00000961,-0.00000786,-0.00000789,-0.00001358,0.00001292,0.00000520
 ,-0.00000160,0.00000679,0.00000137,0.00002217,0.00000447,-0.00000460,0
 .00001258,-0.00007599,0.00001466,-0.00049976,0.00021821,0.00013314,-0.
 00037571,0.00013607,-0.00015466,0.00018499,0.00008954,0.00011305,-0.00
 138616,0.00699204,-0.01010583,-0.01678279,0.11962304,-0.00002970,-0.00
 000621,-0.00002043,-0.00005189,-0.00004764,0.00002345,0.00029123,-0.00
 053611,0.00022604,-0.00105534,0.00099623,-0.00027687,-0.00111825,0.003
 07524,-0.00566775,0.00007674,-0.00067370,-0.00018251,-0.03046866,0.092
 79122,-0.21571936,0.00164717,0.00198506,0.00821112,-0.00016993,-0.0005
 0219,0.00334203,0.00128987,-0.00070360,-0.00024135,-0.00059547,0.00118
 595,0.00038327,-0.00000690,0.00000194,0.00000185,0.00001058,-0.0000125
 2,0.00000165,-0.00000586,-0.00000141,0.00000725,0.00000875,0.00000709,
 0.00000483,-0.00017337,0.00008305,-0.00005632,0.00018957,0.00000009,0.
 00039191,0.00011497,-0.00092069,0.00004316,-0.00020021,0.00000775,0.00
 033943,-0.00381328,0.01005961,-0.02364012,0.03315896,-0.10683083,0.233
 43178,-0.00011596,-0.00004669,0.00009493,0.00003242,0.00024238,-0.0000
 6298,-0.00032005,0.00030954,0.00009941,-0.00060401,0.00084407,0.000460
 27,0.00148817,-0.00313364,-0.00080967,-0.00038552,-0.00207237,-0.00075
 905,0.01201426,-0.00476951,-0.00167070,-0.26830348,0.16748992,0.074341
 06,-0.02316993,0.01284200,0.00997717,0.00144143,0.00021488,0.00088159,
 -0.00012086,0.00057142,0.00015139,0.00003276,0.00002716,0.00001075,0.0
 0002750,-0.00002593,-0.00002750,0.00000991,-0.00001262,-0.00002261,0.0
 0000864,-0.00002302,-0.00002178,-0.00002625,-0.00017353,0.00000900,0.0
 0015432,0.00034760,0.00017066,0.00013387,0.00053872,0.00000810,-0.0000
 2251,0.00181253,0.00088102,-0.00082752,-0.00305485,-0.00119093,-0.0008
 1690,-0.00157189,0.00022349,0.28173554,-0.00008017,0.00001805,0.000045
 17,0.00005015,0.00014276,-0.00005712,0.00000413,0.00035838,0.00021247,
 0.00029129,-0.00030940,-0.00004997,0.00184177,-0.00167531,-0.00136198,
 0.00130831,-0.00043755,0.00127089,0.02340142,-0.02729407,-0.01465385,0
 .15423042,-0.17317759,-0.07425491,-0.00665547,0.00609334,0.00440503,-0
 .00080388,0.00165478,0.00025405,0.00069070,-0.00171523,-0.00046676,0.0
 0002457,0.00001127,0.00000198,0.00001641,-0.00002149,-0.00000933,0.000
 00440,-0.00000651,-0.00000606,0.00001034,-0.00000858,-0.00000963,-0.00
 004212,-0.00008343,0.00000793,0.00007569,0.00006829,0.00010279,-0.0000
 0851,0.00018675,-0.00006273,0.00012311,0.00101993,0.00034279,-0.001872
 37,-0.00418559,0.00106675,0.00022197,-0.00100902,0.00007496,-0.1694002
 7,0.19911268,-0.00001754,-0.00002288,0.00001452,-0.00004671,0.00007778
 ,-0.00001986,-0.00002831,0.00013715,0.00005981,-0.00028252,-0.00012750
 ,0.00041448,0.00164371,-0.00289412,0.00138230,0.00049007,0.00120753,-0
 .00216945,0.00267411,0.00503936,-0.00460695,0.09964002,-0.09862097,-0.
 05325160,-0.02200754,0.01106085,-0.00275531,-0.00119321,0.00423553,0.0
 0467471,0.00076707,-0.00212945,-0.00165455,0.00000376,0.00000112,0.000
 00068,-0.00000266,0.00000091,-0.00000300,0.00000337,0.00000309,-0.0000
 0903,0.00000403,-0.00001403,-0.00000443,-0.00000086,-0.00006012,0.0000
 0273,0.00004848,0.00012839,0.00011357,-0.00001519,0.00012377,-0.000068
 69,0.00016570,0.00067380,-0.00027568,-0.00065409,-0.00436821,-0.000714
 42,-0.00018873,0.00189409,-0.00011972,-0.07973613,0.08447646,0.0597326
 2,0.00001959,-0.00000027,-0.00001935,-0.00000946,-0.00004073,0.0000173
 2,0.00000144,-0.00007073,-0.00004305,0.00000889,0.00003280,-0.00004680
 ,-0.00044183,0.00008235,-0.00001033,-0.00042781,-0.00030241,-0.0002108
 2,0.00102724,0.00194629,0.00064411,-0.02661964,0.01373125,0.00421538,-
 0.22946752,0.09833610,0.08315619,0.00457312,0.00093167,0.00383953,0.00
 081306,-0.00048385,-0.00297224,-0.00000732,-0.00000423,-0.00000112,-0.
 00000349,0.00000514,0.00000407,-0.00000181,0.00000159,0.00000541,-0.00
 000264,0.00000581,0.00000417,0.00000695,0.00002287,-0.00000095,-0.0000
 2471,-0.00003067,-0.00002698,-0.00001128,-0.00003382,0.00000726,0.0000
 3152,-0.00022756,-0.00002476,-0.00014616,-0.00067877,-0.00038542,-0.00
 023850,-0.00049628,0.00030130,-0.00235607,-0.00318037,-0.00074615,0.25
 494721,-0.00004432,0.00000832,0.00003490,0.00005521,0.00001708,-0.0000
 3456,0.00006715,0.00006405,0.00003308,0.00004422,-0.00005496,-0.000007
 68,-0.00026014,0.00028201,-0.00005866,0.00004225,-0.00012793,0.0000246
 6,0.00016282,0.00098811,0.00131787,-0.00325497,0.00528862,0.00136533,0
 .09959888,-0.08457841,-0.05795916,0.01129092,-0.01052936,-0.00817876,0
 .00926961,0.00530890,-0.00079832,0.00001400,0.00000857,0.00000218,0.00
 001197,-0.00001295,-0.00000539,0.00000190,-0.00000306,-0.00000719,-0.0
 0000666,-0.00000163,-0.00000646,-0.00001062,0.00000209,0.00000247,0.00
 000591,-0.00000573,-0.00001079,0.00000494,-0.00003317,0.00000814,0.000
 00127,-0.00003930,-0.00001491,0.00058966,0.00030486,-0.00015487,-0.000
 17247,-0.00009560,0.00015728,-0.00081714,0.00106084,-0.00116586,-0.109
 52601,0.08206135,0.00002394,-0.00000224,-0.00001449,-0.00001836,-0.000
 02463,0.00001719,-0.00002906,-0.00004331,-0.00003865,0.00000132,-0.000
 01313,-0.00000547,0.00006976,0.00020196,-0.00007581,-0.00056876,-0.000
 06066,-0.00012620,-0.00036750,0.00040958,0.00106967,-0.01766857,0.0089
 1478,0.00943438,0.09113884,-0.05808365,-0.08570479,0.02241830,-0.01416
 233,-0.01656476,-0.00951632,-0.00042558,0.00213044,-0.00000695,-0.0000
 0459,-0.00000089,-0.00000581,0.00000661,0.00000295,-0.00000074,0.00000
 165,0.00000163,-0.00000022,0.00000212,0.00000380,0.00000982,0.00000815
 ,-0.00000278,-0.00001258,-0.00001668,-0.00001533,-0.00001366,-0.000000
 71,-0.00000428,-0.00004008,-0.00014467,-0.00002060,0.00058331,-0.00014
 568,-0.00021242,0.00009062,-0.00000682,-0.00054041,-0.00302452,-0.0014
 0942,-0.00029460,-0.08784729,0.06562663,0.09023522,-0.00000085,0.00000
 542,0.00000501,0.00001824,0.00000904,-0.00000597,-0.00000821,0.0000544
 3,0.00003826,0.00017889,-0.00005830,-0.00002982,0.00005256,0.00056105,
 0.00016094,-0.00016869,-0.00002322,0.00010686,0.00197987,0.00117634,0.
 00054910,0.00014929,0.00766485,-0.00634881,0.00446086,-0.00332828,0.00
 257753,-0.00121977,0.00042451,-0.00809365,-0.02584026,-0.00493949,0.01
 792698,0.00000469,0.00000348,0.00000174,0.,-0.00000075,-0.00000261,0.0
 0000003,-0.00000363,0.00000106,0.00000320,-0.00000375,-0.00000096,-0.0
 0000286,-0.00001063,-0.00000223,-0.00000918,0.00000093,0.00001056,0.00
 000473,0.00000667,-0.00000921,-0.00000505,-0.00004050,-0.00002146,-0.0
 0018181,-0.00011951,0.00010407,0.00011074,-0.00031734,0.00037622,-0.00
 000974,-0.00025152,-0.00052070,-0.00167077,-0.00706837,0.00478451,0.02
 215409,-0.00006986,0.00000620,0.00004366,0.00007004,0.00003413,-0.0000
 4176,0.00007762,0.00007601,0.00004217,-0.00001538,-0.00004700,0.000048
 66,-0.00044013,0.00001117,-0.00009065,0.00036767,-0.00009557,-0.000015
 61,0.00006774,-0.00089733,-0.00080146,0.00228755,-0.00117965,0.0027535
 5,-0.00308735,0.00139251,-0.00095535,-0.00122835,-0.00762079,-0.046697
 52,-0.00404094,-0.07030022,0.16044073,0.00001862,0.00001182,0.00000430
 ,0.00001777,-0.00001877,-0.00000637,0.00000217,-0.00000432,-0.00000962
 ,-0.00000932,-0.00000316,-0.00000879,-0.00002538,-0.00000250,-0.000002
 69,0.00002239,0.00000415,0.00001033,0.00002314,-0.00003551,0.00000120,
 0.00000479,0.00005069,0.00000927,-0.00003848,0.00005440,0.00003011,-0.
 00010395,0.00017682,-0.00019057,-0.00013874,0.00019669,0.00034332,-0.0
 0002018,0.00008731,-0.00062737,0.00625857,0.07810294,0.00000648,-0.000
 00148,-0.00000481,-0.00001604,-0.00000382,0.00000809,-0.00000351,-0.00
 001785,-0.00002082,-0.00005558,0.00003901,-0.00002776,0.00013113,-0.00
 024486,-0.00000962,-0.00006544,0.00007493,0.00007040,-0.00057846,0.000
 32234,0.00041357,-0.00074483,-0.00159902,-0.00015853,0.00088056,0.0037
 5054,0.00290461,0.00015809,0.00011409,-0.03938712,0.01169690,0.1119290
 5,-0.33730822,-0.00000285,-0.00000119,0.00000021,-0.00000213,0.0000011
 7,0.00000042,-0.00000038,0.00000026,0.00000006,0.00000158,0.00000099,0
 .00000020,-0.00000030,-0.00000430,0.00000267,-0.00000299,-0.00000560,-
 0.00000453,0.00000121,0.00000760,0.00000227,-0.00000599,-0.00000372,-0
 .00000788,0.00004597,0.00004981,0.00001002,0.00000651,-0.00003899,0.00
 005709,0.00001701,0.00008048,-0.00044813,0.00014052,-0.00016992,0.0007
 2620,-0.01160744,-0.11427951,0.37318161\\-0.00000348,-0.00000414,0.000
 00554,0.00000459,0.00000502,-0.00000075,-0.00000389,-0.00000616,-0.000
 00238,0.00000442,0.00000444,0.00000618,-0.00000721,0.00000384,-0.00000
 141,0.00000248,-0.00000372,-0.00000151,-0.00000193,-0.00002530,0.00000
 537,-0.00002400,0.00001711,-0.00001558,0.00002872,0.00000799,0.0000285
 1,-0.00000230,-0.00000887,-0.00001016,0.00000034,0.00000425,0.00000293
 ,-0.00000045,0.00000200,-0.00000163,0.00000049,0.00000038,-0.00000065,
 0.00000026,-0.00000161,-0.00000052,-0.00000096,-0.00000164,-0.00000033
 ,0.00000075,0.00000383,0.00000098,0.00000038,0.00000279,-0.00000173,-0
 .00000150,-0.00000185,-0.00000271,0.00000530,-0.00000107,0.00000091,-0
 .00000087,0.00000678,-0.00000027,0.00000113,0.00000588,-0.00000380,0.0
 0000220,-0.00000579,-0.00000067,-0.00000468,-0.00000341,-0.00000415,0.
 00000018,-0.00000077,-0.00000216\\\@


 NOTHING MAKES A PERSON MORE PRODUCTIVE THAN THE LAST MINUTE.
 Job cpu time:       0 days  2 hours 28 minutes  1.5 seconds.
 Elapsed time:       0 days  0 hours 37 minutes 10.5 seconds.
 File lengths (MBytes):  RWF=    252 Int=      0 D2E=      0 Chk=     12 Scr=      1
 Normal termination of Gaussian 16 at Tue Jun  1 00:57:41 2021.
### All Done ###
