### Starting Gaussian ###
 Entering Gaussian System, Link 0=g16
 Initial command:
 /cluster/software/gaussian/gaussian-16-A.03/avx2/g16/l1.exe "/local/scratch/cz9n3/Gau-16055.inp" -scrdir="/local/scratch/cz9n3/"
 Entering Link 1 = /cluster/software/gaussian/gaussian-16-A.03/avx2/g16/l1.exe PID=     16056.
  
 Copyright (c) 1988,1990,1992,1993,1995,1998,2003,2009,2016,
            Gaussian, Inc.  All Rights Reserved.
  
 This is part of the Gaussian(R) 16 program.  It is based on
 the Gaussian(R) 09 system (copyright 2009, Gaussian, Inc.),
 the Gaussian(R) 03 system (copyright 2003, Gaussian, Inc.),
 the Gaussian(R) 98 system (copyright 1998, Gaussian, Inc.),
 the Gaussian(R) 94 system (copyright 1995, Gaussian, Inc.),
 the Gaussian 92(TM) system (copyright 1992, Gaussian, Inc.),
 the Gaussian 90(TM) system (copyright 1990, Gaussian, Inc.),
 the Gaussian 88(TM) system (copyright 1988, Gaussian, Inc.),
 the Gaussian 86(TM) system (copyright 1986, Carnegie Mellon
 University), and the Gaussian 82(TM) system (copyright 1983,
 Carnegie Mellon University). Gaussian is a federally registered
 trademark of Gaussian, Inc.
  
 This software contains proprietary and confidential information,
 including trade secrets, belonging to Gaussian, Inc.
  
 This software is provided under written license and may be
 used, copied, transmitted, or stored only in accord with that
 written license.
  
 The following legend is applicable only to US Government
 contracts under FAR:
  
                    RESTRICTED RIGHTS LEGEND
  
 Use, reproduction and disclosure by the US Government is
 subject to restrictions as set forth in subparagraphs (a)
 and (c) of the Commercial Computer Software - Restricted
 Rights clause in FAR 52.227-19.
  
 Gaussian, Inc.
 340 Quinnipiac St., Bldg. 40, Wallingford CT 06492
  
  
 ---------------------------------------------------------------
 Warning -- This program may not be used in any manner that
 competes with the business of Gaussian, Inc. or will provide
 assistance to any competitor of Gaussian, Inc.  The licensee
 of this program is prohibited from giving any competitor of
 Gaussian, Inc. access to this program.  By using this program,
 the user acknowledges that Gaussian, Inc. is engaged in the
 business of creating and licensing software in the field of
 computational chemistry and represents and warrants to the
 licensee that it is not a competitor of Gaussian, Inc. and that
 it will not use this program in any manner prohibited above.
 ---------------------------------------------------------------
  

 Cite this work as:
 Gaussian 16, Revision A.03,
 M. J. Frisch, G. W. Trucks, H. B. Schlegel, G. E. Scuseria, 
 M. A. Robb, J. R. Cheeseman, G. Scalmani, V. Barone, 
 G. A. Petersson, H. Nakatsuji, X. Li, M. Caricato, A. V. Marenich, 
 J. Bloino, B. G. Janesko, R. Gomperts, B. Mennucci, H. P. Hratchian, 
 J. V. Ortiz, A. F. Izmaylov, J. L. Sonnenberg, D. Williams-Young, 
 F. Ding, F. Lipparini, F. Egidi, J. Goings, B. Peng, A. Petrone, 
 T. Henderson, D. Ranasinghe, V. G. Zakrzewski, J. Gao, N. Rega, 
 G. Zheng, W. Liang, M. Hada, M. Ehara, K. Toyota, R. Fukuda, 
 J. Hasegawa, M. Ishida, T. Nakajima, Y. Honda, O. Kitao, H. Nakai, 
 T. Vreven, K. Throssell, J. A. Montgomery, Jr., J. E. Peralta, 
 F. Ogliaro, M. J. Bearpark, J. J. Heyd, E. N. Brothers, K. N. Kudin, 
 V. N. Staroverov, T. A. Keith, R. Kobayashi, J. Normand, 
 K. Raghavachari, A. P. Rendell, J. C. Burant, S. S. Iyengar, 
 J. Tomasi, M. Cossi, J. M. Millam, M. Klene, C. Adamo, R. Cammi, 
 J. W. Ochterski, R. L. Martin, K. Morokuma, O. Farkas, 
 J. B. Foresman, and D. J. Fox, Gaussian, Inc., Wallingford CT, 2016.
 
 ******************************************
 Gaussian 16:  ES64L-G16RevA.03 25-Dec-2016
                 1-Jun-2021 
 ******************************************
 %chk=CNNCpCNpCCCN.chk
 %NProcShared=20
 Will use up to   20 processors via shared memory.
 -----------------------------
 # opt freq b3lyp/6-31g(2df,p)
 -----------------------------
 1/18=20,19=15,26=3,38=1/1,3;
 2/9=110,12=2,17=6,18=5,40=1/2;
 3/5=1,6=6,7=104,11=2,25=1,30=1,71=1,74=-5/1,2,3;
 4//1;
 5/5=2,38=5/2;
 6/7=2,8=2,9=2,10=2,28=1/1;
 7//1,2,3,16;
 1/18=20,19=15,26=3/3(2);
 2/9=110/2;
 99//99;
 2/9=110/2;
 3/5=1,6=6,7=104,11=2,25=1,30=1,71=1,74=-5/1,2,3;
 4/5=5,16=3,69=1/1;
 5/5=2,38=5/2;
 7//1,2,3,16;
 1/18=20,19=15,26=3/3(-5);
 2/9=110/2;
 6/7=2,8=2,9=2,10=2,19=2,28=1/1;
 99/9=1/99;
 -------------------
 Title Card Required
 -------------------
 Symbolic Z-matrix:
 Charge =  0 Multiplicity = 1
 C                     0.90979   0.04458  -0.03802 
 N                     2.36082  -0.05104  -0.1227 
 N                     2.88174  -0.70975   1.0654 
 C                     4.36697  -0.6108    1.0527 
 C                     4.88437   0.86666   1.11051 
 N                     4.46081   1.71072  -0.02126 
 C                     4.9029   -1.4258    2.25364 
 C                     6.43421  -1.47962   2.29319 
 C                     6.94683  -2.27583   3.48698 
 N                     8.40466  -2.2509    3.48593 
 H                     0.54416   0.62548  -0.89124 
 H                     0.57997   0.54745   0.87695 
 H                     0.45535  -0.94861  -0.09454 
 H                     2.73977   0.91428  -0.1501 
 H                     2.62213  -1.69996   1.05003 
 H                     4.74021  -1.08364   0.13342 
 H                     5.97722   0.87863   1.10021 
 H                     4.55574   1.3348    2.04447 
 H                     4.76069   1.25895  -0.88388 
 H                     4.94937   2.60585   0.02945 
 H                     4.5191   -2.45404   2.20127 
 H                     4.52793  -0.99745   3.19237 
 H                     6.84731  -0.46874   2.36698 
 H                     6.80551  -1.91572   1.35711 
 H                     6.59125  -3.31003   3.44359 
 H                     6.58262  -1.82889   4.41814 
 H                     8.75743  -2.69134   2.63731 
 H                     8.75618  -2.80342   4.26618 
 

 GradGradGradGradGradGradGradGradGradGradGradGradGradGradGradGradGradGrad
 Berny optimization.
 Initialization pass.
                           ----------------------------
                           !    Initial Parameters    !
                           ! (Angstroms and Degrees)  !
 --------------------------                            --------------------------
 ! Name  Definition              Value          Derivative Info.                !
 --------------------------------------------------------------------------------
 ! R1    R(1,2)                  1.4566         estimate D2E/DX2                !
 ! R2    R(1,11)                 1.095          estimate D2E/DX2                !
 ! R3    R(1,12)                 1.0949         estimate D2E/DX2                !
 ! R4    R(1,13)                 1.0937         estimate D2E/DX2                !
 ! R5    R(2,3)                  1.4549         estimate D2E/DX2                !
 ! R6    R(2,14)                 1.0374         estimate D2E/DX2                !
 ! R7    R(3,4)                  1.4886         estimate D2E/DX2                !
 ! R8    R(3,15)                 1.0238         estimate D2E/DX2                !
 ! R9    R(4,5)                  1.5665         estimate D2E/DX2                !
 ! R10   R(4,7)                  1.5472         estimate D2E/DX2                !
 ! R11   R(4,16)                 1.0991         estimate D2E/DX2                !
 ! R12   R(5,6)                  1.474          estimate D2E/DX2                !
 ! R13   R(5,17)                 1.093          estimate D2E/DX2                !
 ! R14   R(5,18)                 1.0952         estimate D2E/DX2                !
 ! R15   R(6,19)                 1.0189         estimate D2E/DX2                !
 ! R16   R(6,20)                 1.021          estimate D2E/DX2                !
 ! R17   R(7,8)                  1.5328         estimate D2E/DX2                !
 ! R18   R(7,21)                 1.0988         estimate D2E/DX2                !
 ! R19   R(7,22)                 1.0979         estimate D2E/DX2                !
 ! R20   R(8,9)                  1.5238         estimate D2E/DX2                !
 ! R21   R(8,23)                 1.0945         estimate D2E/DX2                !
 ! R22   R(8,24)                 1.0974         estimate D2E/DX2                !
 ! R23   R(9,10)                 1.458          estimate D2E/DX2                !
 ! R24   R(9,25)                 1.0945         estimate D2E/DX2                !
 ! R25   R(9,26)                 1.0952         estimate D2E/DX2                !
 ! R26   R(10,27)                1.0191         estimate D2E/DX2                !
 ! R27   R(10,28)                1.0186         estimate D2E/DX2                !
 ! A1    A(2,1,11)             108.7922         estimate D2E/DX2                !
 ! A2    A(2,1,12)             112.2593         estimate D2E/DX2                !
 ! A3    A(2,1,13)             110.5667         estimate D2E/DX2                !
 ! A4    A(11,1,12)            107.8724         estimate D2E/DX2                !
 ! A5    A(11,1,13)            107.622          estimate D2E/DX2                !
 ! A6    A(12,1,13)            109.5786         estimate D2E/DX2                !
 ! A7    A(1,2,3)              109.8102         estimate D2E/DX2                !
 ! A8    A(1,2,14)             107.7181         estimate D2E/DX2                !
 ! A9    A(3,2,14)             108.1838         estimate D2E/DX2                !
 ! A10   A(2,3,4)              108.6732         estimate D2E/DX2                !
 ! A11   A(2,3,15)             109.5629         estimate D2E/DX2                !
 ! A12   A(4,3,15)             108.4919         estimate D2E/DX2                !
 ! A13   A(3,4,5)              113.0744         estimate D2E/DX2                !
 ! A14   A(3,4,7)              107.6967         estimate D2E/DX2                !
 ! A15   A(3,4,16)             108.5039         estimate D2E/DX2                !
 ! A16   A(5,4,7)              110.7182         estimate D2E/DX2                !
 ! A17   A(5,4,16)             108.9331         estimate D2E/DX2                !
 ! A18   A(7,4,16)             107.7571         estimate D2E/DX2                !
 ! A19   A(4,5,6)              114.6346         estimate D2E/DX2                !
 ! A20   A(4,5,17)             109.8913         estimate D2E/DX2                !
 ! A21   A(4,5,18)             109.604          estimate D2E/DX2                !
 ! A22   A(6,5,17)             105.8913         estimate D2E/DX2                !
 ! A23   A(6,5,18)             108.8919         estimate D2E/DX2                !
 ! A24   A(17,5,18)            107.6614         estimate D2E/DX2                !
 ! A25   A(5,6,19)             108.1544         estimate D2E/DX2                !
 ! A26   A(5,6,20)             109.0494         estimate D2E/DX2                !
 ! A27   A(19,6,20)            106.8541         estimate D2E/DX2                !
 ! A28   A(4,7,8)              112.6184         estimate D2E/DX2                !
 ! A29   A(4,7,21)             109.5702         estimate D2E/DX2                !
 ! A30   A(4,7,22)             109.8691         estimate D2E/DX2                !
 ! A31   A(8,7,21)             108.5018         estimate D2E/DX2                !
 ! A32   A(8,7,22)             109.4424         estimate D2E/DX2                !
 ! A33   A(21,7,22)            106.6528         estimate D2E/DX2                !
 ! A34   A(7,8,9)              112.0033         estimate D2E/DX2                !
 ! A35   A(7,8,23)             110.2659         estimate D2E/DX2                !
 ! A36   A(7,8,24)             109.2668         estimate D2E/DX2                !
 ! A37   A(9,8,23)             107.6263         estimate D2E/DX2                !
 ! A38   A(9,8,24)             110.2919         estimate D2E/DX2                !
 ! A39   A(23,8,24)            107.2674         estimate D2E/DX2                !
 ! A40   A(8,9,10)             109.0788         estimate D2E/DX2                !
 ! A41   A(8,9,25)             110.6949         estimate D2E/DX2                !
 ! A42   A(8,9,26)             109.9371         estimate D2E/DX2                !
 ! A43   A(10,9,25)            109.9357         estimate D2E/DX2                !
 ! A44   A(10,9,26)            109.0345         estimate D2E/DX2                !
 ! A45   A(25,9,26)            108.1363         estimate D2E/DX2                !
 ! A46   A(9,10,27)            109.8351         estimate D2E/DX2                !
 ! A47   A(9,10,28)            109.5853         estimate D2E/DX2                !
 ! A48   A(27,10,28)           106.4965         estimate D2E/DX2                !
 ! D1    D(11,1,2,3)           174.6666         estimate D2E/DX2                !
 ! D2    D(11,1,2,14)           57.0663         estimate D2E/DX2                !
 ! D3    D(12,1,2,3)            55.3552         estimate D2E/DX2                !
 ! D4    D(12,1,2,14)          -62.2451         estimate D2E/DX2                !
 ! D5    D(13,1,2,3)           -67.3493         estimate D2E/DX2                !
 ! D6    D(13,1,2,14)          175.0504         estimate D2E/DX2                !
 ! D7    D(1,2,3,4)           -171.5122         estimate D2E/DX2                !
 ! D8    D(1,2,3,15)            70.1023         estimate D2E/DX2                !
 ! D9    D(14,2,3,4)           -54.2023         estimate D2E/DX2                !
 ! D10   D(14,2,3,15)         -172.5878         estimate D2E/DX2                !
 ! D11   D(2,3,4,5)             62.3774         estimate D2E/DX2                !
 ! D12   D(2,3,4,7)           -174.9684         estimate D2E/DX2                !
 ! D13   D(2,3,4,16)           -58.5853         estimate D2E/DX2                !
 ! D14   D(15,3,4,5)          -178.5631         estimate D2E/DX2                !
 ! D15   D(15,3,4,7)           -55.909          estimate D2E/DX2                !
 ! D16   D(15,3,4,16)           60.4741         estimate D2E/DX2                !
 ! D17   D(3,4,5,6)            -60.9978         estimate D2E/DX2                !
 ! D18   D(3,4,5,17)           179.9071         estimate D2E/DX2                !
 ! D19   D(3,4,5,18)            61.7844         estimate D2E/DX2                !
 ! D20   D(7,4,5,6)            178.0457         estimate D2E/DX2                !
 ! D21   D(7,4,5,17)            58.9505         estimate D2E/DX2                !
 ! D22   D(7,4,5,18)           -59.1721         estimate D2E/DX2                !
 ! D23   D(16,4,5,6)            59.7214         estimate D2E/DX2                !
 ! D24   D(16,4,5,17)          -59.3738         estimate D2E/DX2                !
 ! D25   D(16,4,5,18)         -177.4964         estimate D2E/DX2                !
 ! D26   D(3,4,7,8)            176.0747         estimate D2E/DX2                !
 ! D27   D(3,4,7,21)            55.213          estimate D2E/DX2                !
 ! D28   D(3,4,7,22)           -61.6503         estimate D2E/DX2                !
 ! D29   D(5,4,7,8)            -59.8333         estimate D2E/DX2                !
 ! D30   D(5,4,7,21)           179.305          estimate D2E/DX2                !
 ! D31   D(5,4,7,22)            62.4417         estimate D2E/DX2                !
 ! D32   D(16,4,7,8)            59.2038         estimate D2E/DX2                !
 ! D33   D(16,4,7,21)          -61.6578         estimate D2E/DX2                !
 ! D34   D(16,4,7,22)         -178.5212         estimate D2E/DX2                !
 ! D35   D(4,5,6,19)           -56.0717         estimate D2E/DX2                !
 ! D36   D(4,5,6,20)          -171.922          estimate D2E/DX2                !
 ! D37   D(17,5,6,19)           65.2424         estimate D2E/DX2                !
 ! D38   D(17,5,6,20)          -50.608          estimate D2E/DX2                !
 ! D39   D(18,5,6,19)         -179.2371         estimate D2E/DX2                !
 ! D40   D(18,5,6,20)           64.9125         estimate D2E/DX2                !
 ! D41   D(4,7,8,9)            179.5427         estimate D2E/DX2                !
 ! D42   D(4,7,8,23)            59.7177         estimate D2E/DX2                !
 ! D43   D(4,7,8,24)           -57.9445         estimate D2E/DX2                !
 ! D44   D(21,7,8,9)           -58.9862         estimate D2E/DX2                !
 ! D45   D(21,7,8,23)         -178.8111         estimate D2E/DX2                !
 ! D46   D(21,7,8,24)           63.5267         estimate D2E/DX2                !
 ! D47   D(22,7,8,9)            57.0275         estimate D2E/DX2                !
 ! D48   D(22,7,8,23)          -62.7975         estimate D2E/DX2                !
 ! D49   D(22,7,8,24)          179.5403         estimate D2E/DX2                !
 ! D50   D(7,8,9,10)          -178.2413         estimate D2E/DX2                !
 ! D51   D(7,8,9,25)            60.6726         estimate D2E/DX2                !
 ! D52   D(7,8,9,26)           -58.7331         estimate D2E/DX2                !
 ! D53   D(23,8,9,10)          -56.8835         estimate D2E/DX2                !
 ! D54   D(23,8,9,25)         -177.9696         estimate D2E/DX2                !
 ! D55   D(23,8,9,26)           62.6248         estimate D2E/DX2                !
 ! D56   D(24,8,9,10)           59.8308         estimate D2E/DX2                !
 ! D57   D(24,8,9,25)          -61.2553         estimate D2E/DX2                !
 ! D58   D(24,8,9,26)          179.339          estimate D2E/DX2                !
 ! D59   D(8,9,10,27)          -61.7331         estimate D2E/DX2                !
 ! D60   D(8,9,10,28)         -178.3961         estimate D2E/DX2                !
 ! D61   D(25,9,10,27)          59.815          estimate D2E/DX2                !
 ! D62   D(25,9,10,28)         -56.848          estimate D2E/DX2                !
 ! D63   D(26,9,10,27)         178.2007         estimate D2E/DX2                !
 ! D64   D(26,9,10,28)          61.5377         estimate D2E/DX2                !
 --------------------------------------------------------------------------------
 Trust Radius=3.00D-01 FncErr=1.00D-07 GrdErr=1.00D-06 EigMax=2.50D+02 EigMin=1.00D-04
 Number of steps in this run=    149 maximum allowed number of steps=    168.
 GradGradGradGradGradGradGradGradGradGradGradGradGradGradGradGradGradGrad

                          Input orientation:                          
 ---------------------------------------------------------------------
 Center     Atomic      Atomic             Coordinates (Angstroms)
 Number     Number       Type             X           Y           Z
 ---------------------------------------------------------------------
      1          6           0        0.909790    0.044580   -0.038020
      2          7           0        2.360820   -0.051040   -0.122700
      3          7           0        2.881740   -0.709750    1.065400
      4          6           0        4.366970   -0.610800    1.052700
      5          6           0        4.884370    0.866660    1.110510
      6          7           0        4.460810    1.710720   -0.021260
      7          6           0        4.902900   -1.425800    2.253640
      8          6           0        6.434210   -1.479620    2.293190
      9          6           0        6.946830   -2.275830    3.486980
     10          7           0        8.404660   -2.250900    3.485930
     11          1           0        0.544160    0.625480   -0.891240
     12          1           0        0.579970    0.547450    0.876950
     13          1           0        0.455350   -0.948610   -0.094540
     14          1           0        2.739770    0.914280   -0.150100
     15          1           0        2.622130   -1.699960    1.050030
     16          1           0        4.740210   -1.083640    0.133420
     17          1           0        5.977220    0.878630    1.100210
     18          1           0        4.555740    1.334800    2.044470
     19          1           0        4.760690    1.258950   -0.883880
     20          1           0        4.949370    2.605850    0.029450
     21          1           0        4.519100   -2.454040    2.201270
     22          1           0        4.527930   -0.997450    3.192370
     23          1           0        6.847310   -0.468740    2.366980
     24          1           0        6.805510   -1.915720    1.357110
     25          1           0        6.591250   -3.310030    3.443590
     26          1           0        6.582620   -1.828890    4.418140
     27          1           0        8.757430   -2.691340    2.637310
     28          1           0        8.756180   -2.803420    4.266180
 ---------------------------------------------------------------------
                    Distance matrix (angstroms):
                    1          2          3          4          5
     1  C    0.000000
     2  N    1.456641   0.000000
     3  N    2.382254   1.454936   0.000000
     4  C    3.683923   2.391555   1.488577   0.000000
     5  C    4.218083   2.954875   2.549045   1.566503   0.000000
     6  N    3.922505   2.743000   3.087550   2.559619   1.474023
     7  C    4.833079   3.741541   2.451475   1.547160   2.561730
     8  C    6.186836   4.946703   3.836693   2.562644   3.050535
     9  C    7.365852   6.245876   4.984136   3.918383   4.447088
    10  N    8.594215   7.374930   6.223886   4.991340   5.268230
    11  H    1.095041   2.085326   3.327996   4.463313   4.785665
    12  H    1.094911   2.128125   2.629489   3.964064   4.322535
    13  H    1.093680   2.106476   2.699978   4.090360   4.935947
    14  H    2.029228   1.037399   2.033487   2.533846   2.488115
    15  H    2.675702   2.040224   1.023792   2.056877   3.421831
    16  H    3.996797   2.606407   2.112414   1.099073   2.186128
    17  H    5.260233   3.929140   3.479391   2.193984   1.092964
    18  H    4.392537   3.381546   2.817985   2.191940   1.095187
    19  H    4.125482   2.838106   3.347525   2.720537   2.036364
    20  H    4.783604   3.712520   4.042461   3.425357   2.048828
    21  H    4.927945   3.979123   2.648338   2.177129   3.514289
    22  H    4.961067   4.072069   2.704943   2.180274   2.817108
    23  H    6.426637   5.147968   4.180663   2.810623   2.686102
    24  H    6.367784   5.042037   4.115268   2.782438   3.390167
    25  H    7.460161   6.421525   5.116416   4.236699   5.079512
    26  H    7.453070   6.450083   5.117602   4.209398   4.592435
    27  H    8.730871   7.450199   6.396978   5.110360   5.476411
    28  H    9.391649   8.230340   7.009814   5.865083   6.198278
                    6          7          8          9         10
     6  N    0.000000
     7  C    3.899791   0.000000
     8  C    4.407863   1.532766   0.000000
     9  C    5.863499   2.534034   1.523766   0.000000
    10  N    6.599149   3.802848   2.429028   1.458044   0.000000
    11  H    4.156291   5.752967   7.018884   8.281340   9.445668
    12  H    4.149807   4.947395   6.355067   7.437746   8.709955
    13  H    4.808442   5.051966   6.459876   7.531807   8.815172
    14  H    1.900762   3.991625   5.034810   6.411280   7.438418
    15  H    4.020093   2.593406   4.015713   4.997337   6.298793
    16  H    2.812550   2.153805   2.773273   4.187703   5.101962
    17  H    2.061448   2.791946   2.682049   4.072767   4.623644
    18  H    2.101801   2.790194   3.392856   4.564515   5.454286
    19  H    1.018890   4.131844   4.515995   6.031442   6.685268
    20  H    1.021039   4.604713   4.901054   6.306755   6.890160
    21  H    4.721045   1.098782   2.150718   2.752941   4.097462
    22  H    4.203107   1.097862   2.162155   2.751750   4.084893
    23  H    4.018597   2.170147   1.094520   2.128351   2.617916
    24  H    4.533055   2.159563   1.097403   2.164716   2.683561
    25  H    6.461570   2.795859   2.167598   1.094481   2.100477
    26  H    6.061286   2.769296   2.158571   1.095200   2.089722
    27  H    6.701274   4.075070   2.642733   2.042758   1.019112
    28  H    7.563716   4.560254   3.322150   2.039424   1.018644
                   11         12         13         14         15
    11  H    0.000000
    12  H    1.770273   0.000000
    13  H    1.766459   1.788161   0.000000
    14  H    2.335251   2.419531   2.948223   0.000000
    15  H    3.673440   3.041583   2.563104   2.878958   0.000000
    16  H    4.645197   4.529999   4.293044   2.841448   2.388784
    17  H    5.792072   5.412008   5.937784   3.470681   4.231817
    18  H    5.021384   4.217792   5.157763   2.879361   3.733300
    19  H    4.263855   4.591860   4.902278   2.177464   4.131416
    20  H    4.916850   4.903766   5.731123   2.788544   4.999763
    21  H    5.903153   5.126355   4.904195   4.476666   2.343605
    22  H    5.931290   4.830556   5.233743   4.245507   2.952154
    23  H    7.179346   6.521686   6.866332   5.012018   4.593736
    24  H    7.121606   6.712310   6.585372   5.177917   4.200181
    25  H    8.417024   7.589682   7.466186   6.752281   4.906666
    26  H    8.406929   7.363343   7.660458   6.569726   5.200603
    27  H    9.534661   8.969921   8.912051   7.548668   6.414374
    28  H   10.285602   9.463911   9.558241   8.337986   7.013402
                   16         17         18         19         20
    16  H    0.000000
    17  H    2.513042   0.000000
    18  H    3.087878   1.766444   0.000000
    19  H    2.554026   2.358220   2.936493   0.000000
    20  H    3.696876   2.277343   2.414709   1.638265   0.000000
    21  H    2.490560   3.800676   3.792260   4.833509   5.523081
    22  H    3.067518   3.161843   2.599584   4.664904   4.813050
    23  H    3.131575   2.043812   2.933950   4.231665   4.303409
    24  H    2.540716   2.925825   4.012457   4.391111   5.064833
    25  H    4.397771   4.838733   5.260730   6.553894   7.024938
    26  H    4.723208   4.325024   4.444264   6.400438   6.449420
    27  H    4.999222   4.778800   5.849398   6.631553   7.025843
    28  H    6.013765   5.594951   6.301155   7.680489   7.855055
                   21         22         23         24         25
    21  H    0.000000
    22  H    1.761821   0.000000
    23  H    3.064219   2.518000   0.000000
    24  H    2.496010   3.065741   1.765031   0.000000
    25  H    2.563178   3.109409   3.049194   2.518612   0.000000
    26  H    3.092481   2.532895   2.475344   3.070362   1.773019
    27  H    4.267304   4.589774   2.943058   2.459774   2.392739
    28  H    4.726390   4.721514   3.563913   3.613283   2.370702
                   26         27         28
    26  H    0.000000
    27  H    2.940234   0.000000
    28  H    2.386873   1.632722   0.000000
 Stoichiometry    C6H18N4
 Framework group  C1[X(C6H18N4)]
 Deg. of freedom    78
 Full point group                 C1      NOp   1
 Largest Abelian subgroup         C1      NOp   1
 Largest concise Abelian subgroup C1      NOp   1
                         Standard orientation:                         
 ---------------------------------------------------------------------
 Center     Atomic      Atomic             Coordinates (Angstroms)
 Number     Number       Type             X           Y           Z
 ---------------------------------------------------------------------
      1          6           0       -3.943448   -1.099383    0.103089
      2          7           0       -2.797201   -0.355835   -0.401942
      3          7           0       -1.566722   -0.937433    0.112357
      4          6           0       -0.431226   -0.043943   -0.245671
      5          6           0       -0.543540    1.379676    0.398244
      6          7           0       -1.738747    2.143146   -0.003426
      7          6           0        0.875592   -0.743586    0.197533
      8          6           0        2.129730    0.039989   -0.205604
      9          6           0        3.407608   -0.655570    0.247263
     10          7           0        4.554557    0.161501   -0.130620
     11          1           0       -4.860586   -0.592573   -0.214898
     12          1           0       -3.952355   -1.155483    1.196525
     13          1           0       -3.961050   -2.109484   -0.315865
     14          1           0       -2.869487    0.615889   -0.045959
     15          1           0       -1.411045   -1.850788   -0.323186
     16          1           0       -0.401132    0.060703   -1.339337
     17          1           0        0.314187    1.989726    0.103774
     18          1           0       -0.529422    1.291414    1.489777
     19          1           0       -1.747454    2.207479   -1.020246
     20          1           0       -1.660318    3.096780    0.352876
     21          1           0        0.929100   -1.743746   -0.254286
     22          1           0        0.870065   -0.889775    1.285604
     23          1           0        2.116246    1.036253    0.247443
     24          1           0        2.136508    0.177317   -1.294359
     25          1           0        3.490050   -1.647615   -0.207643
     26          1           0        3.400049   -0.779076    1.335451
     27          1           0        4.590329    0.259507   -1.144378
     28          1           0        5.414813   -0.309272    0.145000
 ---------------------------------------------------------------------
 Rotational constants (GHZ):           2.6964861           0.4811559           0.4224428
 Standard basis: 6-31G(2df,p) (6D, 7F)
 There are   400 symmetry adapted cartesian basis functions of A   symmetry.
 There are   370 symmetry adapted basis functions of A   symmetry.
   370 basis functions,   566 primitive gaussians,   400 cartesian basis functions
    41 alpha electrons       41 beta electrons
       nuclear repulsion energy       571.4400358582 Hartrees.
 NAtoms=   28 NActive=   28 NUniq=   28 SFac= 1.00D+00 NAtFMM=   60 NAOKFM=F Big=F
 Integral buffers will be    131072 words long.
 Raffenetti 2 integral format.
 Two-electron integral symmetry is turned on.
 One-electron integrals computed using PRISM.
 PrsmSu:  requested number of processors reduced to:  13 ShMem   1 Linda.
 NBasis=   370 RedAO= T EigKep=  3.05D-04  NBF=   370
 NBsUse=   370 1.00D-06 EigRej= -1.00D+00 NBFU=   370
 ExpMin= 1.61D-01 ExpMax= 4.17D+03 ExpMxC= 6.27D+02 IAcc=3 IRadAn=         5 AccDes= 0.00D+00
 Harris functional with IExCor=  402 and IRadAn=       5 diagonalized for initial guess.
 HarFok:  IExCor=  402 AccDes= 0.00D+00 IRadAn=         5 IDoV= 1 UseB2=F ITyADJ=14
 ICtDFT=  3500011 ScaDFX=  1.000000  1.000000  1.000000  1.000000
 FoFCou: FMM=F IPFlag=           0 FMFlag=      100000 FMFlg1=           0
         NFxFlg=           0 DoJE=T BraDBF=F KetDBF=T FulRan=T
         wScrn=  0.000000 ICntrl=       500 IOpCl=  0 I1Cent=   200000004 NGrid=           0
         NMat0=    1 NMatS0=      1 NMatT0=    0 NMatD0=    1 NMtDS0=    0 NMtDT0=    0
 Petite list used in FoFCou.
 Requested convergence on RMS density matrix=1.00D-08 within 128 cycles.
 Requested convergence on MAX density matrix=1.00D-06.
 Requested convergence on             energy=1.00D-06.
 No special actions if energy rises.
 Integral accuracy reduced to 1.0D-05 until final iterations.
 Initial convergence to 1.0D-05 achieved.  Increase integral accuracy.
 SCF Done:  E(RB3LYP) =  -458.450573849     A.U. after   12 cycles
            NFock= 12  Conv=0.40D-08     -V/T= 2.0081

 **********************************************************************

            Population analysis using the SCF density.

 **********************************************************************

 Orbital symmetries:
       Occupied  (A) (A) (A) (A) (A) (A) (A) (A) (A) (A) (A) (A)
                 (A) (A) (A) (A) (A) (A) (A) (A) (A) (A) (A) (A)
                 (A) (A) (A) (A) (A) (A) (A) (A) (A) (A) (A) (A)
                 (A) (A) (A) (A) (A)
       Virtual   (A) (A) (A) (A) (A) (A) (A) (A) (A) (A) (A) (A)
                 (A) (A) (A) (A) (A) (A) (A) (A) (A) (A) (A) (A)
                 (A) (A) (A) (A) (A) (A) (A) (A) (A) (A) (A) (A)
                 (A) (A) (A) (A) (A) (A) (A) (A) (A) (A) (A) (A)
                 (A) (A) (A) (A) (A) (A) (A) (A) (A) (A) (A) (A)
                 (A) (A) (A) (A) (A) (A) (A) (A) (A) (A) (A) (A)
                 (A) (A) (A) (A) (A) (A) (A) (A) (A) (A) (A) (A)
                 (A) (A) (A) (A) (A) (A) (A) (A) (A) (A) (A) (A)
                 (A) (A) (A) (A) (A) (A) (A) (A) (A) (A) (A) (A)
                 (A) (A) (A) (A) (A) (A) (A) (A) (A) (A) (A) (A)
                 (A) (A) (A) (A) (A) (A) (A) (A) (A) (A) (A) (A)
                 (A) (A) (A) (A) (A) (A) (A) (A) (A) (A) (A) (A)
                 (A) (A) (A) (A) (A) (A) (A) (A) (A) (A) (A) (A)
                 (A) (A) (A) (A) (A) (A) (A) (A) (A) (A) (A) (A)
                 (A) (A) (A) (A) (A) (A) (A) (A) (A) (A) (A) (A)
                 (A) (A) (A) (A) (A) (A) (A) (A) (A) (A) (A) (A)
                 (A) (A) (A) (A) (A) (A) (A) (A) (A) (A) (A) (A)
                 (A) (A) (A) (A) (A) (A) (A) (A) (A) (A) (A) (A)
                 (A) (A) (A) (A) (A) (A) (A) (A) (A) (A) (A) (A)
                 (A) (A) (A) (A) (A) (A) (A) (A) (A) (A) (A) (A)
                 (A) (A) (A) (A) (A) (A) (A) (A) (A) (A) (A) (A)
                 (A) (A) (A) (A) (A) (A) (A) (A) (A) (A) (A) (A)
                 (A) (A) (A) (A) (A) (A) (A) (A) (A) (A) (A) (A)
                 (A) (A) (A) (A) (A) (A) (A) (A) (A) (A) (A) (A)
                 (A) (A) (A) (A) (A) (A) (A) (A) (A) (A) (A) (A)
                 (A) (A) (A) (A) (A) (A) (A) (A) (A) (A) (A) (A)
                 (A) (A) (A) (A) (A) (A) (A) (A) (A) (A) (A) (A)
                 (A) (A) (A) (A) (A)
 The electronic state is 1-A.
 Alpha  occ. eigenvalues --  -14.31874 -14.31684 -14.30192 -14.30129 -10.20858
 Alpha  occ. eigenvalues --  -10.20662 -10.19934 -10.17903 -10.17743 -10.17564
 Alpha  occ. eigenvalues --   -0.93534  -0.88092  -0.87652  -0.80622  -0.75732
 Alpha  occ. eigenvalues --   -0.69472  -0.65015  -0.62303  -0.59152  -0.56866
 Alpha  occ. eigenvalues --   -0.49221  -0.48415  -0.48261  -0.46409  -0.45395
 Alpha  occ. eigenvalues --   -0.43746  -0.42559  -0.41850  -0.40194  -0.38536
 Alpha  occ. eigenvalues --   -0.38141  -0.36722  -0.35808  -0.34721  -0.33677
 Alpha  occ. eigenvalues --   -0.32642  -0.31524  -0.27607  -0.23893  -0.22942
 Alpha  occ. eigenvalues --   -0.15931
 Alpha virt. eigenvalues --    0.07706   0.08232   0.09210   0.11052   0.11770
 Alpha virt. eigenvalues --    0.12955   0.13710   0.14201   0.15305   0.16693
 Alpha virt. eigenvalues --    0.16937   0.17757   0.18395   0.18845   0.19229
 Alpha virt. eigenvalues --    0.19702   0.19983   0.21675   0.22054   0.23332
 Alpha virt. eigenvalues --    0.24305   0.25036   0.25688   0.26837   0.27410
 Alpha virt. eigenvalues --    0.29493   0.32273   0.44125   0.47077   0.48196
 Alpha virt. eigenvalues --    0.48823   0.49587   0.51292   0.52495   0.52877
 Alpha virt. eigenvalues --    0.54191   0.54996   0.56550   0.57637   0.59092
 Alpha virt. eigenvalues --    0.59672   0.60964   0.62668   0.62980   0.63455
 Alpha virt. eigenvalues --    0.64295   0.67587   0.69330   0.70583   0.71405
 Alpha virt. eigenvalues --    0.72299   0.72617   0.72869   0.73950   0.74294
 Alpha virt. eigenvalues --    0.75801   0.76203   0.77225   0.77821   0.78196
 Alpha virt. eigenvalues --    0.79112   0.79450   0.79574   0.81367   0.81620
 Alpha virt. eigenvalues --    0.83042   0.83296   0.84232   0.85009   0.85106
 Alpha virt. eigenvalues --    0.87113   0.87237   0.88640   0.89761   0.90342
 Alpha virt. eigenvalues --    0.91541   0.94071   0.94761   1.01023   1.01481
 Alpha virt. eigenvalues --    1.03990   1.08668   1.09368   1.12564   1.14517
 Alpha virt. eigenvalues --    1.16732   1.19924   1.20519   1.23790   1.25423
 Alpha virt. eigenvalues --    1.25969   1.27811   1.29781   1.32212   1.32992
 Alpha virt. eigenvalues --    1.34997   1.36550   1.37764   1.40226   1.41965
 Alpha virt. eigenvalues --    1.45687   1.46693   1.49232   1.51361   1.51999
 Alpha virt. eigenvalues --    1.54633   1.55330   1.57152   1.57802   1.58410
 Alpha virt. eigenvalues --    1.61884   1.62780   1.63811   1.67530   1.70975
 Alpha virt. eigenvalues --    1.71753   1.74888   1.76149   1.76773   1.77792
 Alpha virt. eigenvalues --    1.79710   1.82393   1.84083   1.86678   1.87550
 Alpha virt. eigenvalues --    1.89182   1.90818   1.91963   1.95812   1.96622
 Alpha virt. eigenvalues --    1.97509   2.00673   2.04953   2.06827   2.07912
 Alpha virt. eigenvalues --    2.15681   2.16654   2.20059   2.20329   2.21094
 Alpha virt. eigenvalues --    2.24002   2.27127   2.30442   2.31069   2.33936
 Alpha virt. eigenvalues --    2.34896   2.36472   2.39913   2.43636   2.46344
 Alpha virt. eigenvalues --    2.47188   2.49524   2.50530   2.53035   2.56214
 Alpha virt. eigenvalues --    2.59307   2.60555   2.61481   2.68234   2.69561
 Alpha virt. eigenvalues --    2.73252   2.74870   2.75728   2.76097   2.77666
 Alpha virt. eigenvalues --    2.78295   2.80254   2.80618   2.81783   2.82534
 Alpha virt. eigenvalues --    2.84264   2.85420   2.86133   2.87757   2.90219
 Alpha virt. eigenvalues --    2.90875   2.91406   2.92316   2.93842   2.94930
 Alpha virt. eigenvalues --    2.96142   2.98102   3.01040   3.01355   3.01859
 Alpha virt. eigenvalues --    3.03518   3.05429   3.06588   3.08043   3.11854
 Alpha virt. eigenvalues --    3.13578   3.15775   3.18224   3.18717   3.20851
 Alpha virt. eigenvalues --    3.22955   3.23834   3.28111   3.29354   3.35101
 Alpha virt. eigenvalues --    3.36563   3.37734   3.38502   3.42323   3.43474
 Alpha virt. eigenvalues --    3.45630   3.46572   3.47833   3.51048   3.51703
 Alpha virt. eigenvalues --    3.55621   3.61652   3.63141   3.63840   3.66454
 Alpha virt. eigenvalues --    3.68018   3.71269   3.72177   3.74664   3.75174
 Alpha virt. eigenvalues --    3.78794   3.79855   3.80572   3.83005   3.86526
 Alpha virt. eigenvalues --    3.88590   3.89257   3.91937   3.93557   3.97325
 Alpha virt. eigenvalues --    4.01762   4.03822   4.09594   4.11079   4.14472
 Alpha virt. eigenvalues --    4.15955   4.20410   4.21676   4.24108   4.24972
 Alpha virt. eigenvalues --    4.26769   4.31230   4.31716   4.32077   4.34292
 Alpha virt. eigenvalues --    4.36161   4.36546   4.39907   4.40250   4.41854
 Alpha virt. eigenvalues --    4.43858   4.45287   4.46926   4.47789   4.49216
 Alpha virt. eigenvalues --    4.49875   4.51355   4.52202   4.52889   4.53848
 Alpha virt. eigenvalues --    4.56083   4.56647   4.56906   4.59143   4.59727
 Alpha virt. eigenvalues --    4.60829   4.62255   4.63382   4.64261   4.66532
 Alpha virt. eigenvalues --    4.67971   4.68601   4.70293   4.70942   4.72535
 Alpha virt. eigenvalues --    4.74571   4.76624   4.77041   4.78271   4.79893
 Alpha virt. eigenvalues --    4.82047   4.82927   4.83204   4.84472   4.87615
 Alpha virt. eigenvalues --    4.89378   4.90204   4.91057   4.93814   4.94407
 Alpha virt. eigenvalues --    4.97241   4.99289   5.03814   5.06624   5.07084
 Alpha virt. eigenvalues --    5.07562   5.11903   5.12868   5.17309   5.18613
 Alpha virt. eigenvalues --    5.22291   5.26781   5.27634   5.30071   5.35410
 Alpha virt. eigenvalues --    5.38693   5.41209   5.44135   5.49120   5.51489
 Alpha virt. eigenvalues --    5.52860   5.58267   5.67930   5.78244   5.88734
 Alpha virt. eigenvalues --    9.19868   9.68263  11.04195  11.21624  11.38490
 Alpha virt. eigenvalues --   11.45789  11.53849  11.63211  11.65608  12.15085
 Alpha virt. eigenvalues --   12.38775  12.57372  14.14371  15.99552
          Condensed to atoms (all electrons):
               1          2          3          4          5          6
     1  C    4.901960   0.378753  -0.065928   0.002226   0.001007   0.000830
     2  N    0.378753   6.556723   0.256929  -0.040713  -0.004496  -0.043354
     3  N   -0.065928   0.256929   6.557246   0.369027  -0.022985  -0.000745
     4  C    0.002226  -0.040713   0.369027   4.700360   0.370064  -0.024119
     5  C    0.001007  -0.004496  -0.022985   0.370064   4.911823   0.361410
     6  N    0.000830  -0.043354  -0.000745  -0.024119   0.361410   6.558494
     7  C   -0.000317   0.002167  -0.037345   0.407166  -0.020834   0.001899
     8  C    0.000002  -0.000050   0.001588  -0.033821  -0.008783   0.000193
     9  C   -0.000000   0.000000  -0.000062   0.001219   0.000151  -0.000005
    10  N    0.000000  -0.000000   0.000000  -0.000039  -0.000005  -0.000000
    11  H    0.374858  -0.023351   0.003523  -0.000286   0.000001   0.000059
    12  H    0.355442  -0.048029   0.016571   0.001261  -0.000423   0.000164
    13  H    0.377194  -0.028668  -0.004252  -0.000126   0.000018  -0.000045
    14  H   -0.033861   0.306422  -0.028147  -0.010455  -0.002002   0.060122
    15  H   -0.003602  -0.037125   0.327250  -0.047439   0.005746  -0.000212
    16  H    0.000281   0.013240  -0.054656   0.343155  -0.071309  -0.003631
    17  H    0.000006  -0.000341   0.002431  -0.030638   0.380439  -0.041972
    18  H   -0.000053   0.000063   0.000504  -0.016349   0.343542  -0.023817
    19  H   -0.000143   0.005850  -0.000603  -0.000640  -0.054561   0.336279
    20  H   -0.000043   0.001085   0.000013   0.004275  -0.043280   0.335371
    21  H    0.000002   0.000105  -0.002756  -0.022680   0.004291  -0.000062
    22  H    0.000011   0.000020   0.003362  -0.022715  -0.010335   0.000052
    23  H    0.000000   0.000002   0.000070  -0.004403  -0.000813  -0.000194
    24  H    0.000000   0.000003   0.000123  -0.001176  -0.000999  -0.000018
    25  H    0.000000   0.000000   0.000004   0.000055  -0.000011   0.000000
    26  H    0.000000   0.000000   0.000003   0.000074   0.000012  -0.000000
    27  H   -0.000000   0.000000   0.000000   0.000002   0.000001   0.000000
    28  H   -0.000000   0.000000  -0.000000   0.000001   0.000000  -0.000000
               7          8          9         10         11         12
     1  C   -0.000317   0.000002  -0.000000   0.000000   0.374858   0.355442
     2  N    0.002167  -0.000050   0.000000  -0.000000  -0.023351  -0.048029
     3  N   -0.037345   0.001588  -0.000062   0.000000   0.003523   0.016571
     4  C    0.407166  -0.033821   0.001219  -0.000039  -0.000286   0.001261
     5  C   -0.020834  -0.008783   0.000151  -0.000005   0.000001  -0.000423
     6  N    0.001899   0.000193  -0.000005  -0.000000   0.000059   0.000164
     7  C    4.924709   0.375397  -0.036965   0.002340   0.000003   0.000064
     8  C    0.375397   4.857402   0.413507  -0.043135  -0.000000   0.000001
     9  C   -0.036965   0.413507   4.823239   0.388620   0.000000   0.000000
    10  N    0.002340  -0.043135   0.388620   6.550915  -0.000000   0.000000
    11  H    0.000003  -0.000000   0.000000  -0.000000   0.604656  -0.034423
    12  H    0.000064   0.000001   0.000000   0.000000  -0.034423   0.671647
    13  H   -0.000014  -0.000000  -0.000000  -0.000000  -0.032237  -0.049419
    14  H   -0.000150   0.000007   0.000000  -0.000000  -0.001013  -0.005290
    15  H   -0.002691  -0.000500  -0.000010   0.000000  -0.000323  -0.001710
    16  H   -0.041577   0.001284   0.000131   0.000005   0.000030   0.000147
    17  H   -0.006965   0.000835   0.000055  -0.000013  -0.000000   0.000000
    18  H   -0.005589   0.000377  -0.000054   0.000001   0.000003   0.000067
    19  H    0.000015   0.000012  -0.000000   0.000000   0.000005   0.000044
    20  H   -0.000126  -0.000001  -0.000000   0.000000  -0.000004  -0.000002
    21  H    0.354439  -0.032496  -0.003805   0.000002   0.000000  -0.000003
    22  H    0.357708  -0.033080  -0.003906   0.000086   0.000000   0.000009
    23  H   -0.029197   0.358776  -0.029122   0.006085   0.000000   0.000000
    24  H   -0.032768   0.365402  -0.039672  -0.002066   0.000000  -0.000000
    25  H    0.002978  -0.046364   0.375007  -0.046590   0.000000   0.000000
    26  H   -0.004941  -0.017310   0.354644  -0.021789  -0.000000  -0.000000
    27  H   -0.000269  -0.002529  -0.053952   0.340915   0.000000  -0.000000
    28  H   -0.000305   0.005431  -0.043899   0.336703   0.000000   0.000000
              13         14         15         16         17         18
     1  C    0.377194  -0.033861  -0.003602   0.000281   0.000006  -0.000053
     2  N   -0.028668   0.306422  -0.037125   0.013240  -0.000341   0.000063
     3  N   -0.004252  -0.028147   0.327250  -0.054656   0.002431   0.000504
     4  C   -0.000126  -0.010455  -0.047439   0.343155  -0.030638  -0.016349
     5  C    0.000018  -0.002002   0.005746  -0.071309   0.380439   0.343542
     6  N   -0.000045   0.060122  -0.000212  -0.003631  -0.041972  -0.023817
     7  C   -0.000014  -0.000150  -0.002691  -0.041577  -0.006965  -0.005589
     8  C   -0.000000   0.000007  -0.000500   0.001284   0.000835   0.000377
     9  C   -0.000000   0.000000  -0.000010   0.000131   0.000055  -0.000054
    10  N   -0.000000  -0.000000   0.000000   0.000005  -0.000013   0.000001
    11  H   -0.032237  -0.001013  -0.000323   0.000030  -0.000000   0.000003
    12  H   -0.049419  -0.005290  -0.001710   0.000147   0.000000   0.000067
    13  H    0.626669   0.004263   0.005985  -0.000090  -0.000000  -0.000000
    14  H    0.004263   0.453182   0.004064  -0.000881   0.001162  -0.000939
    15  H    0.005985   0.004064   0.535251  -0.008019  -0.000225  -0.000150
    16  H   -0.000090  -0.000881  -0.008019   0.745102  -0.001550   0.006877
    17  H   -0.000000   0.001162  -0.000225  -0.001550   0.644181  -0.043573
    18  H   -0.000000  -0.000939  -0.000150   0.006877  -0.043573   0.615398
    19  H   -0.000004  -0.007654  -0.000049   0.007569  -0.004007   0.006593
    20  H    0.000001  -0.000739   0.000016  -0.000153  -0.005806  -0.001595
    21  H    0.000000  -0.000006   0.006781  -0.005880  -0.000067  -0.000122
    22  H   -0.000001   0.000012  -0.000518   0.007111   0.000234   0.005491
    23  H   -0.000000   0.000002   0.000001   0.000092   0.006038   0.000570
    24  H    0.000000   0.000001  -0.000000   0.005640   0.001242   0.000105
    25  H   -0.000000  -0.000000  -0.000000   0.000014  -0.000004   0.000002
    26  H    0.000000   0.000000   0.000001   0.000003   0.000035  -0.000003
    27  H   -0.000000  -0.000000   0.000000  -0.000002   0.000005  -0.000000
    28  H   -0.000000   0.000000   0.000000   0.000000  -0.000000  -0.000000
              19         20         21         22         23         24
     1  C   -0.000143  -0.000043   0.000002   0.000011   0.000000   0.000000
     2  N    0.005850   0.001085   0.000105   0.000020   0.000002   0.000003
     3  N   -0.000603   0.000013  -0.002756   0.003362   0.000070   0.000123
     4  C   -0.000640   0.004275  -0.022680  -0.022715  -0.004403  -0.001176
     5  C   -0.054561  -0.043280   0.004291  -0.010335  -0.000813  -0.000999
     6  N    0.336279   0.335371  -0.000062   0.000052  -0.000194  -0.000018
     7  C    0.000015  -0.000126   0.354439   0.357708  -0.029197  -0.032768
     8  C    0.000012  -0.000001  -0.032496  -0.033080   0.358776   0.365402
     9  C   -0.000000  -0.000000  -0.003805  -0.003906  -0.029122  -0.039672
    10  N    0.000000   0.000000   0.000002   0.000086   0.006085  -0.002066
    11  H    0.000005  -0.000004   0.000000   0.000000   0.000000   0.000000
    12  H    0.000044  -0.000002  -0.000003   0.000009   0.000000  -0.000000
    13  H   -0.000004   0.000001   0.000000  -0.000001  -0.000000   0.000000
    14  H   -0.007654  -0.000739  -0.000006   0.000012   0.000002   0.000001
    15  H   -0.000049   0.000016   0.006781  -0.000518   0.000001  -0.000000
    16  H    0.007569  -0.000153  -0.005880   0.007111   0.000092   0.005640
    17  H   -0.004007  -0.005806  -0.000067   0.000234   0.006038   0.001242
    18  H    0.006593  -0.001595  -0.000122   0.005491   0.000570   0.000105
    19  H    0.503451  -0.027397  -0.000001   0.000025  -0.000005   0.000011
    20  H   -0.027397   0.508283   0.000003  -0.000001  -0.000014  -0.000000
    21  H   -0.000001   0.000003   0.650237  -0.041835   0.006005  -0.005662
    22  H    0.000025  -0.000001  -0.041835   0.625758  -0.004819   0.006207
    23  H   -0.000005  -0.000014   0.006005  -0.004819   0.621008  -0.043457
    24  H    0.000011  -0.000000  -0.005662   0.006207  -0.043457   0.656071
    25  H    0.000000   0.000000   0.005296  -0.000468   0.007165  -0.007032
    26  H   -0.000000   0.000000  -0.000550   0.004785  -0.007098   0.006139
    27  H   -0.000000   0.000000   0.000004   0.000017  -0.000745   0.005936
    28  H   -0.000000  -0.000000   0.000002   0.000004  -0.000141  -0.000004
              25         26         27         28
     1  C    0.000000   0.000000  -0.000000  -0.000000
     2  N    0.000000   0.000000   0.000000   0.000000
     3  N    0.000004   0.000003   0.000000  -0.000000
     4  C    0.000055   0.000074   0.000002   0.000001
     5  C   -0.000011   0.000012   0.000001   0.000000
     6  N    0.000000  -0.000000   0.000000  -0.000000
     7  C    0.002978  -0.004941  -0.000269  -0.000305
     8  C   -0.046364  -0.017310  -0.002529   0.005431
     9  C    0.375007   0.354644  -0.053952  -0.043899
    10  N   -0.046590  -0.021789   0.340915   0.336703
    11  H    0.000000  -0.000000   0.000000   0.000000
    12  H    0.000000  -0.000000  -0.000000   0.000000
    13  H   -0.000000   0.000000  -0.000000  -0.000000
    14  H   -0.000000   0.000000  -0.000000   0.000000
    15  H   -0.000000   0.000001   0.000000   0.000000
    16  H    0.000014   0.000003  -0.000002   0.000000
    17  H   -0.000004   0.000035   0.000005  -0.000000
    18  H    0.000002  -0.000003  -0.000000  -0.000000
    19  H    0.000000  -0.000000  -0.000000  -0.000000
    20  H    0.000000   0.000000   0.000000  -0.000000
    21  H    0.005296  -0.000550   0.000004   0.000002
    22  H   -0.000468   0.004785   0.000017   0.000004
    23  H    0.007165  -0.007098  -0.000745  -0.000141
    24  H   -0.007032   0.006139   0.005936  -0.000004
    25  H    0.695789  -0.051735  -0.005666  -0.004442
    26  H   -0.051735   0.630809   0.006756  -0.002211
    27  H   -0.005666   0.006756   0.521292  -0.031481
    28  H   -0.004442  -0.002211  -0.031481   0.519356
 Mulliken charges:
               1
     1  C   -0.288625
     2  N   -0.295232
     3  N   -0.321164
     4  C    0.056717
     5  C   -0.137670
     6  N   -0.516699
     7  C   -0.208834
     8  C   -0.162145
     9  C   -0.145123
    10  N   -0.512037
    11  H    0.108498
    12  H    0.093880
    13  H    0.100724
    14  H    0.261899
    15  H    0.217479
    16  H    0.057067
    17  H    0.098501
    18  H    0.112655
    19  H    0.235210
    20  H    0.230115
    21  H    0.088757
    22  H    0.106785
    23  H    0.114193
    24  H    0.085973
    25  H    0.076002
    26  H    0.102375
    27  H    0.219716
    28  H    0.220986
 Sum of Mulliken charges =  -0.00000
 Mulliken charges with hydrogens summed into heavy atoms:
               1
     1  C    0.014477
     2  N   -0.033333
     3  N   -0.103686
     4  C    0.113783
     5  C    0.073485
     6  N   -0.051375
     7  C   -0.013292
     8  C    0.038021
     9  C    0.033254
    10  N   -0.071335
 Electronic spatial extent (au):  <R**2>=           2681.8605
 Charge=              0.0000 electrons
 Dipole moment (field-independent basis, Debye):
    X=              1.6932    Y=              0.4466    Z=             -0.8833  Tot=              1.9612
 Quadrupole moment (field-independent basis, Debye-Ang):
   XX=            -65.6403   YY=            -58.4449   ZZ=            -64.2700
   XY=             -7.1031   XZ=             -2.7519   YZ=              0.2099
 Traceless Quadrupole moment (field-independent basis, Debye-Ang):
   XX=             -2.8552   YY=              4.3402   ZZ=             -1.4849
   XY=             -7.1031   XZ=             -2.7519   YZ=              0.2099
 Octapole moment (field-independent basis, Debye-Ang**2):
  XXX=             29.9605  YYY=             18.0740  ZZZ=             -1.2100  XYY=            -14.1056
  XXY=            -23.4682  XXZ=            -10.5774  XZZ=             10.7932  YZZ=              5.5793
  YYZ=             -4.4764  XYZ=             -2.7647
 Hexadecapole moment (field-independent basis, Debye-Ang**3):
 XXXX=          -2604.0880 YYYY=           -449.3761 ZZZZ=           -136.4492 XXXY=           -133.1448
 XXXZ=            -60.4591 YYYX=            -29.4852 YYYZ=              9.5331 ZZZX=             -9.8309
 ZZZY=             -3.0445 XXYY=           -574.8568 XXZZ=           -483.8407 YYZZ=           -107.3404
 XXYZ=            -15.7153 YYXZ=              7.5331 ZZXY=             -9.3802
 N-N= 5.714400358582D+02 E-N=-2.208447634575D+03  KE= 4.547599097123D+02
 PrsmSu:  requested number of processors reduced to:  13 ShMem   1 Linda.
 Calling FoFJK, ICntrl=      2127 FMM=F ISym2X=0 I1Cent= 0 IOpClX= 0 NMat=1 NMatS=1 NMatT=0.
 ***** Axes restored to original set *****
 -------------------------------------------------------------------
 Center     Atomic                   Forces (Hartrees/Bohr)
 Number     Number              X              Y              Z
 -------------------------------------------------------------------
      1        6           0.004940155    0.003125527   -0.000244441
      2        7          -0.009125935   -0.003869049   -0.018765287
      3        7           0.015825869    0.022955633    0.015623126
      4        6          -0.011497760   -0.002010926    0.006319314
      5        6           0.000150993   -0.005288968   -0.004226372
      6        7          -0.002428218    0.004480569   -0.002943507
      7        6           0.003556615    0.006023740   -0.004956998
      8        6          -0.006759711    0.000012002    0.005620162
      9        6           0.007047897   -0.003424912   -0.007453438
     10        7           0.010871905    0.002891327    0.005648565
     11        1           0.001126734   -0.000989682   -0.001098654
     12        1          -0.004581059   -0.001128891    0.005071975
     13        1          -0.001647140   -0.001744343    0.001233541
     14        1          -0.001641524   -0.015717776    0.008498015
     15        1           0.002056902    0.005300036   -0.008944687
     16        1           0.004976321    0.002685085   -0.004914674
     17        1           0.003019246   -0.008778500    0.008063192
     18        1          -0.002501267   -0.000633156   -0.000077340
     19        1          -0.000290273    0.002539569    0.000387430
     20        1          -0.002303656   -0.004157954   -0.000671548
     21        1          -0.001942148    0.001383886   -0.001221414
     22        1          -0.001491021    0.000512214   -0.001831404
     23        1           0.001511823   -0.001670112   -0.000303120
     24        1           0.001826865   -0.000551781    0.000023294
     25        1          -0.010170661   -0.003181886    0.000527853
     26        1           0.000112096   -0.000012386    0.000675460
     27        1          -0.001419099    0.000078058    0.002826626
     28        1           0.000776052    0.001172676   -0.002865668
 -------------------------------------------------------------------
 Cartesian Forces:  Max     0.022955633 RMS     0.006057329

 GradGradGradGradGradGradGradGradGradGradGradGradGradGradGradGradGradGrad
 Berny optimization.
 FormGI is forming the generalized inverse of G from B-inverse, IUseBI=4.
 Internal  Forces:  Max     0.027836906 RMS     0.004701258
 Search for a local minimum.
 Step number   1 out of a maximum of  149
 All quantities printed in internal units (Hartrees-Bohrs-Radians)
 Mixed Optimization -- RFO/linear search
 Second derivative matrix not updated -- first step.
 ITU=  0
     Eigenvalues ---    0.00230   0.00230   0.00333   0.00452   0.00520
     Eigenvalues ---    0.00568   0.00713   0.00924   0.00943   0.03374
     Eigenvalues ---    0.03468   0.03622   0.03633   0.03885   0.03947
     Eigenvalues ---    0.04505   0.04565   0.04603   0.04613   0.04775
     Eigenvalues ---    0.04884   0.05273   0.05560   0.05768   0.07191
     Eigenvalues ---    0.07645   0.08220   0.08289   0.08970   0.09738
     Eigenvalues ---    0.11033   0.11151   0.12114   0.12180   0.12490
     Eigenvalues ---    0.13033   0.16000   0.16000   0.16000   0.16000
     Eigenvalues ---    0.16000   0.16000   0.16000   0.16404   0.18002
     Eigenvalues ---    0.21909   0.21917   0.21918   0.22019   0.23532
     Eigenvalues ---    0.23636   0.26294   0.27894   0.29169   0.30007
     Eigenvalues ---    0.33606   0.33785   0.33817   0.33920   0.33971
     Eigenvalues ---    0.34219   0.34220   0.34237   0.34251   0.34295
     Eigenvalues ---    0.34300   0.34391   0.34472   0.35263   0.37210
     Eigenvalues ---    0.37388   0.37606   0.41674   0.43739   0.44173
     Eigenvalues ---    0.44480   0.44516   0.44555
 RFO step:  Lambda=-1.99741641D-02 EMin= 2.30000000D-03
 Linear search not attempted -- first point.
 Iteration  1 RMS(Cart)=  0.15912872 RMS(Int)=  0.00705048
 Iteration  2 RMS(Cart)=  0.01902376 RMS(Int)=  0.00052084
 Iteration  3 RMS(Cart)=  0.00017016 RMS(Int)=  0.00051833
 Iteration  4 RMS(Cart)=  0.00000012 RMS(Int)=  0.00051833
 Variable       Old X    -DE/DX   Delta X   Delta X   Delta X     New X
                                 (Linear)    (Quad)   (Total)
    R1        2.75265   0.00040   0.00000   0.00101   0.00101   2.75367
    R2        2.06933  -0.00004   0.00000  -0.00012  -0.00012   2.06920
    R3        2.06908   0.00510   0.00000   0.01407   0.01407   2.08315
    R4        2.06676   0.00220   0.00000   0.00606   0.00606   2.07281
    R5        2.74943  -0.00095   0.00000  -0.00241  -0.00241   2.74702
    R6        1.96040  -0.01545   0.00000  -0.03538  -0.03538   1.92502
    R7        2.81300  -0.00746   0.00000  -0.02094  -0.02094   2.79206
    R8        1.93469  -0.00551   0.00000  -0.01206  -0.01206   1.92263
    R9        2.96026  -0.01258   0.00000  -0.04446  -0.04446   2.91580
   R10        2.92371  -0.00291   0.00000  -0.00975  -0.00975   2.91396
   R11        2.07695   0.00465   0.00000   0.01298   0.01298   2.08993
   R12        2.78550   0.00556   0.00000   0.01492   0.01492   2.80042
   R13        2.06540   0.00285   0.00000   0.00781   0.00781   2.07321
   R14        2.06960   0.00041   0.00000   0.00115   0.00115   2.07075
   R15        1.92542  -0.00154   0.00000  -0.00331  -0.00331   1.92211
   R16        1.92948  -0.00478   0.00000  -0.01035  -0.01035   1.91913
   R17        2.89651   0.00408   0.00000   0.01308   0.01308   2.90959
   R18        2.07640  -0.00056   0.00000  -0.00156  -0.00156   2.07484
   R19        2.07466  -0.00086   0.00000  -0.00239  -0.00239   2.07227
   R20        2.87950   0.00322   0.00000   0.01007   0.01007   2.88957
   R21        2.06834  -0.00099   0.00000  -0.00273  -0.00273   2.06561
   R22        2.07379   0.00082   0.00000   0.00227   0.00227   2.07606
   R23        2.75530   0.01029   0.00000   0.02625   0.02625   2.78156
   R24        2.06827   0.00629   0.00000   0.01733   0.01733   2.08560
   R25        2.06963   0.00053   0.00000   0.00147   0.00147   2.07110
   R26        1.92584  -0.00288   0.00000  -0.00619  -0.00619   1.91965
   R27        1.92496  -0.00256   0.00000  -0.00551  -0.00551   1.91945
    A1        1.89878  -0.00217   0.00000  -0.00950  -0.00960   1.88918
    A2        1.95929   0.00482   0.00000   0.02852   0.02849   1.98778
    A3        1.92975  -0.00016   0.00000  -0.00523  -0.00522   1.92453
    A4        1.88273   0.00087   0.00000   0.01326   0.01314   1.89587
    A5        1.87836   0.00014   0.00000  -0.00302  -0.00309   1.87527
    A6        1.91251  -0.00363   0.00000  -0.02464  -0.02458   1.88793
    A7        1.91655  -0.00395   0.00000  -0.02489  -0.02541   1.89114
    A8        1.88004   0.00525   0.00000   0.01746   0.01558   1.89562
    A9        1.88816  -0.00651   0.00000  -0.07424  -0.07446   1.81370
   A10        1.89670   0.02784   0.00000   0.09010   0.09100   1.98771
   A11        1.91223  -0.01580   0.00000  -0.12909  -0.12754   1.78469
   A12        1.89354  -0.00803   0.00000  -0.06398  -0.06185   1.83169
   A13        1.97352   0.00474   0.00000   0.02255   0.02176   1.99528
   A14        1.87966  -0.00631   0.00000  -0.04127  -0.04098   1.83868
   A15        1.89375   0.00256   0.00000   0.03766   0.03748   1.93123
   A16        1.93240  -0.00016   0.00000  -0.01364  -0.01356   1.91883
   A17        1.90124  -0.00231   0.00000  -0.00669  -0.00729   1.89395
   A18        1.88072   0.00144   0.00000   0.00155   0.00185   1.88256
   A19        2.00075   0.00275   0.00000   0.01475   0.01483   2.01559
   A20        1.91797  -0.00813   0.00000  -0.05153  -0.05259   1.86537
   A21        1.91295  -0.00139   0.00000  -0.02355  -0.02401   1.88894
   A22        1.84815   0.00776   0.00000   0.07470   0.07512   1.92327
   A23        1.90052  -0.00165   0.00000  -0.00889  -0.00876   1.89177
   A24        1.87905   0.00084   0.00000  -0.00361  -0.00513   1.87392
   A25        1.88765   0.00286   0.00000   0.01594   0.01593   1.90358
   A26        1.90327   0.00012   0.00000   0.00068   0.00067   1.90394
   A27        1.86496  -0.00136   0.00000  -0.00747  -0.00750   1.85746
   A28        1.96556   0.01285   0.00000   0.05793   0.05784   2.02340
   A29        1.91236  -0.00581   0.00000  -0.03900  -0.03909   1.87327
   A30        1.91758  -0.00471   0.00000  -0.01757  -0.01876   1.89881
   A31        1.89371  -0.00295   0.00000  -0.01004  -0.00924   1.88447
   A32        1.91013  -0.00195   0.00000   0.01042   0.01024   1.92037
   A33        1.86144   0.00202   0.00000  -0.00506  -0.00567   1.85578
   A34        1.95483   0.00314   0.00000   0.01515   0.01509   1.96992
   A35        1.92450   0.00040   0.00000   0.01345   0.01336   1.93787
   A36        1.90706  -0.00004   0.00000   0.00128   0.00140   1.90847
   A37        1.87843  -0.00112   0.00000  -0.00219  -0.00246   1.87597
   A38        1.92496  -0.00254   0.00000  -0.02150  -0.02152   1.90344
   A39        1.87217   0.00002   0.00000  -0.00718  -0.00730   1.86487
   A40        1.90378   0.00476   0.00000   0.02588   0.02550   1.92929
   A41        1.93199  -0.00504   0.00000  -0.02444  -0.02597   1.90602
   A42        1.91876  -0.00093   0.00000  -0.01752  -0.01769   1.90107
   A43        1.91874   0.00514   0.00000   0.06039   0.06050   1.97924
   A44        1.90301  -0.00350   0.00000  -0.02486  -0.02442   1.87859
   A45        1.88733  -0.00047   0.00000  -0.01990  -0.02022   1.86712
   A46        1.91698  -0.00145   0.00000  -0.00952  -0.00950   1.90748
   A47        1.91262   0.00284   0.00000   0.01430   0.01432   1.92694
   A48        1.85871  -0.00113   0.00000  -0.00937  -0.00933   1.84938
    D1        3.04851  -0.00247   0.00000  -0.04238  -0.04257   3.00594
    D2        0.99600   0.00448   0.00000   0.05008   0.05030   1.04629
    D3        0.96613  -0.00510   0.00000  -0.07031  -0.07058   0.89555
    D4       -1.08638   0.00184   0.00000   0.02215   0.02228  -1.06410
    D5       -1.17547  -0.00370   0.00000  -0.05487  -0.05502  -1.23049
    D6        3.05521   0.00324   0.00000   0.03759   0.03784   3.09305
    D7       -2.99345  -0.00211   0.00000  -0.05875  -0.06047  -3.05393
    D8        1.22352   0.00036   0.00000   0.04004   0.03985   1.26337
    D9       -0.94601  -0.00175   0.00000  -0.09433  -0.09415  -1.04016
   D10       -3.01222   0.00072   0.00000   0.00446   0.00618  -3.00604
   D11        1.08869   0.00789   0.00000   0.20606   0.20666   1.29535
   D12       -3.05377   0.00630   0.00000   0.17415   0.17445  -2.87933
   D13       -1.02251   0.00597   0.00000   0.17369   0.17334  -0.84916
   D14       -3.11651   0.00022   0.00000   0.06594   0.06617  -3.05034
   D15       -0.97580  -0.00138   0.00000   0.03403   0.03395  -0.94184
   D16        1.05547  -0.00170   0.00000   0.03357   0.03285   1.08832
   D17       -1.06461  -0.00197   0.00000  -0.05706  -0.05734  -1.12195
   D18        3.13997  -0.00790   0.00000  -0.12571  -0.12504   3.01493
   D19        1.07834  -0.00323   0.00000  -0.07639  -0.07686   1.00148
   D20        3.10748   0.00299   0.00000  -0.00962  -0.00971   3.09778
   D21        1.02888  -0.00294   0.00000  -0.07827  -0.07741   0.95147
   D22       -1.03275   0.00172   0.00000  -0.02895  -0.02923  -1.06198
   D23        1.04233   0.00274   0.00000   0.00070   0.00031   1.04265
   D24       -1.03627  -0.00318   0.00000  -0.06795  -0.06739  -1.10366
   D25       -3.09790   0.00148   0.00000  -0.01863  -0.01921  -3.11711
   D26        3.07308  -0.00172   0.00000  -0.03038  -0.03065   3.04243
   D27        0.96365  -0.00244   0.00000  -0.02883  -0.02855   0.93510
   D28       -1.07600   0.00125   0.00000   0.01034   0.00984  -1.06616
   D29       -1.04429  -0.00015   0.00000  -0.03877  -0.03862  -1.08291
   D30        3.12946  -0.00088   0.00000  -0.03723  -0.03652   3.09295
   D31        1.08981   0.00281   0.00000   0.00194   0.00188   1.09169
   D32        1.03330  -0.00217   0.00000  -0.05382  -0.05403   0.97927
   D33       -1.07613  -0.00290   0.00000  -0.05227  -0.05193  -1.12806
   D34       -3.11578   0.00079   0.00000  -0.01310  -0.01353  -3.12932
   D35       -0.97864   0.00039   0.00000  -0.01712  -0.01755  -0.99619
   D36       -3.00061   0.00038   0.00000  -0.01728  -0.01772  -3.01833
   D37        1.13869  -0.00265   0.00000  -0.01993  -0.01955   1.11915
   D38       -0.88328  -0.00266   0.00000  -0.02009  -0.01972  -0.90299
   D39       -3.12828   0.00153   0.00000   0.01011   0.01018  -3.11810
   D40        1.13294   0.00152   0.00000   0.00995   0.01001   1.14294
   D41        3.13361   0.00190   0.00000   0.04280   0.04306  -3.10651
   D42        1.04227   0.00098   0.00000   0.02650   0.02665   1.06892
   D43       -1.01132   0.00075   0.00000   0.02656   0.02679  -0.98453
   D44       -1.02950   0.00084   0.00000   0.02413   0.02429  -1.00521
   D45       -3.12084  -0.00008   0.00000   0.00783   0.00787  -3.11297
   D46        1.10875  -0.00031   0.00000   0.00789   0.00801   1.11676
   D47        0.99532   0.00055   0.00000   0.01818   0.01791   1.01322
   D48       -1.09602  -0.00037   0.00000   0.00188   0.00149  -1.09453
   D49        3.13357  -0.00060   0.00000   0.00194   0.00163   3.13520
   D50       -3.11090   0.00226   0.00000   0.02371   0.02352  -3.08737
   D51        1.05894  -0.00402   0.00000  -0.05265  -0.05225   1.00668
   D52       -1.02509   0.00033   0.00000  -0.00140  -0.00167  -1.02676
   D53       -0.99280   0.00394   0.00000   0.04833   0.04812  -0.94468
   D54       -3.10616  -0.00234   0.00000  -0.02803  -0.02766  -3.13381
   D55        1.09301   0.00202   0.00000   0.02323   0.02292   1.11593
   D56        1.04424   0.00195   0.00000   0.02684   0.02675   1.07099
   D57       -1.06911  -0.00434   0.00000  -0.04952  -0.04903  -1.11814
   D58        3.13006   0.00002   0.00000   0.00173   0.00155   3.13161
   D59       -1.07745  -0.00057   0.00000  -0.02442  -0.02509  -1.10254
   D60       -3.11360  -0.00001   0.00000  -0.01588  -0.01653  -3.13013
   D61        1.04397  -0.00054   0.00000  -0.00015   0.00063   1.04460
   D62       -0.99218   0.00002   0.00000   0.00839   0.00920  -0.98299
   D63        3.11019  -0.00018   0.00000  -0.00371  -0.00386   3.10633
   D64        1.07404   0.00037   0.00000   0.00483   0.00471   1.07874
         Item               Value     Threshold  Converged?
 Maximum Force            0.027837     0.000450     NO 
 RMS     Force            0.004701     0.000300     NO 
 Maximum Displacement     0.664378     0.001800     NO 
 RMS     Displacement     0.165268     0.001200     NO 
 Predicted change in Energy=-1.270061D-02
 GradGradGradGradGradGradGradGradGradGradGradGradGradGradGradGradGradGrad

                          Input orientation:                          
 ---------------------------------------------------------------------
 Center     Atomic      Atomic             Coordinates (Angstroms)
 Number     Number       Type             X           Y           Z
 ---------------------------------------------------------------------
      1          6           0        0.839174   -0.171014    0.058702
      2          7           0        2.277887   -0.141083   -0.170587
      3          7           0        2.945009   -0.557793    1.051882
      4          6           0        4.418063   -0.459717    0.992886
      5          6           0        4.962877    0.981416    1.077043
      6          7           0        4.591443    1.870275   -0.049032
      7          6           0        4.930414   -1.286355    2.189520
      8          6           0        6.457277   -1.461591    2.282382
      9          6           0        6.884702   -2.331820    3.464809
     10          7           0        8.352452   -2.404583    3.548554
     11          1           0        0.344186    0.273907   -0.810784
     12          1           0        0.519693    0.373315    0.962485
     13          1           0        0.489143   -1.207221    0.141847
     14          1           0        2.567986    0.828102   -0.289883
     15          1           0        2.749172   -1.555905    1.075332
     16          1           0        4.803366   -0.927371    0.067709
     17          1           0        6.054525    0.905192    1.155219
     18          1           0        4.598958    1.431653    2.007425
     19          1           0        4.905050    1.450720   -0.920922
     20          1           0        5.091590    2.749351    0.042841
     21          1           0        4.478785   -2.284344    2.114935
     22          1           0        4.546275   -0.842568    3.115812
     23          1           0        6.957324   -0.495361    2.388029
     24          1           0        6.829109   -1.912554    1.352163
     25          1           0        6.400836   -3.320268    3.381781
     26          1           0        6.521467   -1.874583    4.392257
     27          1           0        8.714250   -2.856184    2.713642
     28          1           0        8.634027   -2.991794    4.328045
 ---------------------------------------------------------------------
                    Distance matrix (angstroms):
                    1          2          3          4          5
     1  C    0.000000
     2  N    1.457177   0.000000
     3  N    2.360201   1.453661   0.000000
     4  C    3.710054   2.456736   1.477494   0.000000
     5  C    4.401141   3.166347   2.538029   1.542974   0.000000
     6  N    4.272937   3.068041   3.133412   2.558225   1.481917
     7  C    4.745800   3.730637   2.401428   1.542001   2.526152
     8  C    6.178464   5.022758   3.829752   2.612459   3.107146
     9  C    7.267672   6.264039   4.948795   3.962257   4.513576
    10  N    8.580049   7.473672   6.235739   5.078716   5.390971
    11  H    1.094976   2.078766   3.305379   4.515296   5.039520
    12  H    1.102355   2.153997   2.599444   3.986496   4.486066
    13  H    1.096886   2.105676   2.698369   4.088941   5.067446
    14  H    2.026952   1.018679   1.965499   2.593600   2.761792
    15  H    2.568960   1.943231   1.017412   1.998405   3.367267
    16  H    4.035713   2.655763   2.135106   1.105943   2.165101
    17  H    5.436953   4.137081   3.438036   2.137132   1.097095
    18  H    4.527918   3.550296   2.757990   2.153902   1.095793
    19  H    4.485647   3.162091   3.430429   2.747651   2.053157
    20  H    5.158666   4.039441   4.069789   3.413845   2.052251
    21  H    4.684125   3.828986   2.542347   2.142882   3.460744
    22  H    4.851753   4.054391   2.627728   2.160979   2.767138
    23  H    6.554596   5.345013   4.229404   2.897506   2.806666
    24  H    6.370661   5.115711   4.124534   2.837773   3.454500
    25  H    7.203662   6.302797   5.000243   4.221488   5.087635
    26  H    7.346448   6.467808   5.067849   4.240504   4.645059
    27  H    8.733595   7.557600   6.428701   5.211649   5.610564
    28  H    9.324367   8.292452   7.001609   5.942142   6.311320
                    6          7          8          9         10
     6  N    0.000000
     7  C    3.884627   0.000000
     8  C    4.474165   1.539689   0.000000
     9  C    5.938326   2.557069   1.529093   0.000000
    10  N    6.735148   3.848084   2.466600   1.471936   0.000000
    11  H    4.600853   5.698221   7.067496   8.237042   9.503181
    12  H    4.454571   4.869761   6.353259   7.354775   8.703825
    13  H    5.131888   4.891228   6.345487   7.294517   8.652800
    14  H    2.288780   4.024852   5.194788   6.535814   7.657930
    15  H    4.049304   2.464120   3.900756   4.838828   6.183350
    16  H    2.808088   2.155712   2.815242   4.224302   5.185986
    17  H    2.126549   2.671383   2.652238   4.062222   4.686484
    18  H    2.102727   2.744192   3.449610   4.638138   5.583950
    19  H    1.017137   4.143317   4.599143   6.120561   6.835507
    20  H    1.015560   4.573963   4.961116   6.383057   7.034648
    21  H    4.685755   1.097958   2.149276   2.759139   4.132192
    22  H    4.168668   1.096598   2.174793   2.794265   4.136924
    23  H    4.139190   2.184821   1.093073   2.130096   2.634070
    24  H    4.613056   2.167564   1.098606   2.154564   2.717867
    25  H    6.479669   2.778566   2.160219   1.103653   2.162197
    26  H    6.121601   2.780200   2.150873   1.095976   2.084523
    27  H    6.853417   4.129950   2.687900   2.046083   1.015835
    28  H    7.690319   4.604190   3.356263   2.059340   1.015730
                   11         12         13         14         15
    11  H    0.000000
    12  H    1.784704   0.000000
    13  H    1.766991   1.781144   0.000000
    14  H    2.350267   2.443514   2.941176   0.000000
    15  H    3.562246   2.950458   2.469961   2.753203   0.000000
    16  H    4.700968   4.565332   4.323925   2.864696   2.372777
    17  H    6.072203   5.563668   6.038433   3.774946   4.121739
    18  H    5.233140   4.341933   5.228251   3.125180   3.635382
    19  H    4.711528   4.892788   5.262543   2.499547   4.203883
    20  H    5.421655   5.233884   6.070155   3.189120   5.008811
    21  H    5.674450   4.905680   4.579357   4.372828   2.145451
    22  H    5.858517   4.725309   5.043586   4.278262   2.811047
    23  H    7.386323   6.650554   6.883999   5.309337   4.533924
    24  H    7.177268   6.722036   6.492882   5.325850   4.104841
    25  H    8.196261   7.354141   7.064718   6.736529   4.665547
    26  H    8.357418   7.268952   7.409472   6.697533   5.033265
    27  H    9.606093   8.980366   8.774143   7.769922   6.321150
    28  H   10.285612   9.407091   9.329956   8.527234   6.875568
                   16         17         18         19         20
    16  H    0.000000
    17  H    2.471105   0.000000
    18  H    3.060927   1.766944   0.000000
    19  H    2.577411   2.435006   2.944363   0.000000
    20  H    3.688085   2.359142   2.416321   1.627906   0.000000
    21  H    2.477470   3.684718   3.719493   4.832062   5.477881
    22  H    3.060102   3.028764   2.530490   4.656513   4.758403
    23  H    3.195317   2.072780   3.069224   4.352955   4.416902
    24  H    2.593076   2.928901   4.072673   4.492275   5.144575
    25  H    4.388729   4.788739   5.264634   6.596435   7.050030
    26  H    4.748767   4.292272   4.507179   6.473045   6.507129
    27  H    5.100617   4.863206   5.984975   6.802168   7.188801
    28  H    6.089850   5.648642   6.421366   7.822586   7.992032
                   21         22         23         24         25
    21  H    0.000000
    22  H    1.756425   0.000000
    23  H    3.068908   2.542318   0.000000
    24  H    2.498813   3.076794   1.760083   0.000000
    25  H    2.524345   3.106306   3.045870   2.506876   0.000000
    26  H    3.086527   2.568219   2.471670   3.055856   1.767942
    27  H    4.315625   4.646333   2.960793   2.509546   2.452279
    28  H    4.760712   4.774767   3.578711   3.643949   2.447540
                   26         27         28
    26  H    0.000000
    27  H    2.930799   0.000000
    28  H    2.390647   1.622074   0.000000
 Stoichiometry    C6H18N4
 Framework group  C1[X(C6H18N4)]
 Deg. of freedom    78
 Full point group                 C1      NOp   1
 Largest Abelian subgroup         C1      NOp   1
 Largest concise Abelian subgroup C1      NOp   1
                         Standard orientation:                         
 ---------------------------------------------------------------------
 Center     Atomic      Atomic             Coordinates (Angstroms)
 Number     Number       Type             X           Y           Z
 ---------------------------------------------------------------------
      1          6           0       -3.865022   -1.364235    0.106147
      2          7           0       -2.847270   -0.488751   -0.460486
      3          7           0       -1.573952   -0.800536    0.167670
      4          6           0       -0.472630    0.098839   -0.233833
      5          6           0       -0.542040    1.507337    0.392333
      6          7           0       -1.712159    2.325034   -0.005499
      7          6           0        0.819678   -0.612941    0.214585
      8          6           0        2.139385    0.057386   -0.209297
      9          6           0        3.373974   -0.731094    0.229127
     10          7           0        4.603984   -0.009808   -0.136139
     11          1           0       -4.842704   -1.036739   -0.262442
     12          1           0       -3.887460   -1.367938    1.208268
     13          1           0       -3.712937   -2.395122   -0.236346
     14          1           0       -3.039042    0.466906   -0.164428
     15          1           0       -1.342802   -1.700114   -0.247607
     16          1           0       -0.437167    0.204992   -1.334099
     17          1           0        0.388741    2.021864    0.123027
     18          1           0       -0.551520    1.397678    1.482584
     19          1           0       -1.725893    2.414671   -1.018585
     20          1           0       -1.602085    3.264397    0.364425
     21          1           0        0.801020   -1.624326   -0.212338
     22          1           0        0.794639   -0.737566    1.303791
     23          1           0        2.223271    1.061386    0.214680
     24          1           0        2.155483    0.170753   -1.301919
     25          1           0        3.322138   -1.750187   -0.191363
     26          1           0        3.360994   -0.834031    1.320181
     27          1           0        4.658254    0.070407   -1.147347
     28          1           0        5.422789   -0.540357    0.146321
 ---------------------------------------------------------------------
 Rotational constants (GHZ):           2.3694955           0.4823685           0.4149273
 Standard basis: 6-31G(2df,p) (6D, 7F)
 There are   400 symmetry adapted cartesian basis functions of A   symmetry.
 There are   370 symmetry adapted basis functions of A   symmetry.
   370 basis functions,   566 primitive gaussians,   400 cartesian basis functions
    41 alpha electrons       41 beta electrons
       nuclear repulsion energy       567.2104174906 Hartrees.
 NAtoms=   28 NActive=   28 NUniq=   28 SFac= 1.00D+00 NAtFMM=   60 NAOKFM=F Big=F
 Integral buffers will be    131072 words long.
 Raffenetti 2 integral format.
 Two-electron integral symmetry is turned on.
 One-electron integrals computed using PRISM.
 PrsmSu:  requested number of processors reduced to:  13 ShMem   1 Linda.
 NBasis=   370 RedAO= T EigKep=  3.11D-04  NBF=   370
 NBsUse=   370 1.00D-06 EigRej= -1.00D+00 NBFU=   370
 Initial guess from the checkpoint file:  "CNNCpCNpCCCN.chk"
 B after Tr=     0.000000   -0.000000    0.000000
         Rot=    0.999985    0.005451    0.000093    0.000900 Ang=   0.63 deg.
 ExpMin= 1.61D-01 ExpMax= 4.17D+03 ExpMxC= 6.27D+02 IAcc=2 IRadAn=         4 AccDes= 0.00D+00
 Harris functional with IExCor=  402 and IRadAn=       4 diagonalized for initial guess.
 HarFok:  IExCor=  402 AccDes= 0.00D+00 IRadAn=         4 IDoV= 1 UseB2=F ITyADJ=14
 ICtDFT=  3500011 ScaDFX=  1.000000  1.000000  1.000000  1.000000
 FoFCou: FMM=F IPFlag=           0 FMFlag=      100000 FMFlg1=           0
[...]
 00003693,0.00011137,0.00005912,0.00030636,-0.00047853,-0.00086027,-0.0
 0885105,0.05066265,0.00001262,0.00005388,0.00005713,-0.00043048,0.0000
 3957,-0.00002129,0.00071549,0.00024208,0.00023185,0.00221931,-0.005595
 49,-0.00969427,0.00030260,-0.00052332,0.00042631,-0.00012694,-0.000090
 27,-0.00013851,-0.05973744,0.02690428,0.04773589,-0.00915224,0.0178417
 3,0.02830333,0.00100352,-0.00017184,0.00179658,0.00010937,-0.00024156,
 -0.00032891,0.00000651,0.00000231,0.00000096,-0.00004394,0.00002697,0.
 00002233,-0.00000386,-0.00001252,-0.00000034,0.00008565,0.00000473,0.0
 0000644,0.00019181,-0.00011477,-0.00022486,-0.00057490,0.00118614,-0.0
 0115158,-0.00010962,0.00012849,0.00011930,0.00012446,0.00011885,0.0001
 1528,-0.00005172,0.00000837,0.00002257,0.00002638,-0.00001254,0.000039
 47,0.00328368,-0.00744267,-0.01323482,0.06680630,0.00004137,-0.0000691
 5,-0.00012817,0.00005788,-0.00007298,0.00005841,-0.00067777,0.00030022
 ,-0.00026729,-0.00403028,0.00799723,0.01593057,-0.00059317,0.00115926,
 0.00094203,-0.00014987,0.00014329,-0.00018704,0.02723104,-0.10922280,-
 0.10379209,0.00114506,-0.00288024,-0.00361162,-0.00025822,-0.00009018,
 -0.00100613,0.00007246,0.00007256,0.00041746,-0.00002275,0.00000110,0.
 00001165,0.00003367,0.00001411,0.00000128,0.00000166,-0.00000555,-0.00
 000660,-0.00003212,0.00012681,0.00004979,0.00035961,-0.00011025,-0.000
 26256,0.00129022,-0.00114407,0.00306070,-0.00011577,0.00007115,-0.0001
 7063,0.00033540,0.00004694,-0.00009904,0.00010140,0.00000041,-0.000079
 53,0.00001487,-0.00001688,-0.00008666,0.00637420,-0.01447597,-0.024438
 84,-0.03276157,0.11623802,0.00001343,0.00010609,-0.00003889,-0.0007540
 6,0.00035660,0.00042911,0.00067020,-0.00036936,0.00133093,0.00680307,-
 0.01215972,-0.02555295,0.00033949,-0.00183463,0.00058080,-0.00019873,0
 .00022966,0.00055217,0.04773402,-0.10293327,-0.22430707,0.00067970,-0.
 00048604,-0.00140885,-0.00023134,0.00031056,0.00046296,-0.00004775,0.0
 0012838,0.00042199,-0.00003531,0.00000990,-0.00001061,-0.00010070,0.00
 003640,0.00002106,-0.00000946,-0.00001539,0.00000978,0.00012779,-0.000
 14649,-0.00006825,0.00007593,0.00004715,-0.00033711,-0.00226826,0.0030
 6505,-0.00302263,0.00021559,0.00026062,0.00000961,-0.00030009,0.001159
 46,0.00027564,-0.00011462,-0.00031704,0.00022678,0.00004599,0.00008176
 ,0.00001961,-0.00024150,0.00015479,0.00061580,-0.05281931,0.11196006,0
 .24833852,0.00000399,0.00000482,-0.00004656,0.00006759,0.00023644,-0.0
 0014158,0.00000222,0.00022670,-0.00019456,0.00072475,-0.00114660,0.000
 62097,-0.00190560,-0.00023881,-0.00085889,0.00096672,0.00010084,0.0007
 1924,-0.01696240,-0.02827954,-0.00073431,-0.11326851,-0.11324172,-0.00
 090969,0.00387414,0.00871029,-0.00034674,0.00120721,0.00020652,0.00018
 048,-0.00002265,0.00000135,-0.00000731,-0.00000694,0.00000156,0.000018
 63,0.00002196,0.00001683,0.00000628,-0.00022649,-0.00012722,-0.0000583
 4,0.00042383,0.00027999,0.00023496,0.00000758,0.00017106,-0.00019491,0
 .00078206,0.00136778,-0.00032009,0.00025387,-0.00003362,0.00007841,-0.
 00014896,-0.00008326,-0.00010388,-0.00004573,0.00011002,-0.00006601,-0
 .00617747,0.00144149,0.00032482,0.00155543,0.00022327,0.00027820,0.125
 60944,0.00002349,-0.00000363,-0.00003951,-0.00009447,0.00000072,-0.000
 04063,-0.00011859,0.00002371,-0.00014693,-0.00062079,-0.00018785,0.000
 40722,0.00045502,-0.00092012,-0.00002487,0.00029104,0.00008559,0.00025
 620,0.00322742,0.00642798,-0.00015682,-0.11254462,-0.23685962,-0.00570
 874,-0.01028327,-0.01941592,0.00107829,-0.00012705,0.00181538,-0.00153
 986,-0.00001617,0.00000122,-0.00000463,-0.00000502,0.00000368,0.000011
 95,0.00000245,0.00000290,0.00000132,-0.00008754,-0.00009754,0.00003032
 ,-0.00004011,0.00013453,-0.00012800,-0.00004782,0.00001950,0.00002896,
 0.00146948,-0.00071189,0.00078715,0.00024581,-0.00000921,0.00003512,-0
 .00008991,-0.00001363,-0.00002059,-0.00004371,0.00003255,-0.00003249,0
 .00210079,0.00103334,0.00042501,-0.00070949,0.00066422,0.00011947,0.12
 275021,0.26087292,-0.00001916,0.00000475,0.00000233,0.00001194,0.00002
 333,0.00000586,0.00001994,0.00010899,-0.00005317,0.00004621,-0.0005243
 3,0.00009227,-0.00085136,0.00023693,-0.00016742,0.00021458,-0.00003146
 ,0.00012118,0.00085686,0.00130403,-0.00071209,-0.00194411,-0.00700332,
 -0.04840830,0.01330138,0.02602922,-0.00193173,0.00077909,-0.00181062,0
 .00121892,0.00000192,-0.00000280,0.00000292,0.00000119,-0.00000104,-0.
 00000290,0.00000698,0.00000310,-0.00000405,-0.00003747,-0.00002197,-0.
 00000480,0.00002865,0.00003804,-0.00000697,0.00000106,-0.00004427,0.00
 002713,-0.00024318,0.00075401,0.00008310,0.00014236,0.00000845,-0.0000
 1830,-0.00007085,0.00000047,-0.00007886,-0.00002766,0.00001489,0.00000
 401,0.00038602,0.00057855,0.00075867,-0.00006846,0.00060190,0.00023214
 ,0.00245288,0.00137191,0.05178695,0.00001961,-0.00000566,0.00002052,0.
 00006023,-0.00010547,-0.00024623,0.00025861,-0.00016521,-0.00041669,0.
 00112462,-0.00017443,0.00234231,-0.00012979,-0.00000301,-0.00011644,0.
 00007255,0.00005616,-0.00003661,-0.01022228,0.01747806,0.02870495,-0.0
 5825406,0.02322328,0.04480007,0.00099519,-0.00453251,-0.00913183,0.001
 23210,-0.00080045,-0.00023408,0.00000054,0.00000224,-0.00000179,0.0000
 1146,-0.00000907,0.00000437,-0.00000485,0.00000038,0.00000501,-0.00001
 631,0.00000393,0.00001447,-0.00006475,0.00000929,0.00020855,0.00011603
 ,-0.00003593,-0.00118494,0.00001928,0.00004494,-0.00003460,0.00005429,
 -0.00018358,-0.00005289,0.00000771,0.00004306,-0.00002596,-0.00000377,
 0.00001540,-0.00002162,0.00143768,-0.00052788,-0.00014025,-0.00648411,
 0.00105571,0.00004418,0.00350433,-0.00735252,-0.01396845,0.06642837,0.
 00000778,0.00000695,0.00001963,0.00005342,0.00000727,0.00005395,-0.000
 34059,0.00006649,0.00050163,0.00014591,0.00002566,-0.00165198,-0.00028
 756,-0.00017044,0.00012668,0.00020454,-0.00009200,0.00019402,0.0016949
 6,-0.00361562,-0.00492343,0.02393738,-0.10516392,-0.09996399,-0.003310
 71,0.00840119,0.01834861,-0.00144715,0.00078710,-0.00039479,0.00001207
 ,-0.00000299,-0.00000009,-0.00000919,0.00000137,0.00000296,-0.00000161
 ,-0.00000064,-0.00000204,0.00000753,-0.00003144,-0.00001149,-0.0000259
 0,-0.00003724,-0.00008005,0.00013151,0.00010083,0.00083745,0.00014269,
 0.00015725,-0.00012040,-0.00003522,0.00011246,0.00003368,0.00000142,-0
 .00008909,0.00002671,-0.00000988,0.00000412,0.00001752,0.00022030,0.00
 071587,0.00057224,0.00142990,0.00113047,0.00044698,0.00636141,-0.01356
 833,-0.02439347,-0.02982344,0.11077692,0.00001425,-0.00001046,0.000018
 07,0.00012502,0.00000143,-0.00002851,-0.00040651,0.00010871,0.00045068
 ,-0.00040154,0.00043784,0.00036368,-0.00006864,0.00012450,-0.00004249,
 0.00005303,-0.00004336,0.00007212,0.00063553,-0.00084329,-0.00177130,0
 .04559144,-0.09979219,-0.22539365,0.00547145,-0.01291796,-0.02592353,0
 .00085291,-0.00049067,0.00205616,0.00001481,-0.00000498,0.00000100,0.0
 0000203,0.00000414,0.00000674,0.00000455,0.00000201,-0.00000529,-0.000
 01564,-0.00000773,-0.00000669,0.00002372,-0.00002985,-0.00011279,0.000
 02528,-0.00017900,0.00066661,0.00011193,-0.00005867,0.00001825,-0.0000
 0923,0.00008380,-0.00000283,-0.00000277,-0.00002542,0.00000784,-0.0000
 0541,-0.00000916,0.00000760,0.00035414,0.00023725,0.00019933,0.0001678
 2,0.00056671,0.00081267,-0.00000189,-0.00032036,-0.00066489,-0.0498076
 7,0.10819492,0.25067650,0.00001391,-0.00000945,0.00000231,0.00000978,0
 .00000882,-0.00000658,-0.00001988,-0.00003625,0.00001582,0.00033139,0.
 00002173,0.00012425,0.00001649,0.00013115,-0.00006553,-0.00006125,0.00
 005967,-0.00002786,0.00106438,0.00051056,0.00007279,0.00449160,0.00792
 446,-0.00037872,-0.09798468,-0.09438951,0.00141621,-0.03534098,-0.0257
 4944,0.00126666,-0.00000270,0.00000286,-0.00000591,-0.00000289,0.00000
 341,0.00000599,0.00000168,0.00000302,0.00000166,-0.00000467,-0.0000050
 9,0.00000308,0.00000536,0.00000325,0.00000667,0.00000101,-0.00000766,0
 .00000443,-0.00009173,-0.00006027,-0.00003392,-0.00001552,0.00001465,0
 .00000785,-0.00000039,-0.00000601,0.00000846,-0.00000932,0.00000364,-0
 .00001143,0.00017647,-0.00009499,-0.00009059,0.00000519,0.00005562,0.0
 0002413,-0.00050485,0.00159183,-0.00187750,0.00008123,-0.00044419,0.00
 022925,0.12097616,-0.00004178,-0.00002859,0.00001829,0.00008486,0.0000
 5999,-0.00002518,0.00018916,-0.00005452,0.00006231,0.00028095,0.000395
 92,0.00014480,-0.00043983,-0.00001751,-0.00037181,0.00022472,0.0000684
 1,0.00018422,-0.00161157,-0.00020142,-0.00048558,-0.00891160,-0.018832
 97,0.00005459,-0.09260983,-0.22600690,-0.00092747,0.00148795,0.0104525
 0,0.00053441,0.00001178,-0.00000029,0.00000022,0.00000547,-0.00000031,
 -0.00000383,0.00001555,0.00001695,-0.00000316,-0.00006100,-0.00003473,
 -0.00000628,0.00004347,0.00002196,0.00006333,0.00000079,-0.00001320,-0
 .00006206,0.00025281,0.00013991,0.00004052,0.00006401,-0.00001516,0.00
 002124,-0.00005085,-0.00001318,-0.00003296,-0.00002770,0.00003208,-0.0
 0003222,0.00132247,0.00049934,0.00025338,0.00001973,0.00000920,0.00002
 767,0.00141639,-0.00093812,0.00370319,0.00003742,0.00137308,0.00017839
 ,0.10677630,0.24470199,0.00002163,0.00000486,-0.00000426,-0.00001833,-
 0.00002403,-0.00000020,-0.00009133,-0.00003172,-0.00000754,0.00013453,
 -0.00017122,-0.00004120,0.00032425,0.00010227,0.00015512,-0.00019563,0
 .00000385,-0.00012946,0.00153577,0.00001164,0.00043907,0.01065686,0.02
 549247,-0.00137812,0.00060750,-0.00190875,-0.05372477,0.00147340,0.001
 91473,0.00349449,-0.00000539,0.00000234,-0.00000289,-0.00000231,0.0000
 0004,0.00000305,-0.00000654,-0.00000437,0.00000390,0.00003015,0.000020
 83,0.00000326,-0.00002790,-0.00000633,-0.00000354,0.00001759,0.0000077
 3,-0.00000008,-0.00023691,-0.00014116,-0.00006971,-0.00008681,0.000018
 21,-0.00000833,0.00003688,0.00000715,0.00003183,0.00001359,-0.00001777
 ,0.00000849,-0.00056554,-0.00042015,0.00021468,-0.00019896,-0.00003191
 ,0.00001996,-0.00146182,0.00359680,-0.00345322,0.00069862,-0.00075300,
 0.00129774,0.00002631,-0.00320466,0.05267400,0.00001179,-0.00000063,-0
 .00000228,0.00000399,-0.00000070,0.00001735,-0.00006923,0.00000104,0.0
 0005742,0.00005494,0.00000444,-0.00013894,0.00004107,-0.00000746,0.000
 03896,-0.00002659,-0.00000126,-0.00001639,0.00091191,-0.00073750,-0.00
 055874,0.00158495,-0.00521553,-0.00897355,-0.05559633,0.01768165,0.033
 35515,-0.01506758,0.01737248,0.03401473,-0.00000141,0.00000080,-0.0000
 0047,-0.00000253,0.00000255,0.00000226,-0.00000102,-0.00000184,0.00000
 017,0.00000537,0.00000282,-0.00000038,0.00001124,-0.00000547,-0.000018
 48,-0.00009598,0.00006255,0.00011964,-0.00001928,-0.00001683,-0.000000
 28,-0.00000672,0.00002058,0.00000397,0.00000398,-0.00000490,0.00000601
 ,0.00000482,-0.00000345,0.00000427,0.00001425,-0.00004484,-0.00005460,
 -0.00004181,0.00035873,0.00015583,0.00014719,0.00013356,0.00072620,-0.
 00034062,0.00170274,-0.00174936,0.00390738,-0.00722028,-0.01262829,0.0
 7042051,0.00000829,-0.00000037,-0.00001529,-0.00004675,0.00000297,0.00
 000651,0.00004166,0.00000873,-0.00011459,-0.00026532,0.00005750,0.0003
 4010,0.00004282,0.00000196,-0.00002562,-0.00003666,0.00001982,-0.00003
 531,-0.00081595,0.00064823,-0.00012201,-0.00323472,0.00885299,0.017565
 59,0.02077643,-0.10927025,-0.10477259,0.00411847,-0.00100194,-0.003886
 86,-0.00000493,0.00000023,0.00000133,-0.00000157,0.00000431,0.00000287
 ,0.00000016,-0.00000220,-0.00000068,0.00000360,0.00000708,0.00000185,0
 .00001448,-0.00000850,-0.00001121,0.00010065,-0.00010670,-0.00009189,-
 0.00004375,-0.00000906,0.00000290,0.00000072,-0.00001306,-0.00000124,0
 .00000554,0.00001222,-0.00000145,0.00000811,-0.00000161,-0.00000254,0.
 00017169,-0.00005601,-0.00006283,0.00000382,0.00010738,-0.00025760,-0.
 00039290,0.00126308,-0.00049696,0.00142381,-0.00114053,0.00379004,0.00
 341510,-0.01467555,-0.02507639,-0.02655563,0.11468407,0.00003830,-0.00
 000450,-0.00001803,-0.00000665,0.00000212,0.00001757,-0.00021072,0.000
 10869,0.00009686,-0.00001499,0.00029257,0.00012939,0.00005113,0.000009
 36,0.00000569,-0.00002512,0.00002419,0.00001341,0.00137048,-0.00094615
 ,0.00038834,0.00356778,-0.01193200,-0.02443690,0.04061197,-0.10384621,
 -0.23184652,0.00198493,-0.00026531,-0.00026368,-0.00000562,0.00000059,
 -0.00000141,-0.00000861,0.00000835,0.00001230,-0.00000251,-0.00000325,
 0.00000065,0.00000094,-0.00000784,-0.00000642,0.00003409,-0.00001623,-
 0.00003296,0.00004124,-0.00005194,0.00037344,-0.00000974,-0.00005144,-
 0.00004909,-0.00006548,0.00005373,0.00000089,0.00001000,-0.00002429,0.
 00002237,0.00000478,0.00000073,-0.00000860,-0.00009772,0.00008845,0.00
 000704,-0.00105197,0.00054334,0.00053331,0.00045245,-0.00000402,0.0012
 6706,-0.00174616,0.00362710,-0.00306279,-0.00046438,-0.00030056,0.0002
 3245,-0.04478754,0.11251357,0.25418145,-0.00003321,-0.00000082,0.00001
 414,0.00002829,0.00000230,0.00000454,0.00005679,-0.00004742,0.00004017
 ,0.00000611,-0.00005039,-0.00017636,0.00001032,0.00003563,-0.00001166,
 0.00001142,-0.00005351,0.00002952,-0.00014209,-0.00026974,-0.00013968,
 0.00140784,0.00002453,0.00130839,-0.01410526,0.02401007,0.03532035,-0.
 05952350,0.04826442,0.03977383,0.00001055,-0.00000280,0.00000635,0.000
 00682,-0.00000458,-0.00001079,0.00000057,0.00000131,-0.00000274,0.0000
 0672,0.00000774,-0.00000310,-0.00003152,0.00000016,0.00000104,-0.00001
 787,0.00002298,-0.00005761,0.00000972,0.00002468,0.00000019,0.00001026
 ,-0.00001131,0.00000334,0.00000336,0.00000986,-0.00000427,-0.00000685,
 -0.00000619,0.00000564,-0.00009372,-0.00001951,0.00004976,0.00027812,-
 0.00016860,-0.00013507,-0.00001165,-0.00021054,-0.00015794,-0.00001884
 ,0.00008362,-0.00130275,0.00181150,-0.00054636,0.00045720,-0.00729352,
 0.00107547,-0.00021843,0.07507293,0.00002722,0.00000804,-0.00000529,-0
 .00001967,-0.00002070,0.00000556,-0.00007400,0.00001191,0.00004183,0.0
 0010458,-0.00001303,-0.00002564,0.00007687,0.00000374,0.00003670,-0.00
 005004,-0.00001686,-0.00001407,0.00027830,0.00013955,0.00055913,0.0001
 5955,-0.00026922,-0.00128384,-0.00698031,-0.00571275,-0.00323676,0.073
 11181,-0.14788004,-0.19416935,-0.00000217,0.,0.00000030,-0.00000513,0.
 00000216,0.00000523,-0.00000595,-0.00000680,0.00000209,0.00002257,0.00
 000994,-0.00000457,0.00000027,-0.00000745,-0.00001485,0.00000476,0.000
 01047,0.00006311,-0.00003029,-0.00001480,-0.00003007,-0.00002527,0.000
 01100,0.00000220,0.00002278,-0.00000444,0.00001741,0.00001200,-0.00000
 932,0.00000334,-0.00015201,-0.00007073,0.00000564,-0.00032267,0.000065
 05,0.00008540,0.00008839,-0.00026152,-0.00011289,0.00047532,0.00013805
 ,0.00085790,0.00026895,0.00175213,0.00132663,0.00216166,0.00076128,0.0
 0034465,-0.06324088,0.14429907,-0.00002141,-0.00000364,0.00000340,0.00
 001658,0.00000656,-0.00000051,0.00005177,-0.00001374,-0.00001125,-0.00
 005555,0.00003319,0.00004806,-0.00002487,0.00000925,-0.00003028,0.0000
 2180,-0.00000050,0.00001267,-0.00019962,0.00008152,-0.00012383,-0.0002
 8273,0.00046413,0.00223221,0.00049905,-0.00285465,-0.00195409,0.058134
 17,-0.14983899,-0.28555605,0.00000309,-0.00000127,0.00000235,0.0000043
 3,-0.00000249,-0.00000495,0.00000378,0.00000403,-0.00000164,-0.0000085
 6,-0.00000036,0.00000112,-0.00000539,0.00000263,0.00000699,0.00001022,
 -0.00001179,-0.00004063,0.00001304,0.00000662,0.00000977,0.00000624,-0
 .00000774,-0.00000142,-0.00000804,0.00000637,-0.00000624,-0.00000584,0
 .00000224,-0.00000255,0.00010011,0.00004174,0.00000051,-0.00000674,0.0
 0001631,-0.00014254,0.00001153,0.00007953,-0.00004987,0.00014374,-0.00
 070081,-0.00015281,-0.00108552,0.00061780,0.00029142,0.00047044,0.0009
 4964,0.00192726,-0.06471703,0.17377889,0.31084875,0.00002387,0.0000160
 8,-0.00004209,-0.00010139,-0.00002061,0.00002743,-0.00003422,0.0001486
 1,-0.00021961,-0.00062033,-0.00002007,0.00037157,-0.00005324,-0.000078
 07,-0.00001286,0.00000792,0.00003630,-0.00000638,0.00014907,0.00141537
 ,-0.00187864,-0.00729208,-0.00029736,0.00269750,-0.01550239,0.02185885
 ,-0.03363209,-0.07369339,0.06333706,-0.06842777,-0.00001910,0.00000208
 ,-0.00000179,-0.00000421,0.00000202,0.00000611,-0.00000512,-0.00000684
 ,0.00000314,-0.00000018,-0.00000419,0.00000611,0.00002214,-0.00000149,
 -0.00001496,0.00002008,-0.00003032,-0.00000520,0.00001550,0.00000540,0
 .00000372,-0.00000038,0.00000549,-0.00000225,-0.00000402,0.00000071,-0
 .00000116,0.00000692,0.00000858,-0.00000914,0.00005521,-0.00010323,-0.
 00006106,0.00003062,0.00005794,0.00004865,0.00012896,0.00010052,0.0002
 8888,0.00011556,-0.00040175,0.00009423,0.00114533,-0.00071300,-0.00050
 852,0.00143925,0.00018736,0.00054757,0.00254670,-0.00590663,0.00693142
 ,0.09162291,-0.00006796,-0.00000930,0.00004790,0.00010710,0.00000135,-
 0.00000547,0.00011177,-0.00012301,0.00018067,0.00022721,0.00016014,-0.
 00027981,-0.00001198,0.00009347,-0.00003162,0.00003857,-0.00009595,0.0
 0005482,-0.00014797,0.00004999,0.00118340,0.00333088,-0.00032661,-0.00
 097260,-0.00751504,-0.00631150,0.00333299,0.09230057,-0.13362909,0.180
 50258,0.00002806,-0.00000664,0.00001227,0.00001392,-0.00000894,-0.0000
 2151,0.00000549,0.00000589,-0.00000802,0.00000657,0.00001392,-0.000004
 05,-0.00006086,-0.00001434,-0.00000727,0.00000026,-0.00000366,-0.00000
 958,0.00002282,0.00003665,0.00000996,0.00002823,-0.00001332,0.00000138
 ,-0.00000263,0.00001492,-0.00001225,-0.00001801,-0.00001031,0.00001486
 ,0.00014699,0.00002759,-0.00003869,-0.00001212,-0.00005933,-0.00006645
 ,-0.00017169,0.00060607,-0.00033864,-0.00014984,0.00010715,0.00014543,
 0.00000784,0.00130898,-0.00071808,0.00031074,-0.00014610,-0.00016369,-
 0.00893012,0.00707526,-0.02266447,-0.07959880,0.13125673,0.00000136,-0
 .00000099,0.00000407,0.00001112,-0.00000306,0.00000410,0.00000271,-0.0
 0000702,-0.00001760,0.00004744,-0.00003425,0.00003565,0.00000521,0.000
 00558,0.00000855,-0.00000092,-0.00001142,-0.00000083,0.00043023,0.0001
 3104,0.00033797,-0.00024198,-0.00028885,0.00084683,0.00366904,-0.00055
 659,0.00346167,-0.08852923,0.13988241,-0.28759807,0.00000120,0.0000005
 2,0.,0.00000039,-0.00000036,-0.00000090,-0.00000204,-0.00000104,0.0000
 0025,0.00000059,-0.00000026,0.00000150,-0.00000503,0.00000139,0.000005
 57,0.00000472,0.00000218,-0.00001185,-0.00000037,0.00001055,-0.0000008
 0,0.00000469,-0.00000254,-0.00000048,0.00000271,0.00000070,0.00000010,
 -0.00000066,-0.00000054,0.00000330,-0.00005219,-0.00003433,-0.00001903
 ,-0.00010524,0.00000790,-0.00000395,0.00006774,-0.00006179,-0.00004596
 ,0.00017942,-0.00000854,0.00051257,0.00083207,-0.00044858,-0.00004613,
 -0.00004310,-0.00019937,0.00051692,-0.01007704,0.02176131,-0.02730586,
 0.09379718,-0.16014404,0.30931241\\-0.00000529,0.00000080,-0.00000344,
 -0.00000455,0.00000255,0.00000614,0.00000431,-0.00000124,-0.00000571,0
 .00000034,-0.00000850,0.00001054,0.00000383,0.00000687,0.00000053,-0.0
 0000034,0.00000060,-0.00000070,-0.00000139,0.00000147,-0.00000446,-0.0
 0000103,0.00000078,0.00000077,0.00000332,0.00000066,0.00000087,0.00000
 037,-0.00000194,0.00000017,-0.00000288,0.00000031,-0.00000104,0.000001
 96,-0.00000044,-0.00000065,-0.00000059,0.00000068,0.00000006,-0.000002
 01,0.00000282,-0.00000559,0.00000396,-0.00000019,0.00000314,0.00000080
 ,-0.00000086,-0.00000035,-0.00000242,0.00000091,-0.00000155,-0.0000011
 6,-0.00000299,0.00000048,-0.00000001,-0.00000197,-0.00000109,0.0000005
 0,0.00000006,-0.00000259,-0.00000035,0.00000060,0.00000078,0.00000202,
 -0.00000068,0.00000105,-0.00000010,-0.00000102,0.00000136,-0.00000056,
 -0.00000049,0.00000049,-0.00000036,0.00000057,-0.00000057,-0.00000040,
 -0.00000017,0.,0.00000044,-0.00000010,0.00000104,0.00000162,0.00000093
 ,0.00000032\\\@


 IT IS THE GODS' CUSTOM TO BRING LOW ALL THINGS OF SURPASSING GREATNESS.
     -- HERODOTUS
 IT IS THE LOFTY PINE THAT BY THE STORM IS OFTENER TOSSED;
 TOWERS FALL WITH HEAVIER CRASH WHICH HIGHER SOAR.
     -- HORACE
 THE BIGGER THEY COME, THE HARDER THEY FALL.
     -- BOB FITZSIMONS HEAVYWEIGHT CHAMPION, 1897-1899
 Job cpu time:       0 days  3 hours 26 minutes 32.6 seconds.
 Elapsed time:       0 days  0 hours 51 minutes 46.6 seconds.
 File lengths (MBytes):  RWF=    281 Int=      0 D2E=      0 Chk=     12 Scr=      1
 Normal termination of Gaussian 16 at Tue Jun  1 09:04:24 2021.
### All Done ###
