### Starting Gaussian ###
 Entering Gaussian System, Link 0=g16
 Initial command:
 /cluster/software/gaussian/gaussian-16-A.03/avx2/g16/l1.exe "/local/scratch/linjian/Gau-21548.inp" -scrdir="/local/scratch/linjian/"
 Entering Link 1 = /cluster/software/gaussian/gaussian-16-A.03/avx2/g16/l1.exe PID=     21550.
  
 Copyright (c) 1988,1990,1992,1993,1995,1998,2003,2009,2016,
            Gaussian, Inc.  All Rights Reserved.
  
 This is part of the Gaussian(R) 16 program.  It is based on
 the Gaussian(R) 09 system (copyright 2009, Gaussian, Inc.),
 the Gaussian(R) 03 system (copyright 2003, Gaussian, Inc.),
 the Gaussian(R) 98 system (copyright 1998, Gaussian, Inc.),
 the Gaussian(R) 94 system (copyright 1995, Gaussian, Inc.),
 the Gaussian 92(TM) system (copyright 1992, Gaussian, Inc.),
 the Gaussian 90(TM) system (copyright 1990, Gaussian, Inc.),
 the Gaussian 88(TM) system (copyright 1988, Gaussian, Inc.),
 the Gaussian 86(TM) system (copyright 1986, Carnegie Mellon
 University), and the Gaussian 82(TM) system (copyright 1983,
 Carnegie Mellon University). Gaussian is a federally registered
 trademark of Gaussian, Inc.
  
 This software contains proprietary and confidential information,
 including trade secrets, belonging to Gaussian, Inc.
  
 This software is provided under written license and may be
 used, copied, transmitted, or stored only in accord with that
 written license.
  
 The following legend is applicable only to US Government
 contracts under FAR:
  
                    RESTRICTED RIGHTS LEGEND
  
 Use, reproduction and disclosure by the US Government is
 subject to restrictions as set forth in subparagraphs (a)
 and (c) of the Commercial Computer Software - Restricted
 Rights clause in FAR 52.227-19.
  
 Gaussian, Inc.
 340 Quinnipiac St., Bldg. 40, Wallingford CT 06492
  
  
 ---------------------------------------------------------------
 Warning -- This program may not be used in any manner that
 competes with the business of Gaussian, Inc. or will provide
 assistance to any competitor of Gaussian, Inc.  The licensee
 of this program is prohibited from giving any competitor of
 Gaussian, Inc. access to this program.  By using this program,
 the user acknowledges that Gaussian, Inc. is engaged in the
 business of creating and licensing software in the field of
 computational chemistry and represents and warrants to the
 licensee that it is not a competitor of Gaussian, Inc. and that
 it will not use this program in any manner prohibited above.
 ---------------------------------------------------------------
  

 Cite this work as:
 Gaussian 16, Revision A.03,
 M. J. Frisch, G. W. Trucks, H. B. Schlegel, G. E. Scuseria, 
 M. A. Robb, J. R. Cheeseman, G. Scalmani, V. Barone, 
 G. A. Petersson, H. Nakatsuji, X. Li, M. Caricato, A. V. Marenich, 
 J. Bloino, B. G. Janesko, R. Gomperts, B. Mennucci, H. P. Hratchian, 
 J. V. Ortiz, A. F. Izmaylov, J. L. Sonnenberg, D. Williams-Young, 
 F. Ding, F. Lipparini, F. Egidi, J. Goings, B. Peng, A. Petrone, 
 T. Henderson, D. Ranasinghe, V. G. Zakrzewski, J. Gao, N. Rega, 
 G. Zheng, W. Liang, M. Hada, M. Ehara, K. Toyota, R. Fukuda, 
 J. Hasegawa, M. Ishida, T. Nakajima, Y. Honda, O. Kitao, H. Nakai, 
 T. Vreven, K. Throssell, J. A. Montgomery, Jr., J. E. Peralta, 
 F. Ogliaro, M. J. Bearpark, J. J. Heyd, E. N. Brothers, K. N. Kudin, 
 V. N. Staroverov, T. A. Keith, R. Kobayashi, J. Normand, 
 K. Raghavachari, A. P. Rendell, J. C. Burant, S. S. Iyengar, 
 J. Tomasi, M. Cossi, J. M. Millam, M. Klene, C. Adamo, R. Cammi, 
 J. W. Ochterski, R. L. Martin, K. Morokuma, O. Farkas, 
 J. B. Foresman, and D. J. Fox, Gaussian, Inc., Wallingford CT, 2016.
 
 ******************************************
 Gaussian 16:  ES64L-G16RevA.03 25-Dec-2016
                31-May-2021 
 ******************************************
 %chk=CNNdCCdCCpNpNC.chk
 %NProcShared=20
 Will use up to   20 processors via shared memory.
 -----------------------------
 # opt freq b3lyp/6-31g(2df,p)
 -----------------------------
 1/18=20,19=15,26=3,38=1/1,3;
 2/9=110,12=2,17=6,18=5,40=1/2;
 3/5=1,6=6,7=104,11=2,25=1,30=1,71=1,74=-5/1,2,3;
 4//1;
 5/5=2,38=5/2;
 6/7=2,8=2,9=2,10=2,28=1/1;
 7//1,2,3,16;
 1/18=20,19=15,26=3/3(2);
 2/9=110/2;
 99//99;
 2/9=110/2;
 3/5=1,6=6,7=104,11=2,25=1,30=1,71=1,74=-5/1,2,3;
 4/5=5,16=3,69=1/1;
 5/5=2,38=5/2;
 7//1,2,3,16;
 1/18=20,19=15,26=3/3(-5);
 2/9=110/2;
 6/7=2,8=2,9=2,10=2,19=2,28=1/1;
 99/9=1/99;
 -------------------
 Title Card Required
 -------------------
 Symbolic Z-matrix:
 Charge =  0 Multiplicity = 1
 C                     1.13528  -0.0708   -0.08737 
 N                     2.57973  -0.09665  -0.14069 
 N                     3.20679  -0.61114  -1.20573 
 C                     4.50353  -0.594    -1.17399 
 C                     5.27389  -1.14543  -2.31287 
 C                     6.61916  -1.15191  -2.36784 
 C                     7.38971  -1.70904  -3.53894 
 N                     7.07193  -0.97753  -4.73847 
 N                     8.81907  -1.56099  -3.33806 
 C                     9.59616  -2.14169  -4.43846 
 H                     0.79054   0.37622   0.85089 
 H                     0.72176  -1.08289  -0.14319 
 H                     0.72225   0.52369  -0.9086 
 H                     3.08406   0.28478   0.65508 
 H                     5.08561  -0.18362  -0.33019 
 H                     4.67078  -1.54461  -3.121 
 H                     7.19478  -0.74818  -1.53906 
 H                     7.13986  -2.77038  -3.6546 
 H                     7.34404  -0.00982  -4.58769 
 H                     6.07309  -0.99411  -4.90966 
 H                     9.0715   -2.07703  -2.49655 
 H                     9.4352   -1.61217  -5.38339 
 H                     9.36463  -3.20295  -4.57934 
 H                     10.66494  -2.06015  -4.21491 
 

 GradGradGradGradGradGradGradGradGradGradGradGradGradGradGradGradGradGrad
 Berny optimization.
 Initialization pass.
                           ----------------------------
                           !    Initial Parameters    !
                           ! (Angstroms and Degrees)  !
 --------------------------                            --------------------------
 ! Name  Definition              Value          Derivative Info.                !
 --------------------------------------------------------------------------------
 ! R1    R(1,2)                  1.4457         estimate D2E/DX2                !
 ! R2    R(1,11)                 1.095          estimate D2E/DX2                !
 ! R3    R(1,12)                 1.0947         estimate D2E/DX2                !
 ! R4    R(1,13)                 1.0947         estimate D2E/DX2                !
 ! R5    R(2,3)                  1.3387         estimate D2E/DX2                !
 ! R6    R(2,14)                 1.0164         estimate D2E/DX2                !
 ! R7    R(3,4)                  1.2972         estimate D2E/DX2                !
 ! R8    R(4,5)                  1.4814         estimate D2E/DX2                !
 ! R9    R(4,15)                 1.1042         estimate D2E/DX2                !
 ! R10   R(5,6)                  1.3464         estimate D2E/DX2                !
 ! R11   R(5,16)                 1.0845         estimate D2E/DX2                !
 ! R12   R(6,7)                  1.5085         estimate D2E/DX2                !
 ! R13   R(6,17)                 1.0868         estimate D2E/DX2                !
 ! R14   R(7,8)                  1.4405         estimate D2E/DX2                !
 ! R15   R(7,9)                  1.451          estimate D2E/DX2                !
 ! R16   R(7,18)                 1.0965         estimate D2E/DX2                !
 ! R17   R(8,19)                 1.0165         estimate D2E/DX2                !
 ! R18   R(8,20)                 1.0135         estimate D2E/DX2                !
 ! R19   R(9,10)                 1.467          estimate D2E/DX2                !
 ! R20   R(9,21)                 1.0189         estimate D2E/DX2                !
 ! R21   R(10,22)                1.0951         estimate D2E/DX2                !
 ! R22   R(10,23)                1.0953         estimate D2E/DX2                !
 ! R23   R(10,24)                1.0949         estimate D2E/DX2                !
 ! A1    A(2,1,11)             110.6999         estimate D2E/DX2                !
 ! A2    A(2,1,12)             111.0392         estimate D2E/DX2                !
 ! A3    A(2,1,13)             111.0397         estimate D2E/DX2                !
 ! A4    A(11,1,12)            107.5892         estimate D2E/DX2                !
 ! A5    A(11,1,13)            107.5967         estimate D2E/DX2                !
 ! A6    A(12,1,13)            108.7407         estimate D2E/DX2                !
 ! A7    A(1,2,3)              120.2794         estimate D2E/DX2                !
 ! A8    A(1,2,14)             117.399          estimate D2E/DX2                !
 ! A9    A(3,2,14)             122.3213         estimate D2E/DX2                !
 ! A10   A(2,3,4)              116.3385         estimate D2E/DX2                !
 ! A11   A(3,4,5)              119.7416         estimate D2E/DX2                !
 ! A12   A(3,4,15)             123.4056         estimate D2E/DX2                !
 ! A13   A(5,4,15)             116.8529         estimate D2E/DX2                !
 ! A14   A(4,5,6)              123.5564         estimate D2E/DX2                !
 ! A15   A(4,5,16)             114.8777         estimate D2E/DX2                !
 ! A16   A(6,5,16)             121.5639         estimate D2E/DX2                !
 ! A17   A(5,6,7)              122.9455         estimate D2E/DX2                !
 ! A18   A(5,6,17)             119.7529         estimate D2E/DX2                !
 ! A19   A(7,6,17)             117.3004         estimate D2E/DX2                !
 ! A20   A(6,7,8)              110.2571         estimate D2E/DX2                !
 ! A21   A(6,7,9)              110.9791         estimate D2E/DX2                !
 ! A22   A(6,7,18)             108.8436         estimate D2E/DX2                !
 ! A23   A(8,7,9)              106.3075         estimate D2E/DX2                !
 ! A24   A(8,7,18)             110.6983         estimate D2E/DX2                !
 ! A25   A(9,7,18)             109.7454         estimate D2E/DX2                !
 ! A26   A(7,8,19)             107.5104         estimate D2E/DX2                !
 ! A27   A(7,8,20)             110.4722         estimate D2E/DX2                !
 ! A28   A(19,8,20)            107.7246         estimate D2E/DX2                !
 ! A29   A(7,9,10)             112.1848         estimate D2E/DX2                !
 ! A30   A(7,9,21)             107.8617         estimate D2E/DX2                !
 ! A31   A(10,9,21)            106.7264         estimate D2E/DX2                !
 ! A32   A(9,10,22)            112.2098         estimate D2E/DX2                !
 ! A33   A(9,10,23)            111.5954         estimate D2E/DX2                !
 ! A34   A(9,10,24)            109.5385         estimate D2E/DX2                !
 ! A35   A(22,10,23)           109.0538         estimate D2E/DX2                !
 ! A36   A(22,10,24)           106.4772         estimate D2E/DX2                !
 ! A37   A(23,10,24)           107.7427         estimate D2E/DX2                !
 ! D1    D(11,1,2,3)           179.6871         estimate D2E/DX2                !
 ! D2    D(11,1,2,14)           -0.146          estimate D2E/DX2                !
 ! D3    D(12,1,2,3)            60.2503         estimate D2E/DX2                !
 ! D4    D(12,1,2,14)         -119.5828         estimate D2E/DX2                !
 ! D5    D(13,1,2,3)           -60.8663         estimate D2E/DX2                !
 ! D6    D(13,1,2,14)          119.3006         estimate D2E/DX2                !
 ! D7    D(1,2,3,4)            179.916          estimate D2E/DX2                !
 ! D8    D(14,2,3,4)            -0.2594         estimate D2E/DX2                !
 ! D9    D(2,3,4,5)            179.9436         estimate D2E/DX2                !
 ! D10   D(2,3,4,15)            -0.0717         estimate D2E/DX2                !
 ! D11   D(3,4,5,6)            179.1556         estimate D2E/DX2                !
 ! D12   D(3,4,5,16)            -0.3327         estimate D2E/DX2                !
 ! D13   D(15,4,5,6)            -0.83           estimate D2E/DX2                !
 ! D14   D(15,4,5,16)          179.6817         estimate D2E/DX2                !
 ! D15   D(4,5,6,7)           -179.5849         estimate D2E/DX2                !
 ! D16   D(4,5,6,17)             0.8188         estimate D2E/DX2                !
 ! D17   D(16,5,6,7)            -0.1297         estimate D2E/DX2                !
 ! D18   D(16,5,6,17)         -179.726          estimate D2E/DX2                !
 ! D19   D(5,6,7,8)             61.3753         estimate D2E/DX2                !
 ! D20   D(5,6,7,9)            178.896          estimate D2E/DX2                !
 ! D21   D(5,6,7,18)           -60.2282         estimate D2E/DX2                !
 ! D22   D(17,6,7,8)          -119.0191         estimate D2E/DX2                !
 ! D23   D(17,6,7,9)            -1.4984         estimate D2E/DX2                !
 ! D24   D(17,6,7,18)          119.3774         estimate D2E/DX2                !
 ! D25   D(6,7,8,19)            60.9674         estimate D2E/DX2                !
 ! D26   D(6,7,8,20)           -56.3257         estimate D2E/DX2                !
 ! D27   D(9,7,8,19)           -59.404          estimate D2E/DX2                !
 ! D28   D(9,7,8,20)          -176.6971         estimate D2E/DX2                !
 ! D29   D(18,7,8,19)         -178.5365         estimate D2E/DX2                !
 ! D30   D(18,7,8,20)           64.1704         estimate D2E/DX2                !
 ! D31   D(6,7,9,10)           177.7731         estimate D2E/DX2                !
 ! D32   D(6,7,9,21)            60.5175         estimate D2E/DX2                !
 ! D33   D(8,7,9,10)           -62.3234         estimate D2E/DX2                !
 ! D34   D(8,7,9,21)          -179.5789         estimate D2E/DX2                !
 ! D35   D(18,7,9,10)           57.4309         estimate D2E/DX2                !
 ! D36   D(18,7,9,21)          -59.8246         estimate D2E/DX2                !
 ! D37   D(7,9,10,22)           65.3423         estimate D2E/DX2                !
 ! D38   D(7,9,10,23)          -57.3995         estimate D2E/DX2                !
 ! D39   D(7,9,10,24)         -176.6249         estimate D2E/DX2                !
 ! D40   D(21,9,10,22)        -176.7258         estimate D2E/DX2                !
 ! D41   D(21,9,10,23)          60.5324         estimate D2E/DX2                !
 ! D42   D(21,9,10,24)         -58.693          estimate D2E/DX2                !
 --------------------------------------------------------------------------------
 Trust Radius=3.00D-01 FncErr=1.00D-07 GrdErr=1.00D-06 EigMax=2.50D+02 EigMin=1.00D-04
 Number of steps in this run=    112 maximum allowed number of steps=    144.
 GradGradGradGradGradGradGradGradGradGradGradGradGradGradGradGradGradGrad

                          Input orientation:                          
 ---------------------------------------------------------------------
 Center     Atomic      Atomic             Coordinates (Angstroms)
 Number     Number       Type             X           Y           Z
 ---------------------------------------------------------------------
      1          6           0        1.135280   -0.070800   -0.087370
      2          7           0        2.579730   -0.096650   -0.140690
      3          7           0        3.206790   -0.611140   -1.205730
      4          6           0        4.503530   -0.594000   -1.173990
      5          6           0        5.273890   -1.145430   -2.312870
      6          6           0        6.619160   -1.151910   -2.367840
      7          6           0        7.389710   -1.709040   -3.538940
      8          7           0        7.071930   -0.977530   -4.738470
      9          7           0        8.819070   -1.560990   -3.338060
     10          6           0        9.596160   -2.141690   -4.438460
     11          1           0        0.790540    0.376220    0.850890
     12          1           0        0.721760   -1.082890   -0.143190
     13          1           0        0.722250    0.523690   -0.908600
     14          1           0        3.084060    0.284780    0.655080
     15          1           0        5.085610   -0.183620   -0.330190
     16          1           0        4.670780   -1.544610   -3.121000
     17          1           0        7.194780   -0.748180   -1.539060
     18          1           0        7.139860   -2.770380   -3.654600
     19          1           0        7.344040   -0.009820   -4.587690
     20          1           0        6.073090   -0.994110   -4.909660
     21          1           0        9.071500   -2.077030   -2.496550
     22          1           0        9.435200   -1.612170   -5.383390
     23          1           0        9.364630   -3.202950   -4.579340
     24          1           0       10.664940   -2.060150   -4.214910
 ---------------------------------------------------------------------
                    Distance matrix (angstroms):
                    1          2          3          4          5
     1  C    0.000000
     2  N    1.445665   0.000000
     3  N    2.415336   1.338736   0.000000
     4  C    3.577651   2.239659   1.297242   0.000000
     5  C    4.820350   3.616186   2.405021   1.481411   0.000000
     6  C    6.036744   4.731888   3.645161   2.492475   1.346408
     7  C    7.329056   6.106047   4.913865   3.894398   2.509502
     8  N    7.595966   6.488096   5.249171   4.410135   3.024016
     9  N    8.475157   7.162181   6.078382   4.923632   3.713759
    10  C    9.736892   8.478402   7.322375   6.243956   4.918606
    11  H    1.094991   2.099533   3.323075   4.339097   5.694315
    12  H    1.094733   2.103504   2.743522   3.950107   5.043145
    13  H    1.094729   2.103506   2.747556   3.951929   5.047312
    14  H    2.115517   1.016409   2.068900   2.476418   3.955955
    15  H    3.959394   2.514539   2.116438   1.104186   2.211684
    16  H    4.886183   3.918077   2.585129   2.173127   1.084509
    17  H    6.267678   4.866068   4.004242   2.720271   2.108651
    18  H    7.487846   6.347533   5.111587   4.223777   2.814702
    19  H    7.668461   6.517822   5.377367   4.479186   3.278710
    20  H    6.963401   5.979304   4.699089   4.071712   2.721201
    21  H    8.533036   7.184362   6.181414   4.981455   3.914519
    22  H    9.965557   8.762430   7.566240   6.563314   5.192537
    23  H    9.884855   8.682487   7.484498   6.483311   5.109249
    24  H   10.573955   9.264190   8.171829   7.025650   5.789464
                    6          7          8          9         10
     6  C    0.000000
     7  C    1.508515   0.000000
     8  N    2.419772   1.440473   0.000000
     9  N    2.438909   1.450980   2.313887   0.000000
    10  C    3.758944   2.421723   2.795892   1.466957   0.000000
    11  H    6.831414   8.195606   8.516422   9.260528  10.576201
    12  H    6.303424   7.508977   7.839155   8.717924   9.915915
    13  H    6.301632   7.507249   7.565712   8.706702   9.915162
    14  H    4.868168   6.332752   6.825461   7.227889   8.616226
    15  H    2.727889   4.234603   4.899867   4.988302   6.407572
    16  H    2.125476   2.755774   2.950137   4.153997   5.133378
    17  H    1.086836   2.227279   3.209972   2.556439   4.014351
    18  H    2.132211   1.096469   2.096115   2.093458   2.653883
    19  H    2.599530   1.997326   1.016485   2.478592   3.104703
    20  H    2.604600   2.030637   1.013539   3.214294   3.735103
    21  H    2.624192   2.012563   3.198966   1.018900   2.012576
    22  H    4.151561   2.755977   2.530560   2.136729   1.095076
    23  H    4.078615   2.685984   3.199108   2.129423   1.095320
    24  H    4.539262   3.362640   3.788918   2.103631   1.094949
                   11         12         13         14         15
    11  H    0.000000
    12  H    1.766898   0.000000
    13  H    1.766979   1.779593   0.000000
    14  H    2.303679   2.843979   2.842590   0.000000
    15  H    4.489543   4.459467   4.457999   2.279552   0.000000
    16  H    5.875522   4.967424   4.976291   4.485881   3.132571
    17  H    6.927512   6.630269   6.626370   4.772764   2.495735
    18  H    8.397285   7.507971   7.718622   6.660094   4.686467
    19  H    8.524995   8.047338   7.593974   6.761720   4.822553
    20  H    7.935180   7.166858   6.851546   6.444858   4.754320
    21  H    9.262726   8.731825   8.887930   7.166614   4.915835
    22  H   10.842052  10.181546  10.025026   8.966522   6.818689
    23  H   10.761639   9.943505  10.102124   8.888699   6.744008
    24  H   11.362306  10.788919  10.791895   9.310491   7.052754
                   16         17         18         19         20
    16  H    0.000000
    17  H    3.083409   0.000000
    18  H    2.807774   2.927084   0.000000
    19  H    3.413661   3.140318   2.921136   0.000000
    20  H    2.338553   3.560845   2.422459   1.639453   0.000000
    21  H    4.476577   2.490925   2.356490   3.410329   3.998284
    22  H    5.274720   4.532641   3.098185   2.752020   3.451116
    23  H    5.187396   4.469614   2.447828   3.778748   3.977728
    24  H    6.114930   4.574216   3.639308   3.920612   4.764893
                   21         22         23         24
    21  H    0.000000
    22  H    2.946560   0.000000
    23  H    2.385715   1.783832   0.000000
    24  H    2.343522   1.754506   1.769070   0.000000
 Stoichiometry    C6H14N4
 Framework group  C1[X(C6H14N4)]
 Deg. of freedom    66
 Full point group                 C1      NOp   1
 Largest Abelian subgroup         C1      NOp   1
 Largest concise Abelian subgroup C1      NOp   1
                         Standard orientation:                         
 ---------------------------------------------------------------------
 Center     Atomic      Atomic             Coordinates (Angstroms)
 Number     Number       Type             X           Y           Z
 ---------------------------------------------------------------------
      1          6           0        5.124449    0.284625    0.127877
      2          7           0        3.868917   -0.366819   -0.170803
      3          7           0        2.710744    0.209057    0.174476
      4          6           0        1.630834   -0.441195   -0.131795
      5          6           0        0.307507    0.126426    0.216331
      6          6           0       -0.860868   -0.473952   -0.079067
      7          6           0       -2.201324    0.121090    0.274092
      8          7           0       -2.373089    1.390056   -0.385593
      9          7           0       -3.284151   -0.727622   -0.186901
     10          6           0       -4.600204   -0.199605    0.188819
     11          1           0        5.967497   -0.323282   -0.216683
     12          1           0        5.243045    0.433975    1.205871
     13          1           0        5.191432    1.256598   -0.371335
     14          1           0        3.909203   -1.265732   -0.643475
     15          1           0        1.634654   -1.416563   -0.649355
     16          1           0        0.341282    1.081935    0.728212
     17          1           0       -0.860289   -1.433773   -0.588925
     18          1           0       -2.260757    0.238986    1.362583
     19          1           0       -2.334194    1.221752   -1.387292
     20          1           0       -1.613984    2.018422   -0.148576
     21          1           0       -3.189228   -1.632322    0.272082
     22          1           0       -4.820692    0.752458   -0.305300
     23          1           0       -4.687527   -0.068551    1.272759
     24          1           0       -5.379756   -0.900939   -0.126368
 ---------------------------------------------------------------------
 Rotational constants (GHZ):           6.5523366           0.3523685           0.3410492
 Standard basis: 6-31G(2df,p) (6D, 7F)
 There are   380 symmetry adapted cartesian basis functions of A   symmetry.
 There are   350 symmetry adapted basis functions of A   symmetry.
   350 basis functions,   538 primitive gaussians,   380 cartesian basis functions
    39 alpha electrons       39 beta electrons
       nuclear repulsion energy       505.0383220866 Hartrees.
 NAtoms=   24 NActive=   24 NUniq=   24 SFac= 1.00D+00 NAtFMM=   60 NAOKFM=F Big=F
 Integral buffers will be    131072 words long.
 Raffenetti 2 integral format.
 Two-electron integral symmetry is turned on.
 One-electron integrals computed using PRISM.
 PrsmSu:  requested number of processors reduced to:  13 ShMem   1 Linda.
 NBasis=   350 RedAO= T EigKep=  2.59D-04  NBF=   350
 NBsUse=   350 1.00D-06 EigRej= -1.00D+00 NBFU=   350
 ExpMin= 1.61D-01 ExpMax= 4.17D+03 ExpMxC= 6.27D+02 IAcc=3 IRadAn=         5 AccDes= 0.00D+00
 Harris functional with IExCor=  402 and IRadAn=       5 diagonalized for initial guess.
 HarFok:  IExCor=  402 AccDes= 0.00D+00 IRadAn=         5 IDoV= 1 UseB2=F ITyADJ=14
 ICtDFT=  3500011 ScaDFX=  1.000000  1.000000  1.000000  1.000000
 FoFCou: FMM=F IPFlag=           0 FMFlag=      100000 FMFlg1=           0
         NFxFlg=           0 DoJE=T BraDBF=F KetDBF=T FulRan=T
         wScrn=  0.000000 ICntrl=       500 IOpCl=  0 I1Cent=   200000004 NGrid=           0
         NMat0=    1 NMatS0=      1 NMatT0=    0 NMatD0=    1 NMtDS0=    0 NMtDT0=    0
 Petite list used in FoFCou.
 Requested convergence on RMS density matrix=1.00D-08 within 128 cycles.
 Requested convergence on MAX density matrix=1.00D-06.
 Requested convergence on             energy=1.00D-06.
 No special actions if energy rises.
 Integral accuracy reduced to 1.0D-05 until final iterations.
 Initial convergence to 1.0D-05 achieved.  Increase integral accuracy.
 SCF Done:  E(RB3LYP) =  -456.021039112     A.U. after   14 cycles
            NFock= 14  Conv=0.87D-08     -V/T= 2.0079

 **********************************************************************

            Population analysis using the SCF density.

 **********************************************************************

 Orbital symmetries:
       Occupied  (A) (A) (A) (A) (A) (A) (A) (A) (A) (A) (A) (A)
                 (A) (A) (A) (A) (A) (A) (A) (A) (A) (A) (A) (A)
                 (A) (A) (A) (A) (A) (A) (A) (A) (A) (A) (A) (A)
                 (A) (A) (A)
       Virtual   (A) (A) (A) (A) (A) (A) (A) (A) (A) (A) (A) (A)
                 (A) (A) (A) (A) (A) (A) (A) (A) (A) (A) (A) (A)
                 (A) (A) (A) (A) (A) (A) (A) (A) (A) (A) (A) (A)
                 (A) (A) (A) (A) (A) (A) (A) (A) (A) (A) (A) (A)
                 (A) (A) (A) (A) (A) (A) (A) (A) (A) (A) (A) (A)
                 (A) (A) (A) (A) (A) (A) (A) (A) (A) (A) (A) (A)
                 (A) (A) (A) (A) (A) (A) (A) (A) (A) (A) (A) (A)
                 (A) (A) (A) (A) (A) (A) (A) (A) (A) (A) (A) (A)
                 (A) (A) (A) (A) (A) (A) (A) (A) (A) (A) (A) (A)
                 (A) (A) (A) (A) (A) (A) (A) (A) (A) (A) (A) (A)
                 (A) (A) (A) (A) (A) (A) (A) (A) (A) (A) (A) (A)
                 (A) (A) (A) (A) (A) (A) (A) (A) (A) (A) (A) (A)
                 (A) (A) (A) (A) (A) (A) (A) (A) (A) (A) (A) (A)
                 (A) (A) (A) (A) (A) (A) (A) (A) (A) (A) (A) (A)
                 (A) (A) (A) (A) (A) (A) (A) (A) (A) (A) (A) (A)
                 (A) (A) (A) (A) (A) (A) (A) (A) (A) (A) (A) (A)
                 (A) (A) (A) (A) (A) (A) (A) (A) (A) (A) (A) (A)
                 (A) (A) (A) (A) (A) (A) (A) (A) (A) (A) (A) (A)
                 (A) (A) (A) (A) (A) (A) (A) (A) (A) (A) (A) (A)
                 (A) (A) (A) (A) (A) (A) (A) (A) (A) (A) (A) (A)
                 (A) (A) (A) (A) (A) (A) (A) (A) (A) (A) (A) (A)
                 (A) (A) (A) (A) (A) (A) (A) (A) (A) (A) (A) (A)
                 (A) (A) (A) (A) (A) (A) (A) (A) (A) (A) (A) (A)
                 (A) (A) (A) (A) (A) (A) (A) (A) (A) (A) (A) (A)
                 (A) (A) (A) (A) (A) (A) (A) (A) (A) (A) (A) (A)
                 (A) (A) (A) (A) (A) (A) (A) (A) (A) (A) (A)
 The electronic state is 1-A.
 Alpha  occ. eigenvalues --  -14.36268 -14.35861 -14.30623 -14.29637 -10.22499
 Alpha  occ. eigenvalues --  -10.21434 -10.20400 -10.18527 -10.18113 -10.17198
 Alpha  occ. eigenvalues --   -0.99939  -0.92434  -0.84310  -0.82937  -0.76273
 Alpha  occ. eigenvalues --   -0.69092  -0.66386  -0.62135  -0.59119  -0.55342
 Alpha  occ. eigenvalues --   -0.52388  -0.50564  -0.47870  -0.44899  -0.44514
 Alpha  occ. eigenvalues --   -0.43642  -0.41653  -0.40943  -0.39794  -0.39108
 Alpha  occ. eigenvalues --   -0.37461  -0.36631  -0.35437  -0.34597  -0.27999
 Alpha  occ. eigenvalues --   -0.27904  -0.22975  -0.22140  -0.18367
 Alpha virt. eigenvalues --   -0.01740   0.07328   0.08071   0.09314   0.11039
 Alpha virt. eigenvalues --    0.11914   0.12470   0.14755   0.14971   0.15548
 Alpha virt. eigenvalues --    0.16604   0.17700   0.17969   0.18507   0.20138
 Alpha virt. eigenvalues --    0.20363   0.21254   0.21523   0.24746   0.27587
 Alpha virt. eigenvalues --    0.29003   0.30255   0.33449   0.37235   0.38333
 Alpha virt. eigenvalues --    0.43755   0.45070   0.47485   0.47714   0.49187
 Alpha virt. eigenvalues --    0.51068   0.51780   0.52251   0.54151   0.54930
 Alpha virt. eigenvalues --    0.55808   0.56592   0.57516   0.58542   0.60465
 Alpha virt. eigenvalues --    0.62526   0.63267   0.64011   0.64538   0.67295
 Alpha virt. eigenvalues --    0.68599   0.68929   0.70289   0.71989   0.72496
 Alpha virt. eigenvalues --    0.73059   0.74548   0.75179   0.75352   0.76171
 Alpha virt. eigenvalues --    0.76349   0.76674   0.78270   0.79072   0.79886
 Alpha virt. eigenvalues --    0.81268   0.82722   0.84034   0.84256   0.85748
 Alpha virt. eigenvalues --    0.86350   0.86763   0.88077   0.88670   0.89642
 Alpha virt. eigenvalues --    0.91344   0.93854   0.94368   0.95805   0.96753
 Alpha virt. eigenvalues --    0.97692   1.03175   1.05144   1.08067   1.12777
 Alpha virt. eigenvalues --    1.13905   1.14083   1.18046   1.20086   1.23158
 Alpha virt. eigenvalues --    1.24399   1.26662   1.29719   1.31582   1.32805
 Alpha virt. eigenvalues --    1.36455   1.37644   1.38957   1.39827   1.41970
 Alpha virt. eigenvalues --    1.44577   1.45444   1.48481   1.49503   1.50568
 Alpha virt. eigenvalues --    1.52347   1.53369   1.53750   1.56292   1.58752
 Alpha virt. eigenvalues --    1.60130   1.61302   1.65027   1.67294   1.68575
 Alpha virt. eigenvalues --    1.70112   1.75256   1.75834   1.79761   1.80061
 Alpha virt. eigenvalues --    1.82090   1.83384   1.85120   1.88741   1.89741
 Alpha virt. eigenvalues --    1.93401   1.94278   1.97370   1.98366   2.01115
 Alpha virt. eigenvalues --    2.06038   2.09038   2.09531   2.12166   2.15851
 Alpha virt. eigenvalues --    2.18584   2.22087   2.24771   2.26195   2.29795
 Alpha virt. eigenvalues --    2.31885   2.34742   2.36106   2.39495   2.43769
 Alpha virt. eigenvalues --    2.43989   2.45631   2.47852   2.50934   2.54618
 Alpha virt. eigenvalues --    2.55762   2.57480   2.59418   2.63480   2.65880
 Alpha virt. eigenvalues --    2.70667   2.71348   2.73943   2.75971   2.77845
 Alpha virt. eigenvalues --    2.79956   2.82365   2.84354   2.85458   2.86150
 Alpha virt. eigenvalues --    2.87526   2.89389   2.90532   2.90995   2.93622
 Alpha virt. eigenvalues --    2.94116   2.94766   2.98549   3.00672   3.02044
 Alpha virt. eigenvalues --    3.03207   3.06258   3.08355   3.08537   3.09884
 Alpha virt. eigenvalues --    3.10180   3.11701   3.12675   3.13090   3.19479
 Alpha virt. eigenvalues --    3.23289   3.25283   3.26342   3.28250   3.29318
 Alpha virt. eigenvalues --    3.31420   3.35961   3.36485   3.37561   3.38020
 Alpha virt. eigenvalues --    3.42185   3.45411   3.46078   3.47637   3.49121
 Alpha virt. eigenvalues --    3.50688   3.51134   3.54464   3.56516   3.59980
 Alpha virt. eigenvalues --    3.60698   3.62699   3.65469   3.66247   3.67333
 Alpha virt. eigenvalues --    3.69792   3.74651   3.75686   3.79476   3.81117
 Alpha virt. eigenvalues --    3.82466   3.83831   3.90436   3.91140   3.95139
 Alpha virt. eigenvalues --    3.96921   4.00821   4.03968   4.05080   4.08916
 Alpha virt. eigenvalues --    4.11412   4.12716   4.15928   4.20807   4.23319
 Alpha virt. eigenvalues --    4.23458   4.24571   4.25019   4.28289   4.30104
 Alpha virt. eigenvalues --    4.32578   4.33476   4.35321   4.37699   4.39283
 Alpha virt. eigenvalues --    4.39382   4.40011   4.40633   4.42028   4.42592
 Alpha virt. eigenvalues --    4.45392   4.46863   4.49084   4.49724   4.51392
 Alpha virt. eigenvalues --    4.53000   4.55026   4.56441   4.57795   4.59080
 Alpha virt. eigenvalues --    4.59719   4.60934   4.63221   4.64296   4.64556
 Alpha virt. eigenvalues --    4.69323   4.69961   4.71192   4.72906   4.73753
 Alpha virt. eigenvalues --    4.76178   4.78772   4.79839   4.80131   4.81378
 Alpha virt. eigenvalues --    4.82491   4.82914   4.85393   4.88596   4.92906
 Alpha virt. eigenvalues --    4.93754   4.95108   4.98263   5.02337   5.06107
 Alpha virt. eigenvalues --    5.08094   5.13229   5.14471   5.15531   5.17429
 Alpha virt. eigenvalues --    5.21125   5.22907   5.26035   5.30763   5.31949
 Alpha virt. eigenvalues --    5.35918   5.36371   5.43533   5.50952   5.52789
 Alpha virt. eigenvalues --    5.59073   5.63840   5.66048   5.78157   5.80170
 Alpha virt. eigenvalues --    5.91436   6.25989   8.01655  10.00471  10.41843
 Alpha virt. eigenvalues --   10.84528  11.04191  11.27748  11.40798  11.45359
 Alpha virt. eigenvalues --   11.47330  11.62239  11.89742  12.41851  14.36244
 Alpha virt. eigenvalues --   14.87241
          Condensed to atoms (all electrons):
               1          2          3          4          5          6
     1  C    4.868799   0.399460  -0.051351   0.003745  -0.000239   0.000001
     2  N    0.399460   6.295329   0.371320  -0.104075   0.003939  -0.000098
     3  N   -0.051351   0.371320   6.317149   0.634125  -0.016514  -0.000071
     4  C    0.003745  -0.104075   0.634125   4.711868   0.446724  -0.004669
     5  C   -0.000239   0.003939  -0.016514   0.446724   4.862619   0.566329
     6  C    0.000001  -0.000098  -0.000071  -0.004669   0.566329   5.013546
     7  C   -0.000000   0.000000  -0.000070   0.001860  -0.018059   0.401573
     8  N    0.000000  -0.000000   0.000001   0.000621  -0.007483  -0.063300
     9  N    0.000000  -0.000000   0.000000  -0.000044   0.003109  -0.027208
    10  C   -0.000000   0.000000  -0.000000   0.000001  -0.000245   0.004465
    11  H    0.373827  -0.019538   0.003093  -0.000273   0.000002   0.000000
    12  H    0.375727  -0.037346   0.001448   0.000662   0.000002  -0.000000
    13  H    0.375978  -0.037596   0.001324   0.000726  -0.000011  -0.000000
    14  H   -0.054230   0.344035  -0.044377   0.002816  -0.000843   0.000067
    15  H    0.000275  -0.008907  -0.065748   0.357717  -0.058042  -0.003308
    16  H    0.000011  -0.000091  -0.002137  -0.026567   0.341782  -0.053994
    17  H    0.000000  -0.000005   0.000013  -0.012102  -0.028045   0.335796
    18  H    0.000000  -0.000000   0.000002   0.000049   0.000437  -0.059743
    19  H    0.000000   0.000000  -0.000002  -0.000002   0.001937   0.000121
    20  H    0.000000   0.000000  -0.000012  -0.000005   0.007107  -0.005288
    21  H    0.000000   0.000000   0.000000  -0.000004  -0.000280   0.003677
    22  H   -0.000000   0.000000   0.000000  -0.000000  -0.000008   0.000533
    23  H   -0.000000   0.000000   0.000000  -0.000000   0.000053   0.000070
    24  H    0.000000  -0.000000   0.000000  -0.000000  -0.000001  -0.000138
               7          8          9         10         11         12
     1  C   -0.000000   0.000000   0.000000  -0.000000   0.373827   0.375727
     2  N    0.000000  -0.000000  -0.000000   0.000000  -0.019538  -0.037346
     3  N   -0.000070   0.000001   0.000000  -0.000000   0.003093   0.001448
     4  C    0.001860   0.000621  -0.000044   0.000001  -0.000273   0.000662
     5  C   -0.018059  -0.007483   0.003109  -0.000245   0.000002   0.000002
     6  C    0.401573  -0.063300  -0.027208   0.004465   0.000000  -0.000000
     7  C    4.742611   0.374946   0.381238  -0.066350   0.000000  -0.000000
     8  N    0.374946   6.580516  -0.042557  -0.010124  -0.000000  -0.000000
     9  N    0.381238  -0.042557   6.395904   0.377337  -0.000000  -0.000000
    10  C   -0.066350  -0.010124   0.377337   4.933247   0.000000   0.000000
    11  H    0.000000  -0.000000  -0.000000   0.000000   0.581480  -0.030804
    12  H   -0.000000  -0.000000  -0.000000   0.000000  -0.030804   0.604591
    13  H    0.000000   0.000000   0.000000  -0.000000  -0.031135  -0.047421
    14  H    0.000000  -0.000000  -0.000000   0.000000  -0.001500   0.003978
    15  H    0.000097   0.000004  -0.000001  -0.000000   0.000030   0.000030
    16  H   -0.010283   0.001521   0.000071  -0.000011   0.000000   0.000002
    17  H   -0.046911   0.003068   0.000856  -0.000212   0.000000  -0.000000
    18  H    0.357386  -0.045843  -0.053746  -0.005726  -0.000000   0.000000
    19  H   -0.054019   0.327169   0.004681   0.000422  -0.000000   0.000000
    20  H   -0.050137   0.343269   0.004540   0.000009  -0.000000   0.000000
    21  H   -0.050658   0.005444   0.341633  -0.046562  -0.000000  -0.000000
    22  H   -0.003202   0.013222  -0.020969   0.381772   0.000000   0.000000
    23  H   -0.001770  -0.001738  -0.043868   0.364446  -0.000000   0.000000
    24  H    0.003847   0.000657  -0.023326   0.375051  -0.000000   0.000000
              13         14         15         16         17         18
     1  C    0.375978  -0.054230   0.000275   0.000011   0.000000   0.000000
     2  N   -0.037596   0.344035  -0.008907  -0.000091  -0.000005  -0.000000
     3  N    0.001324  -0.044377  -0.065748  -0.002137   0.000013   0.000002
     4  C    0.000726   0.002816   0.357717  -0.026567  -0.012102   0.000049
     5  C   -0.000011  -0.000843  -0.058042   0.341782  -0.028045   0.000437
     6  C   -0.000000   0.000067  -0.003308  -0.053994   0.335796  -0.059743
     7  C    0.000000   0.000000   0.000097  -0.010283  -0.046911   0.357386
     8  N    0.000000  -0.000000   0.000004   0.001521   0.003068  -0.045843
     9  N    0.000000  -0.000000  -0.000001   0.000071   0.000856  -0.053746
    10  C   -0.000000   0.000000  -0.000000  -0.000011  -0.000212  -0.005726
    11  H   -0.031135  -0.001500   0.000030   0.000000   0.000000  -0.000000
    12  H   -0.047421   0.003978   0.000030   0.000002  -0.000000   0.000000
    13  H    0.605313   0.003952   0.000032   0.000003   0.000000  -0.000000
    14  H    0.003952   0.497066   0.016885   0.000061   0.000004   0.000000
    15  H    0.000032   0.016885   0.679743   0.006528   0.006752   0.000012
    16  H    0.000003   0.000061   0.006528   0.641286   0.007255   0.002960
    17  H    0.000000   0.000004   0.006752   0.007255   0.640520   0.006927
    18  H   -0.000000   0.000000   0.000012   0.002960   0.006927   0.713909
    19  H   -0.000000   0.000000   0.000004   0.000315   0.001294   0.009152
    20  H   -0.000000  -0.000000   0.000006   0.004061   0.000129   0.000535
    21  H    0.000000  -0.000000   0.000000   0.000014   0.002319  -0.005101
    22  H   -0.000000   0.000000  -0.000000  -0.000002  -0.000024  -0.001449
    23  H   -0.000000   0.000000   0.000000   0.000003   0.000057   0.014284
    24  H   -0.000000   0.000000   0.000000  -0.000000  -0.000017  -0.000276
              19         20         21         22         23         24
     1  C    0.000000   0.000000   0.000000  -0.000000  -0.000000   0.000000
     2  N    0.000000   0.000000   0.000000   0.000000   0.000000  -0.000000
     3  N   -0.000002  -0.000012   0.000000   0.000000   0.000000   0.000000
     4  C   -0.000002  -0.000005  -0.000004  -0.000000  -0.000000  -0.000000
     5  C    0.001937   0.007107  -0.000280  -0.000008   0.000053  -0.000001
     6  C    0.000121  -0.005288   0.003677   0.000533   0.000070  -0.000138
     7  C   -0.054019  -0.050137  -0.050658  -0.003202  -0.001770   0.003847
     8  N    0.327169   0.343269   0.005444   0.013222  -0.001738   0.000657
     9  N    0.004681   0.004540   0.341633  -0.020969  -0.043868  -0.023326
    10  C    0.000422   0.000009  -0.046562   0.381772   0.364446   0.375051
    11  H   -0.000000  -0.000000  -0.000000   0.000000  -0.000000  -0.000000
    12  H    0.000000   0.000000  -0.000000   0.000000   0.000000   0.000000
    13  H   -0.000000  -0.000000   0.000000  -0.000000  -0.000000  -0.000000
    14  H    0.000000  -0.000000  -0.000000   0.000000   0.000000   0.000000
    15  H    0.000004   0.000006   0.000000  -0.000000   0.000000   0.000000
    16  H    0.000315   0.004061   0.000014  -0.000002   0.000003  -0.000000
    17  H    0.001294   0.000129   0.002319  -0.000024   0.000057  -0.000017
    18  H    0.009152   0.000535  -0.005101  -0.001449   0.014284  -0.000276
    19  H    0.511773  -0.026399  -0.000426  -0.000926   0.000409  -0.000131
    20  H   -0.026399   0.498799  -0.000376  -0.000370   0.000022   0.000002
    21  H   -0.000426  -0.000376   0.541403   0.005559  -0.005131  -0.003602
    22  H   -0.000926  -0.000370   0.005559   0.553819  -0.039260  -0.031028
    23  H    0.000409   0.000022  -0.005131  -0.039260   0.661625  -0.039819
    24  H   -0.000131   0.000002  -0.003602  -0.031028  -0.039819   0.611992
 Mulliken charges:
               1
     1  C   -0.292004
     2  N   -0.206429
     3  N   -0.148195
     4  C   -0.013176
     5  C   -0.104269
     6  C   -0.108360
     7  C    0.037902
     8  N   -0.479393
     9  N   -0.297651
    10  C   -0.307520
    11  H    0.124816
    12  H    0.129133
    13  H    0.128834
    14  H    0.232086
    15  H    0.067890
    16  H    0.087212
    17  H    0.082328
    18  H    0.066231
    19  H    0.224628
    20  H    0.224106
    21  H    0.212092
    22  H    0.142334
    23  H    0.090617
    24  H    0.106788
 Sum of Mulliken charges =  -0.00000
 Mulliken charges with hydrogens summed into heavy atoms:
               1
     1  C    0.090779
     2  N    0.025658
     3  N   -0.148195
     4  C    0.054714
     5  C   -0.017058
     6  C   -0.026032
     7  C    0.104132
     8  N   -0.030659
     9  N   -0.085559
    10  C    0.032219
 Electronic spatial extent (au):  <R**2>=           3215.3753
 Charge=             -0.0000 electrons
 Dipole moment (field-independent basis, Debye):
    X=              2.3388    Y=             -1.7164    Z=             -0.2662  Tot=              2.9132
 Quadrupole moment (field-independent basis, Debye-Ang):
   XX=            -52.6981   YY=            -58.9837   ZZ=            -62.2057
   XY=             -1.1132   XZ=             -4.5989   YZ=             -0.0943
 Traceless Quadrupole moment (field-independent basis, Debye-Ang):
   XX=              5.2644   YY=             -1.0212   ZZ=             -4.2432
   XY=             -1.1132   XZ=             -4.5989   YZ=             -0.0943
 Octapole moment (field-independent basis, Debye-Ang**2):
  XXX=             84.7999  YYY=             -5.3907  ZZZ=             -2.7104  XYY=              7.1726
  XXY=            -28.8658  XXZ=             -2.9455  XZZ=              0.0656  YZZ=              2.6866
  YYZ=             -2.6816  XYZ=              9.5398
 Hexadecapole moment (field-independent basis, Debye-Ang**3):
 XXXX=          -3450.4450 YYYY=           -225.1087 ZZZZ=           -110.3023 XXXY=             -8.0782
 XXXZ=            -45.0633 YYYX=              7.1503 YYYZ=             -0.7643 ZZZX=              6.8160
 ZZZY=             -4.4470 XXYY=           -674.4821 XXZZ=           -670.8319 YYZZ=            -56.5752
 XXYZ=             -1.4818 YYXZ=            -11.1514 ZZXY=            -10.5404
 N-N= 5.050383220866D+02 E-N=-2.070318956290D+03  KE= 4.524369527074D+02
 PrsmSu:  requested number of processors reduced to:  13 ShMem   1 Linda.
 Calling FoFJK, ICntrl=      2127 FMM=F ISym2X=0 I1Cent= 0 IOpClX= 0 NMat=1 NMatS=1 NMatT=0.
 ***** Axes restored to original set *****
 -------------------------------------------------------------------
 Center     Atomic                   Forces (Hartrees/Bohr)
 Number     Number              X              Y              Z
 -------------------------------------------------------------------
      1        6           0.001414521   -0.002322209   -0.004675878
      2        7          -0.010916777    0.004087607    0.008838502
      3        7           0.012771484    0.006694751    0.013816733
      4        6           0.007728592   -0.011307230   -0.024560958
      5        6          -0.001819000    0.010972968    0.023744056
      6        6          -0.008706106   -0.006767218    0.009824274
      7        6           0.000233554    0.007215203    0.010239898
      8        7          -0.001562549   -0.000371604   -0.022839099
      9        7           0.009941598   -0.000484051    0.002074356
     10        6           0.006874377    0.002076839    0.001402590
     11        1           0.005057516   -0.000091098   -0.000222518
     12        1          -0.002046883   -0.001202011   -0.001083498
     13        1          -0.002106031   -0.000062953   -0.001624304
     14        1           0.003777224   -0.002858951   -0.006095110
     15        1          -0.005391683   -0.001106458   -0.002372480
     16        1          -0.001211237   -0.001608458   -0.001552132
     17        1           0.000745634    0.001740646    0.000744639
     18        1          -0.006809406   -0.004377537   -0.008003167
     19        1          -0.001837512    0.000587175    0.000346635
     20        1           0.000010935    0.000955963   -0.000274833
     21        1          -0.000774696    0.004432022    0.000157895
     22        1          -0.004563506   -0.001239874    0.004362925
     23        1          -0.000533024   -0.004760437   -0.005065005
     24        1          -0.000277025   -0.000203085    0.002816478
 -------------------------------------------------------------------
 Cartesian Forces:  Max     0.024560958 RMS     0.007046448

 GradGradGradGradGradGradGradGradGradGradGradGradGradGradGradGradGradGrad
 Berny optimization.
 FormGI is forming the generalized inverse of G from B-inverse, IUseBI=4.
 Internal  Forces:  Max     0.022212865 RMS     0.005252618
 Search for a local minimum.
 Step number   1 out of a maximum of  112
 All quantities printed in internal units (Hartrees-Bohrs-Radians)
 Mixed Optimization -- RFO/linear search
 Second derivative matrix not updated -- first step.
 ITU=  0
     Eigenvalues ---    0.00653   0.00806   0.01012   0.01017   0.01088
     Eigenvalues ---    0.01156   0.01361   0.01535   0.01753   0.01961
     Eigenvalues ---    0.02105   0.02798   0.03051   0.03182   0.04761
     Eigenvalues ---    0.05900   0.06181   0.06778   0.07028   0.07384
     Eigenvalues ---    0.07432   0.07487   0.10758   0.16000   0.16000
     Eigenvalues ---    0.16000   0.16000   0.16000   0.16000   0.16000
     Eigenvalues ---    0.16000   0.16000   0.16000   0.16000   0.16000
     Eigenvalues ---    0.17648   0.18305   0.22000   0.22000   0.22000
     Eigenvalues ---    0.22000   0.23650   0.25000   0.31500   0.33223
     Eigenvalues ---    0.34076   0.34205   0.34233   0.34242   0.34247
     Eigenvalues ---    0.34271   0.34272   0.34409   0.35181   0.35455
     Eigenvalues ---    0.36107   0.38117   0.38819   0.39521   0.44514
     Eigenvalues ---    0.44904   0.44916   0.45385   0.55793   0.57489
     Eigenvalues ---    0.67965
 RFO step:  Lambda=-1.22735683D-02 EMin= 6.53315468D-03
 Linear search not attempted -- first point.
 Iteration  1 RMS(Cart)=  0.09836637 RMS(Int)=  0.00241148
 Iteration  2 RMS(Cart)=  0.00604323 RMS(Int)=  0.00040275
 Iteration  3 RMS(Cart)=  0.00001270 RMS(Int)=  0.00040271
 Iteration  4 RMS(Cart)=  0.00000001 RMS(Int)=  0.00040271
 Variable       Old X    -DE/DX   Delta X   Delta X   Delta X     New X
                                 (Linear)    (Quad)   (Total)
    R1        2.73191  -0.00266   0.00000  -0.00665  -0.00665   2.72526
    R2        2.06923  -0.00182   0.00000  -0.00513  -0.00513   2.06410
    R3        2.06875   0.00194   0.00000   0.00546   0.00546   2.07421
    R4        2.06874   0.00198   0.00000   0.00558   0.00558   2.07431
    R5        2.52984  -0.00255   0.00000  -0.00435  -0.00435   2.52550
    R6        1.92073  -0.00397   0.00000  -0.00861  -0.00861   1.91213
    R7        2.45143  -0.00822   0.00000  -0.01188  -0.01188   2.43955
    R8        2.79946  -0.02221   0.00000  -0.06233  -0.06233   2.73713
    R9        2.08661  -0.00507   0.00000  -0.01471  -0.01471   2.07190
   R10        2.54434  -0.00707   0.00000  -0.01241  -0.01241   2.53194
   R11        2.04943   0.00242   0.00000   0.00660   0.00660   2.05603
   R12        2.85068   0.01042   0.00000   0.03184   0.03184   2.88252
   R13        2.05382   0.00161   0.00000   0.00442   0.00442   2.05824
   R14        2.72210   0.02030   0.00000   0.04982   0.04982   2.77192
   R15        2.74195   0.01129   0.00000   0.02869   0.02869   2.77064
   R16        2.07203   0.00663   0.00000   0.01879   0.01879   2.09082
   R17        1.92088   0.00012   0.00000   0.00026   0.00026   1.92113
   R18        1.91531   0.00002   0.00000   0.00004   0.00004   1.91535
   R19        2.77215  -0.00021   0.00000  -0.00056  -0.00056   2.77158
   R20        1.92544  -0.00231   0.00000  -0.00504  -0.00504   1.92040
   R21        2.06939  -0.00369   0.00000  -0.01042  -0.01042   2.05898
   R22        2.06985   0.00538   0.00000   0.01517   0.01517   2.08503
   R23        2.06915   0.00029   0.00000   0.00082   0.00082   2.06997
    A1        1.93208  -0.00765   0.00000  -0.04671  -0.04659   1.88549
    A2        1.93800   0.00280   0.00000   0.01741   0.01732   1.95532
    A3        1.93801   0.00288   0.00000   0.01788   0.01780   1.95581
    A4        1.87778   0.00206   0.00000   0.00971   0.00982   1.88761
    A5        1.87792   0.00202   0.00000   0.00951   0.00963   1.88755
    A6        1.89788  -0.00209   0.00000  -0.00783  -0.00807   1.88981
    A7        2.09927  -0.00346   0.00000  -0.01490  -0.01490   2.08437
    A8        2.04900   0.00809   0.00000   0.04435   0.04435   2.09335
    A9        2.13491  -0.00463   0.00000  -0.02945  -0.02945   2.10546
   A10        2.03049   0.01606   0.00000   0.06124   0.06124   2.09173
   A11        2.08988   0.00289   0.00000   0.01245   0.01245   2.10233
   A12        2.15383  -0.00479   0.00000  -0.02562  -0.02562   2.12821
   A13        2.03947   0.00189   0.00000   0.01317   0.01316   2.05263
   A14        2.15647   0.00219   0.00000   0.00942   0.00942   2.16589
   A15        2.00499  -0.00094   0.00000  -0.00380  -0.00380   2.00119
   A16        2.12169  -0.00125   0.00000  -0.00559  -0.00559   2.11610
   A17        2.14580   0.00542   0.00000   0.02332   0.02331   2.16912
   A18        2.09008  -0.00283   0.00000  -0.01234  -0.01235   2.07773
   A19        2.04728  -0.00259   0.00000  -0.01093  -0.01094   2.03634
   A20        1.92435   0.01394   0.00000   0.08534   0.08607   2.01042
   A21        1.93695  -0.01232   0.00000  -0.04941  -0.05112   1.88583
   A22        1.89968  -0.00030   0.00000  -0.01163  -0.01058   1.88910
   A23        1.85542   0.00288   0.00000   0.02860   0.02891   1.88432
   A24        1.93205  -0.00948   0.00000  -0.07330  -0.07276   1.85929
   A25        1.91542   0.00516   0.00000   0.02007   0.01987   1.93529
   A26        1.87641   0.00017   0.00000  -0.00170  -0.00170   1.87471
   A27        1.92810   0.00088   0.00000   0.00261   0.00260   1.93071
   A28        1.88015  -0.00122   0.00000  -0.01262  -0.01263   1.86752
   A29        1.95799   0.00554   0.00000   0.02578   0.02560   1.98360
   A30        1.88254  -0.00140   0.00000   0.00239   0.00206   1.88460
   A31        1.86273  -0.00064   0.00000   0.00876   0.00852   1.87125
   A32        1.95843  -0.00702   0.00000  -0.04543  -0.04540   1.91303
   A33        1.94771   0.00663   0.00000   0.03809   0.03816   1.98586
   A34        1.91181  -0.00253   0.00000  -0.00973  -0.00996   1.90185
   A35        1.90335  -0.00165   0.00000  -0.01825  -0.01797   1.88538
   A36        1.85838   0.00483   0.00000   0.02847   0.02820   1.88658
   A37        1.88046  -0.00012   0.00000   0.00836   0.00818   1.88865
    D1        3.13613  -0.00001   0.00000  -0.00011  -0.00011   3.13602
    D2       -0.00255   0.00001   0.00000   0.00020   0.00021  -0.00234
    D3        1.05157   0.00060   0.00000   0.00698   0.00712   1.05868
    D4       -2.08711   0.00062   0.00000   0.00729   0.00743  -2.07968
    D5       -1.06232  -0.00061   0.00000  -0.00714  -0.00728  -1.06960
    D6        2.08219  -0.00060   0.00000  -0.00682  -0.00697   2.07522
    D7        3.14013   0.00012   0.00000   0.00385   0.00384  -3.13922
    D8       -0.00453   0.00013   0.00000   0.00365   0.00365  -0.00087
    D9        3.14061  -0.00012   0.00000  -0.00349  -0.00345   3.13715
   D10       -0.00125   0.00003   0.00000   0.00144   0.00141   0.00016
   D11        3.12686   0.00027   0.00000   0.01042   0.01044   3.13730
   D12       -0.00581   0.00012   0.00000   0.00570   0.00571  -0.00009
   D13       -0.01449   0.00014   0.00000   0.00581   0.00579  -0.00870
   D14        3.13604  -0.00001   0.00000   0.00108   0.00106   3.13710
   D15       -3.13435   0.00067   0.00000   0.01730   0.01729  -3.11705
   D16        0.01429   0.00044   0.00000   0.00913   0.00913   0.02342
   D17       -0.00226   0.00083   0.00000   0.02234   0.02233   0.02007
   D18       -3.13681   0.00060   0.00000   0.01417   0.01417  -3.12264
   D19        1.07120  -0.00173   0.00000   0.01510   0.01571   1.08691
   D20        3.12232   0.00296   0.00000   0.07331   0.07259  -3.08827
   D21       -1.05118   0.00144   0.00000   0.05967   0.05978  -0.99140
   D22       -2.07728  -0.00150   0.00000   0.02307   0.02369  -2.05359
   D23       -0.02615   0.00318   0.00000   0.08128   0.08057   0.05441
   D24        2.08353   0.00166   0.00000   0.06764   0.06775   2.15128
   D25        1.06408  -0.00347   0.00000  -0.01991  -0.01831   1.04577
   D26       -0.98307  -0.00259   0.00000  -0.00521  -0.00361  -0.98668
   D27       -1.03680   0.00186   0.00000  -0.02506  -0.02626  -1.06306
   D28       -3.08395   0.00274   0.00000  -0.01036  -0.01156  -3.09551
   D29       -3.11605  -0.00088   0.00000  -0.02620  -0.02659   3.14054
   D30        1.11998   0.00000   0.00000  -0.01149  -0.01189   1.10809
   D31        3.10273  -0.00619   0.00000  -0.09109  -0.09072   3.01201
   D32        1.05623  -0.00770   0.00000  -0.11806  -0.11773   0.93850
   D33       -1.08775   0.00554   0.00000   0.00187   0.00147  -1.08627
   D34       -3.13424   0.00403   0.00000  -0.02510  -0.02554   3.12340
   D35        1.00236  -0.00130   0.00000  -0.05807  -0.05797   0.94439
   D36       -1.04414  -0.00281   0.00000  -0.08504  -0.08499  -1.12913
   D37        1.14044  -0.00108   0.00000  -0.01066  -0.01096   1.12948
   D38       -1.00181   0.00131   0.00000   0.01829   0.01839  -0.98342
   D39       -3.08269  -0.00106   0.00000  -0.00970  -0.00973  -3.09242
   D40       -3.08445  -0.00009   0.00000   0.01204   0.01189  -3.07256
   D41        1.05649   0.00230   0.00000   0.04099   0.04124   1.09773
   D42       -1.02439  -0.00007   0.00000   0.01300   0.01312  -1.01127
         Item               Value     Threshold  Converged?
 Maximum Force            0.022213     0.000450     NO 
 RMS     Force            0.005253     0.000300     NO 
 Maximum Displacement     0.355386     0.001800     NO 
 RMS     Displacement     0.099627     0.001200     NO 
 Predicted change in Energy=-6.745181D-03
 GradGradGradGradGradGradGradGradGradGradGradGradGradGradGradGradGradGrad

                          Input orientation:                          
 ---------------------------------------------------------------------
 Center     Atomic      Atomic             Coordinates (Angstroms)
 Number     Number       Type             X           Y           Z
 ---------------------------------------------------------------------
      1          6           0        1.148745   -0.123376   -0.061021
      2          7           0        2.590429   -0.094157   -0.082895
      3          7           0        3.241170   -0.587557   -1.140795
      4          6           0        4.531692   -0.567933   -1.167769
      5          6           0        5.250461   -1.104112   -2.305231
      6          6           0        6.586004   -1.116805   -2.411738
      7          6           0        7.346435   -1.652354   -3.620730
      8          7           0        7.093553   -0.945154   -4.880703
      9          7           0        8.780965   -1.562131   -3.331578
     10          6           0        9.626648   -2.204130   -4.343382
     11          1           0        0.815935    0.316681    0.881662
     12          1           0        0.756758   -1.147049   -0.117760
     13          1           0        0.712088    0.458525   -0.882983
     14          1           0        3.099591    0.295207    0.700049
     15          1           0        5.122866   -0.155090   -0.341830
     16          1           0        4.617587   -1.504890   -3.094280
     17          1           0        7.185587   -0.722400   -1.592441
     18          1           0        7.042207   -2.703628   -3.783260
     19          1           0        7.368018    0.024374   -4.745788
     20          1           0        6.103498   -0.945430   -5.097722
     21          1           0        8.953724   -2.037028   -2.449900
     22          1           0        9.524375   -1.678611   -5.292340
     23          1           0        9.386571   -3.267388   -4.514340
     24          1           0       10.673384   -2.135964   -4.027853
 ---------------------------------------------------------------------
                    Distance matrix (angstroms):
                    1          2          3          4          5
     1  C    0.000000
     2  N    1.442145   0.000000
     3  N    2.399920   1.336436   0.000000
     4  C    3.587039   2.273745   1.290953   0.000000
     5  C    4.777279   3.610340   2.379073   1.448425   0.000000
     6  C    6.006376   4.736449   3.617087   2.463518   1.339843
     7  C    7.308944   6.128936   4.912950   3.887900   2.534604
     8  N    7.697103   6.634854   5.381045   4.526733   3.171011
     9  N    8.427178   7.143643   6.036444   4.871019   3.705081
    10  C    9.723322   8.491886   7.324221   6.222559   4.951274
    11  H    1.092275   2.061064   3.284774   4.334692   5.642691
    12  H    1.097624   2.114745   2.744437   3.960811   4.998024
    13  H    1.097679   2.115127   2.749002   3.965361   5.006141
    14  H    2.135472   1.011855   2.046466   2.506924   3.951713
    15  H    3.984155   2.546369   2.089534   1.096404   2.184460
    16  H    4.810624   3.894609   2.559712   2.143994   1.088004
    17  H    6.256799   4.877386   3.972479   2.692093   2.097256
    18  H    7.432742   6.349832   5.090016   4.207692   2.820173
    19  H    7.787697   6.676974   5.513739   4.604106   3.422550
    20  H    7.112925   6.181813   4.896761   4.249425   2.924185
    21  H    8.383704   7.061797   6.037217   4.832853   3.821703
    22  H    9.996830   8.816372   7.609493   6.570584   5.245875
    23  H    9.878190   8.711754   7.505215   6.485095   5.164043
    24  H   10.512136   9.223114   8.122221   6.954077   5.782754
                    6          7          8          9         10
     6  C    0.000000
     7  C    1.525362   0.000000
     8  N    2.526432   1.466838   0.000000
     9  N    2.421213   1.466160   2.372300   0.000000
    10  C    3.762850   2.454802   2.879289   1.466659   0.000000
    11  H    6.796695   8.172886   8.614265   9.204511  10.549135
    12  H    6.264453   7.479972   7.929777   8.653833   9.881714
    13  H    6.270698   7.481018   7.659972   8.670954   9.926403
    14  H    4.881810   6.363789   6.973881   7.209836   8.618895
    15  H    2.711124   4.235239   5.010906   4.929508   6.363572
    16  H    2.119231   2.783075   3.104033   4.170528   5.209596
    17  H    1.089175   2.237106   3.297083   2.504991   3.965096
    18  H    2.146439   1.106412   2.073463   2.128453   2.691203
    19  H    2.713231   2.019316   1.016621   2.552138   3.198370
    20  H    2.734354   2.055758   1.013562   3.266254   3.816536
    21  H    2.540543   2.025387   3.249804   1.016232   2.016439
    22  H    4.153012   2.745613   2.572216   2.100193   1.089564
    23  H    4.109637   2.751187   3.284041   2.161848   1.103350
    24  H    4.511894   3.386475   3.867889   2.096505   1.095381
                   11         12         13         14         15
    11  H    0.000000
    12  H    1.773373   0.000000
    13  H    1.773379   1.779166   0.000000
    14  H    2.290967   2.870154   2.869291   0.000000
    15  H    4.502127   4.482977   4.486015   2.319896   0.000000
    16  H    5.794721   4.888121   4.898751   4.465601   3.106968
    17  H    6.911826   6.609452   6.618467   4.794413   2.478041
    18  H    8.345671   7.440813   7.647302   6.681114   4.692799
    19  H    8.641958   8.154732   7.707863   6.924591   4.946490
    20  H    8.081106   7.309467   6.985872   6.646562   4.919836
    21  H    9.102904   8.568617   8.752575   7.045024   4.760370
    22  H   10.859853  10.194604  10.082965   9.004583   6.797202
    23  H   10.743286   9.914607  10.115129   8.911120   6.728702
    24  H   11.282203  10.705431  10.763317   9.253431   6.951179
                   16         17         18         19         20
    16  H    0.000000
    17  H    3.076107   0.000000
    18  H    2.791137   2.957281   0.000000
    19  H    3.554012   3.245697   2.911118   0.000000
    20  H    2.556307   3.675276   2.387519   1.631990   0.000000
    21  H    4.415934   2.364273   2.424067   3.469141   4.040586
    22  H    5.379425   4.480348   3.080444   2.801562   3.503974
    23  H    5.278843   4.456320   2.519593   3.868310   4.063299
    24  H    6.159747   4.482647   3.683411   4.013469   4.842092
                   21         22         23         24
    21  H    0.000000
    22  H    2.921227   0.000000
    23  H    2.441937   1.774397   0.000000
    24  H    2.336013   1.768706   1.781200   0.000000
 Stoichiometry    C6H14N4
 Framework group  C1[X(C6H14N4)]
 Deg. of freedom    66
 Full point group                 C1      NOp   1
 Largest Abelian subgroup         C1      NOp   1
 Largest concise Abelian subgroup C1      NOp   1
                         Standard orientation:                         
 ---------------------------------------------------------------------
 Center     Atomic      Atomic             Coordinates (Angstroms)
 Number     Number       Type             X           Y           Z
 ---------------------------------------------------------------------
      1          6           0        5.112324    0.287786    0.186070
      2          7           0        3.891087   -0.384804   -0.182695
      3          7           0        2.716229    0.156359    0.153328
      4          6           0        1.618048   -0.440122   -0.170353
      5          6           0        0.337595    0.131821    0.191942
      6          6           0       -0.844664   -0.421492   -0.110196
      7          6           0       -2.195782    0.192451    0.242344
      8          7           0       -2.468825    1.495806   -0.372739
      9          7           0       -3.243786   -0.738642   -0.187045
     10          6           0       -4.589857   -0.350170    0.246858
     11          1           0        5.950891   -0.313529   -0.172105
     12          1           0        5.209897    0.397048    1.273875
     13          1           0        5.187511    1.284251   -0.268136
     14          1           0        3.929633   -1.260053   -0.688961
     15          1           0        1.613535   -1.389236   -0.719228
     16          1           0        0.398084    1.070583    0.738585
     17          1           0       -0.863271   -1.371226   -0.643077
     18          1           0       -2.230482    0.347631    1.337271
     19          1           0       -2.439134    1.368623   -1.380936
     20          1           0       -1.741829    2.161355   -0.136455
     21          1           0       -3.045183   -1.646136    0.224950
     22          1           0       -4.871317    0.588038   -0.230318
     23          1           0       -4.685272   -0.220131    1.338355
     24          1           0       -5.301992   -1.119901   -0.069745
 ---------------------------------------------------------------------
 Rotational constants (GHZ):           6.0199103           0.3519361           0.3393462
 Standard basis: 6-31G(2df,p) (6D, 7F)
 There are   380 symmetry adapted cartesian basis functions of A   symmetry.
 There are   350 symmetry adapted basis functions of A   symmetry.
   350 basis functions,   538 primitive gaussians,   380 cartesian basis functions
    39 alpha electrons       39 beta electrons
       nuclear repulsion energy       502.9170262552 Hartrees.
 NAtoms=   24 NActive=   24 NUniq=   24 SFac= 1.00D+00 NAtFMM=   60 NAOKFM=F Big=F
 Integral buffers will be    131072 words long.
 Raffenetti 2 integral format.
 Two-electron integral symmetry is turned on.
 One-electron integrals computed using PRISM.
 PrsmSu:  requested number of processors reduced to:  13 ShMem   1 Linda.
 NBasis=   350 RedAO= T EigKep=  2.54D-04  NBF=   350
 NBsUse=   350 1.00D-06 EigRej= -1.00D+00 NBFU=   350
 Initial guess from the checkpoint file:  "CNNdCCdCCpNpNC.chk"
 B after Tr=     0.000000    0.000000    0.000000
         Rot=    0.999900   -0.013918   -0.000592   -0.002262 Ang=  -1.62 deg.
 ExpMin= 1.61D-01 ExpMax= 4.17D+03 ExpMxC= 6.27D+02 IAcc=2 IRadAn=         4 AccDes= 0.00D+00
 Harris functional with IExCor=  402 and IRadAn=       4 diagonalized for initial guess.
 HarFok:  IExCor=  402 AccDes= 0.00D+00 IRadAn=         4 IDoV= 1 UseB2=F ITyADJ=14
 ICtDFT=  3500011 ScaDFX=  1.000000  1.000000  1.000000  1.000000
 FoFCou: FMM=F IPFlag=           0 FMFlag=      100000 FMFlg1=           0
         NFxFlg=           0 DoJE=T BraDBF=F KetDBF=T FulRan=T
         wScrn=  0.000000 ICntrl=       500 IOpCl=  0 I1Cent=   200000004 NGrid=           0
         NMat0=    1 NMatS0=      1 NMatT0=    0 NMatD0=    1 NMtDS0=    0 NMtDT0=    0
 Petite list used in FoFCou.
 Requested convergence on RMS density matrix=1.00D-08 within 128 cycles.
 Requested convergence on MAX density matrix=1.00D-06.
 Requested convergence on             energy=1.00D-06.
 No special actions if energy rises.
 Integral accuracy reduced to 1.0D-05 until final iterations.
 Initial convergence to 1.0D-05 achieved.  Increase integral accuracy.
 SCF Done:  E(RB3LYP) =  -456.027360438     A.U. after   12 cycles
            NFock= 12  Conv=0.45D-08     -V/T= 2.0080
 PrsmSu:  requested number of processors reduced to:  13 ShMem   1 Linda.
 Calling FoFJK, ICntrl=      2127 FMM=F ISym2X=0 I1Cent= 0 IOpClX= 0 NMat=1 NMatS=1 NMatT=0.
 ***** Axes restored to original set *****
 -------------------------------------------------------------------
 Center     Atomic                   Forces (Hartrees/Bohr)
 Number     Number              X              Y              Z
 -------------------------------------------------------------------
      1        6           0.000849678    0.000058729    0.000033753
      2        7           0.001051524   -0.001378008   -0.003052984
      3        7          -0.000972146    0.001139014    0.002715535
      4        6          -0.001721649   -0.001929488   -0.002766161
      5        6          -0.001595615    0.001769079    0.004300530
      6        6           0.000742232   -0.002680034   -0.002492259
      7        6           0.000189008   -0.000603362    0.006696001
      8        7           0.005473097    0.000148720    0.000289932
      9        7           0.000704249   -0.003399891   -0.004350092
     10        6           0.001187870    0.001629970    0.001628391
     11        1          -0.000291141    0.000177781    0.000362275
     12        1           0.000511231    0.000052886   -0.000312335
     13        1           0.000502537   -0.000251865   -0.000171226
     14        1           0.001132128   -0.000113296   -0.000264840
     15        1          -0.000332985    0.000838339    0.001418027
     16        1           0.000230000   -0.000273775   -0.001035624
     17        1           0.000979786    0.001550397   -0.001428468
     18        1          -0.002066973    0.000231911   -0.002852392
     19        1          -0.001081035    0.001625781   -0.000035925
     20        1          -0.001213582   -0.000974925    0.001232440
     21        1          -0.002057141    0.003067069    0.001194199
     22        1          -0.000978891   -0.000190806   -0.000959872
     23        1          -0.000506060   -0.000252809   -0.000550727
     24        1          -0.000736123   -0.000241417    0.000401821
 -------------------------------------------------------------------
 Cartesian Forces:  Max     0.006696001 RMS     0.001819833

 GradGradGradGradGradGradGradGradGradGradGradGradGradGradGradGradGradGrad
 Berny optimization.
 Using GEDIIS/GDIIS optimizer.
 FormGI is forming the generalized inverse of G from B-inverse, IUseBI=4.
 Internal  Forces:  Max     0.005060689 RMS     0.001220800
 Search for a local minimum.
 Step number   2 out of a maximum of  112
 All quantities printed in internal units (Hartrees-Bohrs-Radians)
 Mixed Optimization -- RFO/linear search
 Update second derivatives using D2CorX and points    1    2
 DE= -6.32D-03 DEPred=-6.75D-03 R= 9.37D-01
 TightC=F SS=  1.41D+00  RLast= 3.23D-01 DXNew= 5.0454D-01 9.6757D-01
 Trust test= 9.37D-01 RLast= 3.23D-01 DXMaxT set to 5.05D-01
 ITU=  1  0
 Use linear search instead of GDIIS.
     Eigenvalues ---    0.00649   0.00807   0.01007   0.01012   0.01088
     Eigenvalues ---    0.01152   0.01345   0.01532   0.01732   0.01959
     Eigenvalues ---    0.02105   0.02808   0.02988   0.03051   0.04777
     Eigenvalues ---    0.05552   0.06274   0.06841   0.07004   0.07249
     Eigenvalues ---    0.07563   0.07712   0.10951   0.15118   0.16000
     Eigenvalues ---    0.16000   0.16000   0.16000   0.16000   0.16000
     Eigenvalues ---    0.16000   0.16000   0.16000   0.16000   0.16427
     Eigenvalues ---    0.17754   0.19337   0.21791   0.22000   0.22000
     Eigenvalues ---    0.22053   0.23603   0.26251   0.32020   0.33250
     Eigenvalues ---    0.33546   0.34109   0.34218   0.34239   0.34246
     Eigenvalues ---    0.34267   0.34272   0.34399   0.35181   0.35446
     Eigenvalues ---    0.36133   0.38526   0.38749   0.40697   0.44496
     Eigenvalues ---    0.44887   0.45009   0.45419   0.55826   0.57774
     Eigenvalues ---    0.67672
 RFO step:  Lambda=-1.70576092D-03 EMin= 6.48942977D-03
 Quartic linear search produced a step of  0.04617.
 Iteration  1 RMS(Cart)=  0.07148494 RMS(Int)=  0.00124643
 Iteration  2 RMS(Cart)=  0.00209064 RMS(Int)=  0.00004979
 Iteration  3 RMS(Cart)=  0.00000188 RMS(Int)=  0.00004978
 Iteration  4 RMS(Cart)=  0.00000000 RMS(Int)=  0.00004978
 Variable       Old X    -DE/DX   Delta X   Delta X   Delta X     New X
                                 (Linear)    (Quad)   (Total)
    R1        2.72526  -0.00157  -0.00031  -0.00439  -0.00470   2.72056
    R2        2.06410   0.00047  -0.00024   0.00127   0.00103   2.06513
    R3        2.07421  -0.00022   0.00025  -0.00048  -0.00023   2.07398
    R4        2.07431  -0.00021   0.00026  -0.00045  -0.00019   2.07412
    R5        2.52550  -0.00506  -0.00020  -0.00924  -0.00944   2.51606
    R6        1.91213   0.00032  -0.00040   0.00047   0.00007   1.91220
    R7        2.43955  -0.00279  -0.00055  -0.00462  -0.00517   2.43438
    R8        2.73713  -0.00248  -0.00288  -0.00937  -0.01225   2.72488
    R9        2.07190   0.00120  -0.00068   0.00329   0.00261   2.07451
   R10        2.53194   0.00073  -0.00057   0.00097   0.00040   2.53233
   R11        2.05603   0.00072   0.00030   0.00229   0.00260   2.05863
   R12        2.88252  -0.00304   0.00147  -0.00898  -0.00751   2.87501
   R13        2.05824   0.00003   0.00020   0.00021   0.00042   2.05866
   R14        2.77192  -0.00144   0.00230  -0.00222   0.00008   2.77201
   R15        2.77064  -0.00282   0.00132  -0.00674  -0.00542   2.76522
   R16        2.09082   0.00077   0.00087   0.00290   0.00377   2.09459
   R17        1.92113   0.00125   0.00001   0.00289   0.00291   1.92404
   R18        1.91535   0.00092   0.00000   0.00210   0.00210   1.91746
   R19        2.77158  -0.00137  -0.00003  -0.00393  -0.00395   2.76763
   R20        1.92040  -0.00075  -0.00023  -0.00189  -0.00212   1.91828
   R21        2.05898   0.00084  -0.00048   0.00220   0.00172   2.06070
   R22        2.08503   0.00044   0.00070   0.00179   0.00249   2.08752
   R23        2.06997  -0.00060   0.00004  -0.00179  -0.00175   2.06822
    A1        1.88549   0.00059  -0.00215   0.00393   0.00178   1.88727
    A2        1.95532  -0.00068   0.00080  -0.00465  -0.00387   1.95146
    A3        1.95581  -0.00066   0.00082  -0.00450  -0.00369   1.95212
    A4        1.88761   0.00027   0.00045   0.00349   0.00395   1.89155
    A5        1.88755   0.00025   0.00044   0.00337   0.00383   1.89137
    A6        1.88981   0.00029  -0.00037  -0.00105  -0.00145   1.88836
    A7        2.08437  -0.00049  -0.00069  -0.00277  -0.00346   2.08091
    A8        2.09335   0.00132   0.00205   0.00937   0.01142   2.10477
    A9        2.10546  -0.00083  -0.00136  -0.00660  -0.00796   2.09750
   A10        2.09173  -0.00407   0.00283  -0.01492  -0.01209   2.07963
   A11        2.10233   0.00074   0.00057   0.00383   0.00440   2.10673
   A12        2.12821  -0.00157  -0.00118  -0.01021  -0.01140   2.11681
   A13        2.05263   0.00084   0.00061   0.00641   0.00701   2.05964
   A14        2.16589   0.00169   0.00043   0.00820   0.00863   2.17452
   A15        2.00119  -0.00002  -0.00018   0.00123   0.00105   2.00224
   A16        2.11610  -0.00167  -0.00026  -0.00941  -0.00967   2.10642
   A17        2.16912   0.00046   0.00108   0.00285   0.00385   2.17296
   A18        2.07773   0.00102  -0.00057   0.00658   0.00592   2.08365
   A19        2.03634  -0.00148  -0.00051  -0.00945  -0.01004   2.02630
   A20        2.01042   0.00039   0.00397   0.00014   0.00413   2.01455
   A21        1.88583   0.00074  -0.00236   0.00185  -0.00063   1.88520
   A22        1.88910   0.00007  -0.00049   0.00773   0.00722   1.89632
   A23        1.88432  -0.00185   0.00133  -0.01383  -0.01247   1.87185
   A24        1.85929  -0.00051  -0.00336  -0.01211  -0.01537   1.84392
   A25        1.93529   0.00121   0.00092   0.01729   0.01810   1.95339
   A26        1.87471   0.00133  -0.00008   0.00501   0.00489   1.87960
   A27        1.93071  -0.00330   0.00012  -0.02431  -0.02423   1.90647
   A28        1.86752   0.00014  -0.00058  -0.00664  -0.00731   1.86022
   A29        1.98360  -0.00016   0.00118   0.00330   0.00439   1.98799
   A30        1.88460  -0.00127   0.00010  -0.00493  -0.00505   1.87955
   A31        1.87125   0.00204   0.00039   0.02566   0.02602   1.89726
   A32        1.91303  -0.00012  -0.00210  -0.00252  -0.00463   1.90841
   A33        1.98586  -0.00008   0.00176  -0.00110   0.00065   1.98651
   A34        1.90185  -0.00031  -0.00046  -0.00031  -0.00078   1.90107
   A35        1.88538  -0.00053  -0.00083  -0.00763  -0.00847   1.87691
   A36        1.88658   0.00083   0.00130   0.00969   0.01098   1.89757
   A37        1.88865   0.00028   0.00038   0.00258   0.00295   1.89160
    D1        3.13602   0.00001  -0.00000   0.00081   0.00081   3.13683
    D2       -0.00234  -0.00000   0.00001  -0.00008  -0.00007  -0.00241
    D3        1.05868  -0.00029   0.00033  -0.00324  -0.00289   1.05579
    D4       -2.07968  -0.00030   0.00034  -0.00413  -0.00377  -2.08345
    D5       -1.06960   0.00031  -0.00034   0.00481   0.00446  -1.06514
    D6        2.07522   0.00030  -0.00032   0.00392   0.00358   2.07880
    D7       -3.13922  -0.00005   0.00018  -0.00213  -0.00195  -3.14116
    D8       -0.00087  -0.00003   0.00017  -0.00120  -0.00104  -0.00191
    D9        3.13715   0.00016  -0.00016   0.00667   0.00649  -3.13954
   D10        0.00016   0.00002   0.00007  -0.00100  -0.00091  -0.00075
   D11        3.13730   0.00005   0.00048   0.00518   0.00566  -3.14023
   D12       -0.00009  -0.00004   0.00026   0.00068   0.00093   0.00084
   D13       -0.00870   0.00019   0.00027   0.01248   0.01277   0.00407
   D14        3.13710   0.00010   0.00005   0.00799   0.00804  -3.13805
   D15       -3.11705  -0.00005   0.00080   0.00323   0.00409  -3.11296
   D16        0.02342  -0.00045   0.00042  -0.02109  -0.02072   0.00270
   D17        0.02007   0.00005   0.00103   0.00803   0.00912   0.02919
   D18       -3.12264  -0.00035   0.00065  -0.01629  -0.01570  -3.13834
   D19        1.08691   0.00096   0.00073   0.08442   0.08522   1.17214
   D20       -3.08827  -0.00061   0.00335   0.06808   0.07143  -3.01684
   D21       -0.99140   0.00131   0.00276   0.09421   0.09701  -0.89439
   D22       -2.05359   0.00135   0.00109   0.10820   0.10929  -1.94430
   D23        0.05441  -0.00022   0.00372   0.09186   0.09550   0.14991
   D24        2.15128   0.00170   0.00313   0.11799   0.12108   2.27236
   D25        1.04577  -0.00090  -0.00085  -0.04621  -0.04695   0.99882
   D26       -0.98668  -0.00005  -0.00017  -0.02810  -0.02821  -1.01489
   D27       -1.06306  -0.00074  -0.00121  -0.03843  -0.03962  -1.10268
   D28       -3.09551   0.00010  -0.00053  -0.02031  -0.02088  -3.11639
   D29        3.14054  -0.00093  -0.00123  -0.04501  -0.04629   3.09425
   D30        1.10809  -0.00008  -0.00055  -0.02690  -0.02755   1.08054
   D31        3.01201   0.00040  -0.00419  -0.05261  -0.05679   2.95522
   D32        0.93850  -0.00120  -0.00544  -0.08338  -0.08875   0.84975
   D33       -1.08627   0.00019   0.00007  -0.05996  -0.05989  -1.14616
   D34        3.12340  -0.00141  -0.00118  -0.09074  -0.09184   3.03155
   D35        0.94439  -0.00084  -0.00268  -0.07313  -0.07592   0.86847
   D36       -1.12913  -0.00244  -0.00392  -0.10390  -0.10787  -1.23700
   D37        1.12948  -0.00037  -0.00051  -0.01339  -0.01397   1.11551
   D38       -0.98342   0.00046   0.00085  -0.00097  -0.00020  -0.98362
   D39       -3.09242   0.00037  -0.00045  -0.00331  -0.00384  -3.09625
   D40       -3.07256  -0.00066   0.00055  -0.00022   0.00040  -3.07216
   D41        1.09773   0.00016   0.00190   0.01219   0.01418   1.11191
   D42       -1.01127   0.00008   0.00061   0.00985   0.01054  -1.00073
         Item               Value     Threshold  Converged?
 Maximum Force            0.005061     0.000450     NO 
 RMS     Force            0.001221     0.000300     NO 
 Maximum Displacement     0.211676     0.001800     NO 
 RMS     Displacement     0.071375     0.001200     NO 
 Predicted change in Energy=-9.410536D-04
 GradGradGradGradGradGradGradGradGradGradGradGradGradGradGradGradGradGrad

                          Input orientation:                          
 ---------------------------------------------------------------------
 Center     Atomic      Atomic             Coordinates (Angstroms)
 Number     Number       Type             X           Y           Z
 ---------------------------------------------------------------------
      1          6           0        1.165230   -0.172483   -0.036552
      2          7           0        2.602379   -0.105962   -0.089416
      3          7           0        3.238403   -0.614194   -1.142938
      4          6           0        4.524418   -0.554335   -1.188557
      5          6           0        5.247080   -1.091897   -2.314609
      6          6           0        6.580950   -1.072963   -2.441797
      7          6           0        7.339398   -1.608734   -3.646924
[...]
 0024320,-0.00129520,0.00833797,0.01287865,0.00907183,-0.10814000,-0.09
 566929,-0.05289006,-0.01078155,-0.02444121,-0.01342720,-0.00037842,-0.
 00034083,-0.00392373,0.00053619,0.00038059,-0.00023696,0.00018739,0.00
 054358,0.00065558,-0.00018363,-0.00006827,-0.00004483,0.00002523,-0.00
 000755,-0.00001757,-0.00001237,-0.00001502,0.00001299,-0.00003582,0.00
 000153,-0.00000161,-0.00000540,-0.00030314,-0.00020360,-0.00119111,0.0
 0059198,0.00287287,0.11342559,-0.00020863,-0.00009820,0.00004486,0.000
 93401,-0.00006011,-0.00018174,-0.00111467,0.00064644,0.00262731,-0.008
 11395,-0.00994043,-0.00772013,-0.09570332,-0.20623831,-0.10161835,-0.0
 0451026,-0.00265109,-0.00542719,0.00316368,-0.00250121,0.00177829,-0.0
 0070004,-0.00009021,0.00109939,0.00080608,0.00005617,-0.00022836,0.000
 15283,0.00015989,0.00014891,0.00001233,0.00000467,-0.00000690,0.000044
 99,0.00005300,-0.00002035,0.00009028,0.00001513,0.00001321,-0.00031905
 ,0.00011102,0.00015124,0.00072428,0.00046517,-0.00297392,0.10818402,0.
 21550336,-0.00021750,-0.00004488,0.00004735,0.00081614,0.00017990,-0.0
 0064060,-0.00249366,0.00193634,0.00148657,-0.01025161,-0.01851518,-0.0
 0847518,-0.05261036,-0.10153073,-0.10672689,0.00446501,0.00407410,0.00
 750242,-0.00106432,0.00455401,-0.00247283,0.00088997,0.00000140,-0.000
 78113,-0.00046775,0.00010537,0.00035431,-0.00025229,-0.00009410,-0.000
 18826,0.00000285,0.00000355,0.00000677,0.00007432,0.00006305,-0.000037
 89,0.00007736,0.00001255,0.00002478,-0.00021641,0.00013894,0.00037211,
 0.00299076,-0.00288716,-0.00092797,0.05444189,0.11602365,0.10538062,-0
 .00000155,-0.00008999,0.00008539,0.00002444,0.00004719,0.00006531,0.00
 020051,0.00063406,0.00044822,0.00032097,-0.00002936,-0.00352460,-0.010
 58777,-0.02477474,-0.01461858,-0.10782968,-0.09562023,-0.04933127,0.00
 755963,0.01277388,0.00827452,0.00020046,0.00036245,-0.00106020,0.00162
 537,-0.00115543,-0.00020987,0.00004886,0.00009861,0.00010819,0.0000012
 0,0.00000253,0.00000162,-0.00000277,0.00000586,-0.00000753,0.00002485,
 0.00000332,0.00000102,-0.00010047,0.00006160,-0.00000307,-0.00006663,0
 .00079689,0.00086081,-0.00296713,-0.00306486,0.00410048,0.11277742,-0.
 00008810,0.00012919,-0.00012295,-0.00006741,-0.00000383,-0.00001707,-0
 .00020793,0.00015659,0.00029676,0.00304866,-0.00219559,0.00218369,-0.0
 0309445,-0.00358145,-0.00591376,-0.09744356,-0.19962806,-0.10113417,-0
 .00987921,-0.01105679,-0.00477110,0.00105080,0.00158334,-0.00046940,-0
 .00084368,0.00153743,0.00105274,0.00032835,0.00006588,0.00021711,-0.00
 000519,0.00000079,0.00000311,0.00002289,0.00000973,-0.00000969,-0.0000
 1011,-0.00001313,0.00000355,0.00004546,-0.00007550,0.00010707,-0.00053
 396,0.00045104,0.00051157,-0.00328073,0.00431135,-0.00390865,0.1093962
 7,0.20867124,0.00002394,-0.00014913,0.00016757,0.00006658,-0.00015910,
 -0.00013870,-0.00038723,-0.00011352,0.00008886,-0.00057447,0.00388116,
 -0.00253001,0.00511415,0.00510688,0.00711281,-0.05214904,-0.10077551,-
 0.10396128,-0.01136011,-0.01895186,-0.00858860,-0.00098408,0.00074004,
 0.00258603,-0.00047037,0.00138999,0.00076621,0.00034749,0.00005020,0.0
 0007830,0.00000095,-0.00000203,-0.00000240,-0.00001125,0.00000304,-0.0
 0000419,0.00003427,0.00001154,0.00000147,-0.00001347,0.00010651,-0.000
 12396,-0.00036115,-0.00018938,0.00021041,0.00407420,-0.00393469,0.0047
 2415,0.05338458,0.11457624,0.10272185,0.00006100,0.00001968,-0.0000161
 0,-0.00004856,0.00006070,0.00008145,0.00002724,-0.00015086,-0.00013915
 ,0.00030360,0.00024055,0.00005500,0.00094669,0.00130664,0.00060857,0.0
 0706273,0.01206750,0.00770027,-0.10273987,-0.08532242,-0.03783592,-0.0
 0311995,-0.00916171,0.00110734,-0.03126992,-0.01566052,-0.01780262,0.0
 0328275,-0.00387159,-0.00301117,-0.00000593,0.00000539,0.00000735,-0.0
 0000953,-0.00001270,-0.00000093,-0.00001222,-0.00000764,-0.00000503,0.
 00000544,0.00000631,-0.00000078,-0.00017416,-0.00005529,0.00002896,0.0
 0017059,-0.00024656,-0.00029764,-0.00123870,0.00157689,0.00266289,0.12
 500968,-0.00018784,-0.00006969,0.00002837,0.00032963,-0.00027966,-0.00
 043127,-0.00033980,0.00017427,0.00032482,0.00087200,0.00042433,0.00005
 252,-0.00152442,0.00013619,0.00123077,-0.00831112,-0.01243077,-0.00805
 595,-0.08151270,-0.18549765,-0.06220800,-0.01487299,-0.02069967,-0.001
 05460,0.00658729,0.01032576,0.00189211,0.00073234,0.00391791,0.0017199
 2,0.00001441,0.00000187,-0.00000497,0.00003120,0.00004033,-0.00001682,
 0.00004964,0.00000741,0.00001771,0.00003674,0.00002453,0.00000977,-0.0
 0017249,0.00013774,0.00020849,0.00109345,0.00061505,-0.00009381,0.0011
 7719,-0.00037374,-0.00223488,0.09841658,0.20589596,-0.00009898,-0.0000
 3912,0.00002457,0.00016330,-0.00015541,-0.00021532,-0.00020174,0.00014
 351,0.00024003,0.00051338,0.00023875,-0.00022288,-0.00222498,-0.000055
 30,0.00052027,-0.00982544,-0.02025514,-0.00983126,-0.03876194,-0.06741
 388,-0.07875379,0.01782159,0.02568380,0.00475608,-0.01698263,-0.007958
 41,-0.00564927,0.00280576,0.00030058,-0.00061003,0.00000646,0.00000243
 ,-0.00000280,0.00001794,0.00001971,-0.00001042,0.00002866,0.00000436,0
 .00000896,0.00000930,0.00002070,0.00000075,-0.00004794,0.00017095,0.00
 019376,0.00092899,0.00057858,0.00024450,0.00219328,-0.00230404,-0.0023
 1611,0.04381007,0.06521727,0.09310328,-0.00029566,-0.00010588,0.000051
 43,0.00045622,-0.00036226,-0.00064226,-0.00047028,0.00019127,0.0004793
 6,0.00046642,0.00018772,0.00009573,-0.00033311,0.00017889,0.00017488,-
 0.00021330,0.00034820,-0.00151013,-0.00518673,-0.00994013,0.00060274,-
 0.11537571,-0.12420389,-0.06684922,0.00115205,0.00074466,0.00025404,-0
 .00046044,0.00051040,0.00025143,0.00002672,-0.00000746,-0.00001949,0.0
 0004987,0.00006262,-0.00001620,0.00006841,0.00002040,0.00002986,0.0000
 4580,0.00001706,0.00001090,-0.00000875,-0.00003616,0.00000218,0.000107
 25,0.00002780,0.00006411,0.00004761,0.00000243,0.00071889,0.00094659,-
 0.00002400,0.00106050,0.13684848,-0.00003312,-0.00000635,-0.00000036,0
 .00006672,-0.00005240,-0.00010332,-0.00006846,-0.00001144,0.00008014,0
 .00010442,0.00004499,0.00013399,0.00019706,0.00012844,-0.00002689,0.00
 078170,0.00212692,-0.00008482,-0.01273393,-0.02401315,-0.01289556,-0.1
 6293468,-0.28911148,-0.08434673,0.00112749,0.00232923,-0.00134258,0.00
 028181,-0.00069034,-0.00010739,0.00000164,0.00000158,-0.00000090,0.000
 00626,0.00000495,-0.00000290,0.00000827,0.00000194,0.00000418,0.000009
 28,0.00001031,-0.00000215,-0.00002346,-0.00000345,-0.00000936,0.000163
 01,-0.00004156,-0.00009818,-0.00058041,0.00053253,0.00064347,-0.000933
 92,-0.00252060,0.00529994,0.16259359,0.30128642,0.00019483,0.00007108,
 -0.00003611,-0.00030602,0.00025602,0.00040269,0.00031591,-0.00014346,-
 0.00030300,-0.00031148,-0.00017453,0.00001673,0.00046820,-0.00028724,-
 0.00046357,0.00064492,0.00144648,0.00210483,0.01906914,0.02940068,0.00
 567095,-0.09448408,-0.10426680,-0.08604348,0.00098034,-0.00229684,0.00
 160114,-0.00042269,-0.00003326,0.00050268,-0.00001761,0.00000549,0.000
 01541,-0.00003117,-0.00004017,0.00000941,-0.00004725,-0.00001566,-0.00
 002010,-0.00002383,-0.00001723,0.00000502,0.00001952,0.00000980,-0.000
 01327,-0.00016361,-0.00011364,-0.00014127,-0.00029474,-0.00039479,-0.0
 0060850,0.00069046,0.00366445,-0.00335661,0.07662443,0.08938975,0.0880
 5508,-0.00000374,-0.00000957,0.00001061,0.00000616,-0.00001107,0.00002
 429,-0.00002690,0.00002887,-0.00004058,-0.00006083,0.00008965,-0.00007
 650,-0.00003350,-0.00010386,0.00006715,0.00091152,-0.00094046,0.000415
 92,0.00413814,-0.00349012,0.01016228,-0.33494222,0.08505784,-0.1512036
 5,0.00001177,0.00005183,0.00023448,0.00014261,-0.00034636,-0.00027184,
 0.00000141,-0.00000268,-0.00000403,-0.00000138,0.00000346,0.00000027,-
 0.00000066,0.00000135,0.00000050,-0.00000122,-0.00000379,-0.00000240,0
 .00000642,-0.00001226,-0.00000915,-0.00001077,-0.00010221,0.00003075,0
 .00006921,0.00000400,-0.00008804,0.00046919,0.00026503,-0.00042073,-0.
 01757904,0.01190142,-0.00316812,0.34591451,0.00003339,0.00001435,-0.00
 000597,-0.00004444,0.00002995,0.00004584,0.00004606,-0.00004020,-0.000
 03883,-0.00013418,-0.00007622,0.00010964,0.00006224,0.00027782,0.00001
 616,-0.00040181,0.00051424,-0.00037223,0.02444358,-0.00504670,0.002294
 23,0.09996730,-0.08962928,0.06967043,-0.00122636,-0.00256881,0.0051016
 1,-0.00012131,0.00062476,0.00055415,-0.00000263,-0.00000086,-0.0000016
 0,-0.00000372,-0.00000756,0.00000455,-0.00000967,0.00000259,-0.0000031
 9,-0.00000413,-0.00000240,-0.00000887,0.00000784,-0.00003232,-0.000050
 31,-0.00009268,-0.00009767,-0.00000602,-0.00013141,0.00005815,-0.00006
 268,-0.00069871,-0.00044306,-0.00075493,-0.03010597,0.00926931,-0.0157
 2180,-0.09271413,0.08817725,0.00047464,0.00016381,-0.00007028,-0.00075
 809,0.00062240,0.00101220,0.00077161,-0.00033665,-0.00076268,-0.000618
 92,-0.00026854,-0.00029336,0.00105922,0.00019840,0.00018920,-0.0015824
 1,-0.00131807,0.00147622,-0.02621018,0.00853479,-0.01524139,-0.1057270
 6,0.04545660,-0.07253307,0.00097126,0.00377020,-0.00600658,0.00074747,
 -0.00021718,-0.00033022,-0.00004178,0.00000982,0.00003090,-0.00007822,
 -0.00009661,0.00002407,-0.00011250,-0.00003287,-0.00005018,-0.00007099
 ,-0.00003660,-0.00000197,0.00000914,0.00008701,0.00005829,0.00003533,0
 .00000246,0.00005522,-0.00009333,0.00011933,-0.00024065,0.00021299,-0.
 00014750,0.00082661,-0.01149882,0.00344966,-0.00690191,0.14425382,-0.0
 6156038,0.09787409,-0.00024483,-0.00008954,0.00005164,0.00044667,-0.00
 037560,-0.00055892,-0.00056470,0.00013814,0.00042547,0.00035009,0.0003
 2546,-0.00007847,-0.00076927,-0.00043867,0.00039864,0.00153730,0.00070
 096,-0.00011622,0.00069587,0.01598839,-0.03384299,-0.00584410,0.001098
 40,-0.00228842,-0.05369298,-0.01148236,0.07329951,-0.00352494,-0.01166
 447,0.01728124,0.00002364,-0.00000872,-0.00001870,0.00004041,0.0000524
 7,-0.00001042,0.00006170,0.00001966,0.00002223,0.00004396,0.00002241,-
 0.00000047,-0.00000181,-0.00007749,-0.00007530,-0.00006440,-0.00008706
 ,-0.00005649,0.00005381,0.00004786,-0.00006026,-0.00037684,-0.00036688
 ,-0.00020806,-0.00018001,0.00016910,0.00012631,0.00070731,0.00144571,-
 0.00117814,0.06293982,0.00019342,0.00007027,-0.00004055,-0.00032681,0.
 00029224,0.00038858,0.00043041,-0.00017214,-0.00034244,-0.00034611,-0.
 00007596,0.00019819,0.00079690,-0.00012118,-0.00083305,-0.00047039,0.0
 0085648,0.00021541,-0.01090065,-0.00685648,0.00540873,0.00501360,-0.00
 112271,0.00311850,-0.00173385,-0.10502807,0.17508876,0.00531309,0.0049
 4360,-0.02891459,-0.00001457,0.00000054,0.00001006,-0.00003251,-0.0000
 4063,0.00001437,-0.00005194,-0.00001228,-0.00001726,-0.00002207,-0.000
 02681,-0.00000110,0.00002523,-0.00003572,-0.00001094,-0.00008898,-0.00
 015920,0.00003887,0.00030779,-0.00086160,-0.00014625,-0.00023488,0.000
 65317,-0.00026388,-0.00020096,0.00066630,-0.00029776,0.00043459,-0.000
 88671,0.00150214,0.00044056,0.10816043,-0.00009727,-0.00005120,0.00003
 382,0.00021615,-0.00018518,-0.00026006,-0.00027982,0.00008384,0.000147
 16,0.00010390,0.00030197,-0.00019944,-0.00017630,-0.00033367,0.0002083
 3,0.00132477,-0.00015552,0.00119395,0.00413692,0.00809262,-0.01303206,
 -0.00312337,-0.00020431,-0.00037650,0.04598624,0.13770310,-0.33782976,
 0.00539562,0.01034491,-0.01975179,0.00001095,-0.00000416,-0.00000785,0
 .00001741,0.00002554,-0.00000360,0.00002744,0.00001025,0.00000652,0.00
 002530,0.00000602,0.00000264,0.00001399,-0.00007462,-0.00004155,-0.000
 00104,-0.00017580,0.00013616,-0.00021070,-0.00019838,0.00001832,0.0005
 0519,-0.00044543,0.00013136,-0.00001502,0.00001306,-0.00001421,0.00029
 511,0.00078922,0.00012134,-0.05513987,-0.15293668,0.36855887,-0.000046
 64,-0.00001938,0.00000874,0.00007147,-0.00005086,-0.00011319,-0.000051
 65,0.00003344,0.00007007,0.00007790,0.00001565,0.00008945,0.00005623,-
 0.00002019,-0.00016058,-0.00010137,0.00025036,-0.00027103,0.00040909,-
 0.00177216,0.00188256,0.00025154,0.00066100,-0.00062665,-0.00386332,-0
 .00458600,0.01915465,-0.05658456,-0.02349639,0.03794500,0.00000444,-0.
 00000156,-0.00000378,0.00000843,0.00001179,-0.00000329,0.00000822,0.00
 000369,0.00000442,0.00000943,-0.00000191,0.00000281,0.00000072,-0.0000
 1369,-0.00000248,-0.00001050,0.00001774,-0.00000318,0.00005325,-0.0000
 8685,0.00001355,-0.00022549,0.00003579,-0.00009350,0.00008481,-0.00007
 579,-0.00000113,0.00022877,-0.00031533,-0.00034263,-0.00225821,0.00204
 689,0.00200989,0.05820061,0.00002511,0.00000702,-0.00000157,-0.0000335
 8,0.00002340,0.00005271,0.00001474,-0.00000953,-0.00003173,-0.00004176
 ,-0.00000355,-0.00006559,-0.00009479,0.00003660,0.00011656,-0.00007800
 ,-0.00026313,0.00028419,0.00016973,0.00139439,0.00024111,0.00055031,-0
 .00178642,-0.00024049,0.00433309,0.01124652,-0.02450113,-0.02672502,-0
 .11168231,0.11618119,-0.00000230,0.00000115,0.00000209,-0.00000376,-0.
 00000487,0.00000061,-0.00000475,-0.00000191,-0.00000296,-0.00000376,-0
 .00000008,0.00000012,-0.00000008,0.00000870,0.00000496,0.00001692,-0.0
 0001859,0.00001177,-0.00001234,0.00006963,-0.00001243,0.00007070,-0.00
 033574,0.00013710,0.00034628,-0.00034067,-0.00026038,-0.00030224,0.000
 16685,0.00018718,0.00375173,-0.00194296,-0.00330793,0.02428482,0.11959
 496,-0.00007234,-0.00002455,0.00001369,0.00011853,-0.00009970,-0.00014
 046,-0.00013487,0.00004222,0.00011476,0.00010294,0.00007415,-0.0000373
 6,-0.00014446,-0.00006970,0.00008539,0.00038819,0.00001902,0.00006763,
 -0.00128605,0.00096085,-0.00118223,-0.00158224,0.00102350,0.00067339,0
 .00620272,0.00466297,-0.02357041,0.04273751,0.10749200,-0.24360733,0.0
 0000637,-0.00000202,-0.00000562,0.00001066,0.00001376,-0.00000318,0.00
 001830,0.00000534,0.00000736,0.00000759,0.00000927,-0.00000354,-0.0000
 0257,-0.00000824,-0.00001470,0.00000467,-0.00001533,0.00000712,-0.0000
 3440,0.00005586,-0.00001460,0.00029279,-0.00002386,0.00023956,0.000135
 28,-0.00009338,-0.00021013,-0.00012099,-0.00001781,0.00041500,0.003041
 47,-0.00245894,-0.00070305,-0.05030556,-0.11522730,0.27163960,-0.00002
 836,-0.00001411,0.00000715,0.00004755,-0.00003825,-0.00005916,-0.00004
 694,0.00003241,0.00004589,0.00002445,0.00003391,-0.00003350,-0.0000467
 1,-0.00011631,-0.00006514,0.00001328,0.00008837,0.00029039,0.00595859,
 0.00216155,0.00249465,-0.00021871,-0.00026519,-0.00045469,0.00842055,0
 .02001629,0.00484643,-0.11609862,-0.10047997,-0.02109957,0.00000222,-0
 .00000005,-0.00000119,0.00000424,0.00000684,-0.00000266,0.00000699,0.0
 0000133,0.00000275,0.00000427,0.00000134,0.00000045,0.00000390,-0.0000
 0291,-0.00000084,-0.00001418,-0.00003061,0.00003820,-0.00016127,-0.000
 08993,-0.00010527,0.00046787,-0.00224256,-0.00063471,-0.00015287,-0.00
 006671,0.00014139,0.00000648,-0.00000529,-0.00018025,0.00078533,-0.000
 12846,-0.00112393,-0.00334864,-0.00440680,-0.00190038,0.11839117,-0.00
 017030,-0.00006815,0.00003350,0.00027090,-0.00022315,-0.00033884,-0.00
 027553,0.00014153,0.00024834,0.00022260,0.00014879,-0.00002402,-0.0001
 7007,-0.00006874,0.00007440,0.00058269,0.00035951,0.00023199,-0.005222
 41,0.00170081,-0.00209838,0.00081222,0.00001571,0.00062631,0.00102825,
 -0.02539909,-0.01488580,-0.10120456,-0.20656898,-0.03027746,0.00001485
 ,-0.00000217,-0.00000983,0.00002701,0.00003682,-0.00001128,0.00004107,
 0.00001060,0.00001618,0.00002290,0.00001166,0.00000212,-0.00000623,-0.
 00001354,-0.00000882,0.00005423,0.00000465,-0.00001505,-0.00016346,0.0
 0024789,0.00023123,0.00206836,0.00015838,0.00121018,-0.00027327,0.0003
 6641,-0.00015480,0.00014164,-0.00019203,-0.00001926,0.00079165,0.00087
 280,0.00063923,-0.01040119,-0.01282141,-0.00259845,0.10883751,0.234573
 56,-0.00010307,-0.00004421,0.00002293,0.00016455,-0.00013518,-0.000211
 25,-0.00016304,0.00008944,0.00014730,0.00011394,0.00008058,-0.00000899
 ,-0.00003297,0.00001825,0.00004730,0.00015514,0.00022377,0.00005459,-0
 .00302480,0.00216845,-0.00080288,-0.00017986,-0.00004773,0.00011717,-0
 .00386672,-0.02686747,-0.00828692,-0.02119578,-0.03063881,-0.05747785,
 0.00000950,-0.00000186,-0.00000683,0.00001739,0.00002390,-0.00000659,0
 .00002398,0.00000787,0.00000894,0.00001443,0.00000440,0.00000273,0.000
 00055,-0.00001518,-0.00001056,0.00001840,-0.00001258,-0.00000235,-0.00
 008866,0.00015499,0.00009906,0.00124975,0.00028324,0.00078440,0.000027
 95,0.00006109,-0.00033220,0.00004440,-0.00000924,0.00021270,-0.0007806
 9,-0.00062736,0.00071454,0.01520979,0.02236658,0.00659340,0.02111115,0
 .04524101,0.06054981,0.00015240,0.00006631,-0.00003671,-0.00026909,0.0
 0021867,0.00032526,0.00028617,-0.00011759,-0.00020156,-0.00022992,-0.0
 0024468,0.00007670,0.00012478,0.00024117,0.00010682,-0.00079747,0.0003
 1553,-0.00069000,0.00007333,0.00075886,0.00402746,0.00032225,-0.000164
 29,-0.00004822,-0.01667841,0.00844686,-0.00602675,-0.24145579,0.050491
 30,-0.10105017,-0.00001569,0.00000509,0.00001178,-0.00002540,-0.000035
 07,0.00000697,-0.00003741,-0.00001283,-0.00001333,-0.00002430,-0.00000
 842,-0.00000233,-0.00000013,0.00004161,0.00002589,-0.00000416,0.000043
 15,-0.00006064,-0.00005162,0.00010748,0.00012325,0.00046782,-0.0000864
 7,0.00014141,-0.00004431,0.00003872,-0.00000372,0.00004674,0.00000565,
 -0.00004217,-0.00016381,-0.00045031,0.00009842,0.00702548,-0.00185426,
 0.00251686,-0.01402057,0.00297113,-0.00872535,0.26531912,-0.00013564,-
 0.00005772,0.00003039,0.00024829,-0.00020340,-0.00028739,-0.00025892,0
 .00010924,0.00017462,0.00020901,0.00025692,-0.00007109,-0.00005996,-0.
 00029330,-0.00022439,0.00112765,0.00014434,0.00081782,0.00059734,-0.00
 136206,-0.00350137,0.00033572,0.00011699,-0.00010190,0.02136749,-0.009
 17378,0.00984985,0.04688600,-0.06024774,0.02412192,0.00001359,-0.00000
 345,-0.00000969,0.00002146,0.00002996,-0.00000677,0.00003481,0.0000100
 2,0.00001279,0.00002224,0.00001084,0.00000085,-0.00000247,-0.00003320,
 -0.00002254,0.00002528,-0.00004934,0.00005025,-0.00004545,-0.00003510,
 -0.00000885,0.00051746,0.00013766,0.00017225,0.00002865,0.00002211,-0.
 00002538,0.00005906,-0.00011144,-0.00007013,-0.00040172,0.00082663,0.0
 0006314,0.01348011,-0.00333806,0.00628032,-0.02329241,0.00670814,-0.01
 232396,-0.06077760,0.06653574,-0.00002418,-0.00001872,0.00000985,0.000
 07111,-0.00005809,-0.00005730,-0.00006861,0.00003179,0.00001051,0.0000
 5771,0.00016247,-0.00010026,0.00001785,-0.00022011,-0.00019792,0.00103
 469,-0.00016846,0.00065607,0.00247829,-0.00202000,-0.00372823,-0.00096
 689,0.00056401,0.00058346,0.02313226,-0.00918952,0.01017923,-0.1070958
 5,0.02891902,-0.10347462,0.00000337,0.00000038,-0.00000121,0.00000377,
 0.00000688,-0.00000158,0.00000882,0.00000203,0.00000108,0.00000618,0.0
 0000287,0.00000012,-0.00000182,-0.00001176,-0.00000510,0.00003369,-0.0
 0003889,0.00005230,-0.00004649,-0.00003804,-0.00004603,0.00009624,0.00
 006766,-0.00010564,-0.00003257,0.00003922,0.00006044,-0.00013353,0.000
 02801,0.00013645,-0.00023308,0.00090717,0.00094687,-0.02446394,0.00406
 534,-0.01036429,-0.00331715,0.00188750,-0.00220845,0.10944011,-0.02492
 075,0.10765426\\0.00000070,0.00000892,-0.00000984,0.00000638,-0.000028
 43,0.00001150,-0.00000697,0.00001272,0.00002211,0.00000997,-0.00002906
 ,-0.00002250,-0.00001212,0.00003283,0.00001891,0.00000405,-0.00000755,
 0.00001813,-0.00003771,0.00001690,-0.00004429,0.00001889,-0.00004288,0
 .00001775,0.00003083,0.00002239,0.00002986,0.00002983,-0.00002377,-0.0
 0001928,0.00000050,-0.00000121,0.00000227,0.00000342,0.00000002,-0.000
 00520,-0.00000260,0.00000051,0.00000012,0.00000186,0.00001081,-0.00001
 654,-0.00000443,0.00000396,0.00000775,0.00000310,-0.00000533,-0.000008
 46,0.00000450,-0.00000095,-0.00000761,-0.00000603,-0.00000678,-0.00000
 086,-0.00000004,0.00002320,-0.00000158,-0.00001070,0.00000953,-0.00000
 041,-0.00000768,-0.00000243,0.00000283,-0.00001057,-0.00000124,0.00000
 087,-0.00000424,0.00000357,-0.00000354,-0.00001094,0.00000428,0.000008
 01\\\@


 I LOVE THOSE WHO LONG FOR THE IMPOSSIBLE.

                                 -- GOETHE
 Job cpu time:       0 days  2 hours 12 minutes  0.1 seconds.
 Elapsed time:       0 days  0 hours 33 minutes  6.7 seconds.
 File lengths (MBytes):  RWF=    221 Int=      0 D2E=      0 Chk=     11 Scr=      1
 Normal termination of Gaussian 16 at Mon May 31 21:16:23 2021.
### All Done ###
