### Starting Gaussian ###
 Entering Gaussian System, Link 0=g16
 Initial command:
 /cluster/software/gaussian/gaussian-16-A.03/avx2/g16/l1.exe "/local/scratch/yxie/Gau-15723.inp" -scrdir="/local/scratch/yxie/"
 Entering Link 1 = /cluster/software/gaussian/gaussian-16-A.03/avx2/g16/l1.exe PID=     15724.
  
 Copyright (c) 1988,1990,1992,1993,1995,1998,2003,2009,2016,
            Gaussian, Inc.  All Rights Reserved.
  
 This is part of the Gaussian(R) 16 program.  It is based on
 the Gaussian(R) 09 system (copyright 2009, Gaussian, Inc.),
 the Gaussian(R) 03 system (copyright 2003, Gaussian, Inc.),
 the Gaussian(R) 98 system (copyright 1998, Gaussian, Inc.),
 the Gaussian(R) 94 system (copyright 1995, Gaussian, Inc.),
 the Gaussian 92(TM) system (copyright 1992, Gaussian, Inc.),
 the Gaussian 90(TM) system (copyright 1990, Gaussian, Inc.),
 the Gaussian 88(TM) system (copyright 1988, Gaussian, Inc.),
 the Gaussian 86(TM) system (copyright 1986, Carnegie Mellon
 University), and the Gaussian 82(TM) system (copyright 1983,
 Carnegie Mellon University). Gaussian is a federally registered
 trademark of Gaussian, Inc.
  
 This software contains proprietary and confidential information,
 including trade secrets, belonging to Gaussian, Inc.
  
 This software is provided under written license and may be
 used, copied, transmitted, or stored only in accord with that
 written license.
  
 The following legend is applicable only to US Government
 contracts under FAR:
  
                    RESTRICTED RIGHTS LEGEND
  
 Use, reproduction and disclosure by the US Government is
 subject to restrictions as set forth in subparagraphs (a)
 and (c) of the Commercial Computer Software - Restricted
 Rights clause in FAR 52.227-19.
  
 Gaussian, Inc.
 340 Quinnipiac St., Bldg. 40, Wallingford CT 06492
  
  
 ---------------------------------------------------------------
 Warning -- This program may not be used in any manner that
 competes with the business of Gaussian, Inc. or will provide
 assistance to any competitor of Gaussian, Inc.  The licensee
 of this program is prohibited from giving any competitor of
 Gaussian, Inc. access to this program.  By using this program,
 the user acknowledges that Gaussian, Inc. is engaged in the
 business of creating and licensing software in the field of
 computational chemistry and represents and warrants to the
 licensee that it is not a competitor of Gaussian, Inc. and that
 it will not use this program in any manner prohibited above.
 ---------------------------------------------------------------
  

 Cite this work as:
 Gaussian 16, Revision A.03,
 M. J. Frisch, G. W. Trucks, H. B. Schlegel, G. E. Scuseria, 
 M. A. Robb, J. R. Cheeseman, G. Scalmani, V. Barone, 
 G. A. Petersson, H. Nakatsuji, X. Li, M. Caricato, A. V. Marenich, 
 J. Bloino, B. G. Janesko, R. Gomperts, B. Mennucci, H. P. Hratchian, 
 J. V. Ortiz, A. F. Izmaylov, J. L. Sonnenberg, D. Williams-Young, 
 F. Ding, F. Lipparini, F. Egidi, J. Goings, B. Peng, A. Petrone, 
 T. Henderson, D. Ranasinghe, V. G. Zakrzewski, J. Gao, N. Rega, 
 G. Zheng, W. Liang, M. Hada, M. Ehara, K. Toyota, R. Fukuda, 
 J. Hasegawa, M. Ishida, T. Nakajima, Y. Honda, O. Kitao, H. Nakai, 
 T. Vreven, K. Throssell, J. A. Montgomery, Jr., J. E. Peralta, 
 F. Ogliaro, M. J. Bearpark, J. J. Heyd, E. N. Brothers, K. N. Kudin, 
 V. N. Staroverov, T. A. Keith, R. Kobayashi, J. Normand, 
 K. Raghavachari, A. P. Rendell, J. C. Burant, S. S. Iyengar, 
 J. Tomasi, M. Cossi, J. M. Millam, M. Klene, C. Adamo, R. Cammi, 
 J. W. Ochterski, R. L. Martin, K. Morokuma, O. Farkas, 
 J. B. Foresman, and D. J. Fox, Gaussian, Inc., Wallingford CT, 2016.
 
 ******************************************
 Gaussian 16:  ES64L-G16RevA.03 25-Dec-2016
                31-May-2021 
 ******************************************
 %chk=CNNNCpCpCpCpC.chk
 %NProcShared=20
 Will use up to   20 processors via shared memory.
 -----------------------------
 # opt freq b3lyp/6-31g(2df,p)
 -----------------------------
 1/18=20,19=15,26=3,38=1/1,3;
 2/9=110,12=2,17=6,18=5,40=1/2;
 3/5=1,6=6,7=104,11=2,25=1,30=1,71=1,74=-5/1,2,3;
 4//1;
 5/5=2,38=5/2;
 6/7=2,8=2,9=2,10=2,28=1/1;
 7//1,2,3,16;
 1/18=20,19=15,26=3/3(2);
 2/9=110/2;
 99//99;
 2/9=110/2;
 3/5=1,6=6,7=104,11=2,25=1,30=1,71=1,74=-5/1,2,3;
 4/5=5,16=3,69=1/1;
 5/5=2,38=5/2;
 7//1,2,3,16;
 1/18=20,19=15,26=3/3(-5);
 2/9=110/2;
 6/7=2,8=2,9=2,10=2,19=2,28=1/1;
 99/9=1/99;
 -------------------
 Title Card Required
 -------------------
 Symbolic Z-matrix:
 Charge =  0 Multiplicity = 1
 C                     0.96592  -0.08646   0.04347 
 N                     2.4271   -0.0884    0.04627 
 N                     2.86229  -1.04737  -0.90846 
 N                     4.28658  -1.03014  -0.9506 
 C                     4.78912  -2.04027  -1.91275 
 C                     4.2939   -1.71332  -3.33492 
 C                     6.34944  -2.08112  -1.87311 
 C                     6.89965  -2.41816  -0.47951 
 C                     6.91863  -3.10486  -2.86672 
 H                     0.59775   0.65728   0.75531 
 H                     0.56554  -1.06524   0.3292 
 H                     0.57334   0.18104  -0.94453 
 H                     2.75744  -0.32737   0.97918 
 H                     2.48491  -0.78623  -1.82679 
 H                     4.64503  -1.24888  -0.02331 
 H                     4.41177  -3.03078  -1.62371 
 H                     4.64791  -0.72744  -3.65596 
 H                     3.20228  -1.7244   -3.40871 
 H                     4.62786  -2.45516  -4.06354 
 H                     6.7344   -1.09136  -2.15507 
 H                     6.53707  -3.39447  -0.14081 
 H                     6.62026  -1.66994   0.26739 
 H                     7.99473  -2.45006  -0.49443 
 H                     6.54692  -4.11129  -2.64585 
 H                     8.01229  -3.12693  -2.82148 
 H                     6.65886  -2.86353  -3.90072 
 

 GradGradGradGradGradGradGradGradGradGradGradGradGradGradGradGradGradGrad
 Berny optimization.
 Initialization pass.
                           ----------------------------
                           !    Initial Parameters    !
                           ! (Angstroms and Degrees)  !
 --------------------------                            --------------------------
 ! Name  Definition              Value          Derivative Info.                !
 --------------------------------------------------------------------------------
 ! R1    R(1,2)                  1.4612         estimate D2E/DX2                !
 ! R2    R(1,10)                 1.0934         estimate D2E/DX2                !
 ! R3    R(1,11)                 1.0954         estimate D2E/DX2                !
 ! R4    R(1,12)                 1.0963         estimate D2E/DX2                !
 ! R5    R(2,3)                  1.4215         estimate D2E/DX2                !
 ! R6    R(2,13)                 1.0181         estimate D2E/DX2                !
 ! R7    R(3,4)                  1.425          estimate D2E/DX2                !
 ! R8    R(3,14)                 1.0266         estimate D2E/DX2                !
 ! R9    R(4,5)                  1.4828         estimate D2E/DX2                !
 ! R10   R(4,15)                 1.0179         estimate D2E/DX2                !
 ! R11   R(5,6)                  1.541          estimate D2E/DX2                !
 ! R12   R(5,7)                  1.5614         estimate D2E/DX2                !
 ! R13   R(5,16)                 1.0987         estimate D2E/DX2                !
 ! R14   R(6,17)                 1.0956         estimate D2E/DX2                !
 ! R15   R(6,18)                 1.0942         estimate D2E/DX2                !
 ! R16   R(6,19)                 1.0921         estimate D2E/DX2                !
 ! R17   R(7,8)                  1.5357         estimate D2E/DX2                !
 ! R18   R(7,9)                  1.536          estimate D2E/DX2                !
 ! R19   R(7,20)                 1.0988         estimate D2E/DX2                !
 ! R20   R(8,21)                 1.0952         estimate D2E/DX2                !
 ! R21   R(8,22)                 1.0935         estimate D2E/DX2                !
 ! R22   R(8,23)                 1.0956         estimate D2E/DX2                !
 ! R23   R(9,24)                 1.0954         estimate D2E/DX2                !
 ! R24   R(9,25)                 1.0948         estimate D2E/DX2                !
 ! R25   R(9,26)                 1.0931         estimate D2E/DX2                !
 ! A1    A(2,1,10)             109.6571         estimate D2E/DX2                !
 ! A2    A(2,1,11)             111.3347         estimate D2E/DX2                !
 ! A3    A(2,1,12)             111.1096         estimate D2E/DX2                !
 ! A4    A(10,1,11)            108.3551         estimate D2E/DX2                !
 ! A5    A(10,1,12)            107.469          estimate D2E/DX2                !
 ! A6    A(11,1,12)            108.7969         estimate D2E/DX2                !
 ! A7    A(1,2,3)              107.8043         estimate D2E/DX2                !
 ! A8    A(1,2,13)             109.0583         estimate D2E/DX2                !
 ! A9    A(3,2,13)             110.9628         estimate D2E/DX2                !
 ! A10   A(2,3,4)              108.5243         estimate D2E/DX2                !
 ! A11   A(2,3,14)             108.4612         estimate D2E/DX2                !
 ! A12   A(4,3,14)             109.7478         estimate D2E/DX2                !
 ! A13   A(3,4,5)              110.4687         estimate D2E/DX2                !
 ! A14   A(3,4,15)             108.8092         estimate D2E/DX2                !
 ! A15   A(5,4,15)             108.9877         estimate D2E/DX2                !
 ! A16   A(4,5,6)              110.2057         estimate D2E/DX2                !
 ! A17   A(4,5,7)              109.8794         estimate D2E/DX2                !
 ! A18   A(4,5,16)             109.0907         estimate D2E/DX2                !
 ! A19   A(6,5,7)              110.4952         estimate D2E/DX2                !
 ! A20   A(6,5,16)             108.8869         estimate D2E/DX2                !
 ! A21   A(7,5,16)             108.2383         estimate D2E/DX2                !
 ! A22   A(5,6,17)             110.9473         estimate D2E/DX2                !
 ! A23   A(5,6,18)             112.3772         estimate D2E/DX2                !
 ! A24   A(5,6,19)             111.9207         estimate D2E/DX2                !
 ! A25   A(17,6,18)            108.1627         estimate D2E/DX2                !
 ! A26   A(17,6,19)            108.4776         estimate D2E/DX2                !
 ! A27   A(18,6,19)            104.6673         estimate D2E/DX2                !
 ! A28   A(5,7,8)              112.7566         estimate D2E/DX2                !
 ! A29   A(5,7,9)              111.798          estimate D2E/DX2                !
 ! A30   A(5,7,20)             108.6651         estimate D2E/DX2                !
 ! A31   A(8,7,9)              107.9374         estimate D2E/DX2                !
 ! A32   A(8,7,20)             107.7601         estimate D2E/DX2                !
 ! A33   A(9,7,20)             107.7306         estimate D2E/DX2                !
 ! A34   A(7,8,21)             110.958          estimate D2E/DX2                !
 ! A35   A(7,8,22)             112.217          estimate D2E/DX2                !
 ! A36   A(7,8,23)             110.6171         estimate D2E/DX2                !
 ! A37   A(21,8,22)            108.3098         estimate D2E/DX2                !
 ! A38   A(21,8,23)            108.0087         estimate D2E/DX2                !
 ! A39   A(22,8,23)            106.5344         estimate D2E/DX2                !
 ! A40   A(7,9,24)             110.8665         estimate D2E/DX2                !
 ! A41   A(7,9,25)             110.9088         estimate D2E/DX2                !
 ! A42   A(7,9,26)             112.1292         estimate D2E/DX2                !
 ! A43   A(24,9,25)            108.1877         estimate D2E/DX2                !
 ! A44   A(24,9,26)            108.2365         estimate D2E/DX2                !
 ! A45   A(25,9,26)            106.3158         estimate D2E/DX2                !
 ! D1    D(10,1,2,3)          -178.8764         estimate D2E/DX2                !
 ! D2    D(10,1,2,13)           60.56           estimate D2E/DX2                !
 ! D3    D(11,1,2,3)            61.222          estimate D2E/DX2                !
 ! D4    D(11,1,2,13)          -59.3416         estimate D2E/DX2                !
 ! D5    D(12,1,2,3)           -60.217          estimate D2E/DX2                !
 ! D6    D(12,1,2,13)          179.2194         estimate D2E/DX2                !
 ! D7    D(1,2,3,4)            178.0798         estimate D2E/DX2                !
 ! D8    D(1,2,3,14)            58.9011         estimate D2E/DX2                !
 ! D9    D(13,2,3,4)           -62.5598         estimate D2E/DX2                !
 ! D10   D(13,2,3,14)          178.2615         estimate D2E/DX2                !
 ! D11   D(2,3,4,5)            178.6627         estimate D2E/DX2                !
 ! D12   D(2,3,4,15)            59.0575         estimate D2E/DX2                !
 ! D13   D(14,3,4,5)           -62.9701         estimate D2E/DX2                !
 ! D14   D(14,3,4,15)          177.4247         estimate D2E/DX2                !
 ! D15   D(3,4,5,6)             62.0473         estimate D2E/DX2                !
 ! D16   D(3,4,5,7)           -175.9602         estimate D2E/DX2                !
 ! D17   D(3,4,5,16)           -57.45           estimate D2E/DX2                !
 ! D18   D(15,4,5,6)          -178.4554         estimate D2E/DX2                !
 ! D19   D(15,4,5,7)           -56.4628         estimate D2E/DX2                !
 ! D20   D(15,4,5,16)           62.0473         estimate D2E/DX2                !
 ! D21   D(4,5,6,17)            60.1036         estimate D2E/DX2                !
 ! D22   D(4,5,6,18)           -61.1322         estimate D2E/DX2                !
 ! D23   D(4,5,6,19)          -178.5737         estimate D2E/DX2                !
 ! D24   D(7,5,6,17)           -61.5239         estimate D2E/DX2                !
 ! D25   D(7,5,6,18)           177.2403         estimate D2E/DX2                !
 ! D26   D(7,5,6,19)            59.7988         estimate D2E/DX2                !
 ! D27   D(16,5,6,17)          179.7245         estimate D2E/DX2                !
 ! D28   D(16,5,6,18)           58.4887         estimate D2E/DX2                !
 ! D29   D(16,5,6,19)          -58.9528         estimate D2E/DX2                !
 ! D30   D(4,5,7,8)             58.785          estimate D2E/DX2                !
 ! D31   D(4,5,7,9)           -179.3814         estimate D2E/DX2                !
 ! D32   D(4,5,7,20)           -60.611          estimate D2E/DX2                !
 ! D33   D(6,5,7,8)           -179.3949         estimate D2E/DX2                !
 ! D34   D(6,5,7,9)            -57.5613         estimate D2E/DX2                !
 ! D35   D(6,5,7,20)            61.2091         estimate D2E/DX2                !
 ! D36   D(16,5,7,8)           -60.2495         estimate D2E/DX2                !
 ! D37   D(16,5,7,9)            61.5841         estimate D2E/DX2                !
 ! D38   D(16,5,7,20)         -179.6455         estimate D2E/DX2                !
 ! D39   D(5,7,8,21)            59.4249         estimate D2E/DX2                !
 ! D40   D(5,7,8,22)           -61.8961         estimate D2E/DX2                !
 ! D41   D(5,7,8,23)           179.2806         estimate D2E/DX2                !
 ! D42   D(9,7,8,21)           -64.5647         estimate D2E/DX2                !
 ! D43   D(9,7,8,22)           174.1143         estimate D2E/DX2                !
 ! D44   D(9,7,8,23)            55.291          estimate D2E/DX2                !
 ! D45   D(20,7,8,21)          179.3439         estimate D2E/DX2                !
 ! D46   D(20,7,8,22)           58.0229         estimate D2E/DX2                !
 ! D47   D(20,7,8,23)          -60.8004         estimate D2E/DX2                !
 ! D48   D(5,7,9,24)           -59.3553         estimate D2E/DX2                !
 ! D49   D(5,7,9,25)          -179.5684         estimate D2E/DX2                !
 ! D50   D(5,7,9,26)            61.7458         estimate D2E/DX2                !
 ! D51   D(8,7,9,24)            65.2104         estimate D2E/DX2                !
 ! D52   D(8,7,9,25)           -55.0027         estimate D2E/DX2                !
 ! D53   D(8,7,9,26)          -173.6885         estimate D2E/DX2                !
 ! D54   D(20,7,9,24)         -178.6789         estimate D2E/DX2                !
 ! D55   D(20,7,9,25)           61.108          estimate D2E/DX2                !
 ! D56   D(20,7,9,26)          -57.5778         estimate D2E/DX2                !
 --------------------------------------------------------------------------------
 Trust Radius=3.00D-01 FncErr=1.00D-07 GrdErr=1.00D-06 EigMax=2.50D+02 EigMin=1.00D-04
 Number of steps in this run=    136 maximum allowed number of steps=    156.
 GradGradGradGradGradGradGradGradGradGradGradGradGradGradGradGradGradGrad

                          Input orientation:                          
 ---------------------------------------------------------------------
 Center     Atomic      Atomic             Coordinates (Angstroms)
 Number     Number       Type             X           Y           Z
 ---------------------------------------------------------------------
      1          6           0        0.965920   -0.086460    0.043470
      2          7           0        2.427100   -0.088400    0.046270
      3          7           0        2.862290   -1.047370   -0.908460
      4          7           0        4.286580   -1.030140   -0.950600
      5          6           0        4.789120   -2.040270   -1.912750
      6          6           0        4.293900   -1.713320   -3.334920
      7          6           0        6.349440   -2.081120   -1.873110
      8          6           0        6.899650   -2.418160   -0.479510
      9          6           0        6.918630   -3.104860   -2.866720
     10          1           0        0.597750    0.657280    0.755310
     11          1           0        0.565540   -1.065240    0.329200
     12          1           0        0.573340    0.181040   -0.944530
     13          1           0        2.757440   -0.327370    0.979180
     14          1           0        2.484910   -0.786230   -1.826790
     15          1           0        4.645030   -1.248880   -0.023310
     16          1           0        4.411770   -3.030780   -1.623710
     17          1           0        4.647910   -0.727440   -3.655960
     18          1           0        3.202280   -1.724400   -3.408710
     19          1           0        4.627860   -2.455160   -4.063540
     20          1           0        6.734400   -1.091360   -2.155070
     21          1           0        6.537070   -3.394470   -0.140810
     22          1           0        6.620260   -1.669940    0.267390
     23          1           0        7.994730   -2.450060   -0.494430
     24          1           0        6.546920   -4.111290   -2.645850
     25          1           0        8.012290   -3.126930   -2.821480
     26          1           0        6.658860   -2.863530   -3.900720
 ---------------------------------------------------------------------
                    Distance matrix (angstroms):
                    1          2          3          4          5
     1  C    0.000000
     2  N    1.461184   0.000000
     3  N    2.329321   1.421451   0.000000
     4  N    3.592421   2.310474   1.425017   0.000000
     5  C    4.718159   3.636852   2.388958   1.482782   0.000000
     6  C    5.013546   4.190197   2.894945   2.480276   1.541008
     7  C    6.052622   4.799969   3.762898   2.492183   1.561358
     8  C    6.396834   5.070299   4.285247   2.996107   2.579014
     9  C    7.281119   6.144785   4.951963   3.860527   2.564805
    10  H    1.093350   2.098880   3.286655   4.400566   5.653574
    11  H    1.095425   2.121243   2.609058   3.935131   4.880128
    12  H    1.096275   2.119129   2.597996   3.905784   4.862558
    13  H    2.035469   1.018112   2.023012   2.560509   3.927469
    14  H    2.508960   1.999666   1.026616   2.018221   2.624765
    15  H    3.858955   2.504150   2.000565   1.017939   2.053544
    16  H    4.829326   3.922416   2.616560   2.114547   1.098657
    17  H    5.258677   4.364273   3.292347   2.746117   2.186834
    18  H    4.427381   3.900550   2.612511   2.774889   2.203572
    19  H    5.990666   5.228330   3.879902   3.440574   2.196369
    20  H    6.254499   4.940107   4.068072   2.728794   2.177903
    21  H    6.481867   5.277968   4.427434   3.363112   2.833542
    22  H    5.876148   4.486954   3.986547   2.709042   2.871102
    23  H    7.435060   6.071927   5.336750   3.996829   3.529234
    24  H    7.387778   6.356420   5.097316   4.180490   2.813613
    25  H    8.191686   6.975027   5.874242   4.666651   3.520717
    26  H    7.461791   6.417778   5.163913   4.206214   2.850563
                    6          7          8          9         10
     6  C    0.000000
     7  C    2.549002   0.000000
     8  C    3.929389   1.535724   0.000000
     9  C    3.007458   1.535995   2.484087   0.000000
    10  H    6.000937   6.891253   7.120186   8.199166   0.000000
    11  H    5.267490   6.271816   6.527278   7.398358   1.774734
    12  H    4.810939   6.272397   6.855238   7.399639   1.765462
    13  H    4.784666   4.910566   4.863855   6.310380   2.384096
    14  H    2.531086   4.075963   4.895742   5.110320   3.508894
    15  H    3.362404   2.649414   2.580435   4.086429   4.540944
    16  H    2.162830   2.172238   2.806073   2.799091   5.814488
    17  H    1.095604   2.811798   4.244844   3.381005   6.146588
    18  H    1.094167   3.519934   4.767815   4.001335   5.458483
    19  H    1.092128   2.811001   4.243544   2.664979   7.010734
    20  H    2.781173   1.098781   2.143643   2.143494   7.013311
    21  H    4.249755   2.181962   1.095154   2.767679   7.245359
    22  H    4.288411   2.196395   1.093504   3.459865   6.474924
    23  H    4.723062   2.178039   1.095646   2.685985   8.119897
    24  H    3.361722   2.181219   2.772028   1.095378   8.348639
    25  H    4.011027   2.181329   2.687963   1.094818   9.060302
    26  H    2.690009   2.195247   3.458470   1.093104   8.414973
                   11         12         13         14         15
    11  H    0.000000
    12  H    1.782039   0.000000
    13  H    2.402364   2.954562   0.000000
    14  H    2.900021   2.316915   2.856273   0.000000
    15  H    4.098808   4.412706   2.327480   2.851790   0.000000
    16  H    4.740326   5.050804   4.101252   2.965137   2.406420
    17  H    5.715011   4.977882   5.021798   2.833353   3.669885
    18  H    4.621565   4.076053   4.626354   1.974146   3.710604
    19  H    6.142515   5.754729   5.784029   3.518609   4.216499
    20  H    6.650347   6.406486   5.120880   4.273059   2.989094
    21  H    6.426927   6.999737   4.994705   5.105433   2.863071
    22  H    6.085155   6.438953   4.150966   4.718861   2.040424
    23  H    7.601905   7.886844   5.840081   5.907760   3.589607
    24  H    7.342088   7.549983   6.466765   5.312891   4.322996
    25  H    8.344545   8.354854   7.063710   6.084424   4.763955
    26  H    7.632471   7.419031   6.742893   5.102766   4.657995
                   16         17         18         19         20
    16  H    0.000000
    17  H    3.080775   0.000000
    18  H    2.521055   1.773389   0.000000
    19  H    2.516109   1.775258   1.730633   0.000000
    20  H    3.072182   2.595872   3.801082   3.152732   0.000000
    21  H    2.616899   4.799818   4.958743   4.462645   3.066023
    22  H    3.210229   4.491230   5.019887   4.831478   2.493210
    23  H    3.801330   4.915679   5.655722   4.906566   2.488418
    24  H    2.602141   4.009614   4.179212   2.904376   3.065288
    25  H    3.795740   4.215799   5.044614   3.667200   2.494123
    26  H    3.203461   2.943927   3.672552   2.078037   2.488692
                   21         22         23         24         25
    21  H    0.000000
    22  H    1.774134   0.000000
    23  H    1.772493   1.754459   0.000000
    24  H    2.605600   3.801649   3.079683   0.000000
    25  H    3.071456   3.688046   2.423556   1.774012   0.000000
    26  H    3.799165   4.335815   3.682162   1.773171   1.750974
                   26
    26  H    0.000000
 Stoichiometry    C6H17N3
 Framework group  C1[X(C6H17N3)]
 Deg. of freedom    72
 Full point group                 C1      NOp   1
 Largest Abelian subgroup         C1      NOp   1
 Largest concise Abelian subgroup C1      NOp   1
                         Standard orientation:                         
 ---------------------------------------------------------------------
 Center     Atomic      Atomic             Coordinates (Angstroms)
 Number     Number       Type             X           Y           Z
 ---------------------------------------------------------------------
      1          6           0        3.978284    0.001445    0.211380
      2          7           0        2.743759   -0.575567   -0.315937
      3          7           0        1.655179    0.171500    0.210757
      4          7           0        0.444308   -0.350558   -0.329540
      5          6           0       -0.724737    0.379047    0.217867
      6          6           0       -0.659060    1.865866   -0.181835
      7          6           0       -2.046399   -0.269106   -0.302658
      8          6           0       -2.172470   -1.750872    0.080647
      9          6           0       -3.288126    0.463773    0.226760
     10          1           0        4.838648   -0.539620   -0.191655
     11          1           0        4.012453   -0.061392    1.304467
     12          1           0        4.081508    1.051706   -0.085463
     13          1           0        2.685978   -1.551987   -0.033420
     14          1           0        1.766807    1.152071   -0.072016
     15          1           0        0.369158   -1.333741   -0.076748
     16          1           0       -0.713712    0.304619    1.313945
     17          1           0       -0.663224    1.979060   -1.271568
     18          1           0        0.233529    2.363331    0.209336
     19          1           0       -1.495483    2.435712    0.228549
     20          1           0       -2.061737   -0.204141   -1.399410
     21          1           0       -2.151086   -1.877328    1.168266
     22          1           0       -1.373278   -2.359238   -0.351711
     23          1           0       -3.116017   -2.166371   -0.290190
     24          1           0       -3.311753    0.450425    1.321802
     25          1           0       -4.205832   -0.006845   -0.140610
     26          1           0       -3.323628    1.505190   -0.103492
 ---------------------------------------------------------------------
 Rotational constants (GHZ):           3.4394302           0.6895163           0.5980146
 Standard basis: 6-31G(2df,p) (6D, 7F)
 There are   364 symmetry adapted cartesian basis functions of A   symmetry.
 There are   337 symmetry adapted basis functions of A   symmetry.
   337 basis functions,   515 primitive gaussians,   364 cartesian basis functions
    37 alpha electrons       37 beta electrons
       nuclear repulsion energy       493.9113647911 Hartrees.
 NAtoms=   26 NActive=   26 NUniq=   26 SFac= 1.00D+00 NAtFMM=   60 NAOKFM=F Big=F
 Integral buffers will be    131072 words long.
 Raffenetti 2 integral format.
 Two-electron integral symmetry is turned on.
 One-electron integrals computed using PRISM.
 PrsmSu:  requested number of processors reduced to:  13 ShMem   1 Linda.
 NBasis=   337 RedAO= T EigKep=  2.73D-04  NBF=   337
 NBsUse=   337 1.00D-06 EigRej= -1.00D+00 NBFU=   337
 ExpMin= 1.61D-01 ExpMax= 4.17D+03 ExpMxC= 6.27D+02 IAcc=3 IRadAn=         5 AccDes= 0.00D+00
 Harris functional with IExCor=  402 and IRadAn=       5 diagonalized for initial guess.
 HarFok:  IExCor=  402 AccDes= 0.00D+00 IRadAn=         5 IDoV= 1 UseB2=F ITyADJ=14
 ICtDFT=  3500011 ScaDFX=  1.000000  1.000000  1.000000  1.000000
 FoFCou: FMM=F IPFlag=           0 FMFlag=      100000 FMFlg1=           0
         NFxFlg=           0 DoJE=T BraDBF=F KetDBF=T FulRan=T
         wScrn=  0.000000 ICntrl=       500 IOpCl=  0 I1Cent=   200000004 NGrid=           0
         NMat0=    1 NMatS0=      1 NMatT0=    0 NMatD0=    1 NMtDS0=    0 NMtDT0=    0
 Petite list used in FoFCou.
 Requested convergence on RMS density matrix=1.00D-08 within 128 cycles.
 Requested convergence on MAX density matrix=1.00D-06.
 Requested convergence on             energy=1.00D-06.
 No special actions if energy rises.
 Integral accuracy reduced to 1.0D-05 until final iterations.
 Initial convergence to 1.0D-05 achieved.  Increase integral accuracy.
 SCF Done:  E(RB3LYP) =  -403.068000515     A.U. after   12 cycles
            NFock= 12  Conv=0.29D-08     -V/T= 2.0082

 **********************************************************************

            Population analysis using the SCF density.

 **********************************************************************

 Orbital symmetries:
       Occupied  (A) (A) (A) (A) (A) (A) (A) (A) (A) (A) (A) (A)
                 (A) (A) (A) (A) (A) (A) (A) (A) (A) (A) (A) (A)
                 (A) (A) (A) (A) (A) (A) (A) (A) (A) (A) (A) (A)
                 (A)
       Virtual   (A) (A) (A) (A) (A) (A) (A) (A) (A) (A) (A) (A)
                 (A) (A) (A) (A) (A) (A) (A) (A) (A) (A) (A) (A)
                 (A) (A) (A) (A) (A) (A) (A) (A) (A) (A) (A) (A)
                 (A) (A) (A) (A) (A) (A) (A) (A) (A) (A) (A) (A)
                 (A) (A) (A) (A) (A) (A) (A) (A) (A) (A) (A) (A)
                 (A) (A) (A) (A) (A) (A) (A) (A) (A) (A) (A) (A)
                 (A) (A) (A) (A) (A) (A) (A) (A) (A) (A) (A) (A)
                 (A) (A) (A) (A) (A) (A) (A) (A) (A) (A) (A) (A)
                 (A) (A) (A) (A) (A) (A) (A) (A) (A) (A) (A) (A)
                 (A) (A) (A) (A) (A) (A) (A) (A) (A) (A) (A) (A)
                 (A) (A) (A) (A) (A) (A) (A) (A) (A) (A) (A) (A)
                 (A) (A) (A) (A) (A) (A) (A) (A) (A) (A) (A) (A)
                 (A) (A) (A) (A) (A) (A) (A) (A) (A) (A) (A) (A)
                 (A) (A) (A) (A) (A) (A) (A) (A) (A) (A) (A) (A)
                 (A) (A) (A) (A) (A) (A) (A) (A) (A) (A) (A) (A)
                 (A) (A) (A) (A) (A) (A) (A) (A) (A) (A) (A) (A)
                 (A) (A) (A) (A) (A) (A) (A) (A) (A) (A) (A) (A)
                 (A) (A) (A) (A) (A) (A) (A) (A) (A) (A) (A) (A)
                 (A) (A) (A) (A) (A) (A) (A) (A) (A) (A) (A) (A)
                 (A) (A) (A) (A) (A) (A) (A) (A) (A) (A) (A) (A)
                 (A) (A) (A) (A) (A) (A) (A) (A) (A) (A) (A) (A)
                 (A) (A) (A) (A) (A) (A) (A) (A) (A) (A) (A) (A)
                 (A) (A) (A) (A) (A) (A) (A) (A) (A) (A) (A) (A)
                 (A) (A) (A) (A) (A) (A) (A) (A) (A) (A) (A) (A)
                 (A) (A) (A) (A) (A) (A) (A) (A) (A) (A) (A) (A)
 The electronic state is 1-A.
 Alpha  occ. eigenvalues --  -14.34756 -14.32875 -14.32396 -10.20709 -10.19761
 Alpha  occ. eigenvalues --  -10.18564 -10.17295 -10.17161 -10.17017  -0.99099
 Alpha  occ. eigenvalues --   -0.87814  -0.79930  -0.73692  -0.71363  -0.67570
 Alpha  occ. eigenvalues --   -0.65083  -0.61208  -0.55221  -0.50712  -0.49565
 Alpha  occ. eigenvalues --   -0.45351  -0.44105  -0.43689  -0.42954  -0.40752
 Alpha  occ. eigenvalues --   -0.39390  -0.38406  -0.38224  -0.37308  -0.36899
 Alpha  occ. eigenvalues --   -0.36255  -0.34072  -0.32593  -0.31855  -0.31110
 Alpha  occ. eigenvalues --   -0.22820  -0.14896
 Alpha virt. eigenvalues --    0.07786   0.08665   0.09371   0.12101   0.12585
 Alpha virt. eigenvalues --    0.13828   0.14678   0.15224   0.15660   0.16287
 Alpha virt. eigenvalues --    0.16945   0.17850   0.18173   0.19074   0.19636
 Alpha virt. eigenvalues --    0.20720   0.21568   0.22261   0.22750   0.23977
 Alpha virt. eigenvalues --    0.24685   0.25958   0.27115   0.28003   0.30014
 Alpha virt. eigenvalues --    0.44509   0.44939   0.46386   0.47432   0.48643
 Alpha virt. eigenvalues --    0.51383   0.51987   0.53663   0.54514   0.54830
 Alpha virt. eigenvalues --    0.55935   0.57947   0.58795   0.59903   0.60494
 Alpha virt. eigenvalues --    0.62197   0.63818   0.66745   0.68338   0.68739
 Alpha virt. eigenvalues --    0.70231   0.71225   0.71817   0.72815   0.73813
 Alpha virt. eigenvalues --    0.73909   0.74538   0.74659   0.75264   0.75815
 Alpha virt. eigenvalues --    0.76165   0.77657   0.78972   0.80198   0.81018
 Alpha virt. eigenvalues --    0.82934   0.83729   0.84583   0.85252   0.85937
 Alpha virt. eigenvalues --    0.86914   0.88482   0.89831   0.90360   0.91457
 Alpha virt. eigenvalues --    0.93071   0.96982   0.99810   1.01494   1.05635
 Alpha virt. eigenvalues --    1.05895   1.08326   1.13852   1.18786   1.19588
 Alpha virt. eigenvalues --    1.21861   1.24275   1.26860   1.30401   1.31103
 Alpha virt. eigenvalues --    1.31293   1.34295   1.36764   1.38630   1.41015
 Alpha virt. eigenvalues --    1.43263   1.44124   1.46943   1.48183   1.48840
 Alpha virt. eigenvalues --    1.49427   1.51909   1.54626   1.55642   1.55823
 Alpha virt. eigenvalues --    1.58913   1.61546   1.62434   1.63519   1.66594
 Alpha virt. eigenvalues --    1.69797   1.72055   1.74029   1.75967   1.77608
 Alpha virt. eigenvalues --    1.79699   1.82349   1.84739   1.85631   1.89715
 Alpha virt. eigenvalues --    1.90318   1.94505   1.95018   1.95295   1.96341
 Alpha virt. eigenvalues --    1.97917   1.98503   1.99824   2.00769   2.04166
 Alpha virt. eigenvalues --    2.15065   2.19073   2.21379   2.24211   2.25793
 Alpha virt. eigenvalues --    2.28881   2.29277   2.31683   2.31936   2.33878
 Alpha virt. eigenvalues --    2.41560   2.42158   2.43818   2.45407   2.48328
 Alpha virt. eigenvalues --    2.49022   2.50806   2.54237   2.57180   2.60610
 Alpha virt. eigenvalues --    2.63150   2.68095   2.72167   2.74191   2.75820
 Alpha virt. eigenvalues --    2.76979   2.78627   2.79212   2.81135   2.82581
 Alpha virt. eigenvalues --    2.83451   2.83821   2.86484   2.86747   2.88188
 Alpha virt. eigenvalues --    2.89453   2.91525   2.93078   2.93830   2.95236
 Alpha virt. eigenvalues --    2.95859   2.96097   2.98821   2.98864   3.01176
 Alpha virt. eigenvalues --    3.01862   3.02810   3.05189   3.11520   3.12344
 Alpha virt. eigenvalues --    3.14311   3.15103   3.16912   3.18398   3.22371
 Alpha virt. eigenvalues --    3.23498   3.30639   3.34429   3.34665   3.35445
 Alpha virt. eigenvalues --    3.39058   3.41025   3.41349   3.44383   3.47530
 Alpha virt. eigenvalues --    3.48182   3.50585   3.52531   3.55996   3.59251
 Alpha virt. eigenvalues --    3.61520   3.63665   3.65130   3.66397   3.68242
 Alpha virt. eigenvalues --    3.69144   3.70144   3.72880   3.75123   3.77889
 Alpha virt. eigenvalues --    3.79037   3.80936   3.84246   3.87213   3.88474
 Alpha virt. eigenvalues --    3.89545   3.93789   3.95660   3.98831   3.99527
 Alpha virt. eigenvalues --    4.03446   4.04988   4.09508   4.09976   4.17457
 Alpha virt. eigenvalues --    4.20895   4.23437   4.26617   4.29614   4.31075
 Alpha virt. eigenvalues --    4.33767   4.35819   4.37851   4.39111   4.40828
 Alpha virt. eigenvalues --    4.42216   4.43261   4.45463   4.46763   4.49660
 Alpha virt. eigenvalues --    4.50326   4.51075   4.51646   4.52803   4.54003
 Alpha virt. eigenvalues --    4.55596   4.56273   4.58322   4.59940   4.61567
 Alpha virt. eigenvalues --    4.63434   4.64320   4.66866   4.68068   4.68827
 Alpha virt. eigenvalues --    4.72297   4.73043   4.74492   4.76754   4.79337
 Alpha virt. eigenvalues --    4.80006   4.81899   4.81976   4.83695   4.85987
 Alpha virt. eigenvalues --    4.86639   4.87764   4.90594   4.91994   4.94086
 Alpha virt. eigenvalues --    4.94536   4.99321   5.01050   5.03818   5.06677
 Alpha virt. eigenvalues --    5.09428   5.15751   5.19121   5.23926   5.26817
 Alpha virt. eigenvalues --    5.29861   5.31669   5.35884   5.39483   5.40114
 Alpha virt. eigenvalues --    5.45693   5.47361   5.52370   5.53834   5.56839
 Alpha virt. eigenvalues --    5.65989   5.73334   5.93140   8.04534  10.78031
 Alpha virt. eigenvalues --   11.21990  11.36553  11.45904  11.52766  11.62796
 Alpha virt. eigenvalues --   11.82140  12.14598  12.47983  12.82247  15.98362
          Condensed to atoms (all electrons):
               1          2          3          4          5          6
     1  C    4.912945   0.376218  -0.061646   0.004360  -0.000326  -0.000032
     2  N    0.376218   6.449828   0.243622  -0.030116   0.002955   0.000566
     3  N   -0.061646   0.243622   6.644927   0.240052  -0.048205  -0.005616
     4  N    0.004360  -0.030116   0.240052   6.554660   0.363213  -0.029057
     5  C   -0.000326   0.002955  -0.048205   0.363213   4.701303   0.367334
     6  C   -0.000032   0.000566  -0.005616  -0.029057   0.367334   5.059477
     7  C    0.000005  -0.000053   0.002346  -0.032777   0.412343  -0.023163
     8  C   -0.000000  -0.000008   0.000308  -0.002783  -0.022556   0.003637
     9  C   -0.000000   0.000001  -0.000065   0.001566  -0.038483  -0.008328
    10  H    0.380170  -0.022616   0.003076  -0.000133   0.000003   0.000000
    11  H    0.364065  -0.049998   0.018412   0.000153   0.000154  -0.000015
    12  H    0.377495  -0.024423  -0.006759   0.000128  -0.000052  -0.000003
    13  H   -0.046182   0.338143  -0.046846  -0.003013  -0.000755   0.000021
    14  H   -0.005604  -0.033149   0.317174  -0.037977  -0.011570   0.009085
    15  H   -0.000393  -0.001761  -0.040578   0.330714  -0.048318   0.006792
    16  H    0.000082  -0.000119   0.015575  -0.060265   0.336353  -0.061795
    17  H    0.000010  -0.000025  -0.000498   0.002010  -0.019771   0.361597
    18  H    0.000030   0.000073   0.000317  -0.004217  -0.019284   0.363138
    19  H   -0.000000  -0.000005   0.000062   0.002355  -0.019266   0.371959
    20  H    0.000000   0.000005  -0.000021   0.001915  -0.034726  -0.008036
    21  H   -0.000000  -0.000000  -0.000036  -0.000749  -0.006204   0.000063
    22  H    0.000000   0.000014   0.000069  -0.000013  -0.004642  -0.000056
    23  H   -0.000000  -0.000000  -0.000004   0.000095   0.003429  -0.000130
    24  H    0.000000   0.000000   0.000001   0.000056  -0.005777  -0.000586
    25  H    0.000000  -0.000000   0.000000  -0.000061   0.002925   0.000181
    26  H    0.000000   0.000000   0.000003   0.000043  -0.004018  -0.000480
               7          8          9         10         11         12
     1  C    0.000005  -0.000000  -0.000000   0.380170   0.364065   0.377495
     2  N   -0.000053  -0.000008   0.000001  -0.022616  -0.049998  -0.024423
     3  N    0.002346   0.000308  -0.000065   0.003076   0.018412  -0.006759
     4  N   -0.032777  -0.002783   0.001566  -0.000133   0.000153   0.000128
     5  C    0.412343  -0.022556  -0.038483   0.000003   0.000154  -0.000052
     6  C   -0.023163   0.003637  -0.008328   0.000000  -0.000015  -0.000003
     7  C    4.654940   0.393958   0.389749  -0.000000   0.000001  -0.000000
     8  C    0.393958   5.028751  -0.047383  -0.000000  -0.000000   0.000000
     9  C    0.389749  -0.047383   5.027350   0.000000   0.000000  -0.000000
    10  H   -0.000000  -0.000000   0.000000   0.585899  -0.036483  -0.028796
    11  H    0.000001  -0.000000   0.000000  -0.036483   0.659624  -0.047973
    12  H   -0.000000   0.000000  -0.000000  -0.028796  -0.047973   0.597032
    13  H   -0.000029  -0.000003  -0.000000  -0.000952  -0.008807   0.006092
    14  H   -0.000433   0.000012  -0.000016  -0.000397  -0.002134   0.008154
    15  H   -0.007076   0.007580  -0.000225  -0.000003  -0.000057   0.000033
    16  H   -0.034237  -0.009836  -0.000527   0.000001   0.000031  -0.000006
    17  H   -0.006230   0.000033   0.000314   0.000000   0.000001  -0.000003
    18  H    0.003708  -0.000161   0.000338  -0.000000   0.000019  -0.000038
    19  H   -0.006944   0.000096   0.000749   0.000000  -0.000000   0.000000
    20  H    0.353520  -0.044620  -0.041580   0.000000   0.000000  -0.000000
    21  H   -0.024997   0.370047  -0.004874   0.000000   0.000000  -0.000000
    22  H   -0.021535   0.364852   0.005388   0.000000   0.000000  -0.000000
    23  H   -0.020206   0.371242  -0.005589  -0.000000  -0.000000   0.000000
    24  H   -0.026175  -0.004979   0.371798   0.000000  -0.000000   0.000000
    25  H   -0.021949  -0.004857   0.372489  -0.000000   0.000000   0.000000
    26  H   -0.022105   0.005090   0.370866   0.000000  -0.000000   0.000000
              13         14         15         16         17         18
     1  C   -0.046182  -0.005604  -0.000393   0.000082   0.000010   0.000030
     2  N    0.338143  -0.033149  -0.001761  -0.000119  -0.000025   0.000073
     3  N   -0.046846   0.317174  -0.040578   0.015575  -0.000498   0.000317
     4  N   -0.003013  -0.037977   0.330714  -0.060265   0.002010  -0.004217
     5  C   -0.000755  -0.011570  -0.048318   0.336353  -0.019771  -0.019284
     6  C    0.000021   0.009085   0.006792  -0.061795   0.361597   0.363138
     7  C   -0.000029  -0.000433  -0.007076  -0.034237  -0.006230   0.003708
     8  C   -0.000003   0.000012   0.007580  -0.009836   0.000033  -0.000161
     9  C   -0.000000  -0.000016  -0.000225  -0.000527   0.000314   0.000338
    10  H   -0.000952  -0.000397  -0.000003   0.000001   0.000000  -0.000000
    11  H   -0.008807  -0.002134  -0.000057   0.000031   0.000001   0.000019
    12  H    0.006092   0.008154   0.000033  -0.000006  -0.000003  -0.000038
    13  H    0.523735   0.006556   0.006733  -0.000085  -0.000001  -0.000015
    14  H    0.006556   0.501432   0.006234  -0.001741   0.000165   0.002041
    15  H    0.006733   0.006234   0.523025  -0.006737  -0.000172  -0.000154
    16  H   -0.000085  -0.001741  -0.006737   0.741488   0.006966  -0.002355
    17  H   -0.000001   0.000165  -0.000172   0.006966   0.590642  -0.034432
    18  H   -0.000015   0.002041  -0.000154  -0.002355  -0.034432   0.610160
    19  H    0.000000  -0.000357  -0.000189   0.000091  -0.030918  -0.029949
    20  H   -0.000001  -0.000020  -0.000316   0.007900   0.005954  -0.000061
    21  H   -0.000000  -0.000000   0.000576   0.005874   0.000014   0.000001
    22  H   -0.000025  -0.000011   0.002934   0.000654   0.000010  -0.000000
    23  H    0.000000   0.000000  -0.000311  -0.000227  -0.000002   0.000002
    24  H    0.000000  -0.000000  -0.000002   0.005558   0.000111  -0.000046
    25  H   -0.000000  -0.000000  -0.000005  -0.000089  -0.000040  -0.000001
    26  H    0.000000   0.000002  -0.000002   0.000029   0.000928  -0.000156
              19         20         21         22         23         24
     1  C   -0.000000   0.000000  -0.000000   0.000000  -0.000000   0.000000
     2  N   -0.000005   0.000005  -0.000000   0.000014  -0.000000   0.000000
     3  N    0.000062  -0.000021  -0.000036   0.000069  -0.000004   0.000001
     4  N    0.002355   0.001915  -0.000749  -0.000013   0.000095   0.000056
     5  C   -0.019266  -0.034726  -0.006204  -0.004642   0.003429  -0.005777
     6  C    0.371959  -0.008036   0.000063  -0.000056  -0.000130  -0.000586
     7  C   -0.006944   0.353520  -0.024997  -0.021535  -0.020206  -0.026175
     8  C    0.000096  -0.044620   0.370047   0.364852   0.371242  -0.004979
     9  C    0.000749  -0.041580  -0.004874   0.005388  -0.005589   0.371798
    10  H    0.000000   0.000000   0.000000   0.000000  -0.000000   0.000000
    11  H   -0.000000   0.000000   0.000000   0.000000  -0.000000  -0.000000
    12  H    0.000000  -0.000000  -0.000000  -0.000000   0.000000   0.000000
    13  H    0.000000  -0.000001  -0.000000  -0.000025   0.000000   0.000000
    14  H   -0.000357  -0.000020  -0.000000  -0.000011   0.000000  -0.000000
    15  H   -0.000189  -0.000316   0.000576   0.002934  -0.000311  -0.000002
    16  H    0.000091   0.007900   0.005874   0.000654  -0.000227   0.005558
    17  H   -0.030918   0.005954   0.000014   0.000010  -0.000002   0.000111
    18  H   -0.029949  -0.000061   0.000001  -0.000000   0.000002  -0.000046
    19  H    0.585897   0.000306   0.000001   0.000000  -0.000003   0.001162
    20  H    0.000306   0.676986   0.006214  -0.002542  -0.003135   0.006155
    21  H    0.000001   0.006214   0.602985  -0.034336  -0.032429   0.004801
    22  H    0.000000  -0.002542  -0.034336   0.608038  -0.030685  -0.000044
    23  H   -0.000003  -0.003135  -0.032429  -0.030685   0.599724  -0.000140
    24  H    0.001162   0.006155   0.004801  -0.000044  -0.000140   0.602452
    25  H   -0.000078  -0.002554  -0.000082   0.000015   0.004507  -0.032404
    26  H    0.003054  -0.003133  -0.000050  -0.000224  -0.000031  -0.033810
              25         26
     1  C    0.000000   0.000000
     2  N   -0.000000   0.000000
     3  N    0.000000   0.000003
     4  N   -0.000061   0.000043
     5  C    0.002925  -0.004018
     6  C    0.000181  -0.000480
     7  C   -0.021949  -0.022105
     8  C   -0.004857   0.005090
     9  C    0.372489   0.370866
    10  H   -0.000000   0.000000
    11  H    0.000000  -0.000000
    12  H    0.000000   0.000000
    13  H   -0.000000   0.000000
    14  H   -0.000000   0.000002
    15  H   -0.000005  -0.000002
    16  H   -0.000089   0.000029
    17  H   -0.000040   0.000928
    18  H   -0.000001  -0.000156
    19  H   -0.000078   0.003054
    20  H   -0.002554  -0.003133
    21  H   -0.000082  -0.000050
    22  H    0.000015  -0.000224
    23  H    0.004507  -0.000031
    24  H   -0.032404  -0.033810
    25  H    0.603369  -0.031471
    26  H   -0.031471   0.600835
 Mulliken charges:
               1
     1  C   -0.301197
     2  N   -0.249153
     3  N   -0.275670
     4  N   -0.300158
     5  C    0.093941
     6  C   -0.406553
     7  C    0.037341
     8  C   -0.408420
     9  C   -0.393538
    10  H    0.120232
    11  H    0.103006
    12  H    0.119117
    13  H    0.225434
    14  H    0.242554
    15  H    0.221678
    16  H    0.057419
    17  H    0.123338
    18  H    0.111043
    19  H    0.121976
    20  H    0.081789
    21  H    0.113181
    22  H    0.112139
    23  H    0.113894
    24  H    0.111870
    25  H    0.110105
    26  H    0.114631
 Sum of Mulliken charges =  -0.00000
 Mulliken charges with hydrogens summed into heavy atoms:
               1
     1  C    0.041158
     2  N   -0.023719
     3  N   -0.033116
     4  N   -0.078480
     5  C    0.151360
     6  C   -0.050196
     7  C    0.119130
     8  C   -0.069206
     9  C   -0.056931
 Electronic spatial extent (au):  <R**2>=           1985.3978
 Charge=             -0.0000 electrons
 Dipole moment (field-independent basis, Debye):
    X=             -0.1794    Y=             -0.1950    Z=              0.8224  Tot=              0.8640
 Quadrupole moment (field-independent basis, Debye-Ang):
   XX=            -54.6015   YY=            -54.0697   ZZ=            -62.8157
   XY=             -0.3553   XZ=              1.8445   YZ=             -1.3751
 Traceless Quadrupole moment (field-independent basis, Debye-Ang):
   XX=              2.5608   YY=              3.0926   ZZ=             -5.6534
   XY=             -0.3553   XZ=              1.8445   YZ=             -1.3751
 Octapole moment (field-independent basis, Debye-Ang**2):
  XXX=             28.6651  YYY=             -4.6851  ZZZ=              1.1526  XYY=             12.7582
  XXY=             -4.0835  XXZ=              1.0421  XZZ=             -4.4657  YZZ=              0.4218
  YYZ=             -0.6849  XYZ=             -3.0643
 Hexadecapole moment (field-independent basis, Debye-Ang**3):
 XXXX=          -2005.9359 YYYY=           -456.4748 ZZZZ=           -126.4356 XXXY=             -7.6568
 XXXZ=             14.9463 YYYX=            -15.5079 YYYZ=              2.6903 ZZZX=              1.9248
 ZZZY=             -4.0686 XXYY=           -402.7385 XXZZ=           -386.7870 YYZZ=            -99.4391
 XXYZ=             -4.0848 YYXZ=              1.2203 ZZXY=              0.9114
 N-N= 4.939113647911D+02 E-N=-1.923347189335D+03  KE= 3.997709981497D+02
 PrsmSu:  requested number of processors reduced to:  13 ShMem   1 Linda.
 Calling FoFJK, ICntrl=      2127 FMM=F ISym2X=0 I1Cent= 0 IOpClX= 0 NMat=1 NMatS=1 NMatT=0.
 ***** Axes restored to original set *****
 -------------------------------------------------------------------
 Center     Atomic                   Forces (Hartrees/Bohr)
 Number     Number              X              Y              Z
 -------------------------------------------------------------------
      1        6           0.004042509   -0.003334011    0.009225839
      2        7          -0.011582055    0.038018422   -0.005480697
      3        7          -0.014741190   -0.044231385    0.010075851
      4        7           0.027365850    0.015722276   -0.023931392
      5        6           0.004652728    0.005526111    0.002924880
      6        6          -0.003106554    0.000026956    0.001297539
      7        6          -0.000445522   -0.002177433    0.001835303
      8        6          -0.001829116    0.003413336    0.001783186
      9        6          -0.001161631    0.001569879   -0.004205654
     10        1           0.001822657    0.000991439    0.000072419
     11        1          -0.005859951   -0.003550899   -0.002447115
     12        1           0.002861978    0.000182490   -0.000495885
     13        1          -0.000148774   -0.010237251   -0.005064727
     14        1           0.010504296    0.010998347    0.009989786
     15        1          -0.008595355   -0.004877449   -0.001682695
     16        1          -0.001126197   -0.005260630   -0.002226051
     17        1           0.000126832   -0.000110478    0.001020609
     18        1          -0.000351149    0.000594641    0.001400157
     19        1           0.001652810   -0.000125621    0.001919146
     20        1          -0.003658522    0.000697926    0.000414128
     21        1           0.000106473   -0.000832293    0.000663002
     22        1           0.000204854    0.000266916    0.001360060
     23        1          -0.000854906   -0.000678071   -0.000274612
     24        1           0.000471269   -0.000946390   -0.000536776
     25        1          -0.000259541   -0.000447919    0.002217803
     26        1          -0.000091793   -0.001198910    0.000145893
 -------------------------------------------------------------------
 Cartesian Forces:  Max     0.044231385 RMS     0.009047137

 GradGradGradGradGradGradGradGradGradGradGradGradGradGradGradGradGradGrad
 Berny optimization.
 FormGI is forming the generalized inverse of G from B-inverse, IUseBI=4.
 Internal  Forces:  Max     0.014788913 RMS     0.003953138
 Search for a local minimum.
 Step number   1 out of a maximum of  136
 All quantities printed in internal units (Hartrees-Bohrs-Radians)
 Mixed Optimization -- RFO/linear search
 Second derivative matrix not updated -- first step.
 ITU=  0
     Eigenvalues ---    0.00230   0.00230   0.00290   0.00293   0.00597
     Eigenvalues ---    0.00882   0.00964   0.01011   0.03351   0.03490
     Eigenvalues ---    0.03645   0.04079   0.04300   0.04449   0.04683
     Eigenvalues ---    0.05055   0.05260   0.05324   0.05336   0.05352
     Eigenvalues ---    0.05480   0.05513   0.05648   0.07236   0.07482
     Eigenvalues ---    0.11133   0.11397   0.11726   0.16000   0.16000
     Eigenvalues ---    0.16000   0.16000   0.16000   0.16000   0.16000
     Eigenvalues ---    0.16000   0.16000   0.16000   0.16000   0.16000
     Eigenvalues ---    0.16261   0.16433   0.17121   0.17746   0.23437
     Eigenvalues ---    0.23510   0.23547   0.26708   0.28430   0.28877
     Eigenvalues ---    0.28901   0.33817   0.33831   0.34097   0.34168
     Eigenvalues ---    0.34173   0.34193   0.34198   0.34224   0.34253
     Eigenvalues ---    0.34262   0.34335   0.34411   0.34428   0.34456
     Eigenvalues ---    0.34568   0.36816   0.41714   0.42243   0.43299
     Eigenvalues ---    0.44641   0.44668
 RFO step:  Lambda=-1.73155152D-02 EMin= 2.30000000D-03
 Linear search not attempted -- first point.
 Iteration  1 RMS(Cart)=  0.07848784 RMS(Int)=  0.00296575
 Iteration  2 RMS(Cart)=  0.00441019 RMS(Int)=  0.00144282
 Iteration  3 RMS(Cart)=  0.00002763 RMS(Int)=  0.00144279
 Iteration  4 RMS(Cart)=  0.00000020 RMS(Int)=  0.00144279
 Variable       Old X    -DE/DX   Delta X   Delta X   Delta X     New X
                                 (Linear)    (Quad)   (Total)
    R1        2.76124  -0.00289   0.00000  -0.00749  -0.00749   2.75375
    R2        2.06613   0.00011   0.00000   0.00030   0.00030   2.06643
    R3        2.07005   0.00468   0.00000   0.01302   0.01302   2.08307
    R4        2.07166  -0.00053   0.00000  -0.00149  -0.00149   2.07017
    R5        2.68615   0.01479   0.00000   0.03363   0.03363   2.71978
    R6        1.92395  -0.00229   0.00000  -0.00493  -0.00493   1.91902
    R7        2.69289   0.01370   0.00000   0.03153   0.03153   2.72442
    R8        1.94002  -0.01000   0.00000  -0.02221  -0.02221   1.91782
    R9        2.80205  -0.00846   0.00000  -0.02350  -0.02350   2.77855
   R10        1.92363  -0.00351   0.00000  -0.00757  -0.00757   1.91606
   R11        2.91208  -0.00458   0.00000  -0.01519  -0.01519   2.89689
   R12        2.95054  -0.00742   0.00000  -0.02609  -0.02609   2.92445
   R13        2.07616   0.00454   0.00000   0.01278   0.01278   2.08894
   R14        2.07039  -0.00036   0.00000  -0.00100  -0.00100   2.06940
   R15        2.06768   0.00025   0.00000   0.00069   0.00069   2.06837
   R16        2.06382  -0.00069   0.00000  -0.00190  -0.00190   2.06192
   R17        2.90210   0.00188   0.00000   0.00613   0.00613   2.90823
   R18        2.90261   0.00183   0.00000   0.00599   0.00599   2.90861
   R19        2.07640  -0.00076   0.00000  -0.00214  -0.00214   2.07426
   R20        2.06954   0.00091   0.00000   0.00254   0.00254   2.07208
   R21        2.06642   0.00106   0.00000   0.00293   0.00293   2.06935
   R22        2.07047  -0.00083   0.00000  -0.00231  -0.00231   2.06816
   R23        2.06996   0.00060   0.00000   0.00167   0.00167   2.07164
   R24        2.06891  -0.00016   0.00000  -0.00044  -0.00044   2.06847
   R25        2.06567  -0.00038   0.00000  -0.00105  -0.00105   2.06462
    A1        1.91388  -0.00289   0.00000  -0.01487  -0.01539   1.89848
    A2        1.94316   0.00835   0.00000   0.05201   0.05207   1.99523
    A3        1.93923  -0.00593   0.00000  -0.03982  -0.03989   1.89934
    A4        1.89115   0.00025   0.00000   0.01387   0.01353   1.90468
    A5        1.87569   0.00205   0.00000   0.00163   0.00091   1.87659
    A6        1.89886  -0.00189   0.00000  -0.01327  -0.01281   1.88606
    A7        1.88154   0.00732   0.00000   0.01148   0.01053   1.89207
    A8        1.90343  -0.00062   0.00000  -0.02638  -0.02869   1.87474
    A9        1.93667  -0.01035   0.00000  -0.10781  -0.10899   1.82767
   A10        1.89411   0.00026   0.00000  -0.02780  -0.03158   1.86253
   A11        1.89300  -0.00674   0.00000  -0.10445  -0.11308   1.77993
   A12        1.91546  -0.00715   0.00000  -0.10684  -0.11527   1.80019
   A13        1.92804   0.00496   0.00000   0.00053  -0.00084   1.92720
   A14        1.89908  -0.00780   0.00000  -0.09474  -0.09702   1.80205
   A15        1.90219  -0.00197   0.00000  -0.04336  -0.04638   1.85581
   A16        1.92345  -0.00114   0.00000  -0.00767  -0.00738   1.91608
   A17        1.91776  -0.00607   0.00000  -0.03608  -0.03595   1.88181
   A18        1.90399   0.00365   0.00000   0.02540   0.02530   1.92929
   A19        1.92850   0.00701   0.00000   0.03191   0.03179   1.96030
   A20        1.90044  -0.00256   0.00000  -0.00901  -0.00905   1.89138
   A21        1.88911  -0.00087   0.00000  -0.00415  -0.00404   1.88507
   A22        1.93639  -0.00071   0.00000  -0.00563  -0.00568   1.93072
   A23        1.96135  -0.00093   0.00000  -0.00406  -0.00407   1.95728
   A24        1.95338  -0.00259   0.00000  -0.01419  -0.01423   1.93916
   A25        1.88780   0.00078   0.00000   0.00364   0.00362   1.89142
   A26        1.89329   0.00146   0.00000   0.00607   0.00600   1.89929
   A27        1.82679   0.00232   0.00000   0.01609   0.01609   1.84287
   A28        1.96797  -0.00296   0.00000  -0.01811  -0.01832   1.94965
   A29        1.95124   0.00123   0.00000   0.00970   0.00987   1.96111
   A30        1.89656  -0.00089   0.00000  -0.02139  -0.02154   1.87503
   A31        1.88386   0.00215   0.00000   0.01826   0.01829   1.90215
   A32        1.88077   0.00052   0.00000   0.00042  -0.00008   1.88069
   A33        1.88025   0.00005   0.00000   0.01228   0.01228   1.89254
   A34        1.93658   0.00047   0.00000   0.00196   0.00194   1.93853
   A35        1.95856   0.00139   0.00000   0.00948   0.00947   1.96802
   A36        1.93063  -0.00058   0.00000  -0.00424  -0.00424   1.92640
   A37        1.89036  -0.00074   0.00000  -0.00241  -0.00244   1.88792
   A38        1.88511  -0.00043   0.00000  -0.00557  -0.00558   1.87953
   A39        1.85938  -0.00020   0.00000   0.00020   0.00020   1.85958
   A40        1.93499   0.00121   0.00000   0.00478   0.00472   1.93971
   A41        1.93572  -0.00229   0.00000  -0.01411  -0.01410   1.92162
   A42        1.95702   0.00166   0.00000   0.01258   0.01258   1.96960
   A43        1.88823  -0.00038   0.00000  -0.00833  -0.00836   1.87987
   A44        1.88908  -0.00122   0.00000  -0.00465  -0.00471   1.88437
   A45        1.85556   0.00096   0.00000   0.00933   0.00937   1.86493
    D1       -3.12198  -0.00291   0.00000  -0.07866  -0.07876   3.08244
    D2        1.05697   0.00561   0.00000   0.05970   0.05945   1.11642
    D3        1.06853  -0.00663   0.00000  -0.11933  -0.11957   0.94896
    D4       -1.03571   0.00188   0.00000   0.01903   0.01865  -1.01706
    D5       -1.05099  -0.00587   0.00000  -0.11070  -0.11015  -1.16113
    D6        3.12797   0.00264   0.00000   0.02765   0.02806  -3.12715
    D7        3.10808  -0.00552   0.00000  -0.07673  -0.07488   3.03320
    D8        1.02802   0.00674   0.00000   0.12672   0.12294   1.15095
    D9       -1.09187  -0.00778   0.00000  -0.16475  -0.16097  -1.25284
   D10        3.11125   0.00448   0.00000   0.03870   0.03685  -3.13509
   D11        3.11825   0.00327   0.00000   0.02221   0.02035   3.13860
   D12        1.03075   0.00754   0.00000   0.13406   0.13001   1.16076
   D13       -1.09904  -0.00883   0.00000  -0.18173  -0.17768  -1.27672
   D14        3.09665  -0.00455   0.00000  -0.06987  -0.06802   3.02863
   D15        1.08293   0.00286   0.00000   0.10346   0.10299   1.18592
   D16       -3.07108   0.00688   0.00000   0.11456   0.11446  -2.95662
   D17       -1.00269   0.00443   0.00000   0.10343   0.10298  -0.89971
   D18       -3.11463  -0.00493   0.00000  -0.03955  -0.03935   3.12921
   D19       -0.98546  -0.00091   0.00000  -0.02846  -0.02788  -1.01334
   D20        1.08293  -0.00336   0.00000  -0.03958  -0.03936   1.04357
   D21        1.04901  -0.00196   0.00000  -0.01888  -0.01890   1.03010
   D22       -1.06696  -0.00181   0.00000  -0.01671  -0.01672  -1.08368
   D23       -3.11670  -0.00238   0.00000  -0.02490  -0.02489  -3.14159
   D24       -1.07379   0.00178   0.00000   0.01042   0.01043  -1.06336
   D25        3.09343   0.00194   0.00000   0.01259   0.01262   3.10604
   D26        1.04369   0.00136   0.00000   0.00441   0.00445   1.04814
   D27        3.13678   0.00025   0.00000   0.00203   0.00200   3.13879
   D28        1.02082   0.00040   0.00000   0.00420   0.00418   1.02500
   D29       -1.02892  -0.00018   0.00000  -0.00399  -0.00398  -1.03290
   D30        1.02599  -0.00113   0.00000  -0.02973  -0.02942   0.99658
   D31       -3.13080   0.00043   0.00000  -0.01190  -0.01172   3.14067
   D32       -1.05786   0.00066   0.00000  -0.00458  -0.00455  -1.06241
   D33       -3.13103  -0.00199   0.00000  -0.04233  -0.04232   3.10983
   D34       -1.00463  -0.00042   0.00000  -0.02450  -0.02462  -1.02925
   D35        1.06830  -0.00019   0.00000  -0.01719  -0.01745   1.05085
   D36       -1.05155  -0.00153   0.00000  -0.03715  -0.03707  -1.08862
   D37        1.07484   0.00003   0.00000  -0.01932  -0.01937   1.05547
   D38       -3.13541   0.00026   0.00000  -0.01200  -0.01220   3.13558
   D39        1.03716   0.00142   0.00000   0.01495   0.01492   1.05208
   D40       -1.08029   0.00107   0.00000   0.01006   0.01001  -1.07028
   D41        3.12904   0.00081   0.00000   0.00646   0.00643   3.13546
   D42       -1.12687   0.00029   0.00000   0.00155   0.00161  -1.12526
   D43        3.03887  -0.00006   0.00000  -0.00335  -0.00330   3.03557
   D44        0.96501  -0.00032   0.00000  -0.00695  -0.00688   0.95813
   D45        3.13014  -0.00114   0.00000  -0.02245  -0.02247   3.10767
   D46        1.01269  -0.00149   0.00000  -0.02735  -0.02738   0.98531
   D47       -1.06117  -0.00175   0.00000  -0.03095  -0.03097  -1.09213
   D48       -1.03595   0.00002   0.00000  -0.00035  -0.00040  -1.03634
   D49       -3.13406   0.00122   0.00000   0.01633   0.01626  -3.11780
   D50        1.07767   0.00046   0.00000   0.00574   0.00573   1.08340
   D51        1.13814  -0.00139   0.00000  -0.00389  -0.00387   1.13427
   D52       -0.95998  -0.00019   0.00000   0.01279   0.01279  -0.94719
   D53       -3.03144  -0.00095   0.00000   0.00220   0.00226  -3.02918
   D54       -3.11854   0.00035   0.00000   0.01235   0.01236  -3.10617
   D55        1.06654   0.00156   0.00000   0.02903   0.02902   1.09556
   D56       -1.00492   0.00079   0.00000   0.01845   0.01849  -0.98643
         Item               Value     Threshold  Converged?
 Maximum Force            0.014789     0.000450     NO 
 RMS     Force            0.003953     0.000300     NO 
 Maximum Displacement     0.256242     0.001800     NO 
 RMS     Displacement     0.079721     0.001200     NO 
 Predicted change in Energy=-1.046772D-02
 GradGradGradGradGradGradGradGradGradGradGradGradGradGradGradGradGradGrad

                          Input orientation:                          
 ---------------------------------------------------------------------
 Center     Atomic      Atomic             Coordinates (Angstroms)
 Number     Number       Type             X           Y           Z
 ---------------------------------------------------------------------
      1          6           0        1.015295   -0.077930    0.108899
      2          7           0        2.470749   -0.111781    0.045648
      3          7           0        2.861332   -1.131875   -0.891522
      4          7           0        4.292374   -1.035050   -1.037292
      5          6           0        4.781796   -2.050776   -1.981051
      6          6           0        4.286855   -1.726388   -3.395195
      7          6           0        6.326488   -2.076184   -1.890482
      8          6           0        6.808007   -2.358533   -0.456312
      9          6           0        6.951926   -3.112047   -2.841720
     10          1           0        0.712725    0.653087    0.863766
     11          1           0        0.548219   -1.049468    0.339216
     12          1           0        0.627418    0.265080   -0.856497
     13          1           0        2.806348   -0.444908    0.944339
     14          1           0        2.514151   -0.756638   -1.768227
     15          1           0        4.637900   -1.305249   -0.123144
     16          1           0        4.406605   -3.052398   -1.701885
     17          1           0        4.636371   -0.737064   -3.708679
     18          1           0        3.194648   -1.744235   -3.464262
     19          1           0        4.638290   -2.468026   -4.114231
     20          1           0        6.688994   -1.080032   -2.175278
     21          1           0        6.445193   -3.331065   -0.102969
     22          1           0        6.484663   -1.593579    0.257438
     23          1           0        7.901602   -2.377809   -0.418410
     24          1           0        6.590352   -4.122631   -2.618611
     25          1           0        8.040818   -3.115867   -2.730294
     26          1           0        6.741875   -2.903495   -3.893406
 ---------------------------------------------------------------------
                    Distance matrix (angstroms):
                    1          2          3          4          5
     1  C    0.000000
     2  N    1.457221   0.000000
     3  N    2.349360   1.439248   0.000000
     4  N    3.601260   2.311601   1.441702   0.000000
     5  C    4.737777   3.634301   2.391575   1.470345   0.000000
     6  C    5.069436   4.212433   2.941757   2.457170   1.532970
     7  C    6.016586   4.740696   3.727861   2.439163   1.547554
     8  C    6.251089   4.910363   4.155760   2.901302   2.554422
     9  C    7.290789   6.117142   4.945433   3.826630   2.564471
    10  H    1.093508   2.084464   3.299036   4.390640   5.653423
    11  H    1.102313   2.159065   2.621450   3.989195   4.930459
    12  H    1.095487   2.086566   2.634973   3.892933   4.887399
    13  H    2.010101   1.015503   1.960952   2.546252   3.878029
    14  H    2.496160   1.925582   1.014864   1.942641   2.619599
    15  H    3.831895   2.479798   1.943362   1.013935   2.007071
    16  H    4.860801   3.930475   2.594796   2.127070   1.105418
    17  H    5.302881   4.379026   3.353060   2.709878   2.175244
    18  H    4.504845   3.938071   2.665535   2.756470   2.193837
    19  H    6.055863   5.249259   3.915193   3.411837   2.178337
    20  H    6.197784   4.864525   4.037538   2.653455   2.148830
    21  H    6.333369   5.116843   4.278120   3.283181   2.816598
    22  H    5.677432   4.283933   3.829074   2.606609   2.849494
    23  H    7.279335   5.902914   5.213493   3.900326   3.504566
    24  H    7.408115   6.336901   5.082622   4.161061   2.823109
    25  H    8.163825   6.910575   5.843319   4.609434   3.509560
    26  H    7.536311   6.446110   5.216183   4.201016   2.868126
                    6          7          8          9         10
     6  C    0.000000
     7  C    2.558637   0.000000
     8  C    3.923372   1.538969   0.000000
     9  C    3.054340   1.539168   2.505727   0.000000
    10  H    6.047731   6.822693   6.925672   8.175237   0.000000
    11  H    5.327423   6.278065   6.444491   7.441777   1.789109
    12  H    4.878771   6.247403   6.726305   7.439456   1.765540
    13  H    4.760845   4.805066   4.651564   6.215600   2.365449
    14  H    2.594208   4.036095   4.767010   5.137527   3.487098
    15  H    3.317666   2.563037   2.435112   4.001236   4.496229
    16  H    2.154053   2.162062   2.792782   2.789523   5.827344
    17  H    1.095078   2.820563   4.233563   3.428404   6.183427
    18  H    1.094534   3.520709   4.741465   4.046678   5.535244
    19  H    1.091122   2.819329   4.254414   2.717897   7.066248
    20  H    2.770604   1.097651   2.145594   2.154614   6.924975
    21  H    4.251137   2.187241   1.096497   2.793833   7.047641
    22  H    4.264941   2.207145   1.095055   3.482651   6.223376
    23  H    4.727789   2.176914   1.094421   2.704333   7.906343
    24  H    3.413380   2.188091   2.799098   1.096264   8.335522
    25  H    4.057707   2.173741   2.695250   1.094585   8.990174
    26  H    2.767837   2.206512   3.480657   1.092547   8.463488
                   11         12         13         14         15
    11  H    0.000000
    12  H    1.778774   0.000000
    13  H    2.414708   2.914589   0.000000
    14  H    2.896887   2.331292   2.746010   0.000000
    15  H    4.123675   4.368948   2.287856   2.741821   0.000000
    16  H    4.802600   5.099275   4.045037   2.975954   2.366105
    17  H    5.761600   5.021050   5.008484   2.875683   3.630276
    18  H    4.685374   4.174741   4.612461   2.077248   3.665891
    19  H    6.210811   5.845494   5.747882   3.597854   4.157022
    20  H    6.635716   6.347536   5.020989   4.207088   2.910148
    21  H    6.338416   6.880885   4.761087   4.985364   2.714894
    22  H    5.961888   6.245221   3.914240   4.535279   1.907488
    23  H    7.510707   7.751808   5.617366   5.785744   3.448089
    24  H    7.395974   7.610101   6.367019   5.354295   4.239937
    25  H    8.356490   8.360647   6.930845   6.085686   4.653538
    26  H    7.727476   7.526572   6.703492   5.196060   4.603910
                   16         17         18         19         20
    16  H    0.000000
    17  H    3.072587   0.000000
    18  H    2.507211   1.775584   0.000000
    19  H    2.492907   1.777837   1.740814   0.000000
    20  H    3.053461   2.584996   3.783265   3.145068   0.000000
    21  H    2.605768   4.796022   4.937850   4.483299   3.069374
    22  H    3.207089   4.458686   4.969703   4.825479   2.494712
    23  H    3.783831   4.917280   5.642166   4.931170   2.498245
    24  H    2.598949   4.058122   4.231158   2.963975   3.076310
    25  H    3.777453   4.266872   5.089739   3.729903   2.506012
    26  H    3.205998   3.026664   3.756444   2.159507   2.505949
                   21         22         23         24         25
    21  H    0.000000
    22  H    1.774912   0.000000
    23  H    1.768990   1.754852   0.000000
    24  H    2.641231   3.831309   3.099139   0.000000
    25  H    3.081423   3.696690   2.430826   1.769152   0.000000
    26  H    3.825997   4.360223   3.700933   1.770411   1.756469
                   26
    26  H    0.000000
 Stoichiometry    C6H17N3
 Framework group  C1[X(C6H17N3)]
 Deg. of freedom    72
 Full point group                 C1      NOp   1
 Largest Abelian subgroup         C1      NOp   1
 Largest concise Abelian subgroup C1      NOp   1
                         Standard orientation:                         
 ---------------------------------------------------------------------
 Center     Atomic      Atomic             Coordinates (Angstroms)
 Number     Number       Type             X           Y           Z
 ---------------------------------------------------------------------
      1          6           0        3.969681   -0.023452    0.186666
      2          7           0        2.711470   -0.555049   -0.321075
      3          7           0        1.631015    0.177913    0.284581
      4          7           0        0.417322   -0.272960   -0.349587
      5          6           0       -0.746666    0.425764    0.215063
      6          6           0       -0.703657    1.906866   -0.177981
      7          6           0       -2.021368   -0.282821   -0.302590
      8          6           0       -2.028740   -1.778231    0.060895
      9          6           0       -3.310450    0.368246    0.229777
     10          1           0        4.792741   -0.615563   -0.222891
     11          1           0        4.046213   -0.010483    1.286243
     12          1           0        4.090788    1.003708   -0.174397
     13          1           0        2.614459   -1.500420    0.036849
     14          1           0        1.762848    1.106437   -0.103250
     15          1           0        0.343271   -1.238666   -0.049600
     16          1           0       -0.742131    0.357883    1.318386
     17          1           0       -0.703939    2.016935   -1.267513
     18          1           0        0.181185    2.413725    0.219703
     19          1           0       -1.559281    2.446795    0.230591
     20          1           0       -2.019507   -0.204462   -1.397439
     21          1           0       -1.996177   -1.919894    1.147714
     22          1           0       -1.189037   -2.325541   -0.380123
     23          1           0       -2.941085   -2.255897   -0.309536
     24          1           0       -3.341045    0.346350    1.325395
     25          1           0       -4.186247   -0.175202   -0.138680
     26          1           0       -3.424509    1.406745   -0.089862
 ---------------------------------------------------------------------
 Rotational constants (GHZ):           3.3878912           0.7006218           0.6055511
 Standard basis: 6-31G(2df,p) (6D, 7F)
 There are   364 symmetry adapted cartesian basis functions of A   symmetry.
 There are   337 symmetry adapted basis functions of A   symmetry.
   337 basis functions,   515 primitive gaussians,   364 cartesian basis functions
    37 alpha electrons       37 beta electrons
       nuclear repulsion energy       495.2706937403 Hartrees.
 NAtoms=   26 NActive=   26 NUniq=   26 SFac= 1.00D+00 NAtFMM=   60 NAOKFM=F Big=F
 Integral buffers will be    131072 words long.
 Raffenetti 2 integral format.
 Two-electron integral symmetry is turned on.
 One-electron integrals computed using PRISM.
 PrsmSu:  requested number of processors reduced to:  13 ShMem   1 Linda.
 NBasis=   337 RedAO= T EigKep=  2.79D-04  NBF=   337
 NBsUse=   337 1.00D-06 EigRej= -1.00D+00 NBFU=   337
 Initial guess from the checkpoint file:  "CNNNCpCpCpCpC.chk"
 B after Tr=    -0.000000   -0.000000   -0.000000
         Rot=    0.999969   -0.003739   -0.000230   -0.006956 Ang=  -0.91 deg.
 ExpMin= 1.61D-01 ExpMax= 4.17D+03 ExpMxC= 6.27D+02 IAcc=2 IRadAn=         4 AccDes= 0.00D+00
 Harris functional with IExCor=  402 and IRadAn=       4 diagonalized for initial guess.
 HarFok:  IExCor=  402 AccDes= 0.00D+00 IRadAn=         4 IDoV= 1 UseB2=F ITyADJ=14
 ICtDFT=  3500011 ScaDFX=  1.000000  1.000000  1.000000  1.000000
 FoFCou: FMM=F IPFlag=           0 FMFlag=      100000 FMFlg1=           0
         NFxFlg=           0 DoJE=T BraDBF=F KetDBF=T FulRan=T
         wScrn=  0.000000 ICntrl=       500 IOpCl=  0 I1Cent=   200000004 NGrid=           0
         NMat0=    1 NMatS0=      1 NMatT0=    0 NMatD0=    1 NMtDS0=    0 NMtDT0=    0
 Petite list used in FoFCou.
 Requested convergence on RMS density matrix=1.00D-08 within 128 cycles.
 Requested convergence on MAX density matrix=1.00D-06.
 Requested convergence on             energy=1.00D-06.
 No special actions if energy rises.
 Integral accuracy reduced to 1.0D-05 until final iterations.
 Initial convergence to 1.0D-05 achieved.  Increase integral accuracy.
 SCF Done:  E(RB3LYP) =  -403.077493056     A.U. after   10 cycles
            NFock= 10  Conv=0.57D-08     -V/T= 2.0080
 PrsmSu:  requested number of processors reduced to:  13 ShMem   1 Linda.
 Calling FoFJK, ICntrl=      2127 FMM=F ISym2X=0 I1Cent= 0 IOpClX= 0 NMat=1 NMatS=1 NMatT=0.
 ***** Axes restored to original set *****
 -------------------------------------------------------------------
 Center     Atomic                   Forces (Hartrees/Bohr)
 Number     Number              X              Y              Z
 -------------------------------------------------------------------
      1        6          -0.001230459   -0.001107574    0.000632943
      2        7          -0.000466658    0.014204876    0.007441996
      3        7          -0.011634684   -0.016802375   -0.005559329
      4        7           0.012813028    0.007069586   -0.002377362
      5        6           0.000459549   -0.001383116    0.000479224
      6        6          -0.000705537   -0.000365674   -0.000567746
      7        6           0.001274262   -0.002038280    0.000322556
      8        6           0.000571940    0.000902875    0.000262291
      9        6          -0.000085714    0.001449317    0.000217641
     10        1           0.000671384   -0.000207783    0.000104131
     11        1           0.000260316    0.000036289   -0.000916695
     12        1          -0.000988289    0.000435167   -0.000431600
     13        1          -0.000286867   -0.001580662    0.003189516
     14        1          -0.001985162    0.001536016   -0.004378605
     15        1           0.000750339   -0.000693625    0.001462182
     16        1          -0.000720293   -0.000632005   -0.000813475
     17        1          -0.000007570    0.000094560    0.000075549
     18        1           0.000044132    0.000459859    0.001272496
     19        1           0.001051460   -0.000135578   -0.000324850
     20        1          -0.000752259    0.000377605   -0.000373463
     21        1          -0.000027208   -0.000271240    0.000114658
     22        1           0.001466924   -0.000385666   -0.000515962
     23        1           0.000119395   -0.000578268   -0.000000028
     24        1          -0.000007851   -0.000138222   -0.000009668
     25        1           0.000089410   -0.000525941    0.000606305
     26        1          -0.000673586    0.000279858    0.000087296
 -------------------------------------------------------------------
 Cartesian Forces:  Max     0.016802375 RMS     0.003572271

 GradGradGradGradGradGradGradGradGradGradGradGradGradGradGradGradGradGrad
 Berny optimization.
 Using GEDIIS/GDIIS optimizer.
 FormGI is forming the generalized inverse of G from B-inverse, IUseBI=4.
 Internal  Forces:  Max     0.015787833 RMS     0.002278642
 Search for a local minimum.
 Step number   2 out of a maximum of  136
 All quantities printed in internal units (Hartrees-Bohrs-Radians)
 Mixed Optimization -- RFO/linear search
 Update second derivatives using D2CorX and points    1    2
 DE= -9.49D-03 DEPred=-1.05D-02 R= 9.07D-01
 TightC=F SS=  1.41D+00  RLast= 5.05D-01 DXNew= 5.0454D-01 1.5161D+00
 Trust test= 9.07D-01 RLast= 5.05D-01 DXMaxT set to 5.05D-01
 ITU=  1  0
 Use linear search instead of GDIIS.
     Eigenvalues ---    0.00230   0.00232   0.00290   0.00293   0.00605
     Eigenvalues ---    0.00885   0.00963   0.01009   0.03439   0.03946
     Eigenvalues ---    0.04050   0.04161   0.04609   0.04622   0.04944
     Eigenvalues ---    0.05222   0.05261   0.05313   0.05407   0.05463
     Eigenvalues ---    0.05534   0.05549   0.05975   0.07014   0.07715
     Eigenvalues ---    0.10897   0.10971   0.11075   0.15703   0.16000
     Eigenvalues ---    0.16000   0.16000   0.16000   0.16000   0.16000
     Eigenvalues ---    0.16000   0.16000   0.16000   0.16000   0.16064
     Eigenvalues ---    0.16543   0.16798   0.17135   0.18122   0.23783
     Eigenvalues ---    0.24069   0.25076   0.26930   0.28362   0.28886
     Eigenvalues ---    0.28936   0.33668   0.33818   0.34081   0.34130
     Eigenvalues ---    0.34169   0.34173   0.34198   0.34219   0.34259
     Eigenvalues ---    0.34268   0.34336   0.34425   0.34436   0.34456
     Eigenvalues ---    0.34576   0.36802   0.39877   0.41989   0.44183
     Eigenvalues ---    0.44653   0.45811
 RFO step:  Lambda=-2.67390060D-03 EMin= 2.29989328D-03
 Quartic linear search produced a step of  0.04504.
 Iteration  1 RMS(Cart)=  0.05521817 RMS(Int)=  0.00151840
 Iteration  2 RMS(Cart)=  0.00185863 RMS(Int)=  0.00013951
 Iteration  3 RMS(Cart)=  0.00000203 RMS(Int)=  0.00013951
 Iteration  4 RMS(Cart)=  0.00000000 RMS(Int)=  0.00013951
 Variable       Old X    -DE/DX   Delta X   Delta X   Delta X     New X
                                 (Linear)    (Quad)   (Total)
    R1        2.75375   0.00124  -0.00034   0.00267   0.00233   2.75608
    R2        2.06643  -0.00025   0.00001  -0.00073  -0.00071   2.06572
    R3        2.08307  -0.00033   0.00059   0.00038   0.00097   2.08404
    R4        2.07017   0.00087  -0.00007   0.00246   0.00239   2.07256
    R5        2.71978   0.01543   0.00151   0.04130   0.04281   2.76260
    R6        1.91902   0.00325  -0.00022   0.00698   0.00675   1.92578
    R7        2.72442   0.01579   0.00142   0.04244   0.04386   2.76828
    R8        1.91782   0.00503  -0.00100   0.00960   0.00860   1.92642
    R9        2.77855   0.00216  -0.00106   0.00399   0.00293   2.78148
   R10        1.91606   0.00176  -0.00034   0.00325   0.00291   1.91897
   R11        2.89689  -0.00053  -0.00068  -0.00353  -0.00422   2.89268
   R12        2.92445   0.00203  -0.00117   0.00506   0.00388   2.92833
   R13        2.08894   0.00061   0.00058   0.00322   0.00380   2.09274
   R14        2.06940   0.00006  -0.00004   0.00008   0.00004   2.06943
   R15        2.06837  -0.00013   0.00003  -0.00032  -0.00029   2.06808
   R16        2.06192   0.00064  -0.00009   0.00172   0.00163   2.06356
[...]
 164,0.00011124,0.00003931,0.00013965,0.00007954,-0.00016062,-0.0006363
 8,-0.00011645,0.00004015,-0.00025387,0.00018495,-0.00176872,0.00082119
 ,-0.00434057,0.00214948,0.05434348,-0.28005801,-0.06677102,0.00039755,
 -0.00064943,-0.00035590,-0.00023954,0.00017714,0.00000667,0.00151729,0
 .00001130,-0.00071609,0.00002429,-0.00000728,-0.00004044,0.00000950,-0
 .00002973,-0.00000233,-0.00001470,-0.00000176,0.00002916,0.00010516,-0
 .00005371,-0.00004992,0.00000048,0.00001770,-0.00000863,0.00064134,0.0
 0022360,-0.00040194,-0.00005825,0.00083387,-0.00050490,0.00542457,-0.0
 1755389,-0.00568290,0.00039731,-0.00370088,-0.00050178,-0.06274286,0.3
 0425054,-0.00003442,0.00007039,-0.00002651,0.00011407,0.00005558,-0.00
 008078,-0.00060892,0.00018731,0.00054792,-0.00310749,-0.00201170,-0.00
 686728,0.00906814,-0.02925170,-0.00379959,0.01538042,-0.06367228,-0.06
 658306,0.00059572,-0.00013279,0.00041459,0.00004514,0.00001167,-0.0000
 0993,-0.00033020,-0.00013391,0.00015769,0.00003617,-0.00000094,-0.0000
 2641,0.00001961,-0.00001487,0.00000531,0.00000516,0.00002019,0.0000657
 9,0.00010820,-0.00005649,-0.00005438,0.00005259,-0.00002379,-0.0001844
 1,0.00133949,-0.00169391,-0.00115395,0.00064139,0.00068255,0.00108129,
 -0.00566965,0.01770129,0.00532908,-0.00026453,0.00445854,0.00019625,-0
 .01687275,0.07303766,0.07066137,-0.00001544,0.00001860,-0.00017307,0.0
 0010297,0.00035391,-0.00007499,-0.00003213,0.00025546,-0.00028487,0.00
 263187,-0.00036998,-0.00005290,-0.01723590,-0.02848944,0.01635906,0.00
 107665,0.00000002,0.00176328,-0.07972913,-0.07052421,0.04231014,0.0023
 8899,0.00541904,-0.00396224,0.00504199,0.01372894,-0.00699041,0.000003
 45,-0.00001850,-0.00001486,-0.00002386,0.00005963,0.00004528,0.0000103
 2,0.00000686,0.00001833,0.00013520,-0.00004992,-0.00008198,-0.00001996
 ,0.00007447,0.00007943,-0.00028843,-0.00015192,0.00035612,-0.00614556,
 0.00010323,-0.00130861,0.00032823,0.00033986,-0.00104181,0.00020048,0.
 00040868,-0.00012500,0.00003856,0.00007771,-0.00001488,0.09015960,0.00
 003062,-0.00002439,-0.00004022,0.00007557,0.00003837,-0.00009226,-0.00
 028817,0.00015987,-0.00013203,0.00103576,0.00100731,-0.00017305,-0.001
 95717,-0.00312288,0.00193926,0.00017983,-0.00010728,0.00021651,-0.0710
 0523,-0.20104408,0.09556369,0.00147011,0.00330163,-0.00264452,-0.00911
 518,-0.02455873,0.01191926,-0.00000116,-0.00000375,0.00000326,-0.00001
 034,0.00001814,-0.00000487,-0.00000051,-0.00000086,0.00000045,0.000061
 63,-0.00002657,0.00001515,-0.00008270,0.00000334,0.00005332,-0.0001777
 5,-0.00002413,0.00002825,-0.00043072,0.00054874,-0.00050595,-0.0002569
 4,0.00012331,-0.00074193,0.00006502,0.00024127,-0.00019727,0.00009288,
 0.00013159,0.00002095,0.07687202,0.22305275,-0.00004326,0.00000063,-0.
 00001224,-0.00006750,-0.00010087,0.00008951,0.00022329,-0.00025969,-0.
 00000229,-0.00019288,-0.00003538,0.00002786,-0.00149044,-0.00334794,0.
 00138616,-0.00018896,-0.00098550,0.00114617,0.04257731,0.09534817,-0.1
 0561379,0.01187333,0.02567349,-0.01964700,-0.00418240,-0.01105870,0.00
 533332,-0.00001883,0.00000149,0.00001251,0.00001832,-0.00000078,0.0000
 2015,0.00000197,0.00003472,-0.00001184,-0.00004619,0.00000444,0.000029
 68,0.00006681,-0.00001487,0.00001534,0.00017456,0.00037392,-0.00036681
 ,-0.00093714,-0.00030544,0.00047353,0.00019480,0.00025362,0.00008124,0
 .00011158,0.00011282,0.00003474,-0.00011743,-0.00004985,-0.00000127,-0
 .04659757,-0.10250796,0.11981580,-0.00003120,0.00006657,0.00006167,0.0
 0010345,-0.00004982,0.00001334,-0.00009108,0.00000956,-0.00005900,-0.0
 0014831,-0.00019180,0.00026471,0.00120573,0.00143960,-0.00061055,0.000
 06402,-0.00002147,-0.00014237,0.00245612,0.00597649,-0.00433086,-0.092
 21557,-0.08005183,0.05748974,-0.00017181,-0.00014461,0.00029275,0.0000
 0106,0.00000309,-0.00000485,0.00001787,-0.00002953,-0.00000149,-0.0000
 1177,0.00001280,-0.00000228,0.00000224,-0.00001678,0.00000009,0.000004
 28,-0.00001931,-0.00000138,0.00026410,0.00017944,-0.00005442,0.0001401
 0,-0.00031930,0.00013521,-0.00011903,-0.00008732,0.00005094,-0.0000023
 6,-0.00001515,0.00005190,-0.00000195,0.00001083,0.00001345,0.00040641,
 0.00003501,-0.00184195,0.09625049,0.00009413,-0.00004886,-0.00005081,-
 0.00018909,0.00013148,-0.00014725,-0.00003335,-0.00001442,0.00023606,0
 .00037098,0.00008227,-0.00021325,-0.00028996,0.00027636,0.00007132,0.0
 0026731,0.00019450,-0.00020763,0.00194020,0.00157996,-0.00084992,-0.07
 963422,-0.18872526,0.09962015,0.00028463,0.00100529,-0.00021287,0.0000
 4110,-0.00000417,-0.00002394,-0.00004531,0.00002668,-0.00002745,0.0000
 0393,-0.00008355,0.00002554,0.00001280,0.00001940,-0.00003089,0.000011
 65,0.00002745,-0.00002782,-0.00050108,-0.00044341,0.00026512,0.0005588
 2,0.00021032,0.00020569,-0.00009767,-0.00004356,-0.00010737,0.00002473
 ,0.00000524,0.00007062,-0.00002162,-0.00000643,0.00000933,0.00003271,0
 .00119840,-0.00076799,0.08880930,0.20322625,-0.00002681,0.00002512,0.0
 0004481,0.00006730,-0.00005877,0.00004249,-0.00005880,0.00012388,-0.00
 003646,-0.00026560,-0.00045473,0.00007443,0.00225042,0.00134905,0.0012
 9025,-0.00007179,-0.00034045,0.00006402,0.01365375,0.02544374,-0.01895
 446,0.05698108,0.09968066,-0.11755318,-0.00003803,0.00145850,0.0013799
 1,0.00000323,0.00000543,0.00000707,0.00001076,-0.00001968,-0.00000633,
 0.00000095,-0.00000431,0.00000293,-0.00002342,0.00001103,0.00000326,-0
 .00003393,-0.00000512,0.00000710,-0.00000330,0.00014795,-0.00015571,-0
 .00109247,-0.00073918,0.00036361,0.00003201,-0.00008306,0.00032935,-0.
 00005782,-0.00007201,0.00002628,-0.00004024,-0.00003154,-0.00002930,-0
 .00162444,-0.00149442,-0.00628802,-0.06196028,-0.11104340,0.13105822,-
 0.00008655,0.00002735,0.00000304,0.00003547,-0.00003216,0.00001900,0.0
 0003072,0.00003414,-0.00004060,-0.00141722,0.00037938,-0.00090461,0.00
 008121,-0.00040417,0.00058759,0.00012133,0.00012772,-0.00007163,0.0015
 1431,-0.00726575,-0.00153307,-0.07142040,0.07145073,0.02998708,-0.0003
 5418,0.00006473,-0.00068919,0.00002375,0.00000613,-0.00000439,0.000041
 62,-0.00001249,0.00001096,-0.00001730,0.00005365,0.00004701,0.00002663
 ,-0.00002761,0.00000328,0.00001896,-0.00000032,-0.00003036,-0.00232975
 ,0.00069080,-0.00179191,-0.00005434,0.00002904,-0.00008143,-0.00001108
 ,0.00000167,-0.00000488,0.00002208,0.00000844,0.00004309,-0.00000002,0
 .00001842,0.00004919,0.00020182,0.00020725,0.00055435,0.00427660,-0.01
 265559,-0.00581522,0.07808017,-0.00016939,0.00002099,-0.00007005,-0.00
 001128,-0.00008533,-0.00011493,0.00033447,0.00042644,0.00079274,0.0005
 0295,-0.00028893,-0.00003481,0.00109407,-0.00117465,-0.00070526,-0.000
 30449,0.00022061,0.00001698,-0.00004010,-0.00164102,0.00067376,0.07179
 064,-0.24553091,-0.08373373,-0.00049084,0.00118078,-0.00130191,0.00003
 520,0.00000179,-0.00002229,0.00006033,-0.00000596,0.00003993,0.0000092
 2,0.00012093,0.00002836,0.00006745,-0.00008842,0.00002627,-0.00002130,
 0.00003579,-0.00000702,0.00010163,0.00128125,0.00090273,-0.00001035,0.
 00018712,-0.00012007,0.00000772,-0.00003325,0.00001167,-0.00005165,-0.
 00005277,-0.00015878,0.00004684,0.00006919,0.00011781,-0.00021185,0.00
 080207,-0.00051443,0.00879538,-0.02026337,-0.00872689,-0.08205071,0.26
 596335,-0.00000689,0.00010750,0.00000661,0.00000301,0.00000776,-0.0001
 3536,0.00003437,0.00043427,0.00056030,-0.00016887,0.00016510,-0.000308
 13,0.00109070,-0.00067617,0.00049737,-0.00009444,0.00011446,0.00001215
 ,0.01208028,-0.02796207,-0.00859703,0.02991415,-0.08283390,-0.08206825
 ,-0.00246008,0.00071461,-0.00677792,0.00004441,-0.00000366,-0.00003237
 ,-0.00000611,-0.00002921,-0.00001046,-0.00000984,-0.00002162,0.0000506
 9,0.00005674,-0.00004323,-0.00004850,-0.00006336,0.00004521,-0.0000297
 2,-0.00238287,0.00031994,0.00040287,-0.00014844,0.00010826,-0.00000138
 ,0.00003468,-0.00004625,0.00000597,-0.00003471,0.00002068,-0.00007583,
 0.00008546,0.00013355,0.00013584,0.00050924,0.00052449,0.00140195,-0.0
 0664700,0.01477439,0.00621917,-0.03165017,0.09240336,0.08854870,0.0000
 4879,-0.00012711,-0.00005254,-0.00010109,0.00013265,0.00008350,-0.0001
 2409,-0.00010459,-0.00008988,0.00032134,-0.00014042,-0.00007444,0.0012
 5967,0.00057697,-0.00153891,-0.00039414,0.00026963,0.00030380,-0.00729
 793,0.00005603,-0.00039921,-0.30331333,0.00931344,-0.03372159,0.000370
 89,0.00043435,0.00135372,-0.00002473,0.00000210,0.00003286,-0.00003674
 ,0.00004878,-0.00000212,0.00001403,-0.00002411,-0.00002753,-0.00002895
 ,0.00003012,0.00001607,-0.00002906,0.00000623,0.00005635,0.00007423,-0
 .00035558,-0.00020451,0.00034527,0.00009075,0.00010298,-0.00000157,0.0
 0003592,-0.00009393,-0.00003717,-0.00006842,-0.00017784,0.00001362,-0.
 00010871,-0.00006838,0.00039203,0.00028413,-0.00041618,-0.01256585,0.0
 0127229,-0.00160387,-0.01001425,0.00030969,-0.00079239,0.32980671,-0.0
 0003816,0.00003169,-0.00004782,-0.00006575,-0.00000423,-0.00014865,0.0
 0017134,0.00014812,0.00044711,0.00022454,0.00004991,-0.00004465,-0.000
 15637,-0.00072287,-0.00138353,-0.00032536,0.00038959,-0.00010542,-0.00
 266198,-0.00106683,-0.00013817,0.01050421,-0.04642077,0.00219489,-0.00
 124391,0.00016353,-0.00039954,0.00003780,-0.00000454,-0.00002594,0.000
 01351,-0.00000035,0.00000804,-0.00000822,0.00002093,0.00003253,0.00004
 435,-0.00004158,-0.00000418,-0.00000085,0.00003113,-0.00002420,-0.0006
 3057,0.00037780,0.00034070,0.00045564,0.00032074,-0.00008538,-0.000008
 86,0.00000127,-0.00006582,-0.00001800,-0.00002652,-0.00015332,-0.00000
 410,0.00000005,0.00007708,0.00037152,0.00000424,-0.00007640,-0.0245909
 7,0.00126135,-0.00365059,0.02928976,-0.00148320,0.00359622,-0.01157950
 ,0.04703353,-0.00008126,-0.00001759,-0.00002414,0.00003866,-0.00003066
 ,0.00004898,0.00014334,0.00016465,0.00016549,0.00019087,-0.00061357,-0
 .00027975,0.00137287,-0.00076939,-0.00664704,-0.00217942,0.00034028,0.
 00035089,-0.03326112,-0.00026923,-0.00531116,-0.03214971,0.00198597,-0
 .04914288,-0.00161421,0.00091625,0.00136722,-0.00000470,0.00000965,0.0
 0002014,0.00001962,0.00000431,0.00001706,0.00000043,0.00005011,0.00000
 556,-0.00000221,-0.00002189,0.00001923,-0.00005415,0.00000876,0.000044
 83,-0.00004337,0.00026009,0.00012656,0.00001637,-0.00020663,0.00007682
 ,0.00006653,0.00005735,0.00001357,-0.00020987,-0.00016915,-0.00075910,
 0.00003973,-0.00008949,0.00001751,0.00050989,0.00048261,0.00110428,0.0
 1699453,-0.00187407,0.00181473,0.01151541,0.00009792,0.00085112,0.0374
 3632,-0.00003900,0.05609111,0.00000321,0.00001501,0.00003097,-0.000017
 45,-0.00005697,-0.00000917,0.00000777,-0.00012052,0.00001818,-0.000170
 46,-0.00008642,0.00012391,0.00143285,0.00097271,-0.00108452,0.00009382
 ,0.00004958,-0.00004998,0.00578556,0.01344557,-0.00714773,0.00012412,-
 0.00042844,-0.00058485,-0.08512911,-0.08174822,0.04175535,0.00000494,0
 .00000149,-0.00000670,0.00000425,-0.00001350,-0.00000612,-0.00000208,-
 0.00000372,0.00000061,-0.00001715,0.00000579,0.00000754,0.00003858,-0.
 00001079,-0.00001790,0.00006820,0.00003440,-0.00005358,0.00005460,-0.0
 0033745,0.00039132,-0.00000272,-0.00003017,0.00015320,-0.00002595,-0.0
 0009857,0.00000299,-0.00002332,-0.00004706,-0.00011044,-0.00080010,0.0
 0305853,0.00114257,0.00018685,-0.00028804,0.00001403,-0.00006057,-0.00
 002000,-0.00019682,-0.00003539,-0.00009734,0.00018978,0.08952053,0.000
 01080,0.00000182,-0.00002026,0.00002789,0.00004468,-0.00005286,0.00005
 370,0.00002675,-0.00003533,0.00025508,0.00076386,-0.00017772,-0.002032
 05,0.00024785,0.00045673,0.00035752,-0.00012826,-0.00003885,-0.0104048
 8,-0.02464151,0.01235406,-0.00037863,0.00090268,0.00138339,-0.08144424
 ,-0.21852637,0.08812040,0.00000900,-0.00000410,-0.00001324,-0.00000480
 ,0.00000684,-0.00000157,0.00000202,-0.00000202,0.00000898,0.00003884,-
 0.00002512,-0.00001228,-0.00000343,-0.00000621,-0.00000340,-0.00014146
 ,-0.00008451,0.00013593,0.00108356,0.00045718,-0.00037456,-0.00011613,
 0.00013192,-0.00018150,0.00006384,0.00008342,0.00005921,0.00007879,0.0
 0003755,0.00025434,0.00310323,-0.00378641,-0.00284846,0.00015251,0.000
 27339,-0.00108225,0.00026368,0.00042510,-0.00019461,0.00001002,-0.0000
 4495,-0.00011465,0.08813380,0.24243998,0.00000668,0.00000662,0.0000130
 7,0.00002138,0.00001564,0.00000259,-0.00006825,0.00008832,-0.00006343,
 -0.00005178,-0.00021965,-0.00004471,-0.00019486,0.00036091,0.00048267,
 0.00007572,0.00054416,-0.00002102,-0.00525263,-0.00923803,0.00435117,-
 0.00061283,-0.00039449,0.00125768,0.04158184,0.08819297,-0.09325104,0.
 00000255,-0.00000061,-0.00000042,-0.00000172,-0.00000270,-0.00000452,-
 0.00000302,-0.00000860,-0.00000133,-0.00000151,0.00001316,-0.00000635,
 -0.00002656,0.00000281,-0.00000411,0.00001799,-0.00005710,0.00000668,-
 0.00014610,0.00015481,0.00006094,-0.00002117,-0.00024399,0.00008640,-0
 .00008842,-0.00015535,0.00005066,0.00001839,-0.00011297,-0.00025586,0.
 00100667,-0.00222241,0.00002728,0.00029370,0.00016881,0.00002947,0.000
 02571,0.00027631,0.00007600,-0.00004709,-0.00002650,-0.00001156,-0.047
 03930,-0.09673292,0.09700012,-0.00002749,-0.00011195,-0.00006847,-0.00
 006155,0.00004565,0.00011681,-0.00005986,0.00044560,0.00002022,-0.0009
 2012,-0.00045380,-0.00056847,0.00110487,0.00333425,0.00107566,0.000167
 85,-0.00016818,0.00030611,-0.01536948,-0.00110231,-0.00309692,0.000212
 56,-0.00111706,-0.00107676,-0.29420120,-0.01062069,-0.05627989,-0.0000
 1983,0.00000561,0.00004059,-0.00001019,0.00004011,0.00000774,0.0000129
 2,0.00001611,-0.00001187,-0.00002521,0.00000669,0.00003354,-0.00016781
 ,0.00002197,0.00013029,-0.00009871,0.00001164,0.00007244,0.00029264,-0
 .00008310,0.00000833,-0.00000050,0.00007041,-0.00006583,-0.00000061,0.
 00004697,-0.00004315,0.00000665,0.00012983,0.00009499,0.00064487,0.000
 31463,-0.00020427,-0.00000435,0.00002759,0.00001947,0.00062300,-0.0000
 7030,-0.00006938,0.00087546,0.00021865,0.00086513,-0.01164092,-0.00032
 632,-0.00298679,0.32087945,0.00002841,0.00006787,0.00002136,0.00002422
 ,0.00000402,-0.00006991,0.00031104,-0.00062239,0.00001035,0.00167627,0
 .00076329,0.00043491,-0.00001566,-0.00485910,-0.00248245,-0.00026313,-
 0.00036987,-0.00050945,0.02844714,0.00027815,0.00538761,0.00062755,0.0
 0088610,0.00122250,-0.01203738,-0.04625255,-0.00205097,0.00000913,-0.0
 0000673,-0.00002958,0.00000018,-0.00001376,-0.00000049,-0.00000727,-0.
 00000766,0.00000790,0.00003631,-0.00002761,-0.00003199,0.00023544,-0.0
 0004781,-0.00009799,0.00002799,0.00006555,0.00000747,0.00032446,0.0002
 2695,-0.00021394,-0.00005431,0.00006684,0.00004499,0.00003175,0.000109
 74,0.00006607,0.00002788,0.00023820,0.00019657,-0.00056468,0.00096195,
 0.00065612,-0.00018166,0.00000367,-0.00013063,-0.00019909,0.00004474,0
 .00038754,-0.00045024,0.00009387,-0.00055581,-0.02602441,-0.00092965,-
 0.00716279,0.00965274,0.05036769,0.00001006,0.00000457,0.00001616,0.00
 000977,0.00004519,-0.00001743,0.00000588,-0.00025353,0.00012368,0.0008
 5568,-0.00007222,0.00039803,0.00031935,-0.00221847,-0.00147462,-0.0006
 9313,-0.00049113,-0.00012682,0.01160710,0.00049846,0.00067711,0.001604
 74,-0.00003161,0.00063324,-0.05761465,-0.00174914,-0.05948617,-0.00000
 073,0.00000080,0.00000058,-0.00000407,-0.00000168,-0.00000095,-0.00000
 134,-0.00000508,0.00000067,0.00000919,-0.00000545,-0.00001636,0.000118
 75,-0.00000230,-0.00001313,0.00001795,0.00009907,0.00006883,-0.0003170
 8,-0.00004967,0.00009277,0.00010690,-0.00014143,0.00008121,-0.00005879
 ,0.00025133,0.00014467,0.00004859,0.00064710,0.00012103,-0.00052910,0.
 00028746,0.00012565,0.00003585,0.00000674,-0.00006319,-0.00011833,0.00
 021347,0.00011300,-0.00016752,-0.00044239,-0.00023754,0.01436165,0.000
 30316,0.00269219,0.06214112,0.00480595,0.06230833,0.00001586,0.0000362
 6,0.00002300,-0.00000557,-0.00001971,-0.00002738,-0.00003619,-0.000090
 98,-0.00007609,0.00007362,0.00002699,-0.00029734,0.00057887,-0.0004676
 9,0.00105501,-0.00116718,0.00066128,-0.00008351,0.00088790,-0.00068362
 ,0.01521089,-0.00163230,0.00241870,0.00026687,-0.04861248,-0.00182053,
 -0.02582232,0.00000809,-0.00000306,-0.00001419,0.00000043,-0.00001086,
 -0.00000509,-0.00000607,-0.00001042,0.00000141,0.00000534,0.00000159,0
 .00000122,0.00001639,0.00000028,-0.00000895,0.00013818,-0.00009663,-0.
 00009098,-0.00004018,0.00009957,-0.00009719,-0.00006916,0.00014150,-0.
 00017442,0.00003992,-0.00009890,-0.00005158,-0.00199191,0.00003113,-0.
 00048206,0.00052707,-0.00045713,-0.00059388,-0.00001604,0.00000375,-0.
 00031699,0.00066801,0.00029668,0.00087835,0.00048226,0.00009861,0.0002
 0054,0.00059995,0.00120765,0.01349142,-0.00221243,-0.00166269,-0.03174
 783,0.05174760,-0.00003667,-0.00001762,-0.00001660,0.00000501,0.000010
 92,0.00001361,0.00003604,0.00004772,0.00012293,-0.00020699,0.00002767,
 0.00002047,-0.00072487,0.00038537,-0.00007757,0.00047868,0.00065485,-0
 .00008891,-0.00411715,-0.00129583,-0.02749940,0.00315458,-0.00481106,-
 0.00112915,-0.00171902,-0.04834307,-0.01794223,0.00000136,0.00000310,0
 .00000481,0.00000936,0.00000300,0.00000709,0.00000380,0.00001780,0.000
 00619,0.00000532,-0.00000970,0.00000405,0.00000025,0.00000365,-0.00000
 837,-0.00016391,0.00011007,0.00004039,0.00004469,0.00006099,0.00005783
 ,0.00009637,-0.00040347,0.00029595,-0.00010318,-0.00015438,0.00011123,
 0.00001393,0.00015168,0.00009110,-0.00084542,0.00110610,0.00041484,0.0
 0022898,0.00011101,-0.00030832,-0.00000500,-0.00013235,-0.00204663,0.0
 0008556,-0.00011189,0.00039318,0.00369477,0.00233608,0.02675361,-0.000
 33474,-0.00104149,-0.00169920,0.00039825,0.05129085,-0.00003871,0.0000
 0180,-0.00000613,0.00006903,0.00001521,0.00000088,0.00005450,0.0000510
 1,0.00012796,0.00018212,-0.00002703,0.00022780,-0.00067219,-0.00024596
 ,-0.00088801,-0.00158578,-0.00060766,-0.00031529,-0.00125954,0.0004190
 5,-0.00980216,0.00139652,-0.00290174,0.00046875,-0.02353646,-0.0195635
 4,-0.30983981,-0.00000225,0.00000450,0.00000444,0.00001417,-0.00000763
 ,0.00000875,0.00000496,0.00001980,0.00000805,0.00001387,-0.00001042,-0
 .00001920,0.00002504,-0.00001365,-0.00002680,-0.00017877,0.00012928,0.
 00009093,0.00000019,-0.00005566,0.00010046,0.00003336,-0.00015936,0.00
 002423,-0.00019937,0.00050511,0.00034367,-0.00059648,0.00116595,0.0003
 3908,-0.00008071,-0.00029776,0.00081809,-0.00004144,0.00013090,0.00032
 955,-0.00010989,-0.00009113,-0.00079677,0.00009234,0.00016491,0.000278
 04,-0.00188499,-0.00119174,-0.01247256,-0.00046062,0.00008665,-0.00616
 094,0.02876108,0.02247907,0.33715698\\-0.00000750,0.00002252,0.0000171
 6,0.00000399,-0.00003576,0.00002234,0.00001986,0.00003481,-0.00003039,
 -0.00003227,0.00000933,0.00002376,0.00001060,-0.00002926,-0.00001474,-
 0.00000184,-0.00001036,0.00000602,-0.00000684,0.00001113,0.00000058,-0
 .00000015,0.00000181,-0.00000050,-0.00000189,-0.00000255,0.00000120,0.
 00000250,-0.00000167,-0.00000349,-0.00000084,-0.00000566,-0.00000021,0
 .00000111,-0.00000145,-0.00000795,-0.00000351,0.00000196,-0.00000600,0
 .00000396,-0.00000406,-0.00000010,0.00000576,0.00000211,-0.00000401,0.
 00000126,0.00000371,0.00000127,0.00000173,0.00000398,-0.00000243,0.000
 00368,0.00000162,-0.00000059,0.00000087,0.00000511,0.00000051,-0.00000
 028,-0.00000283,0.00000106,0.00000071,-0.00000236,0.00000159,-0.000001
 06,0.00000005,-0.00000439,-0.00000072,-0.00000262,0.00000080,0.0000001
 8,0.00000049,0.00000004,0.00000106,-0.00000032,-0.00000072,-0.00000036
 ,0.00000026,-0.00000081\\\@


 THE VALUE OF PHILOSOPHY IS, IN FACT, TO BE SOUGHT LARGELY IN ITS
 VERY UNCERTAINTY.  THE MAN WHO HAS NO TINCTURE OF PHILOSOPHY GOES
 THROUGH LIFE IMPRISONED IN THE PREJUDICES DERIVED FROM COMMON SENSE,
 FROM THE HABITUAL BELIEFS OF HIS AGE OR HIS NATION, AND FROM
 CONVICTIONS WHICH HAVE GROWN UP IN HIS MIND WITHOUT THE CO-OPERATION
 OR CONSENT OF HIS DELIBERATE REASON.  TO SUCH A MAN THE WORLD TENDS
 TO BE DEFINITE, FINITE, OBVIOUS; COMMON OBJECTS ROUSE NO QUESTIONS,
 AND UNFAMILIAR POSSIBILITIES ARE CONTEMPTUOUSLY REJECTED.

                             -- BERTRAND RUSSELL
 Job cpu time:       0 days  3 hours 50 minutes 25.6 seconds.
 Elapsed time:       0 days  0 hours 57 minutes 41.8 seconds.
 File lengths (MBytes):  RWF=    218 Int=      0 D2E=      0 Chk=     11 Scr=      1
 Normal termination of Gaussian 16 at Mon May 31 20:18:27 2021.
### All Done ###
