### Starting Gaussian ###
 Entering Gaussian System, Link 0=g16
 Initial command:
 /cluster/software/gaussian/gaussian-16-A.03/avx2/g16/l1.exe "/local/scratch/cz9n3/Gau-6687.inp" -scrdir="/local/scratch/cz9n3/"
 Entering Link 1 = /cluster/software/gaussian/gaussian-16-A.03/avx2/g16/l1.exe PID=      6688.
  
 Copyright (c) 1988,1990,1992,1993,1995,1998,2003,2009,2016,
            Gaussian, Inc.  All Rights Reserved.
  
 This is part of the Gaussian(R) 16 program.  It is based on
 the Gaussian(R) 09 system (copyright 2009, Gaussian, Inc.),
 the Gaussian(R) 03 system (copyright 2003, Gaussian, Inc.),
 the Gaussian(R) 98 system (copyright 1998, Gaussian, Inc.),
 the Gaussian(R) 94 system (copyright 1995, Gaussian, Inc.),
 the Gaussian 92(TM) system (copyright 1992, Gaussian, Inc.),
 the Gaussian 90(TM) system (copyright 1990, Gaussian, Inc.),
 the Gaussian 88(TM) system (copyright 1988, Gaussian, Inc.),
 the Gaussian 86(TM) system (copyright 1986, Carnegie Mellon
 University), and the Gaussian 82(TM) system (copyright 1983,
 Carnegie Mellon University). Gaussian is a federally registered
 trademark of Gaussian, Inc.
  
 This software contains proprietary and confidential information,
 including trade secrets, belonging to Gaussian, Inc.
  
 This software is provided under written license and may be
 used, copied, transmitted, or stored only in accord with that
 written license.
  
 The following legend is applicable only to US Government
 contracts under FAR:
  
                    RESTRICTED RIGHTS LEGEND
  
 Use, reproduction and disclosure by the US Government is
 subject to restrictions as set forth in subparagraphs (a)
 and (c) of the Commercial Computer Software - Restricted
 Rights clause in FAR 52.227-19.
  
 Gaussian, Inc.
 340 Quinnipiac St., Bldg. 40, Wallingford CT 06492
  
  
 ---------------------------------------------------------------
 Warning -- This program may not be used in any manner that
 competes with the business of Gaussian, Inc. or will provide
 assistance to any competitor of Gaussian, Inc.  The licensee
 of this program is prohibited from giving any competitor of
 Gaussian, Inc. access to this program.  By using this program,
 the user acknowledges that Gaussian, Inc. is engaged in the
 business of creating and licensing software in the field of
 computational chemistry and represents and warrants to the
 licensee that it is not a competitor of Gaussian, Inc. and that
 it will not use this program in any manner prohibited above.
 ---------------------------------------------------------------
  

 Cite this work as:
 Gaussian 16, Revision A.03,
 M. J. Frisch, G. W. Trucks, H. B. Schlegel, G. E. Scuseria, 
 M. A. Robb, J. R. Cheeseman, G. Scalmani, V. Barone, 
 G. A. Petersson, H. Nakatsuji, X. Li, M. Caricato, A. V. Marenich, 
 J. Bloino, B. G. Janesko, R. Gomperts, B. Mennucci, H. P. Hratchian, 
 J. V. Ortiz, A. F. Izmaylov, J. L. Sonnenberg, D. Williams-Young, 
 F. Ding, F. Lipparini, F. Egidi, J. Goings, B. Peng, A. Petrone, 
 T. Henderson, D. Ranasinghe, V. G. Zakrzewski, J. Gao, N. Rega, 
 G. Zheng, W. Liang, M. Hada, M. Ehara, K. Toyota, R. Fukuda, 
 J. Hasegawa, M. Ishida, T. Nakajima, Y. Honda, O. Kitao, H. Nakai, 
 T. Vreven, K. Throssell, J. A. Montgomery, Jr., J. E. Peralta, 
 F. Ogliaro, M. J. Bearpark, J. J. Heyd, E. N. Brothers, K. N. Kudin, 
 V. N. Staroverov, T. A. Keith, R. Kobayashi, J. Normand, 
 K. Raghavachari, A. P. Rendell, J. C. Burant, S. S. Iyengar, 
 J. Tomasi, M. Cossi, J. M. Millam, M. Klene, C. Adamo, R. Cammi, 
 J. W. Ochterski, R. L. Martin, K. Morokuma, O. Farkas, 
 J. B. Foresman, and D. J. Fox, Gaussian, Inc., Wallingford CT, 2016.
 
 ******************************************
 Gaussian 16:  ES64L-G16RevA.03 25-Dec-2016
                 1-Jun-2021 
 ******************************************
 %chk=CNNpCpCNCCCCdO.chk
 %NProcShared=20
 Will use up to   20 processors via shared memory.
 -----------------------------
 # opt freq b3lyp/6-31g(2df,p)
 -----------------------------
 1/18=20,19=15,26=3,38=1/1,3;
 2/9=110,12=2,17=6,18=5,40=1/2;
 3/5=1,6=6,7=104,11=2,25=1,30=1,71=1,74=-5/1,2,3;
 4//1;
 5/5=2,38=5/2;
 6/7=2,8=2,9=2,10=2,28=1/1;
 7//1,2,3,16;
 1/18=20,19=15,26=3/3(2);
 2/9=110/2;
 99//99;
 2/9=110/2;
 3/5=1,6=6,7=104,11=2,25=1,30=1,71=1,74=-5/1,2,3;
 4/5=5,16=3,69=1/1;
 5/5=2,38=5/2;
 7//1,2,3,16;
 1/18=20,19=15,26=3/3(-5);
 2/9=110/2;
 6/7=2,8=2,9=2,10=2,19=2,28=1/1;
 99/9=1/99;
 -------------------
 Title Card Required
 -------------------
 Symbolic Z-matrix:
 Charge =  0 Multiplicity = 1
 C                     1.06926   0.01797  -0.12048 
 N                     2.53277  -0.02796  -0.05115 
 N                     3.01368   0.5092    1.24822 
 C                     2.53332  -0.35899   2.33644 
 C                     4.49276   0.51098   1.20909 
 N                     5.0263    1.08078   2.44125 
 C                     6.48092   1.05588   2.44139 
 C                     6.9828    1.59771   3.77819 
 C                     8.50441   1.6015    3.7986 
 C                     9.03308   2.13978   5.09776 
 O                     10.23791   2.23011   5.33198 
 H                     0.74048  -0.33063  -1.10345 
 H                     0.69016   1.03227   0.03693 
 H                     0.60351  -0.66024   0.6002 
 H                     2.87888   0.57227  -0.8081 
 H                     1.44314  -0.34788   2.41151 
 H                     2.84956   0.00809   3.31647 
 H                     2.87428  -1.39256   2.21443 
 H                     4.83057   1.13193   0.36829 
 H                     4.87681  -0.50591   1.04837 
 H                     4.70215   0.51351   3.21725 
 H                     6.86629   1.67295   1.62291 
 H                     6.84573   0.03039   2.30523 
 H                     6.60161   0.98592   4.6075 
 H                     6.60342   2.61504   3.94202 
 H                     8.88748   2.22934   2.98758 
 H                     8.88327   0.5818    3.67198 
 H                     8.29041   2.45393   5.84894 
 

 GradGradGradGradGradGradGradGradGradGradGradGradGradGradGradGradGradGrad
 Berny optimization.
 Initialization pass.
                           ----------------------------
                           !    Initial Parameters    !
                           ! (Angstroms and Degrees)  !
 --------------------------                            --------------------------
 ! Name  Definition              Value          Derivative Info.                !
 --------------------------------------------------------------------------------
 ! R1    R(1,2)                  1.4659         estimate D2E/DX2                !
 ! R2    R(1,12)                 1.0935         estimate D2E/DX2                !
 ! R3    R(1,13)                 1.0942         estimate D2E/DX2                !
 ! R4    R(1,14)                 1.0937         estimate D2E/DX2                !
 ! R5    R(2,3)                  1.486          estimate D2E/DX2                !
 ! R6    R(2,15)                 1.0262         estimate D2E/DX2                !
 ! R7    R(3,4)                  1.4727         estimate D2E/DX2                !
 ! R8    R(3,5)                  1.4796         estimate D2E/DX2                !
 ! R9    R(4,16)                 1.0928         estimate D2E/DX2                !
 ! R10   R(4,17)                 1.0933         estimate D2E/DX2                !
 ! R11   R(4,18)                 1.0952         estimate D2E/DX2                !
 ! R12   R(5,6)                  1.4586         estimate D2E/DX2                !
 ! R13   R(5,19)                 1.0985         estimate D2E/DX2                !
 ! R14   R(5,20)                 1.0988         estimate D2E/DX2                !
 ! R15   R(6,7)                  1.4548         estimate D2E/DX2                !
 ! R16   R(6,21)                 1.0144         estimate D2E/DX2                !
 ! R17   R(7,8)                  1.5273         estimate D2E/DX2                !
 ! R18   R(7,22)                 1.0951         estimate D2E/DX2                !
 ! R19   R(7,23)                 1.0969         estimate D2E/DX2                !
 ! R20   R(8,9)                  1.5218         estimate D2E/DX2                !
 ! R21   R(8,24)                 1.0988         estimate D2E/DX2                !
 ! R22   R(8,25)                 1.0981         estimate D2E/DX2                !
 ! R23   R(9,10)                 1.5023         estimate D2E/DX2                !
 ! R24   R(9,26)                 1.0948         estimate D2E/DX2                !
 ! R25   R(9,27)                 1.0952         estimate D2E/DX2                !
 ! R26   R(10,11)                1.2307         estimate D2E/DX2                !
 ! R27   R(10,28)                1.1021         estimate D2E/DX2                !
 ! A1    A(2,1,12)             109.4325         estimate D2E/DX2                !
 ! A2    A(2,1,13)             111.6011         estimate D2E/DX2                !
 ! A3    A(2,1,14)             111.9967         estimate D2E/DX2                !
 ! A4    A(12,1,13)            108.7019         estimate D2E/DX2                !
 ! A5    A(12,1,14)            105.4612         estimate D2E/DX2                !
 ! A6    A(13,1,14)            109.419          estimate D2E/DX2                !
 ! A7    A(1,2,3)              110.6793         estimate D2E/DX2                !
 ! A8    A(1,2,15)             106.4706         estimate D2E/DX2                !
 ! A9    A(3,2,15)             108.9298         estimate D2E/DX2                !
 ! A10   A(2,3,4)              109.1156         estimate D2E/DX2                !
 ! A11   A(2,3,5)              107.5072         estimate D2E/DX2                !
 ! A12   A(4,3,5)              110.2626         estimate D2E/DX2                !
 ! A13   A(3,4,16)             111.7259         estimate D2E/DX2                !
 ! A14   A(3,4,17)             111.7227         estimate D2E/DX2                !
 ! A15   A(3,4,18)             111.87           estimate D2E/DX2                !
 ! A16   A(16,4,17)            102.919          estimate D2E/DX2                !
 ! A17   A(16,4,18)            109.1368         estimate D2E/DX2                !
 ! A18   A(17,4,18)            109.0681         estimate D2E/DX2                !
 ! A19   A(3,5,6)              110.1078         estimate D2E/DX2                !
 ! A20   A(3,5,19)             109.1682         estimate D2E/DX2                !
 ! A21   A(3,5,20)             110.6186         estimate D2E/DX2                !
 ! A22   A(6,5,19)             108.2569         estimate D2E/DX2                !
 ! A23   A(6,5,20)             110.9303         estimate D2E/DX2                !
 ! A24   A(19,5,20)            107.6799         estimate D2E/DX2                !
 ! A25   A(5,6,7)              111.0466         estimate D2E/DX2                !
 ! A26   A(5,6,21)             108.1117         estimate D2E/DX2                !
 ! A27   A(7,6,21)             108.0503         estimate D2E/DX2                !
 ! A28   A(6,7,8)              108.8191         estimate D2E/DX2                !
 ! A29   A(6,7,22)             110.0075         estimate D2E/DX2                !
 ! A30   A(6,7,23)             110.3964         estimate D2E/DX2                !
 ! A31   A(8,7,22)             109.795          estimate D2E/DX2                !
 ! A32   A(8,7,23)             109.3312         estimate D2E/DX2                !
 ! A33   A(22,7,23)            108.4806         estimate D2E/DX2                !
 ! A34   A(7,8,9)              109.9506         estimate D2E/DX2                !
 ! A35   A(7,8,24)             110.4318         estimate D2E/DX2                !
 ! A36   A(7,8,25)             110.2275         estimate D2E/DX2                !
 ! A37   A(9,8,24)             109.7641         estimate D2E/DX2                !
 ! A38   A(9,8,25)             109.9476         estimate D2E/DX2                !
 ! A39   A(24,8,25)            106.4621         estimate D2E/DX2                !
 ! A40   A(8,9,10)             111.3678         estimate D2E/DX2                !
 ! A41   A(8,9,26)             109.9589         estimate D2E/DX2                !
 ! A42   A(8,9,27)             110.0013         estimate D2E/DX2                !
 ! A43   A(10,9,26)            108.1792         estimate D2E/DX2                !
 ! A44   A(10,9,27)            108.1709         estimate D2E/DX2                !
 ! A45   A(26,9,27)            109.1024         estimate D2E/DX2                !
 ! A46   A(9,10,11)            122.3689         estimate D2E/DX2                !
 ! A47   A(9,10,28)            117.0279         estimate D2E/DX2                !
 ! A48   A(11,10,28)           120.6029         estimate D2E/DX2                !
 ! D1    D(12,1,2,3)           176.964          estimate D2E/DX2                !
 ! D2    D(12,1,2,15)           58.7228         estimate D2E/DX2                !
 ! D3    D(13,1,2,3)            56.6072         estimate D2E/DX2                !
 ! D4    D(13,1,2,15)          -61.634          estimate D2E/DX2                !
 ! D5    D(14,1,2,3)           -66.4591         estimate D2E/DX2                !
 ! D6    D(14,1,2,15)          175.2996         estimate D2E/DX2                !
 ! D7    D(1,2,3,4)             63.9734         estimate D2E/DX2                !
 ! D8    D(1,2,3,5)           -176.4451         estimate D2E/DX2                !
 ! D9    D(15,2,3,4)          -179.2941         estimate D2E/DX2                !
 ! D10   D(15,2,3,5)           -59.7125         estimate D2E/DX2                !
 ! D11   D(2,3,4,16)           -64.3228         estimate D2E/DX2                !
 ! D12   D(2,3,4,17)          -179.0198         estimate D2E/DX2                !
 ! D13   D(2,3,4,18)            58.3745         estimate D2E/DX2                !
 ! D14   D(5,3,4,16)           177.8159         estimate D2E/DX2                !
 ! D15   D(5,3,4,17)            63.1189         estimate D2E/DX2                !
 ! D16   D(5,3,4,18)           -59.4867         estimate D2E/DX2                !
 ! D17   D(2,3,5,6)            177.6961         estimate D2E/DX2                !
 ! D18   D(2,3,5,19)            58.9809         estimate D2E/DX2                !
 ! D19   D(2,3,5,20)           -59.334          estimate D2E/DX2                !
 ! D20   D(4,3,5,6)            -63.4563         estimate D2E/DX2                !
 ! D21   D(4,3,5,19)           177.8285         estimate D2E/DX2                !
 ! D22   D(4,3,5,20)            59.5136         estimate D2E/DX2                !
 ! D23   D(3,5,6,7)            178.2998         estimate D2E/DX2                !
 ! D24   D(3,5,6,21)            59.9297         estimate D2E/DX2                !
 ! D25   D(19,5,6,7)           -62.4279         estimate D2E/DX2                !
 ! D26   D(19,5,6,21)          179.202          estimate D2E/DX2                !
 ! D27   D(20,5,6,7)            55.5128         estimate D2E/DX2                !
 ! D28   D(20,5,6,21)          -62.8573         estimate D2E/DX2                !
 ! D29   D(5,6,7,8)           -177.2127         estimate D2E/DX2                !
 ! D30   D(5,6,7,22)            62.4657         estimate D2E/DX2                !
 ! D31   D(5,6,7,23)           -57.2236         estimate D2E/DX2                !
 ! D32   D(21,6,7,8)           -58.8054         estimate D2E/DX2                !
 ! D33   D(21,6,7,22)         -179.127          estimate D2E/DX2                !
 ! D34   D(21,6,7,23)           61.1837         estimate D2E/DX2                !
 ! D35   D(6,7,8,9)           -179.204          estimate D2E/DX2                !
 ! D36   D(6,7,8,24)            59.5232         estimate D2E/DX2                !
 ! D37   D(6,7,8,25)           -57.8349         estimate D2E/DX2                !
 ! D38   D(22,7,8,9)           -58.7512         estimate D2E/DX2                !
 ! D39   D(22,7,8,24)          179.976          estimate D2E/DX2                !
 ! D40   D(22,7,8,25)           62.6179         estimate D2E/DX2                !
 ! D41   D(23,7,8,9)            60.1488         estimate D2E/DX2                !
 ! D42   D(23,7,8,24)          -61.124          estimate D2E/DX2                !
 ! D43   D(23,7,8,25)         -178.4821         estimate D2E/DX2                !
 ! D44   D(7,8,9,10)           179.5513         estimate D2E/DX2                !
 ! D45   D(7,8,9,26)            59.6496         estimate D2E/DX2                !
 ! D46   D(7,8,9,27)           -60.5295         estimate D2E/DX2                !
 ! D47   D(24,8,9,10)          -58.7768         estimate D2E/DX2                !
 ! D48   D(24,8,9,26)         -178.6784         estimate D2E/DX2                !
 ! D49   D(24,8,9,27)           61.1424         estimate D2E/DX2                !
 ! D50   D(25,8,9,10)           58.0148         estimate D2E/DX2                !
 ! D51   D(25,8,9,26)          -61.8869         estimate D2E/DX2                !
 ! D52   D(25,8,9,27)          177.934          estimate D2E/DX2                !
 ! D53   D(8,9,10,11)          179.8324         estimate D2E/DX2                !
 ! D54   D(8,9,10,28)            0.0172         estimate D2E/DX2                !
 ! D55   D(26,9,10,11)         -59.2184         estimate D2E/DX2                !
 ! D56   D(26,9,10,28)         120.9664         estimate D2E/DX2                !
 ! D57   D(27,9,10,11)          58.8361         estimate D2E/DX2                !
 ! D58   D(27,9,10,28)        -120.9791         estimate D2E/DX2                !
 --------------------------------------------------------------------------------
 Trust Radius=3.00D-01 FncErr=1.00D-07 GrdErr=1.00D-06 EigMax=2.50D+02 EigMin=1.00D-04
 Number of steps in this run=    143 maximum allowed number of steps=    168.
 GradGradGradGradGradGradGradGradGradGradGradGradGradGradGradGradGradGrad

                          Input orientation:                          
 ---------------------------------------------------------------------
 Center     Atomic      Atomic             Coordinates (Angstroms)
 Number     Number       Type             X           Y           Z
 ---------------------------------------------------------------------
      1          6           0        1.069260    0.017970   -0.120480
      2          7           0        2.532770   -0.027960   -0.051150
      3          7           0        3.013680    0.509200    1.248220
      4          6           0        2.533320   -0.358990    2.336440
      5          6           0        4.492760    0.510980    1.209090
      6          7           0        5.026300    1.080780    2.441250
      7          6           0        6.480920    1.055880    2.441390
      8          6           0        6.982800    1.597710    3.778190
      9          6           0        8.504410    1.601500    3.798600
     10          6           0        9.033080    2.139780    5.097760
     11          8           0       10.237910    2.230110    5.331980
     12          1           0        0.740480   -0.330630   -1.103450
     13          1           0        0.690160    1.032270    0.036930
     14          1           0        0.603510   -0.660240    0.600200
     15          1           0        2.878880    0.572270   -0.808100
     16          1           0        1.443140   -0.347880    2.411510
     17          1           0        2.849560    0.008090    3.316470
     18          1           0        2.874280   -1.392560    2.214430
     19          1           0        4.830570    1.131930    0.368290
     20          1           0        4.876810   -0.505910    1.048370
     21          1           0        4.702150    0.513510    3.217250
     22          1           0        6.866290    1.672950    1.622910
     23          1           0        6.845730    0.030390    2.305230
     24          1           0        6.601610    0.985920    4.607500
     25          1           0        6.603420    2.615040    3.942020
     26          1           0        8.887480    2.229340    2.987580
     27          1           0        8.883270    0.581800    3.671980
     28          1           0        8.290410    2.453930    5.848940
 ---------------------------------------------------------------------
                    Distance matrix (angstroms):
                    1          2          3          4          5
     1  C    0.000000
     2  N    1.465871   0.000000
     3  N    2.428048   1.485994   0.000000
     4  C    2.884792   2.410429   1.472658   0.000000
     5  C    3.705559   2.391699   1.479599   2.422224   0.000000
     6  N    4.832204   3.695816   2.408457   2.880776   1.458614
     7  C    6.076718   4.793261   3.707326   4.194808   2.401720
     8  C    7.257077   6.091750   4.831099   5.070029   3.739192
     9  C    8.552673   7.289458   6.151884   6.452546   4.897768
    10  C    9.754719   8.571138   7.328774   7.491036   6.195906
    11  O   10.894358   9.666755   8.475148   8.662413   7.277388
    12  H    1.093548   2.100297   3.376848   3.879165   4.487288
    13  H    1.094212   2.127688   2.671998   3.258925   4.013162
    14  H    1.093742   2.132154   2.756164   2.613321   4.107161
    15  H    2.013652   1.026178   2.061699   3.297694   2.584071
    16  H    2.585460   2.711888   2.134110   1.092818   3.388751
    17  H    3.870684   3.382679   2.134410   1.093259   2.719201
    18  H    3.271009   2.666761   2.137682   1.095174   2.693260
    19  H    3.953132   2.607903   2.112619   3.372509   1.098471
    20  H    4.017225   2.632851   2.131113   2.678181   1.098813
    21  H    4.958215   3.960030   2.593844   2.498181   2.019049
    22  H    6.275661   4.947218   4.041944   4.838650   2.674895
    23  H    6.265128   4.915034   4.003890   4.330066   2.639878
    24  H    7.341500   6.267889   4.938144   4.849482   4.027655
    25  H    7.340000   6.284986   4.957555   5.290412   4.043620
    26  H    8.699124   7.396731   6.362844   6.891936   5.042752
    27  H    8.703988   7.386634   6.350746   6.556723   5.034622
    28  H    9.680541   8.609370   7.265843   7.307138   6.302810
                    6          7          8          9         10
     6  N    0.000000
     7  C    1.454833   0.000000
     8  C    2.425390   1.527252   0.000000
     9  C    3.769721   2.496844   1.521752   0.000000
    10  C    4.922683   3.839878   2.497750   1.502350   0.000000
    11  O    6.069445   4.883575   3.661958   2.398213   1.230705
    12  H    5.738051   6.887739   8.155701   9.383061  10.645428
    13  H    4.958348   6.270158   7.342620   8.691184   9.820534
    14  H    5.097223   6.393668   7.476182   8.818699   9.956194
    15  H    3.927884   4.875219   6.239210   7.343540   8.672396
    16  H    3.857589   5.229786   6.028347   7.455577   8.426837
    17  H    2.579704   3.879485   4.452387   5.894806   6.778865
    18  H    3.286343   4.365114   5.316672   6.570567   7.663017
    19  H    2.082808   2.650883   4.059121   5.048230   6.406617
    20  H    2.116612   2.636828   4.038852   5.016415   6.377446
    21  H    1.014418   2.014981   2.586795   3.997358   4.993799
    22  H    2.099026   1.095078   2.159738   2.724366   4.121588
    23  H    2.105266   1.096930   2.155201   2.729425   4.127015
    24  H    2.680157   2.170597   1.098794   2.157291   2.735652
    25  H    2.663376   2.167459   1.098057   2.159073   2.732189
    26  H    4.065265   2.732556   2.156809   1.094842   2.117092
    27  H    4.079203   2.740509   2.157577   1.095151   2.117214
    28  H    4.914500   4.103681   2.594410   2.230768   1.102053
                   11         12         13         14         15
    11  O    0.000000
    12  H   11.754715   0.000000
    13  H   10.983256   1.777778   0.000000
    14  H   11.116003   1.740640   1.785881   0.000000
    15  H    9.726476   2.339918   2.390852   2.946133   0.000000
    16  H    9.618896   3.584546   2.847880   2.020740   3.643338
    17  H    7.974169   4.909037   4.057997   3.587412   4.163080
    18  H    8.778719   4.085233   3.923224   2.880699   3.605033
    19  H    7.421829   4.586277   4.154844   4.597140   2.346531
    20  H    7.387592   4.665863   4.573516   4.299508   2.932691
    21  H    6.169557   5.922487   5.145834   5.002548   4.419413
    22  H    5.043357   6.998065   6.408618   6.761074   4.797994
    23  H    5.050433   7.001679   6.636263   6.507642   5.071721
    24  H    3.910954   8.288613   7.472449   7.399020   6.584721
    25  H    3.910202   8.276944   7.260959   7.608820   6.372499
    26  H    2.705526   9.469086   8.794053   9.092492   7.297694
    27  H    2.703253   9.483791   8.974607   8.918123   7.491589
    28  H    2.027338  10.634423   9.672868   9.815078   8.783022
                   16         17         18         19         20
    16  H    0.000000
    17  H    1.709878   0.000000
    18  H    1.782795   1.782393   0.000000
    19  H    4.223656   3.725477   3.688950   0.000000
    20  H    3.697731   3.085161   2.481123   1.774026   0.000000
    21  H    3.465885   1.922858   2.824865   2.918134   2.402866
    22  H    5.840907   4.666264   5.067878   2.451720   3.005920
    23  H    5.416859   4.122193   4.219650   3.004330   2.396656
    24  H    5.762917   4.086660   5.027618   4.596608   4.227044
    25  H    6.144090   4.612913   5.740375   4.256073   4.592899
    26  H    7.898868   6.441941   7.062188   4.952122   5.227581
    27  H    7.603198   6.071341   6.490802   5.257508   4.911025
    28  H    8.157890   6.480616   7.572292   6.614809   6.592328
                   21         22         23         24         25
    21  H    0.000000
    22  H    2.927409   0.000000
    23  H    2.379101   1.778760   0.000000
    24  H    2.400815   3.074060   2.504612   0.000000
    25  H    2.925158   2.516924   3.068910   1.759801   0.000000
    26  H    4.529217   2.501420   3.077292   3.065198   2.505324
    27  H    4.206329   3.075306   2.514682   2.498896   3.066709
    28  H    4.854548   4.527403   4.529738   2.558959   2.551124
                   26         27         28
    26  H    0.000000
    27  H    1.784043   0.000000
    28  H    2.931606   2.931810   0.000000
 Stoichiometry    C7H17N3O
 Framework group  C1[X(C7H17N3O)]
 Deg. of freedom    78
 Full point group                 C1      NOp   1
 Largest Abelian subgroup         C1      NOp   1
 Largest concise Abelian subgroup C1      NOp   1
                         Standard orientation:                         
 ---------------------------------------------------------------------
 Center     Atomic      Atomic             Coordinates (Angstroms)
 Number     Number       Type             X           Y           Z
 ---------------------------------------------------------------------
      1          6           0       -5.051574   -0.109471   -0.304142
      2          7           0       -3.802081   -0.714309    0.166723
      3          7           0       -2.632588    0.095883   -0.262291
      4          6           0       -2.702800    1.420488    0.377407
      5          6           0       -1.412287   -0.619050    0.172390
      6          7           0       -0.224151    0.102582   -0.269352
      7          6           0        0.988740   -0.562117    0.181880
      8          6           0        2.195344    0.270104   -0.247085
      9          6           0        3.481091   -0.413024    0.195543
     10          6           0        4.690757    0.374805   -0.220497
     11          8           0        5.836814    0.007512    0.036958
     12          1           0       -5.893371   -0.749001   -0.024452
     13          1           0       -5.053218    0.017307   -1.390983
     14          1           0       -5.246021    0.854465    0.174700
     15          1           0       -3.744070   -1.640530   -0.271217
     16          1           0       -3.576541    1.985356    0.043114
     17          1           0       -1.868614    2.059873    0.076516
     18          1           0       -2.720193    1.345528    1.469875
     19          1           0       -1.397682   -1.618086   -0.284066
     20          1           0       -1.408736   -0.750511    1.263306
     21          1           0       -0.246630    1.029259    0.142728
     22          1           0        1.053278   -1.562936   -0.257882
     23          1           0        0.986254   -0.661818    1.274267
     24          1           0        2.140886    1.277451    0.188385
     25          1           0        2.197342    0.402039   -1.337186
     26          1           0        3.549910   -1.408260   -0.255508
     27          1           0        3.496438   -0.511952    1.286108
     28          1           0        4.512573    1.312204   -0.771909
 ---------------------------------------------------------------------
 Rotational constants (GHZ):           5.5308417           0.2594274           0.2526476
 Standard basis: 6-31G(2df,p) (6D, 7F)
 There are   426 symmetry adapted cartesian basis functions of A   symmetry.
 There are   393 symmetry adapted basis functions of A   symmetry.
   393 basis functions,   603 primitive gaussians,   426 cartesian basis functions
    44 alpha electrons       44 beta electrons
       nuclear repulsion energy       612.8346776889 Hartrees.
 NAtoms=   28 NActive=   28 NUniq=   28 SFac= 1.00D+00 NAtFMM=   60 NAOKFM=F Big=F
 Integral buffers will be    131072 words long.
 Raffenetti 2 integral format.
 Two-electron integral symmetry is turned on.
 One-electron integrals computed using PRISM.
 PrsmSu:  requested number of processors reduced to:  13 ShMem   1 Linda.
 NBasis=   393 RedAO= T EigKep=  2.66D-04  NBF=   393
 NBsUse=   393 1.00D-06 EigRej= -1.00D+00 NBFU=   393
 ExpMin= 1.61D-01 ExpMax= 5.48D+03 ExpMxC= 8.25D+02 IAcc=3 IRadAn=         5 AccDes= 0.00D+00
 Harris functional with IExCor=  402 and IRadAn=       5 diagonalized for initial guess.
 HarFok:  IExCor=  402 AccDes= 0.00D+00 IRadAn=         5 IDoV= 1 UseB2=F ITyADJ=14
 ICtDFT=  3500011 ScaDFX=  1.000000  1.000000  1.000000  1.000000
 FoFCou: FMM=F IPFlag=           0 FMFlag=      100000 FMFlg1=           0
         NFxFlg=           0 DoJE=T BraDBF=F KetDBF=T FulRan=T
         wScrn=  0.000000 ICntrl=       500 IOpCl=  0 I1Cent=   200000004 NGrid=           0
         NMat0=    1 NMatS0=      1 NMatT0=    0 NMatD0=    1 NMtDS0=    0 NMtDT0=    0
 Petite list used in FoFCou.
 Requested convergence on RMS density matrix=1.00D-08 within 128 cycles.
 Requested convergence on MAX density matrix=1.00D-06.
 Requested convergence on             energy=1.00D-06.
 No special actions if energy rises.
 Integral accuracy reduced to 1.0D-05 until final iterations.
 Initial convergence to 1.0D-05 achieved.  Increase integral accuracy.
 SCF Done:  E(RB3LYP) =  -516.407549621     A.U. after   13 cycles
            NFock= 13  Conv=0.61D-08     -V/T= 2.0078

 **********************************************************************

            Population analysis using the SCF density.

 **********************************************************************

 Orbital symmetries:
       Occupied  (A) (A) (A) (A) (A) (A) (A) (A) (A) (A) (A) (A)
                 (A) (A) (A) (A) (A) (A) (A) (A) (A) (A) (A) (A)
                 (A) (A) (A) (A) (A) (A) (A) (A) (A) (A) (A) (A)
                 (A) (A) (A) (A) (A) (A) (A) (A)
       Virtual   (A) (A) (A) (A) (A) (A) (A) (A) (A) (A) (A) (A)
                 (A) (A) (A) (A) (A) (A) (A) (A) (A) (A) (A) (A)
                 (A) (A) (A) (A) (A) (A) (A) (A) (A) (A) (A) (A)
                 (A) (A) (A) (A) (A) (A) (A) (A) (A) (A) (A) (A)
                 (A) (A) (A) (A) (A) (A) (A) (A) (A) (A) (A) (A)
                 (A) (A) (A) (A) (A) (A) (A) (A) (A) (A) (A) (A)
                 (A) (A) (A) (A) (A) (A) (A) (A) (A) (A) (A) (A)
                 (A) (A) (A) (A) (A) (A) (A) (A) (A) (A) (A) (A)
                 (A) (A) (A) (A) (A) (A) (A) (A) (A) (A) (A) (A)
                 (A) (A) (A) (A) (A) (A) (A) (A) (A) (A) (A) (A)
                 (A) (A) (A) (A) (A) (A) (A) (A) (A) (A) (A) (A)
                 (A) (A) (A) (A) (A) (A) (A) (A) (A) (A) (A) (A)
                 (A) (A) (A) (A) (A) (A) (A) (A) (A) (A) (A) (A)
                 (A) (A) (A) (A) (A) (A) (A) (A) (A) (A) (A) (A)
                 (A) (A) (A) (A) (A) (A) (A) (A) (A) (A) (A) (A)
                 (A) (A) (A) (A) (A) (A) (A) (A) (A) (A) (A) (A)
                 (A) (A) (A) (A) (A) (A) (A) (A) (A) (A) (A) (A)
                 (A) (A) (A) (A) (A) (A) (A) (A) (A) (A) (A) (A)
                 (A) (A) (A) (A) (A) (A) (A) (A) (A) (A) (A) (A)
                 (A) (A) (A) (A) (A) (A) (A) (A) (A) (A) (A) (A)
                 (A) (A) (A) (A) (A) (A) (A) (A) (A) (A) (A) (A)
                 (A) (A) (A) (A) (A) (A) (A) (A) (A) (A) (A) (A)
                 (A) (A) (A) (A) (A) (A) (A) (A) (A) (A) (A) (A)
                 (A) (A) (A) (A) (A) (A) (A) (A) (A) (A) (A) (A)
                 (A) (A) (A) (A) (A) (A) (A) (A) (A) (A) (A) (A)
                 (A) (A) (A) (A) (A) (A) (A) (A) (A) (A) (A) (A)
                 (A) (A) (A) (A) (A) (A) (A) (A) (A) (A) (A) (A)
                 (A) (A) (A) (A) (A) (A) (A) (A) (A) (A) (A) (A)
                 (A) (A) (A) (A) (A) (A) (A) (A) (A) (A) (A) (A)
                 (A)
 The electronic state is 1-A.
 Alpha  occ. eigenvalues --  -19.13639 -14.34458 -14.33899 -14.31524 -10.27192
 Alpha  occ. eigenvalues --  -10.22848 -10.21215 -10.20294 -10.19975 -10.19613
 Alpha  occ. eigenvalues --  -10.19323  -1.02985  -0.96255  -0.90812  -0.81831
 Alpha  occ. eigenvalues --   -0.79649  -0.71432  -0.69260  -0.64409  -0.60903
 Alpha  occ. eigenvalues --   -0.59397  -0.58264  -0.51110  -0.49922  -0.47750
 Alpha  occ. eigenvalues --   -0.47476  -0.45942  -0.43934  -0.43919  -0.42435
 Alpha  occ. eigenvalues --   -0.41927  -0.41139  -0.40232  -0.38116  -0.37733
 Alpha  occ. eigenvalues --   -0.36673  -0.36318  -0.35886  -0.34432  -0.34099
 Alpha  occ. eigenvalues --   -0.29069  -0.25026  -0.22883  -0.18358
 Alpha virt. eigenvalues --   -0.03089   0.07099   0.08621   0.08988   0.10258
 Alpha virt. eigenvalues --    0.11693   0.11947   0.12598   0.13576   0.14316
 Alpha virt. eigenvalues --    0.15451   0.16126   0.17226   0.17678   0.18775
 Alpha virt. eigenvalues --    0.18967   0.19320   0.19885   0.20539   0.21630
 Alpha virt. eigenvalues --    0.21801   0.22768   0.23714   0.24687   0.25864
 Alpha virt. eigenvalues --    0.27028   0.31617   0.33899   0.40705   0.44154
 Alpha virt. eigenvalues --    0.45314   0.46680   0.47911   0.48156   0.49236
 Alpha virt. eigenvalues --    0.51616   0.51926   0.52585   0.53845   0.55222
 Alpha virt. eigenvalues --    0.56564   0.57645   0.58708   0.59359   0.59866
 Alpha virt. eigenvalues --    0.61785   0.62430   0.64497   0.65409   0.66527
 Alpha virt. eigenvalues --    0.67813   0.68992   0.70132   0.71011   0.71748
 Alpha virt. eigenvalues --    0.72298   0.73074   0.73316   0.73682   0.74132
 Alpha virt. eigenvalues --    0.75142   0.75898   0.76101   0.77109   0.78171
 Alpha virt. eigenvalues --    0.78390   0.79413   0.79860   0.80995   0.82765
 Alpha virt. eigenvalues --    0.83822   0.84186   0.85284   0.86794   0.87462
 Alpha virt. eigenvalues --    0.87705   0.89974   0.91404   0.93810   0.94334
 Alpha virt. eigenvalues --    0.94937   0.95896   0.97125   0.99315   1.00498
 Alpha virt. eigenvalues --    1.03786   1.04325   1.11009   1.11747   1.14959
 Alpha virt. eigenvalues --    1.17027   1.18680   1.19537   1.21214   1.23031
 Alpha virt. eigenvalues --    1.23571   1.25095   1.26880   1.28060   1.31267
 Alpha virt. eigenvalues --    1.32362   1.33379   1.33959   1.36695   1.37526
 Alpha virt. eigenvalues --    1.38606   1.40335   1.44365   1.44498   1.46644
 Alpha virt. eigenvalues --    1.48778   1.50146   1.51400   1.52698   1.53739
 Alpha virt. eigenvalues --    1.54359   1.57051   1.57645   1.60619   1.62635
 Alpha virt. eigenvalues --    1.63917   1.66386   1.67656   1.68836   1.69886
 Alpha virt. eigenvalues --    1.71841   1.72306   1.75476   1.77840   1.80090
 Alpha virt. eigenvalues --    1.81099   1.82837   1.85297   1.87805   1.91901
 Alpha virt. eigenvalues --    1.92201   1.92662   1.95281   1.96832   1.98106
 Alpha virt. eigenvalues --    1.99985   2.02463   2.06345   2.07844   2.09905
 Alpha virt. eigenvalues --    2.12920   2.13903   2.17416   2.24993   2.25132
 Alpha virt. eigenvalues --    2.28188   2.29347   2.30402   2.33337   2.34427
 Alpha virt. eigenvalues --    2.36089   2.37155   2.41460   2.43899   2.45772
 Alpha virt. eigenvalues --    2.47874   2.48700   2.52042   2.53441   2.57318
 Alpha virt. eigenvalues --    2.61392   2.62456   2.64047   2.66400   2.70553
 Alpha virt. eigenvalues --    2.72159   2.72981   2.75491   2.76009   2.76984
 Alpha virt. eigenvalues --    2.80367   2.80684   2.81992   2.82725   2.84338
 Alpha virt. eigenvalues --    2.85617   2.86561   2.88338   2.88583   2.89358
 Alpha virt. eigenvalues --    2.90328   2.93145   2.93759   2.94733   2.96219
 Alpha virt. eigenvalues --    2.96992   2.98250   3.00293   3.01380   3.03064
 Alpha virt. eigenvalues --    3.04387   3.05668   3.06744   3.10368   3.11163
 Alpha virt. eigenvalues --    3.14674   3.17371   3.18790   3.20323   3.24397
 Alpha virt. eigenvalues --    3.25494   3.28504   3.30176   3.31774   3.33508
 Alpha virt. eigenvalues --    3.34692   3.36159   3.38213   3.38557   3.42179
 Alpha virt. eigenvalues --    3.45052   3.46421   3.48113   3.48650   3.51014
 Alpha virt. eigenvalues --    3.51843   3.53974   3.57675   3.59559   3.61105
 Alpha virt. eigenvalues --    3.61646   3.63502   3.65329   3.65626   3.66366
 Alpha virt. eigenvalues --    3.67925   3.69853   3.71683   3.78376   3.80077
 Alpha virt. eigenvalues --    3.81140   3.82024   3.83447   3.87352   3.90236
 Alpha virt. eigenvalues --    3.96192   3.99702   4.04846   4.05502   4.07038
 Alpha virt. eigenvalues --    4.08681   4.10788   4.12834   4.14456   4.17048
 Alpha virt. eigenvalues --    4.20546   4.23460   4.24350   4.24645   4.25669
 Alpha virt. eigenvalues --    4.29363   4.33352   4.34772   4.37321   4.38280
 Alpha virt. eigenvalues --    4.41735   4.42121   4.42889   4.44027   4.44859
 Alpha virt. eigenvalues --    4.46605   4.47243   4.50004   4.52705   4.53017
 Alpha virt. eigenvalues --    4.53553   4.54336   4.55727   4.56731   4.58213
 Alpha virt. eigenvalues --    4.58953   4.60329   4.61052   4.62492   4.63088
 Alpha virt. eigenvalues --    4.63479   4.65904   4.66437   4.67447   4.68918
 Alpha virt. eigenvalues --    4.70656   4.72126   4.73524   4.74239   4.75629
 Alpha virt. eigenvalues --    4.78719   4.78978   4.80885   4.81147   4.83164
 Alpha virt. eigenvalues --    4.84548   4.87276   4.88199   4.89926   4.92312
 Alpha virt. eigenvalues --    4.93246   4.94954   4.95812   4.97005   5.02098
 Alpha virt. eigenvalues --    5.04202   5.06209   5.07890   5.09643   5.10006
 Alpha virt. eigenvalues --    5.13721   5.17004   5.18287   5.21374   5.24889
 Alpha virt. eigenvalues --    5.26647   5.29554   5.34456   5.36000   5.38674
 Alpha virt. eigenvalues --    5.40578   5.42686   5.42861   5.48714   5.49699
 Alpha virt. eigenvalues --    5.51998   5.57102   5.59153   5.70286   5.81790
 Alpha virt. eigenvalues --    5.96539   5.99791   6.22446   6.37596   6.76304
 Alpha virt. eigenvalues --   10.19626  10.66393  11.04624  11.19197  11.45695
 Alpha virt. eigenvalues --   11.48303  11.57014  11.63506  12.02246  12.12001
 Alpha virt. eigenvalues --   12.27655  12.93506  13.67108  17.43969
          Condensed to atoms (all electrons):
               1          2          3          4          5          6
     1  C    4.914970   0.372030  -0.054698  -0.009550   0.002928  -0.000150
     2  N    0.372030   6.509012   0.237994  -0.053704  -0.040996   0.001506
     3  N   -0.054698   0.237994   6.357096   0.383889   0.393515  -0.030017
     4  C   -0.009550  -0.053704   0.383889   4.962130  -0.075258  -0.002600
     5  C    0.002928  -0.040996   0.393515  -0.075258   4.836234   0.382248
     6  N   -0.000150   0.001506  -0.030017  -0.002600   0.382248   6.422344
     7  C    0.000001  -0.000084   0.002193   0.000165  -0.066337   0.374593
     8  C   -0.000000   0.000000  -0.000086   0.000005   0.002224  -0.039202
     9  C    0.000000   0.000000   0.000000  -0.000000  -0.000212   0.002189
    10  C   -0.000000   0.000000  -0.000000  -0.000000  -0.000000   0.000000
    11  O    0.000000  -0.000000   0.000000  -0.000000  -0.000000   0.000000
    12  H    0.377798  -0.022521   0.002902   0.000104  -0.000184   0.000000
    13  H    0.362058  -0.044175   0.012726   0.000543   0.000445   0.000022
    14  H    0.383342  -0.024322  -0.004579  -0.000331   0.000114  -0.000003
    15  H   -0.047450   0.335042  -0.035273   0.005490  -0.004874  -0.000038
    16  H    0.000098  -0.003130  -0.023071   0.381438   0.004172   0.000208
    17  H   -0.000004   0.003138  -0.023211   0.375613  -0.003339  -0.000399
    18  H    0.001241   0.007524  -0.043692   0.343551  -0.003491  -0.001308
    19  H    0.000045  -0.004945  -0.010987   0.005768   0.340123  -0.012729
    20  H    0.000213   0.011873  -0.055796  -0.011101   0.347087  -0.058134
    21  H    0.000009  -0.000057  -0.000805   0.006886  -0.058855   0.338904
    22  H    0.000000  -0.000006   0.000210   0.000001  -0.003691  -0.021891
    23  H    0.000000   0.000025  -0.000129  -0.000092  -0.001311  -0.045065
    24  H    0.000000   0.000000   0.000008  -0.000020   0.000119  -0.002191
    25  H    0.000000   0.000000   0.000000  -0.000001   0.000239   0.005377
    26  H    0.000000   0.000000   0.000000  -0.000000   0.000007   0.000093
    27  H    0.000000   0.000000   0.000000  -0.000000   0.000008   0.000053
    28  H    0.000000   0.000000   0.000000  -0.000000   0.000000   0.000025
               7          8          9         10         11         12
     1  C    0.000001  -0.000000   0.000000  -0.000000   0.000000   0.377798
     2  N   -0.000084   0.000000   0.000000   0.000000  -0.000000  -0.022521
     3  N    0.002193  -0.000086   0.000000  -0.000000   0.000000   0.002902
     4  C    0.000165   0.000005  -0.000000  -0.000000  -0.000000   0.000104
     5  C   -0.066337   0.002224  -0.000212  -0.000000  -0.000000  -0.000184
     6  N    0.374593  -0.039202   0.002189   0.000000   0.000000   0.000000
     7  C    4.828270   0.426110  -0.037487   0.000661  -0.000058  -0.000000
     8  C    0.426110   4.912981   0.297382  -0.005027   0.001955   0.000000
     9  C   -0.037487   0.297382   5.262469   0.295683  -0.059710  -0.000000
    10  C    0.000661  -0.005027   0.295683   4.477625   0.740180   0.000000
    11  O   -0.000058   0.001955  -0.059710   0.740180   7.647432   0.000000
    12  H   -0.000000   0.000000  -0.000000   0.000000   0.000000   0.587833
    13  H    0.000001   0.000000   0.000000   0.000000  -0.000000  -0.034715
    14  H   -0.000000  -0.000000  -0.000000  -0.000000   0.000000  -0.029738
    15  H   -0.000013   0.000000  -0.000000   0.000000   0.000000  -0.001751
    16  H   -0.000013  -0.000000  -0.000000  -0.000000   0.000000  -0.000157
    17  H    0.000006   0.000013   0.000001   0.000000   0.000000  -0.000004
    18  H    0.000155   0.000003   0.000000   0.000000  -0.000000   0.000005
    19  H   -0.006097   0.000215  -0.000009  -0.000000   0.000000  -0.000008
    20  H    0.001312   0.000005   0.000062   0.000000  -0.000000   0.000018
    21  H   -0.048357  -0.000210  -0.000296   0.000005  -0.000000   0.000000
    22  H    0.356931  -0.020203  -0.005786  -0.000013  -0.000000   0.000000
    23  H    0.354436  -0.042397   0.002594   0.000131  -0.000000   0.000000
    24  H   -0.032634   0.367742  -0.036408  -0.002108   0.000024   0.000000
    25  H   -0.026898   0.364208  -0.034084  -0.001906   0.000011  -0.000000
    26  H   -0.003396  -0.031852   0.353959  -0.013240  -0.001905   0.000000
    27  H   -0.002688  -0.031786   0.352103  -0.013039  -0.002001  -0.000000
    28  H   -0.000058   0.012666  -0.134006   0.364875  -0.052061  -0.000000
              13         14         15         16         17         18
     1  C    0.362058   0.383342  -0.047450   0.000098  -0.000004   0.001241
     2  N   -0.044175  -0.024322   0.335042  -0.003130   0.003138   0.007524
     3  N    0.012726  -0.004579  -0.035273  -0.023071  -0.023211  -0.043692
     4  C    0.000543  -0.000331   0.005490   0.381438   0.375613   0.343551
     5  C    0.000445   0.000114  -0.004874   0.004172  -0.003339  -0.003491
     6  N    0.000022  -0.000003  -0.000038   0.000208  -0.000399  -0.001308
     7  C    0.000001  -0.000000  -0.000013  -0.000013   0.000006   0.000155
     8  C    0.000000  -0.000000   0.000000  -0.000000   0.000013   0.000003
     9  C    0.000000  -0.000000  -0.000000  -0.000000   0.000001   0.000000
    10  C    0.000000  -0.000000   0.000000  -0.000000   0.000000   0.000000
    11  O   -0.000000   0.000000   0.000000   0.000000   0.000000  -0.000000
    12  H   -0.034715  -0.029738  -0.001751  -0.000157  -0.000004   0.000005
    13  H    0.649032  -0.045944  -0.007092  -0.000190  -0.000021   0.000657
    14  H   -0.045944   0.585085   0.005736   0.003216  -0.000199  -0.000473
    15  H   -0.007092   0.005736   0.515325   0.000095  -0.000202  -0.000294
    16  H   -0.000190   0.003216   0.000095   0.583045  -0.028771  -0.043297
    17  H   -0.000021  -0.000199  -0.000202  -0.028771   0.587814  -0.039638
    18  H    0.000657  -0.000473  -0.000294  -0.043297  -0.039638   0.661021
    19  H   -0.000093   0.000011   0.005917  -0.000171  -0.000092  -0.000373
    20  H    0.000102  -0.000055  -0.001314  -0.000400   0.000399   0.017304
    21  H    0.000000  -0.000001   0.000012  -0.000439   0.002114   0.000639
    22  H    0.000000  -0.000000  -0.000001   0.000000  -0.000015   0.000000
    23  H   -0.000000   0.000000   0.000001  -0.000002   0.000117   0.000052
    24  H    0.000000  -0.000000  -0.000000   0.000000  -0.000017   0.000001
    25  H   -0.000000   0.000000   0.000000  -0.000000   0.000011  -0.000000
    26  H    0.000000   0.000000  -0.000000   0.000000  -0.000000   0.000000
    27  H   -0.000000   0.000000   0.000000   0.000000   0.000000  -0.000000
    28  H    0.000000  -0.000000   0.000000  -0.000000  -0.000000   0.000000
              19         20         21         22         23         24
     1  C    0.000045   0.000213   0.000009   0.000000   0.000000   0.000000
     2  N   -0.004945   0.011873  -0.000057  -0.000006   0.000025   0.000000
     3  N   -0.010987  -0.055796  -0.000805   0.000210  -0.000129   0.000008
     4  C    0.005768  -0.011101   0.006886   0.000001  -0.000092  -0.000020
     5  C    0.340123   0.347087  -0.058855  -0.003691  -0.001311   0.000119
     6  N   -0.012729  -0.058134   0.338904  -0.021891  -0.045065  -0.002191
     7  C   -0.006097   0.001312  -0.048357   0.356931   0.354436  -0.032634
     8  C    0.000215   0.000005  -0.000210  -0.020203  -0.042397   0.367742
     9  C   -0.000009   0.000062  -0.000296  -0.005786   0.002594  -0.036408
    10  C   -0.000000   0.000000   0.000005  -0.000013   0.000131  -0.002108
    11  O    0.000000  -0.000000  -0.000000  -0.000000  -0.000000   0.000024
    12  H   -0.000008   0.000018   0.000000   0.000000   0.000000   0.000000
    13  H   -0.000093   0.000102   0.000000   0.000000  -0.000000   0.000000
    14  H    0.000011  -0.000055  -0.000001  -0.000000   0.000000  -0.000000
    15  H    0.005917  -0.001314   0.000012  -0.000001   0.000001  -0.000000
    16  H   -0.000171  -0.000400  -0.000439   0.000000  -0.000002   0.000000
    17  H   -0.000092   0.000399   0.002114  -0.000015   0.000117  -0.000017
    18  H   -0.000373   0.017304   0.000639   0.000000   0.000052   0.000001
    19  H    0.636768  -0.062753   0.007427   0.005706  -0.001931   0.000005
    20  H   -0.062753   0.735734  -0.007019  -0.001798   0.014801  -0.000012
    21  H    0.007427  -0.007019   0.542589   0.006920  -0.007810   0.005958
    22  H    0.005706  -0.001798   0.006920   0.626838  -0.053752   0.005792
    23  H   -0.001931   0.014801  -0.007810  -0.053752   0.693754  -0.006686
    24  H    0.000005  -0.000012   0.005958   0.005792  -0.006686   0.639902
    25  H   -0.000016   0.000031  -0.000717  -0.006207   0.006654  -0.042193
    26  H   -0.000003   0.000001   0.000020   0.004860  -0.000601   0.005717
    27  H    0.000000  -0.000002  -0.000008  -0.000636   0.005307  -0.004785
    28  H   -0.000000   0.000000   0.000000   0.000008   0.000013   0.004025
              25         26         27         28
     1  C    0.000000   0.000000   0.000000   0.000000
     2  N    0.000000   0.000000   0.000000   0.000000
     3  N    0.000000   0.000000   0.000000   0.000000
     4  C   -0.000001  -0.000000  -0.000000  -0.000000
     5  C    0.000239   0.000007   0.000008   0.000000
     6  N    0.005377   0.000093   0.000053   0.000025
     7  C   -0.026898  -0.003396  -0.002688  -0.000058
     8  C    0.364208  -0.031852  -0.031786   0.012666
     9  C   -0.034084   0.353959   0.352103  -0.134006
    10  C   -0.001906  -0.013240  -0.013039   0.364875
    11  O    0.000011  -0.001905  -0.002001  -0.052061
    12  H   -0.000000   0.000000  -0.000000  -0.000000
    13  H   -0.000000   0.000000  -0.000000   0.000000
    14  H    0.000000   0.000000   0.000000  -0.000000
    15  H    0.000000  -0.000000   0.000000   0.000000
    16  H   -0.000000   0.000000   0.000000  -0.000000
    17  H    0.000011  -0.000000   0.000000  -0.000000
    18  H   -0.000000   0.000000  -0.000000   0.000000
    19  H   -0.000016  -0.000003   0.000000  -0.000000
    20  H    0.000031   0.000001  -0.000002   0.000000
    21  H   -0.000717   0.000020  -0.000008   0.000000
    22  H   -0.006207   0.004860  -0.000636   0.000008
    23  H    0.006654  -0.000601   0.005307   0.000013
    24  H   -0.042193   0.005717  -0.004785   0.004025
    25  H    0.612602  -0.004489   0.005604   0.004188
    26  H   -0.004489   0.575755  -0.026401   0.005002
    27  H    0.005604  -0.026401   0.577992   0.005060
    28  H    0.004188   0.005002   0.005060   0.702472
 Mulliken charges:
               1
     1  C   -0.302881
     2  N   -0.284205
     3  N   -0.108189
     4  C   -0.312925
     5  C   -0.050917
     6  N   -0.313837
     7  C   -0.120714
     8  C   -0.214746
     9  C   -0.258443
    10  C    0.156173
    11  O   -0.273865
    12  H    0.120419
    13  H    0.106644
    14  H    0.128140
    15  H    0.230684
    16  H    0.127369
    17  H    0.126683
    18  H    0.100412
    19  H    0.098221
    20  H    0.069442
    21  H    0.213087
    22  H    0.106732
    23  H    0.081891
    24  H    0.097760
    25  H    0.117585
    26  H    0.136471
    27  H    0.135219
    28  H    0.087789
 Sum of Mulliken charges =  -0.00000
 Mulliken charges with hydrogens summed into heavy atoms:
               1
     1  C    0.052323
     2  N   -0.053520
     3  N   -0.108189
     4  C    0.041538
     5  C    0.116745
     6  N   -0.100749
     7  C    0.067908
     8  C    0.000599
     9  C    0.013247
    10  C    0.243963
    11  O   -0.273865
 Electronic spatial extent (au):  <R**2>=           4174.7978
 Charge=             -0.0000 electrons
 Dipole moment (field-independent basis, Debye):
    X=             -2.9217    Y=              0.3557    Z=              0.3114  Tot=              2.9597
 Quadrupole moment (field-independent basis, Debye-Ang):
   XX=            -91.1074   YY=            -63.2076   ZZ=            -71.5241
   XY=              2.0798   XZ=             -0.0942   YZ=              2.5680
 Traceless Quadrupole moment (field-independent basis, Debye-Ang):
   XX=            -15.8277   YY=             12.0721   ZZ=              3.7556
   XY=              2.0798   XZ=             -0.0942   YZ=              2.5680
 Octapole moment (field-independent basis, Debye-Ang**2):
  XXX=           -230.7338  YYY=             -2.5918  ZZZ=              0.4061  XYY=             -3.9436
  XXY=              6.4179  XXZ=            -19.7570  XZZ=             15.9368  YZZ=             -0.0890
  YYZ=             -3.4938  XYZ=             -5.5449
 Hexadecapole moment (field-independent basis, Debye-Ang**3):
 XXXX=          -6131.5823 YYYY=           -279.9030 ZZZZ=           -141.1801 XXXY=             68.4359
 XXXZ=             -5.4641 YYYX=             14.5537 YYYZ=              5.2447 ZZZX=              5.1863
 ZZZY=              1.8075 XXYY=           -812.1508 XXZZ=           -853.0810 YYZZ=            -75.2595
 XXYZ=             24.1847 YYXZ=              4.3357 ZZXY=              0.2060
 N-N= 6.128346776889D+02 E-N=-2.427148310228D+03  KE= 5.124019382383D+02
 PrsmSu:  requested number of processors reduced to:  13 ShMem   1 Linda.
 Calling FoFJK, ICntrl=      2127 FMM=F ISym2X=0 I1Cent= 0 IOpClX= 0 NMat=1 NMatS=1 NMatT=0.
 ***** Axes restored to original set *****
 -------------------------------------------------------------------
 Center     Atomic                   Forces (Hartrees/Bohr)
 Number     Number              X              Y              Z
 -------------------------------------------------------------------
      1        6           0.002706059    0.003194335   -0.002326240
      2        7          -0.000305186   -0.016254436    0.003955984
      3        7           0.000676480    0.009377182   -0.002458401
      4        6          -0.001271811    0.002538491   -0.004621388
      5        6          -0.013980344    0.002064928    0.006305551
      6        7          -0.004344395    0.003792335   -0.010807330
      7        6          -0.010663078    0.002134025    0.014517641
      8        6           0.003370449    0.000362326   -0.006689609
      9        6          -0.008629758    0.001627960    0.006910156
     10        6           0.052852883    0.001005694    0.004183992
     11        8          -0.037407155   -0.000874387   -0.003002827
     12        1           0.003872232    0.001078833   -0.002299346
     13        1          -0.005563625    0.002493997    0.002695444
     14        1           0.002434938    0.001298113    0.000094926
     15        1           0.001602463    0.001779834    0.013527051
     16        1           0.000950694   -0.000210342   -0.004750715
     17        1           0.004413576    0.003391857   -0.003684289
     18        1           0.000019500   -0.006135229    0.000046298
     19        1          -0.002629013    0.000041669    0.000460407
     20        1           0.001395994   -0.008227872   -0.004654391
     21        1           0.001994440    0.000826341    0.000400043
     22        1          -0.000889998   -0.000154014   -0.001598310
     23        1           0.007490403   -0.003317029   -0.003342203
     24        1          -0.000630226   -0.000692663   -0.001091799
     25        1          -0.001269137   -0.001650368   -0.001877440
     26        1           0.003697609   -0.002179775   -0.001063179
     27        1           0.004039928    0.001042064   -0.002398028
     28        1          -0.003933925    0.001646132    0.003568002
 -------------------------------------------------------------------
 Cartesian Forces:  Max     0.052852883 RMS     0.008580033

 GradGradGradGradGradGradGradGradGradGradGradGradGradGradGradGradGradGrad
 Berny optimization.
 FormGI is forming the generalized inverse of G from B-inverse, IUseBI=4.
 Internal  Forces:  Max     0.037256292 RMS     0.005460145
 Search for a local minimum.
 Step number   1 out of a maximum of  143
 All quantities printed in internal units (Hartrees-Bohrs-Radians)
 Mixed Optimization -- RFO/linear search
 Second derivative matrix not updated -- first step.
 ITU=  0
     Eigenvalues ---    0.00230   0.00405   0.00478   0.00639   0.00731
     Eigenvalues ---    0.00735   0.00735   0.00820   0.00916   0.00966
     Eigenvalues ---    0.03215   0.03397   0.03444   0.03826   0.04395
     Eigenvalues ---    0.04658   0.04936   0.05272   0.05495   0.05628
     Eigenvalues ---    0.06641   0.06870   0.07038   0.07236   0.07474
     Eigenvalues ---    0.07951   0.08855   0.09241   0.09638   0.10673
     Eigenvalues ---    0.11167   0.11904   0.12448   0.12684   0.13066
     Eigenvalues ---    0.16000   0.16000   0.16000   0.16000   0.16000
     Eigenvalues ---    0.16000   0.16000   0.16203   0.17310   0.21836
     Eigenvalues ---    0.21929   0.21964   0.22000   0.22011   0.23580
     Eigenvalues ---    0.23648   0.29679   0.30198   0.32132   0.33456
     Eigenvalues ---    0.33814   0.33816   0.33852   0.33892   0.33898
     Eigenvalues ---    0.34024   0.34221   0.34224   0.34232   0.34259
     Eigenvalues ---    0.34330   0.34384   0.34406   0.34439   0.34489
     Eigenvalues ---    0.34616   0.35424   0.36239   0.37138   0.37619
     Eigenvalues ---    0.43367   0.45241   0.90793
 RFO step:  Lambda=-1.76260966D-02 EMin= 2.30000000D-03
 Linear search not attempted -- first point.
 Iteration  1 RMS(Cart)=  0.16042040 RMS(Int)=  0.00743055
 Iteration  2 RMS(Cart)=  0.01328632 RMS(Int)=  0.00047479
 Iteration  3 RMS(Cart)=  0.00006242 RMS(Int)=  0.00047241
 Iteration  4 RMS(Cart)=  0.00000009 RMS(Int)=  0.00047241
 Variable       Old X    -DE/DX   Delta X   Delta X   Delta X     New X
                                 (Linear)    (Quad)   (Total)
    R1        2.77009  -0.00310   0.00000  -0.00817  -0.00817   2.76193
    R2        2.06651   0.00056   0.00000   0.00154   0.00154   2.06805
    R3        2.06776   0.00463   0.00000   0.01282   0.01282   2.08058
    R4        2.06687  -0.00178   0.00000  -0.00492  -0.00492   2.06195
    R5        2.80812  -0.01290   0.00000  -0.03619  -0.03619   2.77193
    R6        1.93920  -0.00840   0.00000  -0.01861  -0.01861   1.92059
    R7        2.78292  -0.01071   0.00000  -0.02880  -0.02880   2.75412
    R8        2.79604  -0.00953   0.00000  -0.02620  -0.02620   2.76984
    R9        2.06513  -0.00128   0.00000  -0.00352  -0.00352   2.06160
   R10        2.06596  -0.00089   0.00000  -0.00245  -0.00245   2.06351
   R11        2.06958   0.00579   0.00000   0.01610   0.01610   2.08567
   R12        2.75638   0.00154   0.00000   0.00395   0.00395   2.76033
   R13        2.07581  -0.00114   0.00000  -0.00319  -0.00319   2.07262
   R14        2.07646   0.00878   0.00000   0.02469   0.02469   2.10114
   R15        2.74924   0.00805   0.00000   0.02043   0.02043   2.76967
   R16        1.91697  -0.00079   0.00000  -0.00169  -0.00169   1.91529
   R17        2.88609   0.00280   0.00000   0.00889   0.00889   2.89498
   R18        2.06940   0.00079   0.00000   0.00221   0.00221   2.07160
   R19        2.07290   0.00601   0.00000   0.01678   0.01678   2.08968
   R20        2.87569   0.01073   0.00000   0.03359   0.03359   2.90928
   R21        2.07642  -0.00022   0.00000  -0.00062  -0.00062   2.07580
   R22        2.07503  -0.00137   0.00000  -0.00384  -0.00384   2.07118
   R23        2.83903   0.00879   0.00000   0.02595   0.02595   2.86498
   R24        2.06895   0.00083   0.00000   0.00231   0.00231   2.07126
   R25        2.06954   0.00070   0.00000   0.00196   0.00196   2.07149
   R26        2.32569  -0.03726   0.00000  -0.04025  -0.04025   2.28544
   R27        2.08258   0.00555   0.00000   0.01576   0.01576   2.09834
    A1        1.90996  -0.00636   0.00000  -0.03600  -0.03605   1.87391
    A2        1.94781   0.00736   0.00000   0.04316   0.04340   1.99121
    A3        1.95471  -0.00322   0.00000  -0.01965  -0.01978   1.93494
    A4        1.89721   0.00036   0.00000   0.00508   0.00540   1.90261
    A5        1.84065   0.00395   0.00000   0.01868   0.01822   1.85887
    A6        1.90972  -0.00227   0.00000  -0.01243  -0.01229   1.89744
    A7        1.93172   0.00829   0.00000   0.01581   0.01519   1.94691
    A8        1.85826   0.00065   0.00000  -0.02005  -0.02188   1.83638
    A9        1.90118  -0.01156   0.00000  -0.11727  -0.11807   1.78312
   A10        1.90443  -0.00031   0.00000  -0.01699  -0.01730   1.88712
   A11        1.87635  -0.00785   0.00000  -0.05844  -0.05853   1.81783
   A12        1.92445   0.00554   0.00000   0.01390   0.01279   1.93724
   A13        1.94998  -0.00410   0.00000  -0.02304  -0.02318   1.92680
   A14        1.94993  -0.00841   0.00000  -0.04667  -0.04676   1.90317
   A15        1.95250   0.00435   0.00000   0.02373   0.02390   1.97640
   A16        1.79627   0.00659   0.00000   0.03857   0.03813   1.83440
   A17        1.90480  -0.00041   0.00000  -0.00354  -0.00344   1.90136
   A18        1.90360   0.00225   0.00000   0.01257   0.01278   1.91637
   A19        1.92174   0.00964   0.00000   0.04457   0.04375   1.96550
   A20        1.90534  -0.00576   0.00000  -0.04975  -0.04953   1.85581
   A21        1.93066  -0.00317   0.00000  -0.00092  -0.00294   1.92772
   A22        1.88944  -0.00345   0.00000  -0.02674  -0.02595   1.86349
   A23        1.93610   0.00150   0.00000   0.03784   0.03687   1.97297
   A24        1.87937   0.00085   0.00000  -0.00856  -0.00866   1.87070
   A25        1.93813   0.00516   0.00000   0.02280   0.02269   1.96082
   A26        1.88691  -0.00014   0.00000   0.00982   0.00975   1.89666
   A27        1.88583  -0.00200   0.00000  -0.00506  -0.00530   1.88053
   A28        1.89925   0.00922   0.00000   0.04637   0.04574   1.94499
   A29        1.91999  -0.00527   0.00000  -0.03658  -0.03606   1.88393
   A30        1.92678   0.00160   0.00000   0.03739   0.03673   1.96351
   A31        1.91628  -0.00156   0.00000  -0.01388  -0.01356   1.90272
   A32        1.90819  -0.00361   0.00000  -0.00717  -0.00887   1.89932
   A33        1.89334  -0.00045   0.00000  -0.02651  -0.02642   1.86692
   A34        1.91900   0.01146   0.00000   0.05167   0.05173   1.97073
   A35        1.92740  -0.00413   0.00000  -0.02223  -0.02249   1.90491
   A36        1.92383  -0.00494   0.00000  -0.02594  -0.02647   1.89737
   A37        1.91575  -0.00310   0.00000  -0.00794  -0.00766   1.90809
   A38        1.91895  -0.00189   0.00000   0.00303   0.00330   1.92225
   A39        1.85811   0.00216   0.00000  -0.00069  -0.00116   1.85696
   A40        1.94373   0.00776   0.00000   0.04049   0.04014   1.98387
   A41        1.91915  -0.00008   0.00000   0.00901   0.00905   1.92819
   A42        1.91988   0.00039   0.00000   0.01315   0.01314   1.93303
   A43        1.88808  -0.00316   0.00000  -0.01443  -0.01497   1.87312
   A44        1.88794  -0.00337   0.00000  -0.01478  -0.01544   1.87250
   A45        1.90420  -0.00179   0.00000  -0.03577  -0.03603   1.86817
   A46        2.13574   0.00729   0.00000   0.03068   0.03067   2.16641
   A47        2.04252  -0.00392   0.00000  -0.01686  -0.01687   2.02566
   A48        2.10492  -0.00337   0.00000  -0.01380  -0.01381   2.09111
    D1        3.08860  -0.00497   0.00000  -0.10858  -0.10891   2.97969
    D2        1.02491   0.00402   0.00000   0.03503   0.03471   1.05962
    D3        0.98798  -0.00590   0.00000  -0.11863  -0.11857   0.86942
    D4       -1.07572   0.00309   0.00000   0.02497   0.02506  -1.05066
    D5       -1.15993  -0.00602   0.00000  -0.11989  -0.11966  -1.27959
    D6        3.05956   0.00297   0.00000   0.02371   0.02397   3.08352
    D7        1.11655   0.00194   0.00000   0.16837   0.16699   1.28353
    D8       -3.07955   0.00387   0.00000   0.14174   0.14151  -2.93804
    D9       -3.12927   0.00061   0.00000   0.08330   0.08354  -3.04574
   D10       -1.04218   0.00254   0.00000   0.05668   0.05806  -0.98412
   D11       -1.12265  -0.00304   0.00000  -0.03609  -0.03600  -1.15864
   D12       -3.12449  -0.00346   0.00000  -0.04069  -0.04109   3.11761
   D13        1.01883  -0.00341   0.00000  -0.04024  -0.04034   0.97849
   D14        3.10347   0.00344   0.00000   0.03708   0.03744   3.14092
   D15        1.10163   0.00303   0.00000   0.03248   0.03235   1.13398
   D16       -1.03824   0.00308   0.00000   0.03293   0.03311  -1.00513
   D17        3.10138  -0.00263   0.00000  -0.04846  -0.04870   3.05268
   D18        1.02941  -0.00067   0.00000  -0.01219  -0.01178   1.01763
   D19       -1.03557   0.00372   0.00000   0.02942   0.02924  -1.00633
   D20       -1.10752  -0.00455   0.00000  -0.09590  -0.09613  -1.20365
   D21        3.10369  -0.00259   0.00000  -0.05963  -0.05921   3.04448
   D22        1.03871   0.00180   0.00000  -0.01802  -0.01819   1.02052
   D23        3.11192   0.00341   0.00000   0.07195   0.07275  -3.09851
   D24        1.04597   0.00295   0.00000   0.05887   0.05952   1.10549
   D25       -1.08957  -0.00005   0.00000   0.02138   0.02153  -1.06804
   D26        3.12766  -0.00051   0.00000   0.00830   0.00830   3.13596
   D27        0.96888  -0.00025   0.00000   0.01652   0.01580   0.98468
   D28       -1.09707  -0.00071   0.00000   0.00344   0.00256  -1.09450
   D29       -3.09294  -0.00125   0.00000  -0.02501  -0.02575  -3.11870
   D30        1.09023  -0.00186   0.00000  -0.01456  -0.01453   1.07570
   D31       -0.99874   0.00105   0.00000   0.01795   0.01874  -0.98000
   D32       -1.02635   0.00033   0.00000  -0.00296  -0.00375  -1.03010
   D33       -3.12636  -0.00028   0.00000   0.00748   0.00747  -3.11889
   D34        1.06786   0.00263   0.00000   0.04000   0.04074   1.10859
   D35       -3.12770   0.00201   0.00000   0.02594   0.02601  -3.10169
   D36        1.03888   0.00105   0.00000   0.01642   0.01669   1.05557
   D37       -1.00941   0.00392   0.00000   0.04660   0.04632  -0.96309
   D38       -1.02540   0.00030   0.00000   0.00139   0.00133  -1.02407
   D39        3.14117  -0.00066   0.00000  -0.00812  -0.00798   3.13319
   D40        1.09289   0.00222   0.00000   0.02206   0.02164   1.11453
   D41        1.04979  -0.00338   0.00000  -0.04361  -0.04346   1.00633
   D42       -1.06682  -0.00433   0.00000  -0.05312  -0.05278  -1.11959
   D43       -3.11510  -0.00146   0.00000  -0.02294  -0.02315  -3.13825
   D44        3.13376  -0.00004   0.00000   0.00196   0.00202   3.13578
   D45        1.04108  -0.00102   0.00000  -0.01200  -0.01208   1.02901
   D46       -1.05644   0.00100   0.00000   0.01826   0.01856  -1.03788
   D47       -1.02585   0.00021   0.00000   0.00253   0.00257  -1.02328
   D48       -3.11853  -0.00077   0.00000  -0.01143  -0.01152  -3.13005
   D49        1.06714   0.00125   0.00000   0.01883   0.01911   1.08625
   D50        1.01255  -0.00010   0.00000  -0.00120  -0.00141   1.01114
   D51       -1.08013  -0.00108   0.00000  -0.01516  -0.01550  -1.09563
   D52        3.10553   0.00094   0.00000   0.01510   0.01513   3.12067
   D53        3.13867   0.00024   0.00000   0.00539   0.00537  -3.13914
   D54        0.00030   0.00006   0.00000  -0.00193  -0.00195  -0.00165
   D55       -1.03356   0.00287   0.00000   0.03213   0.03185  -1.00170
   D56        2.11126   0.00268   0.00000   0.02481   0.02453   2.13579
   D57        1.02688  -0.00283   0.00000  -0.02627  -0.02599   1.00090
   D58       -2.11148  -0.00301   0.00000  -0.03359  -0.03331  -2.14479
         Item               Value     Threshold  Converged?
 Maximum Force            0.037256     0.000450     NO 
 RMS     Force            0.005460     0.000300     NO 
 Maximum Displacement     0.510521     0.001800     NO 
 RMS     Displacement     0.160682     0.001200     NO 
 Predicted change in Energy=-1.066926D-02
 GradGradGradGradGradGradGradGradGradGradGradGradGradGradGradGradGradGrad

                          Input orientation:                          
 ---------------------------------------------------------------------
 Center     Atomic      Atomic             Coordinates (Angstroms)
 Number     Number       Type             X           Y           Z
 ---------------------------------------------------------------------
      1          6           0        1.129300    0.149691   -0.249743
      2          7           0        2.549261   -0.066243    0.020825
      3          7           0        2.927475    0.435119    1.346427
      4          6           0        2.393352   -0.480378    2.346750
      5          6           0        4.392868    0.405112    1.336272
      6          7           0        4.974942    0.985759    2.543622
      7          6           0        6.439867    1.005418    2.502107
      8          6           0        7.028808    1.588211    3.790670
      9          6           0        8.565497    1.676742    3.760933
     10          6           0        9.166146    2.258902    5.025373
     11          8           0       10.352035    2.416054    5.203215
     12          1           0        0.957289   -0.090709   -1.303430
     13          1           0        0.786153    1.177707   -0.055769
     14          1           0        0.513947   -0.540069    0.330044
     15          1           0        3.039128    0.574003   -0.598083
     16          1           0        1.302827   -0.449788    2.346436
     17          1           0        2.687417   -0.134139    3.339738
     18          1           0        2.722499   -1.523853    2.201990
     19          1           0        4.708455    1.037142    0.497300
     20          1           0        4.758927   -0.623947    1.128163
     21          1           0        4.695971    0.424893    3.340389
     22          1           0        6.745324    1.630635    1.655021
     23          1           0        6.871991    0.001425    2.334514
     24          1           0        6.716819    0.968096    4.641993
     25          1           0        6.596771    2.581693    3.956816
     26          1           0        8.897436    2.301964    2.924111
     27          1           0        9.009014    0.684758    3.616409
     28          1           0        8.445441    2.552982    5.817256
 ---------------------------------------------------------------------
                    Distance matrix (angstroms):
                    1          2          3          4          5
     1  C    0.000000
     2  N    1.461549   0.000000
     3  N    2.421294   1.466843   0.000000
     4  C    2.955773   2.367645   1.457419   0.000000
     5  C    3.637522   2.313323   1.465735   2.408988   0.000000
     6  N    4.826061   3.654468   2.434872   2.975386   1.460703
     7  C    6.042108   4.737302   3.741354   4.313468   2.430996
     8  C    7.293729   6.084019   4.911708   5.277444   3.791038
     9  C    8.585712   7.295307   6.257696   6.689429   4.990677
    10  C    9.842079   8.615971   7.468724   7.781350   6.311115
    11  O   10.951255   9.690317   8.597849   8.938083   7.383007
    12  H    1.094366   2.070900   3.343632   3.941819   4.360857
    13  H    1.100996   2.159127   2.665118   3.332331   3.942471
    14  H    1.091138   2.112494   2.794485   2.757323   4.117268
    15  H    1.987165   1.016333   1.952658   3.193867   2.367038
    16  H    2.670137   2.666302   2.102988   1.090954   3.361493
    17  H    3.923349   3.322481   2.086857   1.091962   2.685746
    18  H    3.368981   2.629091   2.147458   1.103692   2.694533
    19  H    3.762445   2.471154   2.062846   3.329118   1.096782
    20  H    3.958704   2.533743   2.126846   2.664866   1.111877
    21  H    5.068129   3.983602   2.665252   2.666250   2.027004
    22  H    6.112369   4.812165   4.012538   4.886157   2.671620
    23  H    6.299117   4.903440   4.089451   4.504496   2.702868
    24  H    7.471228   6.308216   5.050143   5.104761   4.079888
    25  H    7.314575   6.235858   4.988551   5.444016   4.057331
    26  H    8.663116   7.371350   6.450940   7.097737   5.139106
    27  H    8.793368   7.431059   6.496172   6.836414   5.156164
    28  H    9.803581   8.673170   7.410911   7.607461   6.412168
                    6          7          8          9         10
     6  N    0.000000
     7  C    1.465644   0.000000
     8  C    2.477185   1.531957   0.000000
     9  C    3.853750   2.560005   1.539525   0.000000
    10  C    5.034498   3.920547   2.557837   1.516080   0.000000
    11  O    6.167034   4.958925   3.704651   2.412152   1.209404
    12  H    5.665697   6.763303   8.101356   9.308947  10.628253
    13  H    4.933521   6.207809   7.344001   8.679542   9.859578
    14  H    5.208508   6.497916   7.677820   9.028439  10.234300
    15  H    3.713116   4.621940   6.017252   7.124452   8.485428
    16  H    3.947671   5.341445   6.247088   7.698656   8.737590
    17  H    2.668473   4.010124   4.692282   6.165106   7.109285
    18  H    3.389449   4.506230   5.545551   6.842130   7.987572
    19  H    2.064240   2.649159   4.066203   5.092854   6.470483
    20  H    2.154376   2.714426   4.139437   5.168619   6.551537
    21  H    1.013525   2.020123   2.645409   4.088669   5.117149
    22  H    2.083202   1.096246   2.154800   2.783886   4.196948
    23  H    2.147424   1.105812   2.159368   2.776566   4.195243
    24  H    2.727198   2.158057   1.098467   2.167039   2.795060
    25  H    2.678517   2.150683   1.096023   2.175589   2.801374
    26  H    4.154892   2.810474   2.179940   1.096064   2.118811
    27  H    4.185118   2.818689   2.183531   1.096187   2.118442
    28  H    5.021676   4.172229   2.654182   2.238454   1.110395
                   11         12         13         14         15
    11  O    0.000000
    12  H   11.699638   0.000000
    13  H   10.986197   1.787407   0.000000
    14  H   11.369892   1.751204   1.781488   0.000000
    15  H    9.514558   2.296390   2.394673   2.911892   0.000000
    16  H    9.912739   3.683729   2.947249   2.167099   3.568344
    17  H    8.289898   4.955224   4.106727   3.734570   4.016417
    18  H    9.096155   4.178258   4.018126   3.057731   3.513070
    19  H    7.476432   4.311139   3.963596   4.484358   2.049638
    20  H    7.558472   4.544166   4.520021   4.320172   2.715275
    21  H    6.279004   5.984033   5.233287   5.242390   4.275386
    22  H    5.120051   6.724345   6.216404   6.730348   4.464173
    23  H    5.115719   6.944554   6.643381   6.688486   4.859919
    24  H    3.953017   8.345137   7.568732   7.703447   6.413979
    25  H    3.960171   8.161843   7.199673   7.739485   6.118394
    26  H    2.706139   9.308218   8.714159   9.224382   7.050637
    27  H    2.705373   9.467653   9.019054   9.190569   7.308472
    28  H    2.007709  10.666100   9.749282  10.128428   8.619812
                   16         17         18         19         20
    16  H    0.000000
    17  H    1.733024   0.000000
    18  H    1.786043   1.796388   0.000000
    19  H    4.150730   3.679123   3.661786   0.000000
    20  H    3.668671   3.069549   2.471836   1.777569   0.000000
    21  H    3.642312   2.084900   2.998025   2.908291   2.449075
    22  H    5.867452   4.734904   5.141312   2.416897   3.050654
    23  H    5.587425   4.305754   4.422931   3.021416   2.512252
    24  H    6.049073   4.375714   5.302642   4.606167   4.326077
    25  H    6.309441   4.799956   5.911421   4.233158   4.653501
    26  H    8.098390   6.683688   7.299875   5.003674   5.377140
    27  H    7.892106   6.380418   6.811667   5.324268   5.095813
    28  H    8.490003   6.820085   7.902075   6.675685   6.758021
                   21         22         23         24         25
    21  H    0.000000
    22  H    2.914469   0.000000
    23  H    2.434373   1.769768   0.000000
    24  H    2.464360   3.059702   2.506590   0.000000
    25  H    2.940205   2.494963   3.060292   1.757149   0.000000
    26  H    4.620497   2.587056   3.121303   3.079840   2.537279
    27  H    4.329672   3.141022   2.584002   2.527106   3.087580
    28  H    4.972138   4.589698   4.595180   2.623211   2.622907
                   26         27         28
    26  H    0.000000
    27  H    1.762691   0.000000
    28  H    2.938979   2.941360   0.000000
 Stoichiometry    C7H17N3O
 Framework group  C1[X(C7H17N3O)]
 Deg. of freedom    78
 Full point group                 C1      NOp   1
 Largest Abelian subgroup         C1      NOp   1
 Largest concise Abelian subgroup C1      NOp   1
                         Standard orientation:                         
 ---------------------------------------------------------------------
 Center     Atomic      Atomic             Coordinates (Angstroms)
 Number     Number       Type             X           Y           Z
 ---------------------------------------------------------------------
      1          6           0       -5.029862   -0.394780   -0.427471
      2          7           0       -3.756897   -0.711484    0.217032
      3          7           0       -2.680905    0.166702   -0.254837
      4          6           0       -2.879641    1.484471    0.335128
      5          6           0       -1.457780   -0.458554    0.256438
      6          7           0       -0.246816    0.210834   -0.211684
      7          6           0        0.973210   -0.453375    0.255733
      8          6           0        2.229289    0.283518   -0.219818
      9          6           0        3.532464   -0.417247    0.205386
     10          6           0        4.786733    0.293744   -0.263440
     11          8           0        5.910287   -0.092705   -0.037736
     12          1           0       -5.737624   -1.184997   -0.158645
     13          1           0       -4.972396   -0.322790   -1.524607
     14          1           0       -5.442166    0.536783   -0.036604
     15          1           0       -3.481310   -1.612101   -0.164901
     16          1           0       -3.791591    1.940946   -0.052372
     17          1           0       -2.071817    2.144676    0.012747
     18          1           0       -2.929221    1.465083    1.437535
     19          1           0       -1.436271   -1.475284   -0.154325
     20          1           0       -1.502940   -0.552391    1.363428
     21          1           0       -0.240028    1.158270    0.148248
     22          1           0        0.980620   -1.471270   -0.151195
     23          1           0        1.009296   -0.545869    1.357079
     24          1           0        2.219657    1.306684    0.179767
     25          1           0        2.189987    0.377199   -1.311122
     26          1           0        3.567104   -1.437445   -0.193804
     27          1           0        3.592143   -0.497283    1.297017
     28          1           0        4.630105    1.222410   -0.851678
 ---------------------------------------------------------------------
 Rotational constants (GHZ):           5.3515505           0.2534401           0.2471272
 Standard basis: 6-31G(2df,p) (6D, 7F)
 There are   426 symmetry adapted cartesian basis functions of A   symmetry.
 There are   393 symmetry adapted basis functions of A   symmetry.
   393 basis functions,   603 primitive gaussians,   426 cartesian basis functions
    44 alpha electrons       44 beta electrons
       nuclear repulsion energy       610.1693299227 Hartrees.
 NAtoms=   28 NActive=   28 NUniq=   28 SFac= 1.00D+00 NAtFMM=   60 NAOKFM=F Big=F
 Integral buffers will be    131072 words long.
 Raffenetti 2 integral format.
 Two-electron integral symmetry is turned on.
 One-electron integrals computed using PRISM.
 PrsmSu:  requested number of processors reduced to:  13 ShMem   1 Linda.
 NBasis=   393 RedAO= T EigKep=  2.60D-04  NBF=   393
 NBsUse=   393 1.00D-06 EigRej= -1.00D+00 NBFU=   393
 Initial guess from the checkpoint file:  "CNNpCpCNCCCCdO.chk"
 B after Tr=     0.000000    0.000000    0.000000
         Rot=    0.999471    0.032404    0.000909   -0.002727 Ang=   3.73 deg.
 ExpMin= 1.61D-01 ExpMax= 5.48D+03 ExpMxC= 8.25D+02 IAcc=2 IRadAn=         4 AccDes= 0.00D+00
 Harris functional with IExCor=  402 and IRadAn=       4 diagonalized for initial guess.
 HarFok:  IExCor=  402 AccDes= 0.00D+00 IRadAn=         4 IDoV= 1 UseB2=F ITyADJ=14
 ICtDFT=  3500011 ScaDFX=  1.000000  1.000000  1.000000  1.000000
 FoFCou: FMM=F IPFlag=           0 FMFlag=      100000 FMFlg1=           0
         NFxFlg=           0 DoJE=T BraDBF=F KetDBF=T FulRan=T
         wScrn=  0.000000 ICntrl=       500 IOpCl=  0 I1Cent=   200000004 NGrid=           0
         NMat0=    1 NMatS0=      1 NMatT0=    0 NMatD0=    1 NMtDS0=    0 NMtDT0=    0
 Petite list used in FoFCou.
 Requested convergence on RMS density matrix=1.00D-08 within 128 cycles.
 Requested convergence on MAX density matrix=1.00D-06.
 Requested convergence on             energy=1.00D-06.
[...]
 98,0.00010552,0.00012454,0.00001724,0.00005669,-0.00006670,-0.00017872
 ,-0.00025921,0.00019571,0.00008627,0.00016501,0.00012603,-0.00029615,0
 .00023316,-0.00094741,0.00062189,-0.00011950,0.00128304,0.02894236,-0.
 00949995,0.02746714,0.00005548,0.00012442,-0.00024308,0.00008856,0.000
 43228,0.00008126,-0.00118612,-0.00107544,0.00022577,-0.00018794,-0.000
 13071,0.00026147,0.00109240,-0.00021875,-0.00088853,0.01316163,-0.0150
 6752,0.00221845,-0.17690187,0.13383908,-0.00795584,-0.01470691,0.01307
 032,-0.00179126,0.00047639,0.00098744,0.00078906,0.00011726,-0.0003237
 5,-0.00037763,0.00030692,0.00013978,0.00018999,-0.00003037,-0.00001006
 ,0.00004705,-0.00007875,-0.00000336,0.00009401,-0.00003016,-0.00001594
 ,-0.00005211,0.00017068,-0.00002101,0.00010953,0.00003619,-0.00000754,
 -0.00000708,-0.00000327,-0.00000838,0.00000764,0.00004621,0.00009303,-
 0.00006986,-0.00024475,-0.00005150,0.00009330,-0.00005371,0.00051341,0
 .00012633,-0.00088570,-0.00417430,-0.00020024,0.19000075,-0.00005605,0
 .00001842,-0.00006689,-0.00038775,0.00045338,-0.00028752,0.00049556,0.
 00129282,0.00017442,-0.00041421,-0.00009063,0.00059206,0.00287990,-0.0
 0082917,0.00101460,0.01795514,-0.03205947,0.00448845,0.12404499,-0.174
 52338,0.00852646,-0.00434969,0.00409345,-0.00009079,-0.00032489,0.0012
 8551,-0.00000110,-0.00015403,0.00031616,0.00001364,0.00007838,-0.00011
 214,-0.00001413,0.00003658,0.00001612,0.00002178,-0.00001416,-0.000047
 39,-0.00002741,-0.00004220,0.00003898,0.00001453,0.00021185,0.00003265
 ,0.00023914,-0.00001425,0.00000019,-0.00004297,0.00007315,-0.00008949,
 -0.00010524,0.00015977,0.00019717,-0.00013638,-0.00024622,0.00004101,-
 0.00045618,-0.00008044,0.00038188,-0.00012240,-0.00347166,-0.00486990,
 -0.00052848,-0.13678726,0.20270173,-0.00020212,-0.00010942,0.00012435,
 0.00009510,-0.00000238,-0.00019698,-0.00007435,-0.00004586,-0.00030631
 ,0.00006158,0.00020037,0.00035899,0.00050922,-0.00086848,0.00040414,-0
 .00400735,0.00400567,0.00042058,-0.00542357,0.00813916,-0.05098917,-0.
 02055142,0.01901576,-0.00319018,0.00084559,0.00103567,0.00077636,0.000
 15174,0.00019275,-0.00017020,0.00022303,0.00000426,0.00013060,0.000074
 35,0.00004922,-0.00002190,0.00011393,-0.00008195,-0.00011522,-0.000124
 01,0.00004491,0.00001398,-0.00002014,0.00002989,-0.00001448,0.00003358
 ,-0.00000275,-0.00000324,-0.00002388,0.00010438,-0.00011236,0.00004499
 ,0.00005527,-0.00014737,0.00016122,-0.00018570,-0.00016159,-0.00000746
 ,0.00012236,-0.00008152,-0.00010412,0.00079964,0.00050380,0.01060273,-
 0.01195459,0.05438425,-0.00034002,-0.00016354,0.00028547,0.00004497,0.
 00007674,-0.00009901,-0.00055170,0.00014687,-0.00049724,0.00022442,0.0
 0019476,0.00008798,0.00272037,0.00041867,0.00477126,-0.01293768,-0.013
 14079,0.01284236,-0.11433607,0.00553357,0.10036292,0.00924027,-0.00111
 562,-0.01793385,0.00101491,0.00091477,-0.00009006,0.00044790,0.0002288
 3,-0.00038611,-0.00014783,0.00001687,0.00014735,0.00005248,0.00002724,
 -0.00007807,0.00010848,-0.00000624,-0.00014278,0.00001177,0.00000937,0
 .00001771,-0.00001217,-0.00005434,-0.00012636,-0.00004648,0.00001874,-
 0.00007005,0.00010501,-0.00003414,-0.00021067,-0.00002885,-0.00008654,
 -0.00003486,-0.00018885,0.00054305,-0.00176499,0.00015243,0.00003450,-
 0.00042443,0.00063208,0.00013778,-0.00140185,-0.01137968,0.00138394,0.
 02053100,0.12589497,0.00006572,-0.00010532,-0.00007015,-0.00031782,0.0
 0017016,-0.00013106,0.00018999,0.00033163,-0.00024104,-0.00013171,0.00
 003616,0.00031540,0.00380053,0.00075348,0.00531392,-0.02792820,-0.0132
 7106,0.02677301,0.00479507,-0.05036561,-0.00292472,0.00331070,0.000399
 60,-0.00383433,0.00061896,0.00050399,-0.00043991,0.00024111,0.00002570
 ,0.00004941,-0.00015041,-0.00002815,0.00001342,-0.00003837,0.00003269,
 -0.00001082,-0.00004926,0.00002895,0.00003533,-0.00002429,0.00004249,0
 .00000258,0.00007115,0.00004272,0.00002976,-0.00012895,0.00001353,-0.0
 0012268,0.00016614,-0.00013520,-0.00028499,0.00000817,0.00002768,0.000
 00705,0.00044824,0.00086834,-0.00192148,0.00033668,0.00012963,-0.00024
 338,-0.00041344,0.00171738,0.00011739,0.01141781,0.00089864,-0.0194732
 7,0.00603019,0.05721884,0.00025102,0.00022278,-0.00030519,-0.00004378,
 -0.00008219,0.00006267,0.00026649,-0.00007011,-0.00024443,-0.00009976,
 -0.00007106,-0.00015363,-0.00174049,-0.00034287,0.00239920,0.00436281,
 0.00798169,-0.00145634,0.09803183,-0.00417776,-0.20800649,0.01400191,-
 0.00210112,-0.02458295,0.00138899,0.00081058,0.00031013,-0.00023441,-0
 .00007217,0.00001639,-0.00028717,0.00009498,0.00002706,-0.00005725,-0.
 00001415,0.00004739,-0.00017149,-0.00000080,0.00011609,-0.00001419,-0.
 00000985,-0.00000451,-0.00002249,0.00001411,0.00004741,0.00001621,-0.0
 0000686,-0.00001083,-0.00011283,0.00000616,0.00012729,0.00004106,0.000
 01916,0.00005704,0.00201005,0.00065545,0.00056559,-0.00002549,0.000026
 28,0.00029798,0.00008703,0.00057797,0.00049780,-0.00020090,-0.00046648
 ,0.00053793,-0.11304454,-0.00237935,0.23112308,0.00004391,0.00004219,-
 0.00003489,0.00009362,-0.00007645,0.00007601,-0.00010220,-0.00028301,0
 .00009534,0.00006690,0.00001095,-0.00007443,-0.00005004,-0.00006160,-0
 .00009172,0.00142374,0.00089012,0.00101074,-0.01551167,0.01541039,-0.0
 0224599,-0.15899459,0.12429471,-0.01091781,0.01079834,-0.01408440,0.00
 110882,0.00126245,-0.00010167,0.00016566,0.00018765,0.00030294,0.00039
 277,-0.00002382,-0.00001515,-0.00000739,-0.00002263,0.00001375,0.00002
 831,0.00002590,-0.00002054,0.00000411,-0.00002430,-0.00001532,-0.00003
 417,0.00001288,0.00000027,0.00000811,-0.00000324,0.00004966,-0.0000005
 7,-0.00004383,-0.00004888,0.00000094,0.00006220,0.00003848,0.00013120,
 -0.00005829,-0.00008479,-0.00001064,-0.00049915,-0.00116677,-0.0007503
 7,-0.00095044,-0.00144271,-0.00366092,0.00107753,-0.00066239,0.0001108
 5,0.17342561,0.00000980,-0.00003064,0.00000396,-0.00003873,-0.00004485
 ,0.00000369,-0.00016316,0.00001968,-0.00006998,-0.00000690,-0.00001522
 ,-0.00001396,0.00012239,0.00035451,0.00015026,-0.00031456,0.00168535,-
 0.00012655,-0.00389538,0.00304036,-0.00053477,0.12329682,-0.18360485,0
 .01358414,0.01655593,-0.02387066,0.00025657,0.00316697,-0.00002436,0.0
 0190466,-0.00179065,0.00018950,-0.00030824,0.00000272,0.00000356,-0.00
 000083,0.00000228,0.00000127,-0.00000884,-0.00000588,0.00000687,0.0000
 0455,-0.00002145,0.00000572,-0.00001024,-0.00000746,-0.00000076,-0.000
 00161,0.00000669,-0.00000814,0.00000094,-0.00000522,0.00000256,0.00001
 452,-0.00000385,-0.00001943,0.00000095,0.00005376,0.00002178,0.0000337
 2,0.00063249,0.00018927,0.00018236,-0.00129573,0.00045003,-0.00079995,
 0.00017487,0.00024990,0.00061323,-0.13338001,0.20508089,0.00004315,0.0
 0002131,-0.00002505,0.00003457,-0.00007677,0.00008514,-0.00020889,-0.0
 0024771,0.00000542,0.00003671,0.00000210,-0.00015375,0.00005945,0.0002
 6921,-0.00012855,0.00169098,0.00115994,0.00102926,-0.02070169,0.020930
 09,-0.00329786,-0.01107808,0.01284444,-0.05135451,-0.00130596,0.001893
 05,-0.00049884,0.00078150,-0.00063204,0.00015403,-0.00018586,0.0001586
 1,-0.00000540,-0.00002175,-0.00001354,-0.00000591,-0.00002109,0.000016
 34,0.00002564,0.00002641,-0.00001499,0.00000136,-0.00002919,-0.0000099
 7,-0.00002993,-0.00000903,0.00000352,-0.00000114,-0.00000194,-0.000025
 01,0.00001794,-0.00002436,-0.00003140,0.00005162,-0.00000304,0.0000328
 9,0.00004924,0.00000462,-0.00003660,0.00002562,-0.00006915,-0.00088262
 ,0.00019348,-0.00324151,-0.00128484,-0.00374055,0.00082224,0.00036180,
 0.00126969,0.01649106,-0.01491753,0.05324386,0.00003354,0.00000711,-0.
 00002427,-0.00000359,-0.00000755,0.00001934,0.00003063,0.00000880,0.00
 006783,-0.00007777,-0.00000553,-0.00002269,-0.00009797,0.00021659,-0.0
 0038473,0.00103757,0.00112182,0.00059057,0.01049574,-0.00062941,-0.018
 60653,-0.12824506,0.00251306,0.11986644,-0.01072814,-0.00082951,0.0121
 0980,-0.00026519,0.00091125,0.00308150,0.00045497,-0.00021444,-0.00092
 088,-0.00000516,-0.00000206,0.00000791,-0.00000813,0.00000007,0.000012
 99,-0.00000445,0.00000084,-0.00000072,0.00000232,0.00000379,0.00001000
 ,-0.00000519,-0.00000160,0.00000515,-0.00004296,-0.00004536,0.00000571
 ,0.00001002,0.00000695,0.00001934,-0.00007579,-0.00008425,0.00020331,0
 .00001997,0.00000392,0.00007537,-0.00011806,-0.00007278,0.00010074,0.0
 0119044,0.00013035,0.00062900,-0.00160168,-0.00142940,-0.00359437,-0.0
 1213658,0.00027350,0.01765742,0.13949010,0.00000770,0.00002630,-0.0000
 0275,0.00001020,-0.00003354,0.00001557,-0.00002570,-0.00009520,-0.0000
 0659,-0.00003396,0.00001366,-0.00006656,-0.00030769,0.00005024,-0.0000
 9351,0.00077535,0.00055298,0.00011068,0.00265602,-0.00044040,-0.004177
 79,0.00286723,-0.04871548,-0.00056182,-0.01766007,-0.00082561,0.024590
 86,-0.00043038,0.00124104,0.00187266,0.00046010,-0.00019074,-0.0007118
 1,-0.00000122,-0.00000711,0.00000194,-0.00000189,0.00000048,0.00000217
 ,0.00000598,-0.00000836,0.00000107,-0.00001171,-0.00000077,-0.00000264
 ,0.00002400,-0.00000207,0.00001898,-0.00005043,0.00001178,0.00000010,-
 0.00000354,-0.00001437,0.00000254,-0.00001021,-0.00007305,0.00019108,-
 0.00000828,-0.00002372,0.00000849,0.00020084,0.00001162,-0.00029095,-0
 .00042903,0.00016755,0.00053768,-0.00105138,0.00037537,-0.00045447,0.0
 1356611,-0.00021800,-0.02044366,0.00149728,0.05194717,0.00009766,0.000
 04535,-0.00007802,-0.00006198,-0.00002000,0.00008977,-0.00004897,-0.00
 006604,0.00004434,-0.00010459,0.00002997,-0.00021103,-0.00034905,0.000
 08577,0.00011162,0.00082303,0.00066638,0.00283074,0.01522097,-0.000078
 67,-0.02647532,0.11812773,-0.00133887,-0.22102441,0.00150069,0.0013527
 3,-0.00085680,-0.00138986,-0.00035860,-0.00039199,0.00037255,0.0000448
 9,0.00014338,-0.00002253,-0.00000776,0.00001451,-0.00004411,0.00000273
 ,0.00004848,0.00000009,-0.00000048,-0.00000522,0.00002145,0.00000062,0
 .00001452,-0.00001755,-0.00000219,0.00001737,-0.00003865,-0.00008645,0
 .00004850,0.00001444,-0.00000194,0.00006686,0.00021546,0.00005669,0.00
 036700,-0.00007383,-0.00003691,0.00005440,0.00006048,0.00000731,-0.000
 28965,0.00027190,0.00047097,0.00128286,-0.00393844,-0.00094190,-0.0035
 3353,-0.00157753,-0.00025184,0.00207532,-0.12880144,0.00013880,0.24438
 358,0.00000181,0.00002096,-0.00001251,0.00000348,-0.00000278,-0.000014
 69,0.00003791,0.00001869,-0.00001334,-0.00001614,-0.00001685,0.0000187
 6,-0.00011301,0.00011686,-0.00007210,0.00040159,-0.00002577,0.00028290
 ,0.00128407,-0.00046291,0.00003392,0.01057315,-0.01396268,0.00215511,-
 0.15609315,0.12885262,-0.01631630,-0.01670718,0.01365038,0.00007737,-0
 .00009440,-0.00296244,-0.00418657,0.00000510,0.00000036,0.00000822,-0.
 00000527,0.00000023,-0.00000147,-0.00000173,-0.00000142,-0.00000712,-0
 .00000549,0.00000320,0.00001282,0.00000524,-0.00000238,-0.00000331,-0.
 00000877,-0.00000697,0.00001185,0.00000749,0.00001426,0.00000084,-0.00
 000037,-0.00000843,0.00001590,0.00004746,0.00002472,0.00003589,-0.0000
 9309,0.00009351,0.00001152,-0.00007622,0.00038083,0.00015184,-0.000085
 91,0.00013791,-0.00006581,-0.00100905,-0.00343741,-0.00014385,0.000866
 83,0.00075219,-0.00001927,0.17204055,-0.00000545,-0.00003013,0.0000031
 6,-0.00002630,0.00001788,-0.00002607,0.00001243,0.00005525,-0.00001832
 ,-0.00002255,-0.00002021,0.00002382,0.00000830,0.00008613,-0.00001904,
 -0.00018067,0.00044222,0.00009182,0.00188458,0.00109203,0.00042266,0.0
 1881184,-0.02655265,0.00378588,0.12455734,-0.17263806,0.01880251,-0.00
 452798,0.00519012,-0.00077115,-0.00093315,-0.00209837,-0.00049370,0.00
 000773,0.00000903,0.00000418,0.00000486,-0.00000526,-0.00000806,-0.000
 01665,0.00001158,-0.00000015,0.,0.00001032,0.00000690,-0.00001197,-0.0
 0000097,-0.00000345,0.00000658,-0.00001758,0.00000010,0.00000795,0.000
 01968,0.00000624,-0.00001078,-0.00000482,-0.00001349,0.00003283,0.0000
 2657,0.00003039,0.00014244,0.00036873,0.00022942,-0.00105801,0.0002399
 0,-0.00063767,-0.00013284,0.00002604,-0.00007310,-0.00404776,-0.004550
 73,0.00063483,0.00001185,0.00123837,0.00019853,-0.13449770,0.19761675,
 -0.00002079,-0.00002026,0.00001625,0.00001759,0.00001408,-0.00002350,0
 .00001761,0.00003411,-0.00000304,-0.00000501,-0.00000312,0.00003804,0.
 00000463,-0.00003700,0.00000488,-0.00003609,-0.00005128,-0.00013888,0.
 00072363,-0.00073946,0.00016172,-0.00057070,0.00261451,0.00014113,-0.0
 1858625,0.02340786,-0.05409804,-0.01963036,0.02320944,0.00051973,-0.00
 167781,-0.00417855,-0.00283421,0.00000734,0.00000509,-0.00000091,0.000
 01389,-0.00000784,-0.00001318,-0.00001312,0.00000418,0.00000561,-0.000
 00349,0.00000249,-0.00000072,0.00000912,-0.00000041,0.00000198,-0.0000
 0589,0.00001178,-0.00000361,0.00000527,0.00000442,-0.00001334,0.000001
 03,-0.00000877,-0.00001203,0.00000452,0.00000868,-0.00000157,-0.000031
 58,0.00003271,-0.00005648,-0.00012213,0.00002273,0.00031501,0.00004819
 ,-0.00005257,-0.00002124,-0.00015042,0.00023346,0.00087127,-0.00047659
 ,0.00017367,0.00021259,0.02179318,-0.02286791,0.05048122,-0.00003950,-
 0.00002087,0.00003309,0.00002730,0.00001088,-0.00002374,-0.00000178,0.
 00000929,-0.00001674,0.00001481,-0.00000417,0.00003596,-0.00001187,-0.
 00003065,-0.00002772,0.00023402,0.00009192,-0.00070132,-0.00006064,0.0
 0047656,0.00162631,-0.00948903,0.00044805,0.01161895,-0.14859932,0.001
 95334,0.12971808,0.01092032,-0.00045900,-0.01624675,0.00185255,0.00085
 933,0.00208975,0.00000630,0.00000191,-0.00000598,0.00002193,-0.0000053
 8,-0.00001499,-0.00000180,0.,0.00000529,-0.00000846,-0.00000139,-0.000
 00659,0.00000835,0.00000147,0.00000045,-0.00000053,0.00001592,-0.00000
 513,-0.00000068,-0.00000176,-0.00001375,-0.00002949,-0.00002260,-0.000
 04261,-0.00000226,-0.00000377,-0.00000381,-0.00000751,-0.00000510,0.00
 010773,0.00001379,-0.00006356,-0.00002108,0.00007651,-0.00028980,-0.00
 093507,0.00093161,0.00004411,-0.00055097,-0.00021193,-0.00290156,-0.00
 050343,-0.01191733,-0.00054468,0.01655232,0.15769000,0.00000048,-0.000
 01436,0.00000267,-0.00000409,0.00000649,-0.00000214,-0.00000701,0.0000
 0457,0.00000497,0.00002496,-0.00000061,0.00002673,0.00015018,0.0000307
 1,-0.00009365,0.00014572,-0.00006234,-0.00045485,0.00045169,0.00075808
 ,0.00139869,-0.01847094,-0.00003480,0.02365725,0.00177557,-0.04864806,
 -0.00059727,0.00511265,-0.00063021,-0.00565071,0.00004080,-0.00116430,
 0.00137014,-0.00000184,0.00000213,-0.00000297,0.00000093,0.00000366,0.
 00000101,0.00000132,0.00000148,-0.00000089,0.00000251,-0.00000167,-0.0
 0000426,-0.00000656,0.00000088,-0.00000411,0.00001234,0.00000730,-0.00
 000501,-0.00000562,-0.00000218,-0.00000837,-0.00005395,-0.00000938,-0.
 00005954,-0.00000109,-0.00000465,0.00001096,-0.00004876,-0.00003051,0.
 00013108,-0.00002135,0.00000019,-0.00017894,0.00005466,0.00004930,-0.0
 0075359,0.00089099,0.00138597,0.00015691,-0.00324520,-0.00479590,0.000
 04962,0.01314708,-0.00011971,-0.01895536,0.00137976,0.05149594,0.00000
 134,0.00000590,-0.00000298,-0.00000502,-0.00000188,0.00000341,-0.00000
 595,0.00000117,0.,-0.00000263,0.00000263,-0.00001283,0.00003988,0.0000
 3861,0.00003745,-0.00010676,-0.00017513,0.00009148,-0.00041077,0.00002
 821,0.00057984,0.00013608,0.00057591,-0.00085969,0.12553347,-0.0012175
 4,-0.20943692,0.02177830,-0.00059294,-0.02689044,-0.00063506,0.0010925
 8,0.00656364,0.00000083,-0.00000047,0.00000131,-0.00000288,-0.00000033
 ,0.00000059,0.00000042,-0.00000003,-0.00000094,0.00000141,0.00000107,0
 .00000114,-0.00000206,-0.00000017,-0.00000125,0.00000174,-0.00000482,0
 .00000016,0.00000027,0.00000067,0.00000441,-0.00000245,0.00000519,-0.0
 0001289,0.00001465,0.00000783,0.00000525,0.00001014,0.00001077,-0.0000
 6657,-0.00003255,-0.00001626,-0.00001988,0.00022345,-0.00002248,0.0003
 6608,-0.00004771,0.00026501,0.00014312,-0.00039849,0.00002219,0.000445
 29,-0.00330734,-0.00013094,0.00399058,-0.13959745,0.00100004,0.2291442
 0,-0.00000794,-0.00000065,0.00000346,0.00001840,0.00000098,-0.00001279
 ,0.00001430,0.00000298,-0.00000593,-0.00000459,-0.00000901,0.00002186,
 -0.00003465,0.00004731,-0.00001648,0.00009909,0.00003250,0.00016655,-0
 .00000210,0.00031356,-0.00032976,0.00089532,0.00051389,0.00021244,0.00
 960615,-0.00400614,-0.01242271,-0.09259893,0.00530557,0.07725099,-0.04
 568085,-0.00641604,0.03548179,0.00000196,0.00000069,0.00000093,0.00000
 452,-0.00000106,-0.00000412,-0.00000207,-0.00000045,0.00000033,-0.0000
 0618,0.00000080,0.00000149,0.00000655,-0.00000090,0.00000027,-0.000008
 39,0.00000200,0.00000378,0.00000374,0.00000560,-0.00000363,0.00000642,
 0.00000085,-0.00000069,0.00002218,0.00000985,0.00001346,-0.00000341,0.
 00000120,0.00000807,-0.00004082,0.00001865,-0.00000848,-0.00014717,-0.
 00007433,0.00008182,0.00001750,0.00002406,-0.00005177,-0.00000449,0.00
 010402,0.00026477,0.00095243,0.00052772,0.00213192,-0.00141537,-0.0013
 2521,-0.00318483,0.12830841,0.00000206,0.00001531,-0.00000631,0.000009
 10,-0.00000701,-0.00000039,0.00001037,-0.00000821,0.00000149,-0.000005
 55,-0.00000359,0.00000192,-0.00001684,0.00009762,-0.00005808,0.0002057
 9,-0.00009783,0.00028702,0.00021253,0.00065367,-0.00047117,0.00221838,
 0.00116356,0.00227714,-0.00076748,0.01593943,-0.00657286,0.00464964,-0
 .06235105,-0.00641162,-0.00845442,0.01973272,0.00509024,0.00000114,-0.
 00000163,0.00000306,-0.00000310,0.00000003,0.00000055,0.00000169,-0.00
 000282,-0.00000212,-0.00000378,0.00000002,0.00000308,0.00000422,-0.000
 00079,-0.00000102,-0.00000446,-0.00000075,0.00000473,0.00000143,0.0000
 0233,0.00000077,0.00000057,-0.00000126,0.00000687,0.00003229,0.0000102
 1,0.00002328,-0.00001371,-0.00002024,0.00000291,0.00008209,-0.00000420
 ,0.00000395,-0.00016001,-0.00003686,0.00005352,-0.00001912,-0.00029956
 ,0.00013164,-0.00014008,-0.00019224,0.00004128,-0.00182607,-0.00041210
 ,-0.00285670,-0.00093825,0.00177197,-0.00089478,0.00492157,0.02405326,
 0.00003974,-0.00000165,-0.00001810,-0.00006986,-0.00000233,0.00004884,
 -0.00005912,-0.00000790,0.00001727,0.00001337,0.00003188,-0.00007485,0
 .00019120,-0.00008216,0.00010668,-0.00052103,-0.00022923,-0.00012607,-
 0.00039778,-0.00044674,0.00047704,0.00123118,0.00141411,-0.00076628,0.
 01612717,-0.00241151,-0.02027593,0.07010099,-0.00845357,-0.21741289,0.
 01761900,0.00207335,0.01370395,-0.00001159,-0.00000231,-0.00000411,-0.
 00002026,0.00000650,0.00001842,0.00000714,0.00000258,-0.00000101,0.000
 02431,-0.00000277,-0.00000563,-0.00002696,0.00000259,-0.00000158,0.000
 02900,-0.00001528,-0.00001495,-0.00001157,-0.00001640,0.00001621,-0.00
 001186,0.00001545,-0.00001079,-0.00006262,-0.00002528,-0.00004527,0.00
 001296,0.00001050,-0.00005953,0.00006424,0.00002288,0.00001811,0.00010
 338,0.00007507,0.00045031,-0.00001935,-0.00020767,-0.00000050,-0.00123
 171,-0.00087592,0.00061487,-0.00044644,0.00082264,0.00046076,-0.003070
 79,-0.00103843,-0.00407356,-0.09960273,0.00934158,0.22695858\\-0.00000
 104,-0.00000386,0.00000767,-0.00001276,0.00001125,-0.00001438,0.000015
 09,-0.00000235,0.00002907,-0.00000206,0.00000498,-0.00001037,-0.000038
 29,-0.00000735,-0.00003897,0.00000447,-0.00000446,0.00002886,0.0000099
 6,0.00003137,-0.00000458,0.00000207,0.00000380,-0.00000808,-0.00001224
 ,-0.00002085,0.00000032,0.00002043,0.00001209,-0.00000430,-0.00000865,
 -0.00000227,-0.00000106,-0.00000080,0.00000294,-0.00000282,0.00000073,
 -0.00000018,-0.00000131,0.00000050,0.00000240,-0.00000504,0.00000482,-
 0.00000981,0.00000373,0.00000837,-0.00000106,-0.00000846,0.00000396,-0
 .00000521,0.00000046,0.00000762,-0.00000216,0.00000380,-0.00000141,0.0
 0000315,0.00002208,0.00000196,-0.00000908,0.00000031,0.00000352,-0.000
 00637,-0.00000190,0.00000232,0.00000450,0.00000024,-0.00000430,-0.0000
 0612,0.00000046,0.00000032,0.00000073,0.00000030,-0.00000079,-0.000001
 78,0.00000207,0.00000122,0.00000459,0.00000123,0.00000119,0.00000256,-
 0.00000008,-0.00000623,-0.00000145,0.00000074\\\@


 IF YOU DON'T HAVE THE LAW - ARGUE THE FACTS.
 IF YOU DON'T HAVE THE FACTS - ARGUE THE LAW.
 IF YOU DON'T HAVE EITHER - POUND THE TABLE.
 Job cpu time:       0 days  3 hours 43 minutes 26.0 seconds.
 Elapsed time:       0 days  0 hours 55 minutes 52.5 seconds.
 File lengths (MBytes):  RWF=    318 Int=      0 D2E=      0 Chk=     14 Scr=      1
 Normal termination of Gaussian 16 at Tue Jun  1 08:17:52 2021.
### All Done ###
