### Starting Gaussian ###
 Entering Gaussian System, Link 0=g16
 Initial command:
 /cluster/software/gaussian/gaussian-16-A.03/avx2/g16/l1.exe "/local/scratch/cz9n3/Gau-9145.inp" -scrdir="/local/scratch/cz9n3/"
 Entering Link 1 = /cluster/software/gaussian/gaussian-16-A.03/avx2/g16/l1.exe PID=      9146.
  
 Copyright (c) 1988,1990,1992,1993,1995,1998,2003,2009,2016,
            Gaussian, Inc.  All Rights Reserved.
  
 This is part of the Gaussian(R) 16 program.  It is based on
 the Gaussian(R) 09 system (copyright 2009, Gaussian, Inc.),
 the Gaussian(R) 03 system (copyright 2003, Gaussian, Inc.),
 the Gaussian(R) 98 system (copyright 1998, Gaussian, Inc.),
 the Gaussian(R) 94 system (copyright 1995, Gaussian, Inc.),
 the Gaussian 92(TM) system (copyright 1992, Gaussian, Inc.),
 the Gaussian 90(TM) system (copyright 1990, Gaussian, Inc.),
 the Gaussian 88(TM) system (copyright 1988, Gaussian, Inc.),
 the Gaussian 86(TM) system (copyright 1986, Carnegie Mellon
 University), and the Gaussian 82(TM) system (copyright 1983,
 Carnegie Mellon University). Gaussian is a federally registered
 trademark of Gaussian, Inc.
  
 This software contains proprietary and confidential information,
 including trade secrets, belonging to Gaussian, Inc.
  
 This software is provided under written license and may be
 used, copied, transmitted, or stored only in accord with that
 written license.
  
 The following legend is applicable only to US Government
 contracts under FAR:
  
                    RESTRICTED RIGHTS LEGEND
  
 Use, reproduction and disclosure by the US Government is
 subject to restrictions as set forth in subparagraphs (a)
 and (c) of the Commercial Computer Software - Restricted
 Rights clause in FAR 52.227-19.
  
 Gaussian, Inc.
 340 Quinnipiac St., Bldg. 40, Wallingford CT 06492
  
  
 ---------------------------------------------------------------
 Warning -- This program may not be used in any manner that
 competes with the business of Gaussian, Inc. or will provide
 assistance to any competitor of Gaussian, Inc.  The licensee
 of this program is prohibited from giving any competitor of
 Gaussian, Inc. access to this program.  By using this program,
 the user acknowledges that Gaussian, Inc. is engaged in the
 business of creating and licensing software in the field of
 computational chemistry and represents and warrants to the
 licensee that it is not a competitor of Gaussian, Inc. and that
 it will not use this program in any manner prohibited above.
 ---------------------------------------------------------------
  

 Cite this work as:
 Gaussian 16, Revision A.03,
 M. J. Frisch, G. W. Trucks, H. B. Schlegel, G. E. Scuseria, 
 M. A. Robb, J. R. Cheeseman, G. Scalmani, V. Barone, 
 G. A. Petersson, H. Nakatsuji, X. Li, M. Caricato, A. V. Marenich, 
 J. Bloino, B. G. Janesko, R. Gomperts, B. Mennucci, H. P. Hratchian, 
 J. V. Ortiz, A. F. Izmaylov, J. L. Sonnenberg, D. Williams-Young, 
 F. Ding, F. Lipparini, F. Egidi, J. Goings, B. Peng, A. Petrone, 
 T. Henderson, D. Ranasinghe, V. G. Zakrzewski, J. Gao, N. Rega, 
 G. Zheng, W. Liang, M. Hada, M. Ehara, K. Toyota, R. Fukuda, 
 J. Hasegawa, M. Ishida, T. Nakajima, Y. Honda, O. Kitao, H. Nakai, 
 T. Vreven, K. Throssell, J. A. Montgomery, Jr., J. E. Peralta, 
 F. Ogliaro, M. J. Bearpark, J. J. Heyd, E. N. Brothers, K. N. Kudin, 
 V. N. Staroverov, T. A. Keith, R. Kobayashi, J. Normand, 
 K. Raghavachari, A. P. Rendell, J. C. Burant, S. S. Iyengar, 
 J. Tomasi, M. Cossi, J. M. Millam, M. Klene, C. Adamo, R. Cammi, 
 J. W. Ochterski, R. L. Martin, K. Morokuma, O. Farkas, 
 J. B. Foresman, and D. J. Fox, Gaussian, Inc., Wallingford CT, 2016.
 
 ******************************************
 Gaussian 16:  ES64L-G16RevA.03 25-Dec-2016
                31-May-2021 
 ******************************************
 %chk=CNpCCNpCCCCCCdO.chk
 %NProcShared=20
 Will use up to   20 processors via shared memory.
 -----------------------------
 # opt freq b3lyp/6-31g(2df,p)
 -----------------------------
 1/18=20,19=15,26=3,38=1/1,3;
 2/9=110,12=2,17=6,18=5,40=1/2;
 3/5=1,6=6,7=104,11=2,25=1,30=1,71=1,74=-5/1,2,3;
 4//1;
 5/5=2,38=5/2;
 6/7=2,8=2,9=2,10=2,28=1/1;
 7//1,2,3,16;
 1/18=20,19=15,26=3/3(2);
 2/9=110/2;
 99//99;
 2/9=110/2;
 3/5=1,6=6,7=104,11=2,25=1,30=1,71=1,74=-5/1,2,3;
 4/5=5,16=3,69=1/1;
 5/5=2,38=5/2;
 7//1,2,3,16;
 1/18=20,19=15,26=3/3(-5);
 2/9=110/2;
 6/7=2,8=2,9=2,10=2,19=2,28=1/1;
 99/9=1/99;
 -------------------
 Title Card Required
 -------------------
 Symbolic Z-matrix:
 Charge =  0 Multiplicity = 1
 C                     0.88082   0.02249   0.00348 
 N                     2.34564  -0.04118   0.00234 
 C                     2.81651  -1.39446  -0.35433 
 C                     2.3613   -2.48254   0.62708 
 N                     2.87988  -3.79012   0.22924 
 C                     2.86734   0.96117  -0.9419 
 C                     4.39537   1.01139  -0.94864 
 C                     4.90412   2.0498   -1.93247 
 C                     6.42806   2.04388  -1.94512 
 C                     6.94716   3.07372  -2.93322 
 C                     8.44873   3.09156  -2.953 
 O                     9.0904    3.85108  -3.67784 
 H                     0.45118  -0.64678   0.75406 
 H                     0.46506  -0.24053  -0.97577 
 H                     0.53389   1.02434   0.27612 
 H                     3.91113  -1.43098  -0.334 
 H                     2.50629  -1.64538  -1.37778 
 H                     1.27193  -2.55365   0.65473 
 H                     2.71538  -2.23613   1.63438 
 H                     2.5156   -4.02171  -0.6942 
 H                     2.50801  -4.49024   0.86827 
 H                     2.49671   1.95409  -0.65347 
 H                     2.49823   0.76348  -1.95706 
 H                     4.8204    0.05203  -1.25878 
 H                     4.76731   1.22492   0.06102 
 H                     4.52757   3.04153  -1.65924 
 H                     4.52605   1.8171   -2.93598 
 H                     6.79828   1.04552  -2.21455 
 H                     6.81027   2.25576  -0.93848 
 H                     6.59372   4.07073  -2.65178 
 H                     6.59182   2.83681  -3.94148 
 H                     8.96521   2.38515  -2.2826 
 

 GradGradGradGradGradGradGradGradGradGradGradGradGradGradGradGradGradGrad
 Berny optimization.
 Initialization pass.
                           ----------------------------
                           !    Initial Parameters    !
                           ! (Angstroms and Degrees)  !
 --------------------------                            --------------------------
 ! Name  Definition              Value          Derivative Info.                !
 --------------------------------------------------------------------------------
 ! R1    R(1,2)                  1.4662         estimate D2E/DX2                !
 ! R2    R(1,13)                 1.0936         estimate D2E/DX2                !
 ! R3    R(1,14)                 1.0959         estimate D2E/DX2                !
 ! R4    R(1,15)                 1.0947         estimate D2E/DX2                !
 ! R5    R(2,3)                  1.4766         estimate D2E/DX2                !
 ! R6    R(2,6)                  1.4726         estimate D2E/DX2                !
 ! R7    R(3,4)                  1.5344         estimate D2E/DX2                !
 ! R8    R(3,16)                 1.0954         estimate D2E/DX2                !
 ! R9    R(3,17)                 1.0985         estimate D2E/DX2                !
 ! R10   R(4,5)                  1.4618         estimate D2E/DX2                !
 ! R11   R(4,18)                 1.092          estimate D2E/DX2                !
 ! R12   R(4,19)                 1.0958         estimate D2E/DX2                !
 ! R13   R(5,20)                 1.0194         estimate D2E/DX2                !
 ! R14   R(5,21)                 1.0182         estimate D2E/DX2                !
 ! R15   R(6,7)                  1.5289         estimate D2E/DX2                !
 ! R16   R(6,22)                 1.0984         estimate D2E/DX2                !
 ! R17   R(6,23)                 1.0981         estimate D2E/DX2                !
 ! R18   R(7,8)                  1.5182         estimate D2E/DX2                !
 ! R19   R(7,24)                 1.0942         estimate D2E/DX2                !
 ! R20   R(7,25)                 1.097          estimate D2E/DX2                !
 ! R21   R(8,9)                  1.524          estimate D2E/DX2                !
 ! R22   R(8,26)                 1.0954         estimate D2E/DX2                !
 ! R23   R(8,27)                 1.0973         estimate D2E/DX2                !
 ! R24   R(9,10)                 1.5187         estimate D2E/DX2                !
 ! R25   R(9,28)                 1.0984         estimate D2E/DX2                !
 ! R26   R(9,29)                 1.0974         estimate D2E/DX2                !
 ! R27   R(10,11)                1.5018         estimate D2E/DX2                !
 ! R28   R(10,30)                1.0946         estimate D2E/DX2                !
 ! R29   R(10,31)                1.095          estimate D2E/DX2                !
 ! R30   R(11,12)                1.2304         estimate D2E/DX2                !
 ! R31   R(11,32)                1.1024         estimate D2E/DX2                !
 ! A1    A(2,1,13)             111.4979         estimate D2E/DX2                !
 ! A2    A(2,1,14)             111.5866         estimate D2E/DX2                !
 ! A3    A(2,1,15)             110.8885         estimate D2E/DX2                !
 ! A4    A(13,1,14)            108.5041         estimate D2E/DX2                !
 ! A5    A(13,1,15)            105.3458         estimate D2E/DX2                !
 ! A6    A(14,1,15)            108.7815         estimate D2E/DX2                !
 ! A7    A(1,2,3)              111.0128         estimate D2E/DX2                !
 ! A8    A(1,2,6)              108.9585         estimate D2E/DX2                !
 ! A9    A(3,2,6)              110.8533         estimate D2E/DX2                !
 ! A10   A(2,3,4)              113.629          estimate D2E/DX2                !
 ! A11   A(2,3,16)             110.1654         estimate D2E/DX2                !
 ! A12   A(2,3,17)             110.1419         estimate D2E/DX2                !
 ! A13   A(4,3,16)             105.1262         estimate D2E/DX2                !
 ! A14   A(4,3,17)             110.4972         estimate D2E/DX2                !
 ! A15   A(16,3,17)            106.9706         estimate D2E/DX2                !
 ! A16   A(3,4,5)              110.7929         estimate D2E/DX2                !
 ! A17   A(3,4,18)             110.9972         estimate D2E/DX2                !
 ! A18   A(3,4,19)             109.429          estimate D2E/DX2                !
 ! A19   A(5,4,18)             107.6093         estimate D2E/DX2                !
 ! A20   A(5,4,19)             109.6752         estimate D2E/DX2                !
 ! A21   A(18,4,19)            108.2828         estimate D2E/DX2                !
 ! A22   A(4,5,20)             108.8439         estimate D2E/DX2                !
 ! A23   A(4,5,21)             108.3409         estimate D2E/DX2                !
 ! A24   A(20,5,21)            106.3681         estimate D2E/DX2                !
 ! A25   A(2,6,7)              112.2884         estimate D2E/DX2                !
 ! A26   A(2,6,22)             109.1109         estimate D2E/DX2                !
 ! A27   A(2,6,23)             110.5578         estimate D2E/DX2                !
 ! A28   A(7,6,22)             107.9815         estimate D2E/DX2                !
 ! A29   A(7,6,23)             109.7418         estimate D2E/DX2                !
 ! A30   A(22,6,23)            106.9822         estimate D2E/DX2                !
 ! A31   A(6,7,8)              111.1144         estimate D2E/DX2                !
 ! A32   A(6,7,24)             111.1423         estimate D2E/DX2                !
 ! A33   A(6,7,25)             109.9507         estimate D2E/DX2                !
 ! A34   A(8,7,24)             106.6094         estimate D2E/DX2                !
 ! A35   A(8,7,25)             110.4677         estimate D2E/DX2                !
 ! A36   A(24,7,25)            107.4486         estimate D2E/DX2                !
 ! A37   A(7,8,9)              109.7429         estimate D2E/DX2                !
 ! A38   A(7,8,26)             110.0227         estimate D2E/DX2                !
 ! A39   A(7,8,27)             109.3972         estimate D2E/DX2                !
 ! A40   A(9,8,26)             110.4456         estimate D2E/DX2                !
 ! A41   A(9,8,27)             109.64           estimate D2E/DX2                !
 ! A42   A(26,8,27)            107.557          estimate D2E/DX2                !
 ! A43   A(8,9,10)             110.1551         estimate D2E/DX2                !
 ! A44   A(8,9,28)             110.0367         estimate D2E/DX2                !
 ! A45   A(8,9,29)             109.8712         estimate D2E/DX2                !
 ! A46   A(10,9,28)            109.9723         estimate D2E/DX2                !
 ! A47   A(10,9,29)            110.2944         estimate D2E/DX2                !
 ! A48   A(28,9,29)            106.4462         estimate D2E/DX2                !
 ! A49   A(9,10,11)            111.0009         estimate D2E/DX2                !
 ! A50   A(9,10,30)            109.8769         estimate D2E/DX2                !
 ! A51   A(9,10,31)            109.966          estimate D2E/DX2                !
 ! A52   A(11,10,30)           108.3855         estimate D2E/DX2                !
 ! A53   A(11,10,31)           108.3553         estimate D2E/DX2                !
 ! A54   A(30,10,31)           109.2104         estimate D2E/DX2                !
 ! A55   A(10,11,12)           122.4458         estimate D2E/DX2                !
 ! A56   A(10,11,32)           116.9251         estimate D2E/DX2                !
 ! A57   A(12,11,32)           120.629          estimate D2E/DX2                !
 ! D1    D(13,1,2,3)            62.4869         estimate D2E/DX2                !
 ! D2    D(13,1,2,6)          -175.1583         estimate D2E/DX2                !
 ! D3    D(14,1,2,3)           -59.0245         estimate D2E/DX2                !
 ! D4    D(14,1,2,6)            63.3303         estimate D2E/DX2                !
 ! D5    D(15,1,2,3)           179.536          estimate D2E/DX2                !
 ! D6    D(15,1,2,6)           -58.1093         estimate D2E/DX2                !
 ! D7    D(1,2,3,4)            -61.3675         estimate D2E/DX2                !
 ! D8    D(1,2,3,16)          -179.0189         estimate D2E/DX2                !
 ! D9    D(1,2,3,17)            63.2131         estimate D2E/DX2                !
 ! D10   D(6,2,3,4)            177.3843         estimate D2E/DX2                !
 ! D11   D(6,2,3,16)            59.7329         estimate D2E/DX2                !
 ! D12   D(6,2,3,17)           -58.035          estimate D2E/DX2                !
 ! D13   D(1,2,6,7)            176.9654         estimate D2E/DX2                !
 ! D14   D(1,2,6,22)            57.2875         estimate D2E/DX2                !
 ! D15   D(1,2,6,23)           -60.1049         estimate D2E/DX2                !
 ! D16   D(3,2,6,7)            -60.5837         estimate D2E/DX2                !
 ! D17   D(3,2,6,22)           179.7384         estimate D2E/DX2                !
 ! D18   D(3,2,6,23)            62.346          estimate D2E/DX2                !
 ! D19   D(2,3,4,5)           -179.0077         estimate D2E/DX2                !
 ! D20   D(2,3,4,18)            61.4967         estimate D2E/DX2                !
 ! D21   D(2,3,4,19)           -57.9549         estimate D2E/DX2                !
 ! D22   D(16,3,4,5)           -58.4742         estimate D2E/DX2                !
 ! D23   D(16,3,4,18)         -177.9698         estimate D2E/DX2                !
 ! D24   D(16,3,4,19)           62.5786         estimate D2E/DX2                !
 ! D25   D(17,3,4,5)            56.6032         estimate D2E/DX2                !
 ! D26   D(17,3,4,18)          -62.8923         estimate D2E/DX2                !
 ! D27   D(17,3,4,19)          177.6561         estimate D2E/DX2                !
 ! D28   D(3,4,5,20)           -61.1466         estimate D2E/DX2                !
 ! D29   D(3,4,5,21)          -176.4138         estimate D2E/DX2                !
 ! D30   D(18,4,5,20)           60.3636         estimate D2E/DX2                !
 ! D31   D(18,4,5,21)          -54.9036         estimate D2E/DX2                !
 ! D32   D(19,4,5,20)          177.9462         estimate D2E/DX2                !
 ! D33   D(19,4,5,21)           62.679          estimate D2E/DX2                !
 ! D34   D(2,6,7,8)            179.8607         estimate D2E/DX2                !
 ! D35   D(2,6,7,24)            61.3147         estimate D2E/DX2                !
 ! D36   D(2,6,7,25)           -57.5271         estimate D2E/DX2                !
 ! D37   D(22,6,7,8)           -59.8052         estimate D2E/DX2                !
 ! D38   D(22,6,7,24)         -178.3513         estimate D2E/DX2                !
 ! D39   D(22,6,7,25)           62.807          estimate D2E/DX2                !
 ! D40   D(23,6,7,8)            56.4727         estimate D2E/DX2                !
 ! D41   D(23,6,7,24)          -62.0733         estimate D2E/DX2                !
 ! D42   D(23,6,7,25)          179.0849         estimate D2E/DX2                !
 ! D43   D(6,7,8,9)           -178.2795         estimate D2E/DX2                !
 ! D44   D(6,7,8,26)            59.9985         estimate D2E/DX2                !
 ! D45   D(6,7,8,27)           -57.9509         estimate D2E/DX2                !
 ! D46   D(24,7,8,9)           -57.0367         estimate D2E/DX2                !
 ! D47   D(24,7,8,26)         -178.7587         estimate D2E/DX2                !
 ! D48   D(24,7,8,27)           63.2919         estimate D2E/DX2                !
 ! D49   D(25,7,8,9)            59.4075         estimate D2E/DX2                !
 ! D50   D(25,7,8,26)          -62.3145         estimate D2E/DX2                !
 ! D51   D(25,7,8,27)          179.7361         estimate D2E/DX2                !
 ! D52   D(7,8,9,10)           179.6426         estimate D2E/DX2                !
 ! D53   D(7,8,9,28)            58.2335         estimate D2E/DX2                !
 ! D54   D(7,8,9,29)           -58.6543         estimate D2E/DX2                !
 ! D55   D(26,8,9,10)          -58.8889         estimate D2E/DX2                !
 ! D56   D(26,8,9,28)          179.702          estimate D2E/DX2                !
 ! D57   D(26,8,9,29)           62.8143         estimate D2E/DX2                !
 ! D58   D(27,8,9,10)           59.4616         estimate D2E/DX2                !
 ! D59   D(27,8,9,28)          -61.9475         estimate D2E/DX2                !
 ! D60   D(27,8,9,29)         -178.8352         estimate D2E/DX2                !
 ! D61   D(8,9,10,11)          179.5488         estimate D2E/DX2                !
 ! D62   D(8,9,10,30)           59.6783         estimate D2E/DX2                !
 ! D63   D(8,9,10,31)          -60.5603         estimate D2E/DX2                !
 ! D64   D(28,9,10,11)         -59.0037         estimate D2E/DX2                !
 ! D65   D(28,9,10,30)        -178.8742         estimate D2E/DX2                !
 ! D66   D(28,9,10,31)          60.8871         estimate D2E/DX2                !
 ! D67   D(29,9,10,11)          58.0975         estimate D2E/DX2                !
 ! D68   D(29,9,10,30)         -61.773          estimate D2E/DX2                !
 ! D69   D(29,9,10,31)         177.9883         estimate D2E/DX2                !
 ! D70   D(9,10,11,12)        -179.8264         estimate D2E/DX2                !
 ! D71   D(9,10,11,32)           0.245          estimate D2E/DX2                !
 ! D72   D(30,10,11,12)        -59.071          estimate D2E/DX2                !
 ! D73   D(30,10,11,32)        121.0004         estimate D2E/DX2                !
 ! D74   D(31,10,11,12)         59.3276         estimate D2E/DX2                !
 ! D75   D(31,10,11,32)       -120.601          estimate D2E/DX2                !
 --------------------------------------------------------------------------------
 Trust Radius=3.00D-01 FncErr=1.00D-07 GrdErr=1.00D-06 EigMax=2.50D+02 EigMin=1.00D-04
 Number of steps in this run=    173 maximum allowed number of steps=    192.
 GradGradGradGradGradGradGradGradGradGradGradGradGradGradGradGradGradGrad

                          Input orientation:                          
 ---------------------------------------------------------------------
 Center     Atomic      Atomic             Coordinates (Angstroms)
 Number     Number       Type             X           Y           Z
 ---------------------------------------------------------------------
      1          6           0        0.880820    0.022490    0.003480
      2          7           0        2.345640   -0.041180    0.002340
      3          6           0        2.816510   -1.394460   -0.354330
      4          6           0        2.361300   -2.482540    0.627080
      5          7           0        2.879880   -3.790120    0.229240
      6          6           0        2.867340    0.961170   -0.941900
      7          6           0        4.395370    1.011390   -0.948640
      8          6           0        4.904120    2.049800   -1.932470
      9          6           0        6.428060    2.043880   -1.945120
     10          6           0        6.947160    3.073720   -2.933220
     11          6           0        8.448730    3.091560   -2.953000
     12          8           0        9.090400    3.851080   -3.677840
     13          1           0        0.451180   -0.646780    0.754060
     14          1           0        0.465060   -0.240530   -0.975770
     15          1           0        0.533890    1.024340    0.276120
     16          1           0        3.911130   -1.430980   -0.334000
     17          1           0        2.506290   -1.645380   -1.377780
     18          1           0        1.271930   -2.553650    0.654730
     19          1           0        2.715380   -2.236130    1.634380
     20          1           0        2.515600   -4.021710   -0.694200
     21          1           0        2.508010   -4.490240    0.868270
     22          1           0        2.496710    1.954090   -0.653470
     23          1           0        2.498230    0.763480   -1.957060
     24          1           0        4.820400    0.052030   -1.258780
     25          1           0        4.767310    1.224920    0.061020
     26          1           0        4.527570    3.041530   -1.659240
     27          1           0        4.526050    1.817100   -2.935980
     28          1           0        6.798280    1.045520   -2.214550
     29          1           0        6.810270    2.255760   -0.938480
     30          1           0        6.593720    4.070730   -2.651780
     31          1           0        6.591820    2.836810   -3.941480
     32          1           0        8.965210    2.385150   -2.282600
 ---------------------------------------------------------------------
                    Distance matrix (angstroms):
                    1          2          3          4          5
     1  C    0.000000
     2  N    1.466204   0.000000
     3  C    2.425422   1.476583   0.000000
     4  C    2.975882   2.520076   1.534373   0.000000
     5  N    4.310824   3.793606   2.466527   1.461837   0.000000
     6  C    2.391887   1.472571   2.428336   3.817972   4.893514
     7  C    3.773131   2.492721   2.938387   4.339111   5.170939
     8  C    4.903553   3.829035   4.325687   5.793042   6.547916
     9  C    6.217309   4.980585   5.234127   6.606302   7.166099
    10  C    7.398290   6.284433   6.608901   8.036036   8.582320
    11  C    8.685230   7.469659   7.655022   8.996909   9.407245
    12  O    9.777905   8.613083   8.827406  10.194502  10.593572
    13  H    1.093564   2.126220   2.717046   2.652300   4.006820
    14  H    1.095886   2.129089   2.692036   3.345364   4.459035
    15  H    1.094713   2.119605   3.385028   3.969988   5.355828
    16  H    3.377758   2.120242   1.095418   2.105095   2.635575
    17  H    2.707734   2.122262   1.098475   2.177458   2.705918
    18  H    2.685813   2.809087   2.178910   1.092039   2.072535
    19  H    3.335687   2.760085   2.161852   1.095785   2.101515
    20  H    4.417558   4.044586   2.666177   2.034363   1.019350
    21  H    4.874458   4.535453   3.342720   2.027451   1.018241
    22  H    2.602645   2.105709   3.377061   4.619722   5.824255
    23  H    2.647414   2.123678   2.706797   4.151286   5.065653
    24  H    4.136963   2.779127   2.631718   4.003459   4.554332
    25  H    4.068655   2.733302   3.292307   4.455846   5.361093
    26  H    5.017771   4.126108   4.930368   6.358878   7.276859
    27  H    5.014853   4.103793   4.461117   5.989027   6.646007
    28  H    6.401764   5.091318   5.026770   6.341046   6.686507
    29  H    6.405713   5.108228   5.442008   6.685492   7.305080
    30  H    7.488383   6.480613   7.029502   8.462248   9.158922
    31  H    7.489902   6.470439   6.710012   8.189293   8.665426
    32  H    8.727295   7.411257   7.470622   8.704727   9.026325
                    6          7          8          9         10
     6  C    0.000000
     7  C    1.528870   0.000000
     8  C    2.512930   1.518237   0.000000
     9  C    3.854535   2.488139   1.524004   0.000000
    10  C    5.007310   3.834501   2.494780   1.518676   0.000000
    11  C    6.303570   4.977378   3.832885   2.489290   1.501806
    12  O    7.386706   6.128269   4.880150   3.654633   2.398380
    13  H    3.361490   4.604927   5.858128   7.088605   8.344813
    14  H    2.686295   4.124970   5.085877   6.458757   7.538799
    15  H    2.632974   4.051078   5.002834   6.380800   7.458542
    16  H    2.679817   2.564652   3.956888   4.583154   6.022105
    17  H    2.667293   3.288041   4.439778   5.414129   6.664130
    18  H    4.177143   5.003617   6.409225   7.381204   8.760646
    19  H    4.108897   4.476689   5.990175   6.701888   8.183241
    20  H    5.001417   5.378696   6.640902   7.325539   8.660084
    21  H    5.755320   6.093539   7.507171   8.122603   9.558811
    22  H    1.098385   2.140261   2.727751   4.139074   5.124191
    23  H    1.098123   2.162755   2.728283   4.133174   5.107159
    24  H    2.177474   1.094170   2.109965   2.650113   4.056780
    25  H    2.164555   1.096972   2.161746   2.730089   4.139478
    26  H    2.756599   2.154970   1.095433   2.165386   2.734680
    27  H    2.731353   2.148433   1.097323   2.156589   2.727797
    28  H    4.132680   2.716187   2.162404   1.098352   2.156907
    29  H    4.150021   2.716671   2.159593   1.097407   2.160274
    30  H    5.145771   4.134367   2.730625   2.152889   1.094604
    31  H    5.136853   4.136864   2.739313   2.154300   1.094980
    32  H    6.403844   4.954806   4.089927   2.582148   2.229341
                   11         12         13         14         15
    11  C    0.000000
    12  O    1.230449   0.000000
    13  H    9.574878  10.700869   0.000000
    14  H    8.874190   9.921640   1.776948   0.000000
    15  H    8.794618   9.840636   1.740089   1.780972   0.000000
    16  H    6.921152   8.118267   3.710808   3.701951   4.219786
    17  H    7.760961   8.879857   3.124967   2.510346   3.708524
    18  H    9.817870  10.996372   2.078377   2.942804   3.672882
    19  H    9.071915  10.291486   2.903033   3.982366   4.151438
    20  H    9.534297  10.682272   4.213008   4.310605   5.507387
    21  H   10.362333  11.557361   4.360708   5.063019   5.887137
    22  H    6.481375   7.498142   3.595811   3.007962   2.362464
    23  H    6.466862   7.480044   3.678236   2.470778   2.985594
    24  H    5.027316   6.206249   4.861064   4.374320   4.655693
    25  H    5.110921   6.290063   4.755265   4.661741   4.243624
    26  H    4.129384   5.054655   6.003716   5.267166   4.874849
    27  H    4.124555   5.051804   6.024256   4.956602   5.184920
    28  H    2.730490   3.907198   7.208481   6.580135   6.741400
    29  H    2.727894   3.904886   7.192180   6.818691   6.510345
    30  H    2.119096   2.708220   8.460818   7.678310   7.387464
    31  H    2.118987   2.709456   8.478853   7.470117   7.600771
    32  H    1.102362   2.027639   9.534286   8.991916   8.915493
                   16         17         18         19         20
    16  H    0.000000
    17  H    1.763241   0.000000
    18  H    3.033703   2.545525   0.000000
    19  H    2.439796   3.076656   1.773156   0.000000
    20  H    2.964647   2.472714   2.349793   2.941172   0.000000
    21  H    3.573971   3.624634   2.307352   2.389757   1.631224
    22  H    3.682573   3.671635   4.850896   4.779123   5.975969
    23  H    3.073478   2.477547   4.396432   4.684363   4.949057
    24  H    1.970104   2.872363   4.800284   4.247018   4.714468
    25  H    2.818313   3.926955   5.181483   4.320271   5.759139
    26  H    4.705274   5.111939   6.874568   6.479634   7.407340
    27  H    4.206953   4.300719   6.525791   6.371451   6.569565
    28  H    4.243248   5.134424   7.192172   6.500274   6.806587
    29  H    4.728896   5.825472   7.506128   6.600364   7.609894
    30  H    6.545014   7.141714   9.117942   8.555067   9.270964
    31  H    6.197906   6.584386   8.859088   8.476540   8.613924
    32  H    6.625980   7.666911   9.602406   8.703984   9.228669
                   21         22         23         24         25
    21  H    0.000000
    22  H    6.621572   0.000000
    23  H    5.965246   1.765475   0.000000
    24  H    5.523016   3.063294   2.527099   0.000000
    25  H    6.198318   2.489540   3.071530   1.766455   0.000000
    26  H    8.197224   2.513661   3.065360   3.030384   2.513333
    27  H    7.637234   3.057260   2.486052   2.452573   3.064456
    28  H    7.652113   4.665402   4.316976   2.410918   3.055363
    29  H    8.202579   4.333478   4.675264   2.986403   2.497062
    30  H   10.118003   5.025823   5.309762   4.608152   4.335169
    31  H    9.669377   5.325423   4.999410   4.253211   4.684766
    32  H    9.944566   6.684412   6.675149   4.865296   4.945812
                   26         27         28         29         30
    26  H    0.000000
    27  H    1.768982   0.000000
    28  H    3.073849   2.505759   0.000000
    29  H    2.519454   3.065957   1.758744   0.000000
    30  H    2.512641   3.071624   3.063480   2.505276   0.000000
    31  H    3.084098   2.513612   2.496724   3.066488   1.784906
    32  H    4.529024   4.522801   2.548495   2.543062   2.932821
                   31         32
    31  H    0.000000
    32  H    2.930676   0.000000
 Stoichiometry    C9H20N2O
 Framework group  C1[X(C9H20N2O)]
 Deg. of freedom    90
 Full point group                 C1      NOp   1
 Largest Abelian subgroup         C1      NOp   1
 Largest concise Abelian subgroup C1      NOp   1
                         Standard orientation:                         
 ---------------------------------------------------------------------
 Center     Atomic      Atomic             Coordinates (Angstroms)
 Number     Number       Type             X           Y           Z
 ---------------------------------------------------------------------
      1          6           0       -3.298413   -1.890680    0.058393
      2          7           0       -2.318085   -0.878255   -0.346213
      3          6           0       -2.676579    0.449973    0.190062
      4          6           0       -4.030739    0.970065   -0.309992
      5          7           0       -4.312495    2.295275    0.239007
      6          6           0       -0.984052   -1.290011    0.122058
      7          6           0        0.111610   -0.321687   -0.324394
      8          6           0        1.473734   -0.769146    0.175048
      9          6           0        2.534689    0.238732   -0.250562
     10          6           0        3.900438   -0.195466    0.252012
     11          6           0        4.963015    0.779793   -0.166584
     12          8           0        6.148759    0.629994    0.125947
     13          1           0       -4.291722   -1.669172   -0.341799
     14          1           0       -3.372045   -1.967384    1.149109
     15          1           0       -3.035154   -2.872882   -0.347033
     16          1           0       -1.945403    1.198227   -0.134651
     17          1           0       -2.652523    0.433614    1.288152
     18          1           0       -4.842082    0.306318   -0.003872
     19          1           0       -4.020846    1.018684   -1.404653
     20          1           0       -4.352616    2.228864    1.255400
     21          1           0       -5.241627    2.577937   -0.066983
     22          1           0       -0.748754   -2.281083   -0.288868
     23          1           0       -0.971767   -1.385200    1.215978
     24          1           0       -0.057137    0.679926    0.082429
     25          1           0        0.113029   -0.236561   -1.418057
     26          1           0        1.710017   -1.763234   -0.219833
     27          1           0        1.454041   -0.843875    1.269647
     28          1           0        2.288517    1.233645    0.144310
     29          1           0        2.543405    0.331859   -1.343976
     30          1           0        4.152854   -1.178304   -0.158443
     31          1           0        3.895812   -0.252064    1.345518
     32          1           0        4.635768    1.652150   -0.755742
 ---------------------------------------------------------------------
 Rotational constants (GHZ):           1.9777541           0.2320630           0.2119368
 Standard basis: 6-31G(2df,p) (6D, 7F)
 There are   472 symmetry adapted cartesian basis functions of A   symmetry.
 There are   436 symmetry adapted basis functions of A   symmetry.
   436 basis functions,   668 primitive gaussians,   472 cartesian basis functions
    48 alpha electrons       48 beta electrons
       nuclear repulsion energy       696.1185214436 Hartrees.
 NAtoms=   32 NActive=   32 NUniq=   32 SFac= 1.00D+00 NAtFMM=   60 NAOKFM=F Big=F
 Integral buffers will be    131072 words long.
 Raffenetti 2 integral format.
 Two-electron integral symmetry is turned on.
 One-electron integrals computed using PRISM.
 PrsmSu:  requested number of processors reduced to:  12 ShMem   1 Linda.
 NBasis=   436 RedAO= T EigKep=  3.14D-04  NBF=   436
 NBsUse=   436 1.00D-06 EigRej= -1.00D+00 NBFU=   436
 ExpMin= 1.61D-01 ExpMax= 5.48D+03 ExpMxC= 8.25D+02 IAcc=3 IRadAn=         5 AccDes= 0.00D+00
 Harris functional with IExCor=  402 and IRadAn=       5 diagonalized for initial guess.
 HarFok:  IExCor=  402 AccDes= 0.00D+00 IRadAn=         5 IDoV= 1 UseB2=F ITyADJ=14
 ICtDFT=  3500011 ScaDFX=  1.000000  1.000000  1.000000  1.000000
 FoFCou: FMM=F IPFlag=           0 FMFlag=      100000 FMFlg1=           0
         NFxFlg=           0 DoJE=T BraDBF=F KetDBF=T FulRan=T
         wScrn=  0.000000 ICntrl=       500 IOpCl=  0 I1Cent=   200000004 NGrid=           0
         NMat0=    1 NMatS0=      1 NMatT0=    0 NMatD0=    1 NMtDS0=    0 NMtDT0=    0
 Petite list used in FoFCou.
 Requested convergence on RMS density matrix=1.00D-08 within 128 cycles.
 Requested convergence on MAX density matrix=1.00D-06.
 Requested convergence on             energy=1.00D-06.
 No special actions if energy rises.
 Integral accuracy reduced to 1.0D-05 until final iterations.
 Initial convergence to 1.0D-05 achieved.  Increase integral accuracy.
 SCF Done:  E(RB3LYP) =  -539.730733465     A.U. after   13 cycles
            NFock= 13  Conv=0.61D-08     -V/T= 2.0079

 **********************************************************************

            Population analysis using the SCF density.

 **********************************************************************

 Orbital symmetries:
       Occupied  (A) (A) (A) (A) (A) (A) (A) (A) (A) (A) (A) (A)
                 (A) (A) (A) (A) (A) (A) (A) (A) (A) (A) (A) (A)
                 (A) (A) (A) (A) (A) (A) (A) (A) (A) (A) (A) (A)
                 (A) (A) (A) (A) (A) (A) (A) (A) (A) (A) (A) (A)
       Virtual   (A) (A) (A) (A) (A) (A) (A) (A) (A) (A) (A) (A)
                 (A) (A) (A) (A) (A) (A) (A) (A) (A) (A) (A) (A)
                 (A) (A) (A) (A) (A) (A) (A) (A) (A) (A) (A) (A)
                 (A) (A) (A) (A) (A) (A) (A) (A) (A) (A) (A) (A)
                 (A) (A) (A) (A) (A) (A) (A) (A) (A) (A) (A) (A)
                 (A) (A) (A) (A) (A) (A) (A) (A) (A) (A) (A) (A)
                 (A) (A) (A) (A) (A) (A) (A) (A) (A) (A) (A) (A)
                 (A) (A) (A) (A) (A) (A) (A) (A) (A) (A) (A) (A)
                 (A) (A) (A) (A) (A) (A) (A) (A) (A) (A) (A) (A)
                 (A) (A) (A) (A) (A) (A) (A) (A) (A) (A) (A) (A)
                 (A) (A) (A) (A) (A) (A) (A) (A) (A) (A) (A) (A)
                 (A) (A) (A) (A) (A) (A) (A) (A) (A) (A) (A) (A)
                 (A) (A) (A) (A) (A) (A) (A) (A) (A) (A) (A) (A)
                 (A) (A) (A) (A) (A) (A) (A) (A) (A) (A) (A) (A)
                 (A) (A) (A) (A) (A) (A) (A) (A) (A) (A) (A) (A)
                 (A) (A) (A) (A) (A) (A) (A) (A) (A) (A) (A) (A)
                 (A) (A) (A) (A) (A) (A) (A) (A) (A) (A) (A) (A)
                 (A) (A) (A) (A) (A) (A) (A) (A) (A) (A) (A) (A)
                 (A) (A) (A) (A) (A) (A) (A) (A) (A) (A) (A) (A)
                 (A) (A) (A) (A) (A) (A) (A) (A) (A) (A) (A) (A)
                 (A) (A) (A) (A) (A) (A) (A) (A) (A) (A) (A) (A)
                 (A) (A) (A) (A) (A) (A) (A) (A) (A) (A) (A) (A)
                 (A) (A) (A) (A) (A) (A) (A) (A) (A) (A) (A) (A)
                 (A) (A) (A) (A) (A) (A) (A) (A) (A) (A) (A) (A)
                 (A) (A) (A) (A) (A) (A) (A) (A) (A) (A) (A) (A)
                 (A) (A) (A) (A) (A) (A) (A) (A) (A) (A) (A) (A)
                 (A) (A) (A) (A) (A) (A) (A) (A) (A) (A) (A) (A)
                 (A) (A) (A) (A) (A) (A) (A) (A) (A) (A) (A) (A)
                 (A) (A) (A) (A) (A) (A) (A) (A) (A) (A) (A) (A)
                 (A) (A) (A) (A) (A) (A) (A) (A) (A) (A) (A) (A)
                 (A) (A) (A) (A) (A) (A) (A) (A) (A) (A) (A) (A)
                 (A) (A) (A) (A) (A) (A) (A) (A) (A) (A) (A) (A)
                 (A) (A) (A) (A)
 The electronic state is 1-A.
 Alpha  occ. eigenvalues --  -19.13362 -14.31929 -14.30610 -10.26869 -10.20230
 Alpha  occ. eigenvalues --  -10.20133 -10.20051 -10.19646 -10.19186 -10.18945
 Alpha  occ. eigenvalues --  -10.18444 -10.17798  -1.02726  -0.91646  -0.87587
 Alpha  occ. eigenvalues --   -0.82049  -0.76978  -0.72169  -0.70171  -0.64929
 Alpha  occ. eigenvalues --   -0.61242  -0.59297  -0.57760  -0.56731  -0.49692
 Alpha  occ. eigenvalues --   -0.48533  -0.48229  -0.46588  -0.46045  -0.44715
 Alpha  occ. eigenvalues --   -0.43867  -0.43146  -0.42268  -0.40860  -0.39895
 Alpha  occ. eigenvalues --   -0.38665  -0.37622  -0.36446  -0.36020  -0.35496
 Alpha  occ. eigenvalues --   -0.34387  -0.34202  -0.33648  -0.32749  -0.31871
 Alpha  occ. eigenvalues --   -0.24663  -0.23263  -0.21476
 Alpha virt. eigenvalues --   -0.02817   0.07828   0.07931   0.09116   0.10363
 Alpha virt. eigenvalues --    0.11038   0.11600   0.12896   0.13186   0.13795
 Alpha virt. eigenvalues --    0.15090   0.15742   0.15992   0.16809   0.18023
 Alpha virt. eigenvalues --    0.18470   0.19387   0.19540   0.19794   0.20586
 Alpha virt. eigenvalues --    0.20830   0.21185   0.22671   0.22986   0.23612
 Alpha virt. eigenvalues --    0.25042   0.25400   0.26819   0.27836   0.28646
 Alpha virt. eigenvalues --    0.33233   0.33966   0.42273   0.44922   0.46494
 Alpha virt. eigenvalues --    0.46974   0.47670   0.48497   0.49146   0.50422
 Alpha virt. eigenvalues --    0.51716   0.52486   0.53081   0.54100   0.56739
 Alpha virt. eigenvalues --    0.56777   0.57838   0.59955   0.60342   0.61484
 Alpha virt. eigenvalues --    0.61816   0.62218   0.63317   0.64220   0.64958
 Alpha virt. eigenvalues --    0.65766   0.67766   0.69075   0.70284   0.70725
 Alpha virt. eigenvalues --    0.71503   0.72133   0.72310   0.72646   0.73247
 Alpha virt. eigenvalues --    0.73676   0.73998   0.74979   0.75260   0.76525
 Alpha virt. eigenvalues --    0.76848   0.78125   0.78494   0.79277   0.80042
 Alpha virt. eigenvalues --    0.80064   0.80845   0.81500   0.82813   0.83417
 Alpha virt. eigenvalues --    0.84762   0.85118   0.86340   0.86983   0.86996
 Alpha virt. eigenvalues --    0.88590   0.89443   0.91662   0.93522   0.94334
 Alpha virt. eigenvalues --    0.95994   0.97117   0.98672   1.00121   1.02815
 Alpha virt. eigenvalues --    1.04025   1.06357   1.09736   1.10436   1.13347
 Alpha virt. eigenvalues --    1.14950   1.16802   1.18923   1.19275   1.20906
 Alpha virt. eigenvalues --    1.22529   1.22873   1.25225   1.26088   1.26912
 Alpha virt. eigenvalues --    1.27904   1.29946   1.33010   1.33588   1.35116
 Alpha virt. eigenvalues --    1.35463   1.36504   1.37898   1.39597   1.43232
 Alpha virt. eigenvalues --    1.43707   1.44796   1.48542   1.49017   1.50455
 Alpha virt. eigenvalues --    1.51578   1.52842   1.53857   1.56322   1.57046
 Alpha virt. eigenvalues --    1.57815   1.58870   1.60478   1.62275   1.64470
 Alpha virt. eigenvalues --    1.66460   1.67956   1.69354   1.69859   1.72515
 Alpha virt. eigenvalues --    1.74814   1.75994   1.76082   1.81212   1.82031
 Alpha virt. eigenvalues --    1.83758   1.84850   1.85477   1.86834   1.89209
 Alpha virt. eigenvalues --    1.91244   1.92389   1.92460   1.95993   1.96518
 Alpha virt. eigenvalues --    1.99114   2.01974   2.05045   2.06951   2.09494
 Alpha virt. eigenvalues --    2.09627   2.13100   2.15683   2.18091   2.18575
 Alpha virt. eigenvalues --    2.20018   2.20964   2.25789   2.27562   2.28590
 Alpha virt. eigenvalues --    2.32658   2.33046   2.33462   2.34334   2.36063
 Alpha virt. eigenvalues --    2.37469   2.41008   2.42976   2.45046   2.47645
 Alpha virt. eigenvalues --    2.49597   2.54495   2.56309   2.56622   2.59948
 Alpha virt. eigenvalues --    2.63806   2.65854   2.68252   2.70707   2.72252
 Alpha virt. eigenvalues --    2.72960   2.73195   2.74666   2.75801   2.76307
 Alpha virt. eigenvalues --    2.77411   2.78290   2.79032   2.80518   2.81775
 Alpha virt. eigenvalues --    2.82184   2.82710   2.84607   2.85115   2.86193
 Alpha virt. eigenvalues --    2.87239   2.88733   2.89191   2.90226   2.91060
 Alpha virt. eigenvalues --    2.92966   2.93480   2.95177   2.95837   2.97585
 Alpha virt. eigenvalues --    2.97999   2.99512   2.99811   3.02475   3.04703
 Alpha virt. eigenvalues --    3.05797   3.05848   3.06320   3.08917   3.09720
 Alpha virt. eigenvalues --    3.13758   3.16673   3.18327   3.19956   3.22216
 Alpha virt. eigenvalues --    3.23886   3.25020   3.25960   3.28038   3.30336
 Alpha virt. eigenvalues --    3.32270   3.32719   3.33448   3.35437   3.38895
 Alpha virt. eigenvalues --    3.40141   3.42032   3.43862   3.46705   3.48062
 Alpha virt. eigenvalues --    3.49478   3.50258   3.53098   3.54492   3.54869
 Alpha virt. eigenvalues --    3.57605   3.58692   3.59811   3.62551   3.63691
 Alpha virt. eigenvalues --    3.64808   3.65729   3.67010   3.68515   3.71426
 Alpha virt. eigenvalues --    3.71561   3.72890   3.75527   3.76240   3.78994
 Alpha virt. eigenvalues --    3.80231   3.81697   3.82399   3.85826   3.86162
 Alpha virt. eigenvalues --    3.89868   3.92034   3.96895   4.01289   4.05334
 Alpha virt. eigenvalues --    4.08175   4.09800   4.12112   4.13049   4.15417
 Alpha virt. eigenvalues --    4.16507   4.21271   4.24355   4.24580   4.25723
 Alpha virt. eigenvalues --    4.29374   4.33740   4.35494   4.37012   4.38329
 Alpha virt. eigenvalues --    4.40240   4.42364   4.43258   4.44735   4.45286
 Alpha virt. eigenvalues --    4.46126   4.48056   4.49367   4.50252   4.52025
 Alpha virt. eigenvalues --    4.52063   4.53238   4.54870   4.56070   4.56215
 Alpha virt. eigenvalues --    4.56962   4.57899   4.58371   4.59161   4.59690
 Alpha virt. eigenvalues --    4.61398   4.62612   4.63721   4.63759   4.64159
 Alpha virt. eigenvalues --    4.65017   4.66530   4.66935   4.67986   4.68955
 Alpha virt. eigenvalues --    4.70950   4.72978   4.74293   4.74579   4.76151
 Alpha virt. eigenvalues --    4.76991   4.77890   4.79687   4.79793   4.81226
 Alpha virt. eigenvalues --    4.83494   4.84511   4.86636   4.88073   4.89187
 Alpha virt. eigenvalues --    4.91093   4.93058   4.93533   4.94707   4.95764
 Alpha virt. eigenvalues --    4.96768   4.99010   5.02030   5.03172   5.05034
 Alpha virt. eigenvalues --    5.06467   5.08039   5.09950   5.13595   5.16911
 Alpha virt. eigenvalues --    5.20054   5.22697   5.25035   5.29960   5.31120
 Alpha virt. eigenvalues --    5.34701   5.38143   5.41074   5.42602   5.45259
 Alpha virt. eigenvalues --    5.48089   5.48921   5.49019   5.53866   5.59605
 Alpha virt. eigenvalues --    5.66454   5.74673   5.84867   5.87249   5.96843
 Alpha virt. eigenvalues --    6.17450   6.26363   6.39510   6.76712   9.42361
 Alpha virt. eigenvalues --   10.67300  11.15958  11.33758  11.42678  11.57033
 Alpha virt. eigenvalues --   11.73937  11.78921  12.09801  12.19570  12.30958
 Alpha virt. eigenvalues --   12.49632  12.94147  16.36724
          Condensed to atoms (all electrons):
               1          2          3          4          5          6
     1  C    4.967535   0.393214  -0.070246  -0.003229   0.000079  -0.062838
     2  N    0.393214   6.192363   0.380636  -0.033822   0.001260   0.400567
     3  C   -0.070246   0.380636   4.862586   0.407334  -0.034494  -0.058822
     4  C   -0.003229  -0.033822   0.407334   4.878846   0.364263   0.002976
     5  N    0.000079   0.001260  -0.034494   0.364263   6.558747  -0.000067
     6  C   -0.062838   0.400567  -0.058822   0.002976  -0.000067   4.840707
     7  C    0.003248  -0.035236  -0.001634   0.000305  -0.000003   0.423201
     8  C   -0.000177   0.001886   0.000173  -0.000016   0.000000  -0.039049
     9  C    0.000000  -0.000052   0.000011  -0.000000   0.000000   0.001413
    10  C   -0.000000   0.000000  -0.000000  -0.000000  -0.000000  -0.000148
    11  C    0.000000  -0.000000   0.000000  -0.000000   0.000000   0.000000
    12  O   -0.000000   0.000000  -0.000000   0.000000   0.000000  -0.000000
    13  H    0.378778  -0.022541  -0.003863  -0.000092  -0.000174   0.004331
    14  H    0.350540  -0.043248  -0.006950  -0.001330   0.000041  -0.006102
    15  H    0.374937  -0.023925   0.004769   0.000239  -0.000006  -0.003136
    16  H    0.005725  -0.016857   0.355122  -0.023455   0.005096  -0.004997
    17  H   -0.008214  -0.046410   0.339592  -0.053945   0.000925  -0.003075
    18  H   -0.000176   0.000416  -0.045660   0.381861  -0.045912   0.000022
    19  H   -0.000167   0.002643  -0.015788   0.348835  -0.019765   0.000179
    20  H   -0.000025  -0.000124  -0.003177  -0.056418   0.341829  -0.000000
    21  H    0.000007  -0.000128   0.004660  -0.045027   0.340993   0.000002
    22  H   -0.004708  -0.019849   0.004766  -0.000187   0.000001   0.354206
    23  H   -0.006091  -0.044861  -0.009917  -0.000185   0.000013   0.339723
    24  H    0.000081  -0.002418  -0.000751  -0.000159  -0.000009  -0.032588
    25  H    0.000143   0.003443  -0.000179  -0.000112   0.000002  -0.025966
    26  H   -0.000003   0.000080   0.000001   0.000000   0.000000  -0.002362
    27  H    0.000007   0.000045   0.000009  -0.000000   0.000000  -0.002892
    28  H    0.000000   0.000004  -0.000012   0.000000   0.000000   0.000197
    29  H    0.000000   0.000001   0.000001   0.000000  -0.000000   0.000187
    30  H    0.000000   0.000000  -0.000000  -0.000000  -0.000000   0.000008
    31  H    0.000000   0.000000   0.000000   0.000000  -0.000000   0.000009
    32  H    0.000000   0.000000   0.000000   0.000000  -0.000000   0.000000
               7          8          9         10         11         12
     1  C    0.003248  -0.000177   0.000000  -0.000000   0.000000  -0.000000
     2  N   -0.035236   0.001886  -0.000052   0.000000  -0.000000   0.000000
     3  C   -0.001634   0.000173   0.000011  -0.000000   0.000000  -0.000000
     4  C    0.000305  -0.000016  -0.000000  -0.000000  -0.000000   0.000000
     5  N   -0.000003   0.000000   0.000000  -0.000000   0.000000   0.000000
     6  C    0.423201  -0.039049   0.001413  -0.000148   0.000000  -0.000000
     7  C    4.859983   0.400580  -0.035731   0.001120  -0.000037   0.000000
     8  C    0.400580   4.826399   0.424421  -0.034692   0.001029  -0.000065
     9  C   -0.035731   0.424421   4.880212   0.313936  -0.004794   0.001952
    10  C    0.001120  -0.034692   0.313936   5.259656   0.290535  -0.058748
    11  C   -0.000037   0.001029  -0.004794   0.290535   4.482184   0.739421
    12  O    0.000000  -0.000065   0.001952  -0.058748   0.739421   7.649406
    13  H   -0.000225   0.000000  -0.000000   0.000000  -0.000000   0.000000
    14  H   -0.000046   0.000043   0.000000   0.000000   0.000000  -0.000000
    15  H    0.000257  -0.000009   0.000000  -0.000000   0.000000  -0.000000
    16  H   -0.001189  -0.000078   0.000002  -0.000000   0.000000  -0.000000
    17  H   -0.001454   0.000138   0.000002   0.000000   0.000000  -0.000000
    18  H   -0.000013   0.000000  -0.000000  -0.000000  -0.000000   0.000000
    19  H   -0.000025   0.000001   0.000000   0.000000   0.000000  -0.000000
    20  H    0.000001   0.000000   0.000000   0.000000   0.000000  -0.000000
    21  H    0.000000  -0.000000  -0.000000   0.000000  -0.000000   0.000000
    22  H   -0.023362  -0.003945   0.000051   0.000011   0.000000   0.000000
    23  H   -0.045258   0.001054   0.000131   0.000017   0.000000   0.000000
    24  H    0.365895  -0.029967  -0.004100   0.000292   0.000006  -0.000000
    25  H    0.358898  -0.031035  -0.003061   0.000170   0.000006  -0.000000
    26  H   -0.033304   0.365144  -0.032861  -0.002304   0.000131  -0.000001
    27  H   -0.031305   0.364357  -0.032827  -0.002582   0.000133  -0.000001
    28  H   -0.003578  -0.029583   0.366991  -0.036672  -0.001843   0.000005
    29  H   -0.001363  -0.031157   0.367995  -0.037315  -0.002001   0.000012
    30  H    0.000101  -0.003132  -0.031298   0.352341  -0.012754  -0.002068
    31  H    0.000163  -0.002937  -0.030842   0.351996  -0.013090  -0.002037
    32  H    0.000058  -0.000088   0.013672  -0.135656   0.364775  -0.052442
              13         14         15         16         17         18
     1  C    0.378778   0.350540   0.374937   0.005725  -0.008214  -0.000176
     2  N   -0.022541  -0.043248  -0.023925  -0.016857  -0.046410   0.000416
     3  C   -0.003863  -0.006950   0.004769   0.355122   0.339592  -0.045660
     4  C   -0.000092  -0.001330   0.000239  -0.023455  -0.053945   0.381861
     5  N   -0.000174   0.000041  -0.000006   0.005096   0.000925  -0.045912
     6  C    0.004331  -0.006102  -0.003136  -0.004997  -0.003075   0.000022
     7  C   -0.000225  -0.000046   0.000257  -0.001189  -0.001454  -0.000013
     8  C    0.000000   0.000043  -0.000009  -0.000078   0.000138   0.000000
     9  C   -0.000000   0.000000   0.000000   0.000002   0.000002  -0.000000
    10  C    0.000000   0.000000  -0.000000  -0.000000   0.000000  -0.000000
    11  C   -0.000000   0.000000   0.000000   0.000000   0.000000  -0.000000
    12  O    0.000000  -0.000000  -0.000000  -0.000000  -0.000000   0.000000
    13  H    0.592452  -0.044135  -0.029232   0.000128  -0.001023   0.004760
    14  H   -0.044135   0.674508  -0.041395  -0.000265   0.015517   0.000696
    15  H   -0.029232  -0.041395   0.599340  -0.000182  -0.000348  -0.000053
    16  H    0.000128  -0.000265  -0.000182   0.611754  -0.051863   0.007043
    17  H   -0.001023   0.015517  -0.000348  -0.051863   0.722400  -0.006181
    18  H    0.004760   0.000696  -0.000053   0.007043  -0.006181   0.680448
    19  H    0.000021   0.000267  -0.000091  -0.007958   0.006927  -0.049594
    20  H   -0.000023   0.000045  -0.000001  -0.000859   0.006691  -0.005142
    21  H   -0.000016   0.000001  -0.000000  -0.000209  -0.000090  -0.004217
    22  H    0.000144  -0.001311   0.005650   0.000047  -0.000263   0.000001
    23  H   -0.000338   0.015214  -0.001362  -0.000787   0.015977   0.000002
    24  H    0.000004  -0.000002   0.000003   0.002351   0.000970  -0.000005
    25  H    0.000002   0.000039  -0.000028   0.000921   0.000315   0.000001
    26  H    0.000000   0.000001  -0.000001  -0.000002   0.000002  -0.000000
    27  H    0.000000   0.000001  -0.000000   0.000034   0.000027   0.000000
    28  H    0.000000   0.000000  -0.000000  -0.000014   0.000001  -0.000000
    29  H    0.000000  -0.000000   0.000000   0.000005  -0.000000  -0.000000
    30  H    0.000000   0.000000  -0.000000  -0.000000   0.000000  -0.000000
    31  H    0.000000  -0.000000   0.000000   0.000000  -0.000000  -0.000000
    32  H    0.000000   0.000000  -0.000000   0.000000   0.000000   0.000000
              19         20         21         22         23         24
     1  C   -0.000167  -0.000025   0.000007  -0.004708  -0.006091   0.000081
     2  N    0.002643  -0.000124  -0.000128  -0.019849  -0.044861  -0.002418
     3  C   -0.015788  -0.003177   0.004660   0.004766  -0.009917  -0.000751
     4  C    0.348835  -0.056418  -0.045027  -0.000187  -0.000185  -0.000159
     5  N   -0.019765   0.341829   0.340993   0.000001   0.000013  -0.000009
     6  C    0.000179  -0.000000   0.000002   0.354206   0.339723  -0.032588
     7  C   -0.000025   0.000001   0.000000  -0.023362  -0.045258   0.365895
     8  C    0.000001   0.000000  -0.000000  -0.003945   0.001054  -0.029967
     9  C    0.000000   0.000000  -0.000000   0.000051   0.000131  -0.004100
    10  C    0.000000   0.000000   0.000000   0.000011   0.000017   0.000292
    11  C    0.000000   0.000000  -0.000000   0.000000   0.000000   0.000006
    12  O   -0.000000  -0.000000   0.000000   0.000000   0.000000  -0.000000
    13  H    0.000021  -0.000023  -0.000016   0.000144  -0.000338   0.000004
    14  H    0.000267   0.000045   0.000001  -0.001311   0.015214  -0.000002
    15  H   -0.000091  -0.000001  -0.000000   0.005650  -0.001362   0.000003
    16  H   -0.007958  -0.000859  -0.000209   0.000047  -0.000787   0.002351
    17  H    0.006927   0.006691  -0.000090  -0.000263   0.015977   0.000970
    18  H   -0.049594  -0.005142  -0.004217   0.000001   0.000002  -0.000005
    19  H    0.617686   0.006629  -0.002301   0.000003   0.000038   0.000036
    20  H    0.006629   0.520205  -0.031459  -0.000000   0.000005   0.000005
    21  H   -0.002301  -0.031459   0.511562  -0.000000   0.000000  -0.000000
    22  H    0.000003  -0.000000  -0.000000   0.640408  -0.051632   0.005992
    23  H    0.000038   0.000005   0.000000  -0.051632   0.709816  -0.005505
    24  H    0.000036   0.000005  -0.000000   0.005992  -0.005505   0.635328
    25  H    0.000034   0.000000  -0.000000  -0.006162   0.006999  -0.043237
    26  H    0.000000   0.000000   0.000000   0.004746  -0.000402   0.006375
    27  H    0.000000   0.000000  -0.000000  -0.000488   0.005760  -0.006197
    28  H   -0.000000  -0.000000   0.000000   0.000007   0.000012   0.005709
    29  H   -0.000000  -0.000000  -0.000000   0.000008   0.000003  -0.000637
    30  H    0.000000   0.000000   0.000000  -0.000002   0.000001   0.000012
    31  H   -0.000000  -0.000000   0.000000   0.000001  -0.000003  -0.000006
    32  H    0.000000   0.000000   0.000000  -0.000000   0.000000  -0.000002
              25         26         27         28         29         30
     1  C    0.000143  -0.000003   0.000007   0.000000   0.000000   0.000000
     2  N    0.003443   0.000080   0.000045   0.000004   0.000001   0.000000
     3  C   -0.000179   0.000001   0.000009  -0.000012   0.000001  -0.000000
     4  C   -0.000112   0.000000  -0.000000   0.000000   0.000000  -0.000000
     5  N    0.000002   0.000000   0.000000   0.000000  -0.000000  -0.000000
     6  C   -0.025966  -0.002362  -0.002892   0.000197   0.000187   0.000008
     7  C    0.358898  -0.033304  -0.031305  -0.003578  -0.001363   0.000101
     8  C   -0.031035   0.365144   0.364357  -0.029583  -0.031157  -0.003132
     9  C   -0.003061  -0.032861  -0.032827   0.366991   0.367995  -0.031298
    10  C    0.000170  -0.002304  -0.002582  -0.036672  -0.037315   0.352341
    11  C    0.000006   0.000131   0.000133  -0.001843  -0.002001  -0.012754
    12  O   -0.000000  -0.000001  -0.000001   0.000005   0.000012  -0.002068
    13  H    0.000002   0.000000   0.000000   0.000000   0.000000   0.000000
    14  H    0.000039   0.000001   0.000001   0.000000  -0.000000   0.000000
    15  H   -0.000028  -0.000001  -0.000000  -0.000000   0.000000  -0.000000
    16  H    0.000921  -0.000002   0.000034  -0.000014   0.000005  -0.000000
    17  H    0.000315   0.000002   0.000027   0.000001  -0.000000   0.000000
    18  H    0.000001  -0.000000   0.000000  -0.000000  -0.000000  -0.000000
    19  H    0.000034   0.000000   0.000000  -0.000000  -0.000000   0.000000
    20  H    0.000000   0.000000   0.000000  -0.000000  -0.000000   0.000000
    21  H   -0.000000   0.000000  -0.000000   0.000000  -0.000000   0.000000
    22  H   -0.006162   0.004746  -0.000488   0.000007   0.000008  -0.000002
    23  H    0.006999  -0.000402   0.005760   0.000012   0.000003   0.000001
    24  H   -0.043237   0.006375  -0.006197   0.005709  -0.000637   0.000012
    25  H    0.630142  -0.005412   0.006115  -0.000412   0.004728  -0.000001
    26  H   -0.005412   0.641676  -0.042096   0.005978  -0.005327   0.004975
    27  H    0.006115  -0.042096   0.639871  -0.005530   0.006032  -0.000571
    28  H   -0.000412   0.005978  -0.005530   0.633305  -0.042456   0.005745
    29  H    0.004728  -0.005327   0.006032  -0.042456   0.632888  -0.004608
    30  H   -0.000001   0.004975  -0.000571   0.005745  -0.004608   0.579210
    31  H    0.000007  -0.000541   0.004959  -0.004781   0.005724  -0.026615
    32  H   -0.000001   0.000011   0.000011   0.004218   0.004261   0.005043
              31         32
     1  C    0.000000   0.000000
     2  N    0.000000   0.000000
     3  C    0.000000   0.000000
     4  C    0.000000   0.000000
     5  N   -0.000000  -0.000000
     6  C    0.000009   0.000000
     7  C    0.000163   0.000058
     8  C   -0.002937  -0.000088
     9  C   -0.030842   0.013672
    10  C    0.351996  -0.135656
    11  C   -0.013090   0.364775
    12  O   -0.002037  -0.052442
    13  H    0.000000   0.000000
    14  H   -0.000000   0.000000
    15  H    0.000000  -0.000000
    16  H    0.000000   0.000000
    17  H   -0.000000   0.000000
    18  H   -0.000000   0.000000
    19  H   -0.000000   0.000000
    20  H   -0.000000   0.000000
    21  H    0.000000   0.000000
    22  H    0.000001  -0.000000
    23  H   -0.000003   0.000000
    24  H   -0.000006  -0.000002
    25  H    0.000007  -0.000001
    26  H   -0.000541   0.000011
    27  H    0.004959   0.000011
    28  H   -0.004781   0.004218
    29  H    0.005724   0.004261
    30  H   -0.026615   0.005043
    31  H    0.579642   0.005026
    32  H    0.005026   0.704994
 Mulliken charges:
               1
     1  C   -0.318419
     2  N   -0.087090
     3  C   -0.108164
     4  C   -0.166683
     5  N   -0.512818
     6  C   -0.125687
     7  C   -0.200047
     8  C   -0.179296
     9  C   -0.195224
    10  C   -0.261958
    11  C    0.156297
    12  O   -0.275435
    13  H    0.121043
    14  H    0.087872
    15  H    0.114574
    16  H    0.120489
    17  H    0.063382
    18  H    0.081704
    19  H    0.112389
    20  H    0.221820
    21  H    0.226225
    22  H    0.095870
    23  H    0.071578
    24  H    0.102527
    25  H    0.103641
    26  H    0.095493
    27  H    0.097127
    28  H    0.102709
    29  H    0.103020
    30  H    0.133614
    31  H    0.133326
    32  H    0.086119
 Sum of Mulliken charges =  -0.00000
 Mulliken charges with hydrogens summed into heavy atoms:
               1
     1  C    0.005070
     2  N   -0.087090
     3  C    0.075707
     4  C    0.027410
     5  N   -0.064773
     6  C    0.041760
     7  C    0.006122
     8  C    0.013324
     9  C    0.010505
    10  C    0.004982
    11  C    0.242416
    12  O   -0.275435
 Electronic spatial extent (au):  <R**2>=           4968.3542
 Charge=             -0.0000 electrons
 Dipole moment (field-independent basis, Debye):
    X=             -3.7881    Y=             -0.8936    Z=              0.5503  Tot=              3.9307
 Quadrupole moment (field-independent basis, Debye-Ang):
   XX=            -96.0369   YY=            -77.7200   ZZ=            -74.8208
   XY=             -2.4211   XZ=             -5.3438   YZ=              0.8340
 Traceless Quadrupole moment (field-independent basis, Debye-Ang):
   XX=            -13.1777   YY=              5.1392   ZZ=              8.0384
   XY=             -2.4211   XZ=             -5.3438   YZ=              0.8340
 Octapole moment (field-independent basis, Debye-Ang**2):
  XXX=           -301.5468  YYY=            -10.8886  ZZZ=              3.2069  XYY=              9.8986
  XXY=             -2.7819  XXZ=             -5.7469  XZZ=              4.5673  YZZ=              6.9806
  YYZ=             -0.0282  XYZ=             -3.8368
 Hexadecapole moment (field-independent basis, Debye-Ang**3):
 XXXX=          -6783.4983 YYYY=           -760.3971 ZZZZ=           -161.3955 XXXY=           -294.4343
 XXXZ=           -109.2774 YYYX=             35.2040 YYYZ=             15.4396 ZZZX=             -4.5473
 ZZZY=              5.3278 XXYY=          -1006.6084 XXZZ=           -904.1926 YYZZ=           -144.0371
 XXYZ=             14.1483 YYXZ=             -8.8824 ZZXY=            -18.3669
 N-N= 6.961185214436D+02 E-N=-2.646232213429D+03  KE= 5.354861897489D+02
 PrsmSu:  requested number of processors reduced to:  13 ShMem   1 Linda.
 Calling FoFJK, ICntrl=      2127 FMM=F ISym2X=0 I1Cent= 0 IOpClX= 0 NMat=1 NMatS=1 NMatT=0.
 ***** Axes restored to original set *****
 -------------------------------------------------------------------
 Center     Atomic                   Forces (Hartrees/Bohr)
 Number     Number              X              Y              Z
 -------------------------------------------------------------------
      1        6           0.003540142    0.000268918    0.008159457
      2        7          -0.003230193   -0.001200466   -0.001872011
      3        6           0.001470538    0.002236444    0.012473494
      4        6          -0.008850889   -0.001433921   -0.004960544
      5        7           0.010033660   -0.004053379   -0.001591749
      6        6           0.006548653   -0.007588363    0.013151593
      7        6          -0.006946586    0.000750186   -0.004154501
      8        6           0.004275437   -0.005909825    0.006396791
      9        6          -0.006307971    0.004707297   -0.003997752
     10        6           0.006293326   -0.007757146    0.007787133
     11        6           0.021571993    0.035346674   -0.033958196
     12        8          -0.014656023   -0.024252376    0.023202714
     13        1           0.001893126   -0.001049658   -0.001573629
     14        1          -0.004971079   -0.000823981   -0.005182573
     15        1           0.003306398    0.001913134   -0.002801808
     16        1          -0.002818092    0.002583818   -0.001162629
     17        1          -0.002750492   -0.004413303   -0.005671330
     18        1          -0.006044883    0.008504282    0.004026384
     19        1           0.000287736    0.000046379   -0.000875989
     20        1           0.000315488   -0.000759527    0.002882226
     21        1           0.001821934    0.000300311   -0.002965965
     22        1          -0.002401471   -0.002583139    0.001157820
     23        1          -0.001402477   -0.000324871   -0.006571038
     24        1          -0.001049774   -0.000888400    0.002243211
     25        1          -0.001226093   -0.000862633   -0.000061170
     26        1           0.000405772    0.002275077   -0.001456656
     27        1          -0.000316935    0.001811940   -0.000576259
     28        1          -0.000585249    0.000118738    0.000257730
     29        1           0.000198698    0.000214704    0.000140163
     30        1          -0.000389726    0.002070241   -0.004262577
     31        1          -0.000486692    0.004256891   -0.001574023
     32        1           0.002471725   -0.003504046    0.003391686
 -------------------------------------------------------------------
 Cartesian Forces:  Max     0.035346674 RMS     0.007786588

 GradGradGradGradGradGradGradGradGradGradGradGradGradGradGradGradGradGrad
 Berny optimization.
 FormGI is forming the generalized inverse of G from B-inverse, IUseBI=4.
 Internal  Forces:  Max     0.036281390 RMS     0.004905459
 Search for a local minimum.
 Step number   1 out of a maximum of  173
 All quantities printed in internal units (Hartrees-Bohrs-Radians)
 Mixed Optimization -- RFO/linear search
 Second derivative matrix not updated -- first step.
 ITU=  0
     Eigenvalues ---    0.00311   0.00384   0.00448   0.00519   0.00525
     Eigenvalues ---    0.00679   0.00732   0.00742   0.00742   0.00816
     Eigenvalues ---    0.00874   0.02932   0.03763   0.03840   0.03923
     Eigenvalues ---    0.03968   0.04166   0.04374   0.04457   0.04715
     Eigenvalues ---    0.04940   0.04964   0.05011   0.05420   0.05508
     Eigenvalues ---    0.05513   0.05538   0.07080   0.07315   0.07900
     Eigenvalues ---    0.08005   0.08113   0.09181   0.09207   0.09308
     Eigenvalues ---    0.09430   0.11859   0.11940   0.12017   0.12647
     Eigenvalues ---    0.12649   0.12821   0.12947   0.16000   0.16000
     Eigenvalues ---    0.16000   0.16000   0.16000   0.16000   0.16454
     Eigenvalues ---    0.16878   0.21841   0.21876   0.21898   0.21951
     Eigenvalues ---    0.21960   0.21976   0.22000   0.22008   0.29023
     Eigenvalues ---    0.29528   0.29984   0.30494   0.30537   0.32189
     Eigenvalues ---    0.33422   0.33851   0.33861   0.33865   0.33891
     Eigenvalues ---    0.33971   0.33980   0.34019   0.34141   0.34153
     Eigenvalues ---    0.34192   0.34194   0.34243   0.34274   0.34286
     Eigenvalues ---    0.34335   0.34404   0.34578   0.34964   0.35434
     Eigenvalues ---    0.36198   0.36735   0.44442   0.44620   0.90900
 RFO step:  Lambda=-1.55733206D-02 EMin= 3.11261584D-03
 Linear search not attempted -- first point.
 Iteration  1 RMS(Cart)=  0.14619432 RMS(Int)=  0.00298488
 Iteration  2 RMS(Cart)=  0.00636439 RMS(Int)=  0.00034661
 Iteration  3 RMS(Cart)=  0.00000727 RMS(Int)=  0.00034657
 Iteration  4 RMS(Cart)=  0.00000000 RMS(Int)=  0.00034657
 Variable       Old X    -DE/DX   Delta X   Delta X   Delta X     New X
                                 (Linear)    (Quad)   (Total)
    R1        2.77072  -0.00375   0.00000  -0.00994  -0.00994   2.76078
    R2        2.06654  -0.00118   0.00000  -0.00328  -0.00328   2.06325
    R3        2.07092   0.00671   0.00000   0.01881   0.01881   2.08973
    R4        2.06871   0.00001   0.00000   0.00001   0.00001   2.06872
    R5        2.79034  -0.00536   0.00000  -0.01467  -0.01467   2.77566
    R6        2.78276  -0.00003   0.00000  -0.00009  -0.00009   2.78267
    R7        2.89954  -0.00335   0.00000  -0.01097  -0.01097   2.88858
    R8        2.07004  -0.00292   0.00000  -0.00818  -0.00818   2.06186
    R9        2.07582   0.00707   0.00000   0.01996   0.01996   2.09578
   R10        2.76247   0.00881   0.00000   0.02301   0.02301   2.78548
   R11        2.06365   0.00558   0.00000   0.01544   0.01544   2.07909
   R12        2.07073  -0.00070   0.00000  -0.00197  -0.00197   2.06877
   R13        1.92629  -0.00255   0.00000  -0.00554  -0.00554   1.92075
   R14        1.92420  -0.00273   0.00000  -0.00592  -0.00592   1.91828
   R15        2.88915   0.00355   0.00000   0.01142   0.01142   2.90057
   R16        2.07565  -0.00122   0.00000  -0.00345  -0.00345   2.07220
   R17        2.07515   0.00660   0.00000   0.01863   0.01863   2.09378
   R18        2.86905   0.01361   0.00000   0.04240   0.04240   2.91146
   R19        2.06768  -0.00026   0.00000  -0.00074  -0.00074   2.06695
   R20        2.07298  -0.00064   0.00000  -0.00180  -0.00180   2.07118
   R21        2.87995   0.00814   0.00000   0.02580   0.02580   2.90575
   R22        2.07007   0.00156   0.00000   0.00436   0.00436   2.07442
   R23        2.07364   0.00025   0.00000   0.00071   0.00071   2.07435
   R24        2.86988   0.01276   0.00000   0.03982   0.03982   2.90970
   R25        2.07559  -0.00037   0.00000  -0.00104  -0.00104   2.07454
   R26        2.07380   0.00024   0.00000   0.00067   0.00067   2.07447
   R27        2.83800   0.00957   0.00000   0.02836   0.02836   2.86637
   R28        2.06850   0.00092   0.00000   0.00256   0.00256   2.07106
   R29        2.06921   0.00069   0.00000   0.00192   0.00192   2.07113
   R30        2.32521  -0.03628   0.00000  -0.03924  -0.03924   2.28597
   R31        2.08316   0.00547   0.00000   0.01562   0.01562   2.09879
    A1        1.94601  -0.00170   0.00000  -0.00669  -0.00673   1.93927
    A2        1.94755   0.00455   0.00000   0.02454   0.02460   1.97215
    A3        1.93537  -0.00539   0.00000  -0.03234  -0.03230   1.90307
    A4        1.89375  -0.00092   0.00000  -0.00226  -0.00229   1.89147
    A5        1.83863   0.00424   0.00000   0.02692   0.02685   1.86548
    A6        1.89860  -0.00077   0.00000  -0.00997  -0.00984   1.88876
    A7        1.93754  -0.00024   0.00000   0.00611   0.00598   1.94352
    A8        1.90169  -0.00290   0.00000  -0.00781  -0.00815   1.89354
    A9        1.93475   0.00457   0.00000   0.03271   0.03269   1.96745
   A10        1.98320   0.00193   0.00000   0.00883   0.00882   1.99202
   A11        1.92275  -0.00321   0.00000  -0.02419  -0.02416   1.89859
   A12        1.92234   0.00225   0.00000   0.02047   0.02055   1.94289
   A13        1.83480   0.00184   0.00000   0.01148   0.01152   1.84632
   A14        1.92854  -0.00329   0.00000  -0.01803  -0.01810   1.91044
   A15        1.86699   0.00029   0.00000  -0.00014  -0.00002   1.86697
   A16        1.93370  -0.00863   0.00000  -0.03392  -0.03475   1.89895
   A17        1.93727  -0.00118   0.00000  -0.00113  -0.00121   1.93606
   A18        1.90990   0.00155   0.00000  -0.02214  -0.02352   1.88637
   A19        1.87814   0.01069   0.00000   0.09868   0.09889   1.97702
   A20        1.91419   0.00008   0.00000  -0.02389  -0.02527   1.88892
   A21        1.88989  -0.00227   0.00000  -0.01610  -0.01608   1.87381
   A22        1.89968   0.00087   0.00000   0.00511   0.00508   1.90476
   A23        1.89091   0.00332   0.00000   0.01905   0.01902   1.90992
   A24        1.85647  -0.00184   0.00000  -0.01012  -0.01019   1.84629
   A25        1.95980   0.01513   0.00000   0.06948   0.06898   2.02878
   A26        1.90434  -0.00797   0.00000  -0.05653  -0.05602   1.84832
   A27        1.92960  -0.00259   0.00000   0.00942   0.00797   1.93757
   A28        1.88463  -0.00261   0.00000  -0.01487  -0.01379   1.87084
   A29        1.91536  -0.00442   0.00000  -0.00306  -0.00453   1.91082
   A30        1.86719   0.00179   0.00000  -0.00935  -0.00960   1.85759
   A31        1.93931   0.00523   0.00000   0.02572   0.02555   1.96486
   A32        1.93980  -0.00222   0.00000  -0.00620  -0.00695   1.93285
   A33        1.91900  -0.00249   0.00000  -0.02315  -0.02314   1.89586
   A34        1.86069   0.00087   0.00000   0.02456   0.02440   1.88509
   A35        1.92802  -0.00186   0.00000  -0.01186  -0.01159   1.91644
   A36        1.87533   0.00038   0.00000  -0.00897  -0.00908   1.86625
   A37        1.91538   0.01349   0.00000   0.06490   0.06471   1.98009
   A38        1.92026  -0.00279   0.00000  -0.00361  -0.00331   1.91695
   A39        1.90934  -0.00337   0.00000  -0.00503  -0.00520   1.90414
   A40        1.92764  -0.00527   0.00000  -0.02721  -0.02768   1.89996
   A41        1.91358  -0.00374   0.00000  -0.01294  -0.01360   1.89998
   A42        1.87722   0.00133   0.00000  -0.01798  -0.01847   1.85875
   A43        1.92257   0.01316   0.00000   0.06077   0.06076   1.98333
   A44        1.92050  -0.00440   0.00000  -0.01810  -0.01828   1.90223
   A45        1.91761  -0.00375   0.00000  -0.01310  -0.01318   1.90443
   A46        1.91938  -0.00351   0.00000  -0.01091  -0.01093   1.90845
   A47        1.92500  -0.00419   0.00000  -0.01603  -0.01613   1.90887
   A48        1.85784   0.00214   0.00000  -0.00552  -0.00590   1.85193
   A49        1.93733   0.01010   0.00000   0.05182   0.05136   1.98869
   A50        1.91771  -0.00031   0.00000   0.01050   0.01048   1.92820
   A51        1.91927  -0.00058   0.00000   0.00819   0.00820   1.92747
   A52        1.89168  -0.00403   0.00000  -0.01741  -0.01823   1.87345
   A53        1.89116  -0.00391   0.00000  -0.01709  -0.01783   1.87332
   A54        1.90608  -0.00149   0.00000  -0.03810  -0.03845   1.86763
   A55        2.13708   0.00782   0.00000   0.03318   0.03318   2.17026
   A56        2.04073  -0.00401   0.00000  -0.01719  -0.01719   2.02354
   A57        2.10537  -0.00380   0.00000  -0.01599  -0.01599   2.08938
    D1        1.09060  -0.00146   0.00000  -0.00528  -0.00524   1.08537
    D2       -3.05709   0.00217   0.00000   0.03442   0.03434  -3.02275
    D3       -1.03017  -0.00228   0.00000  -0.01494  -0.01494  -1.04511
    D4        1.10532   0.00134   0.00000   0.02476   0.02463   1.12996
    D5        3.13349  -0.00068   0.00000   0.00343   0.00358   3.13707
    D6       -1.01420   0.00294   0.00000   0.04313   0.04315  -0.97105
    D7       -1.07106  -0.00005   0.00000  -0.01411  -0.01407  -1.08513
    D8       -3.12447  -0.00143   0.00000  -0.01773  -0.01762   3.14109
    D9        1.10328  -0.00120   0.00000  -0.01530  -0.01508   1.08820
   D10        3.09594   0.00067   0.00000  -0.03060  -0.03081   3.06513
   D11        1.04254  -0.00071   0.00000  -0.03423  -0.03437   1.00817
   D12       -1.01290  -0.00048   0.00000  -0.03180  -0.03182  -1.04473
   D13        3.08863  -0.00245   0.00000  -0.09245  -0.09324   2.99539
   D14        0.99986  -0.00341   0.00000  -0.07994  -0.07941   0.92044
   D15       -1.04903   0.00071   0.00000  -0.04004  -0.03977  -1.08880
   D16       -1.05738  -0.00172   0.00000  -0.06880  -0.06959  -1.12698
   D17        3.13703  -0.00268   0.00000  -0.05629  -0.05576   3.08127
   D18        1.08814   0.00145   0.00000  -0.01638  -0.01612   1.07202
   D19       -3.12427   0.00541   0.00000   0.09251   0.09211  -3.03216
   D20        1.07332  -0.00156   0.00000  -0.00832  -0.00827   1.06505
   D21       -1.01150   0.00099   0.00000   0.02649   0.02671  -0.98479
   D22       -1.02057   0.00379   0.00000   0.07541   0.07507  -0.94550
   D23       -3.10616  -0.00318   0.00000  -0.02542  -0.02532  -3.13147
   D24        1.09220  -0.00063   0.00000   0.00939   0.00967   1.10188
   D25        0.98791   0.00357   0.00000   0.07290   0.07257   1.06048
   D26       -1.09768  -0.00341   0.00000  -0.02793  -0.02782  -1.12550
   D27        3.10068  -0.00085   0.00000   0.00688   0.00717   3.10785
   D28       -1.06721  -0.00152   0.00000  -0.04747  -0.04716  -1.11437
   D29       -3.07900  -0.00158   0.00000  -0.04839  -0.04812  -3.12712
   D30        1.05354  -0.00136   0.00000  -0.00623  -0.00609   1.04745
   D31       -0.95825  -0.00142   0.00000  -0.00714  -0.00705  -0.96530
   D32        3.10575   0.00206   0.00000   0.01770   0.01732   3.12306
   D33        1.09395   0.00200   0.00000   0.01678   0.01636   1.11031
   D34        3.13916   0.00388   0.00000   0.08028   0.08045  -3.06357
   D35        1.07014   0.00084   0.00000   0.03679   0.03708   1.10722
   D36       -1.00404   0.00335   0.00000   0.06668   0.06673  -0.93731
   D37       -1.04380   0.00156   0.00000   0.04286   0.04286  -1.00094
   D38       -3.11282  -0.00149   0.00000  -0.00062  -0.00051  -3.11333
   D39        1.09619   0.00103   0.00000   0.02926   0.02914   1.12533
   D40        0.98564  -0.00016   0.00000   0.02174   0.02158   1.00722
   D41       -1.08338  -0.00320   0.00000  -0.02174  -0.02179  -1.10517
   D42        3.12562  -0.00069   0.00000   0.00814   0.00786   3.13348
   D43       -3.11156  -0.00106   0.00000  -0.02213  -0.02230  -3.13386
   D44        1.04717  -0.00146   0.00000  -0.02811  -0.02846   1.01871
   D45       -1.01143   0.00059   0.00000  -0.00106  -0.00113  -1.01257
   D46       -0.99548  -0.00017   0.00000   0.00084   0.00110  -0.99438
   D47       -3.11993  -0.00057   0.00000  -0.00514  -0.00507  -3.12499
   D48        1.10465   0.00148   0.00000   0.02191   0.02227   1.12692
   D49        1.03686  -0.00019   0.00000  -0.00208  -0.00209   1.03477
   D50       -1.08759  -0.00059   0.00000  -0.00806  -0.00825  -1.09584
   D51        3.13699   0.00146   0.00000   0.01899   0.01908  -3.12712
   D52        3.13535   0.00014   0.00000   0.00339   0.00347   3.13883
   D53        1.01637  -0.00118   0.00000  -0.01076  -0.01051   1.00585
   D54       -1.02371   0.00103   0.00000   0.01439   0.01448  -1.00923
   D55       -1.02780   0.00209   0.00000   0.02384   0.02348  -1.00433
   D56        3.13639   0.00077   0.00000   0.00970   0.00949  -3.13730
   D57        1.09632   0.00298   0.00000   0.03484   0.03449   1.13080
   D58        1.03780  -0.00177   0.00000  -0.02270  -0.02259   1.01521
   D59       -1.08119  -0.00309   0.00000  -0.03685  -0.03658  -1.11777
   D60       -3.12126  -0.00088   0.00000  -0.01170  -0.01158  -3.13285
   D61        3.13372   0.00017   0.00000   0.00266   0.00262   3.13634
   D62        1.04158  -0.00104   0.00000  -0.01550  -0.01581   1.02577
   D63       -1.05698   0.00138   0.00000   0.01983   0.02000  -1.03697
   D64       -1.02981   0.00095   0.00000   0.01247   0.01249  -1.01732
   D65       -3.12194  -0.00026   0.00000  -0.00569  -0.00594  -3.12789
   D66        1.06268   0.00216   0.00000   0.02964   0.02987   1.09255
   D67        1.01399  -0.00104   0.00000  -0.01041  -0.01033   1.00366
   D68       -1.07814  -0.00225   0.00000  -0.02857  -0.02876  -1.10691
   D69        3.10648   0.00016   0.00000   0.00676   0.00705   3.11353
   D70       -3.13856  -0.00005   0.00000   0.00059   0.00060  -3.13797
   D71        0.00428  -0.00011   0.00000  -0.00220  -0.00219   0.00209
   D72       -1.03098   0.00318   0.00000   0.03421   0.03385  -0.99714
   D73        2.11186   0.00311   0.00000   0.03143   0.03106   2.14292
   D74        1.03546  -0.00303   0.00000  -0.03041  -0.03006   1.00540
   D75       -2.10488  -0.00309   0.00000  -0.03320  -0.03284  -2.13773
         Item               Value     Threshold  Converged?
 Maximum Force            0.036281     0.000450     NO 
 RMS     Force            0.004905     0.000300     NO 
 Maximum Displacement     0.529224     0.001800     NO 
 RMS     Displacement     0.143493     0.001200     NO 
 Predicted change in Energy=-8.890941D-03
 GradGradGradGradGradGradGradGradGradGradGradGradGradGradGradGradGradGrad

                          Input orientation:                          
 ---------------------------------------------------------------------
 Center     Atomic      Atomic             Coordinates (Angstroms)
 Number     Number       Type             X           Y           Z
 ---------------------------------------------------------------------
      1          6           0        0.899718    0.056853    0.011947
      2          7           0        2.347391   -0.136762   -0.021349
      3          6           0        2.693752   -1.528412   -0.338792
      4          6           0        2.199015   -2.545699    0.689256
      5          7           0        2.735207   -3.873505    0.339758
      6          6           0        2.925407    0.825028   -0.974861
      7          6           0        4.457445    0.914249   -1.004202
      8          6           0        4.967634    2.019749   -1.948267
      9          6           0        6.501130    2.119603   -2.001247
     10          6           0        7.015786    3.220673   -2.946545
[...]
 ,0.00000776,-0.00000699,0.00000127,0.00000002,0.00096754,0.00059592,0.
 00135253,0.00197202,0.00371476,0.01171024,-0.05866801,-0.01430464,-0.0
 5002486,-0.01107355,-0.01122272,-0.03216548,0.00171418,0.00063107,-0.0
 0136066,-0.00003010,0.00037690,-0.00000213,0.00027506,0.00012706,0.000
 05471,0.00001176,-0.00000424,-0.00000894,-0.00003318,-0.00000949,-0.00
 000330,0.00000602,0.00000030,0.00000108,-0.00001109,0.00001733,0.00001
 823,-0.00002973,-0.00001985,-0.00000147,-0.00000465,-0.00000410,0.0000
 0433,-0.00000168,0.00000411,-0.00000660,0.00000100,-0.00000118,-0.0000
 0215,-0.00000033,0.00000166,0.00000109,-0.00003071,0.00000322,0.000019
 80,-0.00010398,-0.00032989,-0.00033016,0.00026800,0.00006088,-0.000677
 47,-0.00063978,-0.00197613,0.00148463,0.00302138,0.00393965,0.01341471
 ,0.06763091,0.00003586,0.00000555,-0.00010292,-0.00005537,-0.00017339,
 -0.00015467,-0.00002897,0.00010099,0.00003121,0.00003498,0.00000154,0.
 00001472,0.00000258,-0.00001036,-0.00001664,0.00085327,0.00058854,0.00
 025703,0.00448585,0.00608471,0.02266064,-0.01443975,-0.06959710,-0.067
 06173,-0.00079688,-0.00147989,-0.00263783,0.00030810,-0.00002098,-0.00
 072291,-0.00014053,0.00003871,0.00021165,0.00010842,0.00005365,-0.0000
 1614,0.00002377,-0.00000317,0.00000304,-0.00003988,0.00000930,-0.00000
 221,0.00000044,0.00000126,0.00000282,0.00003075,-0.00002242,0.00001194
 ,-0.00001003,-0.00002880,-0.00002087,0.00000178,0.00000461,-0.00001716
 ,-0.00000929,0.00000969,-0.00001375,-0.00000505,-0.00000415,0.00000404
 ,0.00000042,0.00000088,-0.00000063,-0.00013928,-0.00001474,-0.00012142
 ,-0.00021690,0.00005209,-0.00032738,0.00064470,0.00114416,-0.00053872,
 -0.00202073,-0.00229983,0.00340438,-0.00649472,-0.00862491,-0.02707784
 ,0.01911270,0.07271152,0.00003079,0.00002993,0.00004637,0.00029728,0.0
 0016201,0.00079373,-0.00006477,-0.00002780,-0.00008656,-0.00003587,-0.
 00002903,-0.00003117,0.00000322,0.00002542,0.00003349,-0.00160817,-0.0
 0084054,-0.00041445,-0.00377499,-0.00570079,-0.02220621,-0.05085210,-0
 .06675427,-0.26245376,-0.00086837,-0.00076428,-0.00396166,0.00045809,0
 .00010924,0.00102155,-0.00005040,0.00006323,0.00049457,0.00008546,0.00
 002981,-0.00014160,-0.00001273,0.00000552,-0.00000147,0.00006597,0.000
 01570,0.00000816,-0.00002431,0.00000503,0.00000260,-0.00001320,-0.0000
 3458,-0.00007664,0.00007145,0.00003597,0.00001487,0.00000599,0.0000080
 5,0.00001061,0.00001630,-0.00001429,0.00003981,0.00001572,0.00000886,-
 0.00001154,-0.00000318,-0.00000262,-0.00000189,0.00004328,0.00005689,0
 .00002126,0.00110154,0.00037149,0.00081555,-0.00035000,0.00014887,0.00
 102443,0.00163222,0.00369544,-0.00151970,-0.00099754,-0.00186184,-0.00
 521457,0.05596694,0.07081900,0.28975971,0.00001102,0.00001479,-0.00001
 032,0.00005798,-0.00020766,-0.00000692,-0.00010629,0.00006355,0.000086
 75,-0.00000669,-0.00000658,-0.00001557,0.00002747,-0.00001976,-0.00000
 614,-0.00004740,-0.00011969,-0.00020555,0.00150756,0.00188640,-0.00052
 857,-0.01775209,0.03021355,0.00655447,-0.09317549,0.09525435,0.0182936
 2,0.00509082,-0.01141482,-0.00263493,0.00073420,-0.00186580,-0.0007616
 5,-0.00012647,0.00071672,0.00029444,-0.00000265,-0.00000286,0.00000408
 ,0.00000088,0.00000197,-0.00000016,0.00001113,-0.00000678,-0.00001223,
 0.00001222,-0.00001711,-0.00000950,0.00000850,-0.00001600,-0.00001325,
 0.00001314,0.00000426,-0.00001150,-0.00000221,0.00000206,0.00000756,-0
 .00000189,0.00000167,0.00000495,-0.00000686,-0.00000472,0.00000020,0.0
 0031997,-0.00017847,-0.00004339,-0.00000614,0.00002322,0.00000944,0.00
 002004,-0.00123008,0.00031978,-0.00002133,-0.00014707,0.00005148,-0.00
 658772,-0.00113765,-0.00071810,0.00159968,-0.00022328,-0.00027238,0.10
 619657,0.00000582,0.00001626,-0.00000754,0.00007483,0.00003422,-0.0000
 2511,0.00003488,-0.00004090,-0.00001095,0.00001397,-0.00001115,0.00000
 574,-0.00002098,0.00001752,0.00000491,-0.00016645,0.00040335,0.0000248
 8,-0.00038128,0.00081259,-0.00002999,-0.00133336,0.00218817,0.00066055
 ,0.09578913,-0.24213277,-0.03823970,0.00728912,-0.02214243,-0.00283398
 ,0.00341360,-0.00113943,-0.00088769,-0.00085137,0.00074618,0.00027112,
 0.00001048,-0.00000140,-0.00000550,0.00000169,-0.00000047,0.00000137,-
 0.00000325,0.00000033,0.00000142,-0.00000009,-0.00000370,0.00000201,0.
 00000226,0.00001037,0.00000295,-0.00000892,0.00000135,0.00000282,0.000
 00075,-0.00000221,-0.00000497,0.00000011,-0.00000242,-0.00000319,0.000
 01005,0.00000224,-0.00000169,-0.00015838,-0.00012011,0.00002196,0.0000
 1418,-0.00001081,-0.00000954,0.00024084,0.00037541,-0.00032198,0.00001
 566,-0.00001743,0.00004165,-0.00101151,0.00108730,0.00049477,0.0004095
 3,0.00046971,0.00035195,-0.10408975,0.26736532,0.00000687,0.00000554,-
 0.00000578,0.00004110,0.00000410,-0.00002067,0.00003094,-0.00002566,-0
 .00000450,0.00001681,0.00000356,0.00000757,-0.00001465,0.00000192,-0.0
 0000449,0.00002370,0.00016779,-0.00003768,0.00023955,-0.00065050,-0.00
 001535,-0.00192819,0.00307500,0.00023919,0.01793437,-0.03856692,-0.057
 14669,-0.00931467,0.02087786,0.00303666,-0.00064897,0.00031287,0.00083
 741,0.00020564,-0.00034532,-0.00016244,0.00000575,-0.00000106,-0.00000
 135,-0.00000237,0.00000137,-0.00000118,-0.00000466,0.00000282,-0.00000
 027,-0.00000049,0.00000932,0.00002163,-0.00001656,0.00000502,0.0000007
 4,-0.00000908,-0.00000276,0.00000072,-0.00000003,-0.00000149,-0.000012
 79,-0.00000506,-0.00000175,0.00000291,0.00000713,0.00000262,-0.0000014
 5,-0.00004591,0.00002451,-0.00003293,-0.00003441,0.00000201,-0.0000338
 1,0.00019175,0.00022723,0.00017333,0.00005176,-0.00010272,0.00001778,-
 0.00075027,0.00041808,0.00093473,0.00028448,0.00068276,0.00036967,-0.0
 2119586,0.03856905,0.05822809,0.00003893,-0.00001826,-0.00001746,0.000
 00360,-0.00002201,0.00024564,-0.00001581,0.00002589,-0.00000242,-0.000
 00955,0.00000390,-0.00001777,0.00000579,-0.00000986,0.00001075,-0.0001
 0217,0.00017589,-0.00009044,0.00159117,0.00071691,-0.00161752,-0.01021
 307,-0.01106016,-0.03197167,-0.06063125,-0.01498978,-0.05312203,0.0015
 8214,0.00308523,0.01246401,0.00131992,0.00102103,0.00121823,-0.0000521
 7,-0.00032250,-0.00043035,-0.00001092,-0.00000446,0.00000348,-0.000001
 98,0.00000882,-0.00000130,-0.00000674,0.00000695,-0.00000271,-0.000008
 39,-0.00000036,-0.00000919,0.00001006,-0.00000113,-0.00000120,-0.00000
 082,-0.00000160,0.00000489,0.00000463,-0.00000191,0.00000541,0.0000027
 5,0.00000421,-0.00000236,-0.00000384,-0.00000327,0.00000035,-0.0000156
 0,0.00001376,-0.00003062,0.00022631,0.00007893,0.00029110,-0.00002942,
 -0.00006799,0.00015621,-0.00008256,-0.00019973,0.00106378,0.00154833,0
 .00047526,0.00030191,-0.00670648,-0.00077591,-0.00047104,0.00292179,0.
 00388279,0.01337749,0.06900235,-0.00000320,-0.00000019,0.00000182,-0.0
 0002349,-0.00002029,0.00006191,-0.00000445,-0.00000097,-0.00001038,-0.
 00002274,-0.00000588,-0.00002032,0.00000771,0.00000029,0.00001493,-0.0
 0005054,0.00000881,0.00015937,0.00021699,0.00007038,-0.00087911,-0.000
 75550,-0.00122219,-0.00261218,-0.01481258,-0.06992259,-0.06830931,0.00
 362525,0.00534978,0.02257338,0.00130976,0.00092814,0.00034872,0.000079
 06,-0.00028109,-0.00028427,-0.00000589,-0.00000233,0.00000090,0.000003
 23,0.00000047,0.00000289,-0.00000024,-0.00000008,-0.00000299,-0.000004
 14,0.00000118,-0.00001211,0.00000866,-0.00000160,0.00000541,0.00000423
 ,0.00000066,0.00000599,0.00000511,-0.00000150,0.00001135,0.00000503,0.
 00000374,-0.00000412,-0.00000601,-0.00000430,0.00000109,0.00003228,-0.
 00002111,0.00000219,0.00010354,-0.00000192,0.00008135,-0.00003491,-0.0
 0001800,-0.00010208,-0.00029168,0.00008178,0.00039111,-0.00021559,0.00
 042768,0.00068023,-0.00074253,0.00100080,0.00053396,-0.00667693,-0.008
 25503,-0.02708588,0.01992282,0.07310105,-0.00000368,-0.00002729,-0.000
 00500,-0.00009858,-0.00002101,0.00003201,-0.00001052,0.00000661,-0.000
 00893,-0.00001253,-0.00000337,-0.00001733,0.00000550,-0.00000199,0.000
 01388,0.00004178,0.00006426,0.00042233,0.00050325,0.00024637,0.0005699
 7,-0.00123536,-0.00104043,-0.00342744,-0.05355189,-0.06748207,-0.26603
 148,-0.00170017,-0.00455499,-0.02015517,-0.00255588,-0.00098668,-0.000
 91706,0.00115221,0.00108952,0.00065113,-0.00001138,-0.00000208,0.00000
 418,-0.00000431,0.00000391,0.00000707,-0.00000274,0.00000546,-0.000002
 22,-0.00000519,0.00000176,-0.00000579,0.00000696,-0.00000609,0.0000048
 7,0.00000043,0.,0.00000466,0.00000451,-0.00000042,0.00000689,0.0000048
 3,0.00000328,-0.00000392,-0.00000539,-0.00000377,0.00000004,-0.0000127
 8,-0.00000475,-0.00002126,0.00022156,0.00006145,-0.00003077,-0.0000364
 4,0.00001743,0.00000268,-0.00025788,-0.00038525,0.00055595,-0.00025233
 ,0.00032404,0.00037571,-0.00049453,0.00051349,0.00119022,-0.00106748,-
 0.00185329,-0.00499231,0.05769303,0.07090155,0.29266826,0.00000396,-0.
 00000103,0.00000148,0.00000341,0.00001420,-0.00000418,0.00001155,-0.00
 000478,-0.00000711,0.00000183,0.00000295,0.00000218,-0.00000198,-0.000
 00193,-0.00000060,0.00000121,0.00003952,0.00000232,0.00000159,-0.00007
 484,0.00010778,0.00140190,-0.00060187,-0.00053785,0.00428166,-0.012230
 94,-0.00297743,-0.08223037,0.08514751,0.01707183,-0.01492971,0.0365438
 4,0.00799423,0.00617109,-0.00306108,-0.00062235,0.00000022,0.00000026,
 -0.00000030,-0.00000075,-0.00000069,-0.00000171,-0.00000069,0.00000079
 ,0.00000195,-0.00000250,0.00000261,0.00000172,-0.00000221,0.00000055,0
 .00000057,-0.00000100,-0.00000101,0.00000097,-0.00000062,0.00000012,-0
 .00000133,0.00000067,0.00000035,0.00000082,-0.00000059,0.00000130,-0.0
 0000060,-0.00003261,0.00000951,0.00000628,-0.00000252,-0.00000186,-0.0
 0000297,-0.00009690,0.00012932,-0.00000285,-0.00000138,0.00000510,-0.0
 0001093,-0.00014813,0.00032428,0.00020040,-0.00004135,-0.00001362,0.00
 000669,-0.00091752,-0.00186110,0.00195183,0.00029103,0.00072381,-0.000
 33095,0.08938125,0.00001904,-0.00001594,0.00000214,-0.00003758,0.00002
 201,0.00000517,0.00002260,-0.00000939,-0.00000785,0.00000756,-0.000000
 52,-0.00000009,-0.00001189,0.00000457,0.00000555,-0.00000947,0.0000083
 7,0.00004266,-0.00029293,0.00025762,0.00016215,0.00121486,0.00029047,-
 0.00054274,0.00752632,-0.01892591,-0.00372580,0.08923631,-0.26606366,-
 0.04488135,-0.00099885,-0.00108698,-0.00024481,-0.00033401,0.00218374,
 0.00075096,-0.00000373,-0.00000038,0.00000009,-0.00000608,-0.00000011,
 -0.00000424,-0.00000295,0.00000431,0.00000261,-0.00000331,0.00000238,0
 .00000283,-0.00000327,0.00000121,-0.00000045,-0.00000700,-0.00000093,0
 .00000391,0.00000106,-0.00000091,-0.00000420,-0.00000038,-0.00000064,-
 0.00000292,0.00000483,0.00000027,-0.00000002,-0.00005172,0.00000572,0.
 00001357,-0.00000783,-0.00000404,-0.00000571,0.00008699,0.00026178,-0.
 00012205,0.00001512,-0.00002179,-0.00000125,-0.00102754,0.00035568,0.0
 0016278,-0.00004483,-0.00000116,0.00002875,-0.00172029,-0.00153163,0.0
 0312715,0.00015768,0.00112854,0.00007577,-0.09627780,0.28927242,-0.000
 00850,0.00000623,0.00000279,-0.00000269,0.00000489,-0.00000727,-0.0000
 1058,-0.00000221,0.00000133,-0.00000166,-0.00000501,0.00000313,0.00000
 155,0.00000563,-0.00000195,0.00000621,-0.00010142,-0.00000487,-0.00010
 165,0.00005764,-0.00003826,-0.00103887,-0.00031984,0.00038065,-0.00815
 776,0.02089423,0.00376523,0.01794306,-0.04526846,-0.05807871,-0.001367
 49,0.00098002,-0.00044151,0.00040351,0.00100522,-0.00115443,0.00000235
 ,0.00000274,-0.00000219,0.00000150,-0.00000231,0.00000026,0.00000171,-
 0.00000145,0.00000190,0.00000208,-0.00000475,-0.00000472,0.00000549,0.
 00000153,-0.00000007,0.00000264,0.00000201,-0.00000166,-0.00000134,0.0
 0000021,0.00000271,0.00000065,-0.00000103,-0.00000022,0.00000045,0.000
 00042,0.00000001,0.00003449,0.00000415,0.00000950,0.00000312,-0.000001
 36,-0.00000336,0.00001905,-0.00014811,-0.00001483,-0.00001253,0.000016
 05,-0.00003189,0.00030282,-0.00032701,0.00016689,0.00014191,-0.0000834
 7,0.00001645,0.00195907,0.00364222,-0.00222190,-0.00079716,-0.00059102
 ,0.00098422,-0.02077853,0.04613587,0.05934453,-0.00001554,0.00002227,-
 0.00000083,0.00005946,0.00002679,-0.00004215,0.00001031,-0.00002694,-0
 .00000884,0.00000472,-0.00000968,0.00000767,-0.00000792,0.00001278,-0.
 00000222,-0.00005538,0.00002535,-0.00004749,0.00012639,-0.00005356,0.0
 0015705,0.00105149,0.00109791,0.00106192,0.00356660,0.00306249,0.01298
 500,-0.06297214,-0.01278592,-0.06603743,-0.00627088,-0.01323758,-0.034
 59435,-0.00574216,-0.00035066,0.00433849,0.00000987,0.00000235,-0.0000
 0461,0.00000523,-0.00000264,0.00000300,-0.00000064,-0.00000153,0.00000
 253,0.00000119,-0.00000536,0.00000102,0.00000236,0.00000675,0.00000301
 ,-0.00000088,0.00000243,-0.00000099,-0.00000153,-0.00000013,-0.0000009
 2,0.00000107,-0.00000207,0.00000052,0.00000375,0.00000235,-0.00000178,
 -0.00000189,-0.00000039,0.00000164,-0.00003187,-0.00001275,-0.00002631
 ,0.00000221,0.00003467,-0.00001196,-0.00007137,-0.00001546,-0.00015414
 ,-0.00006970,0.00001929,-0.00000052,0.00002872,-0.00028569,-0.00039854
 ,0.00036224,0.00014302,-0.00072734,-0.00060004,-0.00231356,0.00179620,
 0.00320666,0.00289358,0.01187037,0.06673157,-0.00002197,0.00002451,-0.
 00000533,0.00008938,0.00001918,-0.00002643,-0.00000469,-0.00001674,-0.
 00000329,0.00000326,-0.00000695,0.00000896,-0.00000032,0.00000935,-0.0
 0000702,-0.00008392,0.00003205,-0.00013727,0.00037109,-0.00007441,0.00
 020187,0.00101668,0.00105281,-0.00012011,0.00443540,0.00410322,0.02370
 392,-0.01201110,-0.06356438,-0.06767529,-0.00237151,-0.00310023,-0.001
 47894,-0.00155082,0.00130063,0.00081524,0.00001082,0.00000270,-0.00000
 331,0.00000906,0.00000016,0.00000663,-0.00000093,-0.00000314,0.0000009
 5,0.00000457,-0.00000614,0.00000054,0.00000387,0.00000620,0.00000245,0
 .00000226,0.00000219,-0.00000425,-0.00000181,0.00000013,0.00000007,-0.
 00000096,-0.00000213,0.00000217,0.00000182,0.00000175,-0.00000112,0.00
 000350,-0.00000576,-0.00000718,-0.00002702,0.00000361,-0.00000444,0.00
 000379,-0.00002727,0.00003262,-0.00001777,-0.00003921,-0.00014687,-0.0
 0011040,-0.00004895,-0.00017293,-0.00022685,0.00002934,-0.00047048,0.0
 0058178,0.00110700,-0.00047600,-0.00212195,-0.00238126,0.00311033,-0.0
 0844432,-0.00665214,-0.02601460,0.02091492,0.06822983,-0.00000671,-0.0
 0000743,-0.00001535,-0.00002166,-0.00000748,0.00004021,-0.00000786,-0.
 00000365,-0.00001110,-0.00000670,-0.00000497,-0.00000749,0.00000087,0.
 00000397,0.00000820,0.00004334,0.00000068,0.00005376,-0.00003347,0.000
 29003,0.00024517,-0.00140503,-0.00128858,0.00107169,-0.00475240,-0.004
 11179,-0.02404068,-0.05932225,-0.06694834,-0.25503802,-0.00026631,-0.0
 0211563,-0.00174249,-0.00043896,0.00137953,-0.00048593,-0.00000073,-0.
 00000046,0.00000053,0.00000050,0.00000270,0.00000618,-0.00000215,0.000
 00292,-0.00000023,-0.00000295,-0.00000271,-0.00000603,0.00000901,0.000
 00013,0.00000370,0.00000033,0.00000104,0.00000242,0.00000236,-0.000000
 54,0.00000527,0.00000430,0.00000160,-0.00000302,-0.00000219,-0.0000015
 6,-0.00000037,0.00000241,0.00000108,-0.00000166,0.00004923,0.00001951,
 0.00002046,-0.00000887,-0.00001461,-0.00003411,-0.00013150,-0.00012722
 ,0.00025431,0.00007403,0.00003227,-0.00000799,0.00108791,0.00036783,0.
 00051798,-0.00020817,0.00009026,0.00095164,0.00179896,0.00396604,-0.00
 162186,-0.00131675,-0.00080993,-0.00476747,0.06576305,0.06895015,0.284
 33580,0.00001463,-0.00001746,0.00000245,-0.00005178,-0.00005175,0.0000
 2271,-0.00001571,0.00004472,0.00001805,-0.00000799,0.00001999,-0.00000
 786,0.00001778,-0.00002614,-0.00000248,0.00007203,0.00000697,0.0000122
 2,-0.00008454,-0.00003558,-0.00006384,-0.00015740,-0.00060806,0.000119
 34,0.00132427,0.00211318,-0.00090381,-0.01188976,0.02766961,0.00541744
 ,-0.12111326,0.08548526,0.01471746,0.02152546,-0.02266237,-0.00440870,
 -0.00001101,-0.00000423,0.00000673,-0.00000573,0.00000189,-0.00000469,
 0.00000392,-0.00000201,-0.00000479,-0.00000037,0.00001039,0.00000140,-
 0.00000766,-0.00001196,-0.00000480,0.00000449,-0.00000455,-0.00000089,
 0.00000027,0.00000170,0.00000046,-0.00000184,0.00000322,0.00000216,-0.
 00000938,-0.00000263,0.00000261,0.00001206,-0.00000389,-0.00000612,-0.
 00000964,-0.00000249,0.00000443,-0.00002307,-0.00007734,0.00002885,-0.
 00000697,-0.00000480,0.00001645,0.00036481,-0.00016181,-0.00005321,0.0
 0004105,0.00005228,-0.00000333,-0.00013447,-0.00146619,0.00032934,-0.0
 0005800,-0.00008349,0.00021976,-0.00634720,-0.00034450,-0.00042329,0.0
 0066811,-0.00045588,-0.00090162,0.11588688,-0.00001841,0.00002977,-0.0
 0000955,0.00009074,0.00006354,-0.00002545,0.00001949,-0.00005798,-0.00
 002350,0.00001253,-0.00002644,0.00001032,-0.00002286,0.00003670,0.0000
 0164,-0.00010226,0.00005181,-0.00006964,0.00034598,-0.00008008,0.00013
 613,-0.00006918,0.00089131,-0.00065234,0.00124371,-0.00020202,0.000348
 61,-0.00078202,0.00009274,-0.00255617,0.09302980,-0.18401412,-0.021283
 14,-0.00490375,-0.05149871,-0.01421988,0.00001644,0.00000385,-0.000008
 44,0.00000879,-0.00000170,0.00000802,-0.00000509,0.00000218,0.00000554
 ,-0.00000098,-0.00001391,-0.00000051,0.00001023,0.00001568,0.00000669,
 -0.00000617,0.00000618,0.00000129,-0.00000166,-0.00000256,-0.00000127,
 0.00000163,-0.00000452,-0.00000318,0.00001281,0.00000179,-0.00000191,-
 0.00001044,0.00000487,-0.00000017,0.00001219,0.00000391,-0.00000057,0.
 00000667,0.00005311,-0.00000040,0.00000098,-0.00000632,-0.00001326,-0.
 00027734,-0.00013020,0.00001975,-0.00003935,-0.00002614,-0.00000464,0.
 00032100,0.00077463,-0.00026053,0.00002080,0.00003700,-0.00005173,-0.0
 0036913,0.00051703,0.00011301,0.00083696,0.00000405,0.00033517,-0.0893
 8210,0.23347457,0.00001385,-0.00001565,0.00000351,-0.00004937,-0.00000
 636,0.00000640,0.00000256,0.00001236,0.00000537,0.00000252,0.00000359,
 -0.00000282,-0.00000154,-0.00000456,0.00000148,0.00003839,-0.00004661,
 0.00006036,-0.00019576,0.00000476,-0.00016483,-0.00002682,-0.00049461,
 0.00042754,-0.00273647,-0.00042874,0.00004951,-0.00050696,-0.00090945,
 0.01728728,0.01534581,-0.02125590,-0.06607333,-0.00116386,-0.01503753,
 0.01747223,-0.00000604,-0.00000115,0.00000186,-0.00000565,0.00000001,-
 0.00000389,0.00000067,0.00000180,-0.00000049,-0.00000112,0.00000356,0.
 00000214,-0.00000419,-0.00000335,-0.00000239,-0.00000198,-0.00000104,0
 .00000147,-0.00000027,-0.00000019,-0.00000207,-0.00000067,0.00000058,-
 0.00000012,0.00000043,-0.00000060,0.00000035,-0.00000280,0.00000290,0.
 00000278,-0.00000354,-0.00000402,-0.00000564,0.00000274,-0.00000081,-0
 .00000328,0.00000997,0.00002167,-0.00000567,0.00006621,0.00006208,0.00
 002076,-0.00004384,-0.00006825,-0.00005982,0.00013584,0.00004547,-0.00
 012650,-0.00005001,0.00016955,-0.00025354,-0.00075462,-0.00016858,0.00
 209572,0.00406896,-0.00008105,0.00026647,-0.01413243,0.03820011,0.0289
 9917\\-0.00000223,0.00000023,0.00000163,0.00000167,-0.00000406,0.00000
 212,-0.00000222,0.00000104,0.00000190,0.00000043,0.00000054,0.00000020
 ,0.00000021,0.00000047,0.00000020,0.00000131,0.00000421,-0.00000248,0.
 00000206,0.00000160,-0.00000260,0.00000079,0.00000010,-0.00000062,0.00
 000049,-0.00000035,0.00000332,0.00000052,0.00000046,-0.00000702,0.0000
 0440,0.00000329,0.00000328,-0.00000492,-0.00000425,-0.00000194,-0.0000
 0060,0.00000027,-0.00000127,0.00000020,0.00000042,-0.00000063,0.000000
 14,0.00000030,-0.00000052,0.00000023,-0.00000027,0.00000195,-0.0000002
 6,-0.00000052,-0.00000123,0.00000004,0.00000018,0.00000029,-0.00000006
 ,0.00000215,0.00000072,-0.00000073,-0.00000080,0.00000053,-0.00000062,
 0.00000012,0.00000144,-0.00000018,-0.00000035,-0.00000116,0.00000032,-
 0.00000096,0.00000062,-0.00000074,-0.00000069,0.00000061,-0.00000109,-
 0.00000021,-0.00000027,0.00000068,0.00000007,-0.00000132,-0.00000008,-
 0.00000052,-0.00000043,-0.00000025,0.00000067,-0.00000028,0.00000019,0
 .00000007,0.00000049,-0.00000212,0.00000017,0.00000124,0.00000099,0.00
 000007,0.00000155,0.00000141,-0.00000345,-0.00000032\\\@


 WHEN ALL ELSE FAILS, TRY THE BOSS'S SUGGESTION.
 Job cpu time:       0 days  4 hours 45 minutes 17.6 seconds.
 Elapsed time:       0 days  1 hours 11 minutes 21.4 seconds.
 File lengths (MBytes):  RWF=    435 Int=      0 D2E=      0 Chk=     17 Scr=      1
 Normal termination of Gaussian 16 at Tue Jun  1 02:50:18 2021.
### All Done ###
