### Starting Gaussian ###
 Entering Gaussian System, Link 0=g16
 Initial command:
 /cluster/software/gaussian/gaussian-16-A.03/avx2/g16/l1.exe "/local/scratch/cz9n3/Gau-6932.inp" -scrdir="/local/scratch/cz9n3/"
 Entering Link 1 = /cluster/software/gaussian/gaussian-16-A.03/avx2/g16/l1.exe PID=      6933.
  
 Copyright (c) 1988,1990,1992,1993,1995,1998,2003,2009,2016,
            Gaussian, Inc.  All Rights Reserved.
  
 This is part of the Gaussian(R) 16 program.  It is based on
 the Gaussian(R) 09 system (copyright 2009, Gaussian, Inc.),
 the Gaussian(R) 03 system (copyright 2003, Gaussian, Inc.),
 the Gaussian(R) 98 system (copyright 1998, Gaussian, Inc.),
 the Gaussian(R) 94 system (copyright 1995, Gaussian, Inc.),
 the Gaussian 92(TM) system (copyright 1992, Gaussian, Inc.),
 the Gaussian 90(TM) system (copyright 1990, Gaussian, Inc.),
 the Gaussian 88(TM) system (copyright 1988, Gaussian, Inc.),
 the Gaussian 86(TM) system (copyright 1986, Carnegie Mellon
 University), and the Gaussian 82(TM) system (copyright 1983,
 Carnegie Mellon University). Gaussian is a federally registered
 trademark of Gaussian, Inc.
  
 This software contains proprietary and confidential information,
 including trade secrets, belonging to Gaussian, Inc.
  
 This software is provided under written license and may be
 used, copied, transmitted, or stored only in accord with that
 written license.
  
 The following legend is applicable only to US Government
 contracts under FAR:
  
                    RESTRICTED RIGHTS LEGEND
  
 Use, reproduction and disclosure by the US Government is
 subject to restrictions as set forth in subparagraphs (a)
 and (c) of the Commercial Computer Software - Restricted
 Rights clause in FAR 52.227-19.
  
 Gaussian, Inc.
 340 Quinnipiac St., Bldg. 40, Wallingford CT 06492
  
  
 ---------------------------------------------------------------
 Warning -- This program may not be used in any manner that
 competes with the business of Gaussian, Inc. or will provide
 assistance to any competitor of Gaussian, Inc.  The licensee
 of this program is prohibited from giving any competitor of
 Gaussian, Inc. access to this program.  By using this program,
 the user acknowledges that Gaussian, Inc. is engaged in the
 business of creating and licensing software in the field of
 computational chemistry and represents and warrants to the
 licensee that it is not a competitor of Gaussian, Inc. and that
 it will not use this program in any manner prohibited above.
 ---------------------------------------------------------------
  

 Cite this work as:
 Gaussian 16, Revision A.03,
 M. J. Frisch, G. W. Trucks, H. B. Schlegel, G. E. Scuseria, 
 M. A. Robb, J. R. Cheeseman, G. Scalmani, V. Barone, 
 G. A. Petersson, H. Nakatsuji, X. Li, M. Caricato, A. V. Marenich, 
 J. Bloino, B. G. Janesko, R. Gomperts, B. Mennucci, H. P. Hratchian, 
 J. V. Ortiz, A. F. Izmaylov, J. L. Sonnenberg, D. Williams-Young, 
 F. Ding, F. Lipparini, F. Egidi, J. Goings, B. Peng, A. Petrone, 
 T. Henderson, D. Ranasinghe, V. G. Zakrzewski, J. Gao, N. Rega, 
 G. Zheng, W. Liang, M. Hada, M. Ehara, K. Toyota, R. Fukuda, 
 J. Hasegawa, M. Ishida, T. Nakajima, Y. Honda, O. Kitao, H. Nakai, 
 T. Vreven, K. Throssell, J. A. Montgomery, Jr., J. E. Peralta, 
 F. Ogliaro, M. J. Bearpark, J. J. Heyd, E. N. Brothers, K. N. Kudin, 
 V. N. Staroverov, T. A. Keith, R. Kobayashi, J. Normand, 
 K. Raghavachari, A. P. Rendell, J. C. Burant, S. S. Iyengar, 
 J. Tomasi, M. Cossi, J. M. Millam, M. Klene, C. Adamo, R. Cammi, 
 J. W. Ochterski, R. L. Martin, K. Morokuma, O. Farkas, 
 J. B. Foresman, and D. J. Fox, Gaussian, Inc., Wallingford CT, 2016.
 
 ******************************************
 Gaussian 16:  ES64L-G16RevA.03 25-Dec-2016
                 1-Jun-2021 
 ******************************************
 %chk=CNpCCCNdOpNCN.chk
 %NProcShared=20
 Will use up to   20 processors via shared memory.
 -----------------------------
 # opt freq b3lyp/6-31g(2df,p)
 -----------------------------
 1/18=20,19=15,26=3,38=1/1,3;
 2/9=110,12=2,17=6,18=5,40=1/2;
 3/5=1,6=6,7=104,11=2,25=1,30=1,71=1,74=-5/1,2,3;
 4//1;
 5/5=2,38=5/2;
 6/7=2,8=2,9=2,10=2,28=1/1;
 7//1,2,3,16;
 1/18=20,19=15,26=3/3(2);
 2/9=110/2;
 99//99;
 2/9=110/2;
 3/5=1,6=6,7=104,11=2,25=1,30=1,71=1,74=-5/1,2,3;
 4/5=5,16=3,69=1/1;
 5/5=2,38=5/2;
 7//1,2,3,16;
 1/18=20,19=15,26=3/3(-5);
 2/9=110/2;
 6/7=2,8=2,9=2,10=2,19=2,28=1/1;
 99/9=1/99;
 -------------------
 Title Card Required
 -------------------
 Symbolic Z-matrix:
 Charge =  0 Multiplicity = 1
 C                     0.9199   -0.03726   0.02377 
 N                     2.39223   0.06336   0.01303 
 C                     2.81751   1.36891   0.56336 
 C                     2.34675   2.54532  -0.28607 
 C                     2.87634   3.84924   0.28127 
 N                     2.38391   4.97753  -0.55631 
 O                     2.74958   6.06686  -0.11504 
 N                     2.91924  -1.02464   0.8655 
 C                     4.36994  -1.09033   0.79315 
 N                     4.7584   -2.23236   1.58399 
 H                     0.46531   0.70662  -0.6392 
 H                     0.50443   0.10243   1.02929 
 H                     0.58636  -1.00628  -0.3622 
 H                     3.91137   1.43038   0.56215 
 H                     2.48987   1.48117   1.60529 
 H                     1.25385   2.5974   -0.31321 
 H                     2.6928    2.41164  -1.3198 
 H                     3.97092   3.87554   0.27388 
 H                     2.51597   4.00415   1.30405 
 H                     2.60058  -1.92971   0.50325 
 H                     4.83777  -0.21244   1.24528 
 H                     4.72392  -1.19715  -0.23685 
 H                     4.42197  -2.063     2.5311 
 H                     5.77512  -2.2295    1.65144 
 

 GradGradGradGradGradGradGradGradGradGradGradGradGradGradGradGradGradGrad
 Berny optimization.
 Initialization pass.
                           ----------------------------
                           !    Initial Parameters    !
                           ! (Angstroms and Degrees)  !
 --------------------------                            --------------------------
 ! Name  Definition              Value          Derivative Info.                !
 --------------------------------------------------------------------------------
 ! R1    R(1,2)                  1.4758         estimate D2E/DX2                !
 ! R2    R(1,11)                 1.0952         estimate D2E/DX2                !
 ! R3    R(1,12)                 1.0969         estimate D2E/DX2                !
 ! R4    R(1,13)                 1.0951         estimate D2E/DX2                !
 ! R5    R(2,3)                  1.4793         estimate D2E/DX2                !
 ! R6    R(2,8)                  1.4793         estimate D2E/DX2                !
 ! R7    R(3,4)                  1.5255         estimate D2E/DX2                !
 ! R8    R(3,14)                 1.0956         estimate D2E/DX2                !
 ! R9    R(3,15)                 1.098          estimate D2E/DX2                !
 ! R10   R(4,5)                  1.5174         estimate D2E/DX2                !
 ! R11   R(4,16)                 1.0945         estimate D2E/DX2                !
 ! R12   R(4,17)                 1.0983         estimate D2E/DX2                !
 ! R13   R(5,6)                  1.489          estimate D2E/DX2                !
 ! R14   R(5,18)                 1.0949         estimate D2E/DX2                !
 ! R15   R(5,19)                 1.0954         estimate D2E/DX2                !
 ! R16   R(6,7)                  1.2309         estimate D2E/DX2                !
 ! R17   R(8,9)                  1.454          estimate D2E/DX2                !
 ! R18   R(8,20)                 1.0256         estimate D2E/DX2                !
 ! R19   R(9,10)                 1.4424         estimate D2E/DX2                !
 ! R20   R(9,21)                 1.0927         estimate D2E/DX2                !
 ! R21   R(9,22)                 1.0944         estimate D2E/DX2                !
 ! R22   R(10,23)                1.0193         estimate D2E/DX2                !
 ! R23   R(10,24)                1.019          estimate D2E/DX2                !
 ! A1    A(2,1,11)             111.3074         estimate D2E/DX2                !
 ! A2    A(2,1,12)             112.0777         estimate D2E/DX2                !
 ! A3    A(2,1,13)             111.2001         estimate D2E/DX2                !
 ! A4    A(11,1,12)            108.1307         estimate D2E/DX2                !
 ! A5    A(11,1,13)            105.1436         estimate D2E/DX2                !
 ! A6    A(12,1,13)            108.6881         estimate D2E/DX2                !
 ! A7    A(1,2,3)              110.1382         estimate D2E/DX2                !
 ! A8    A(1,2,8)              107.523          estimate D2E/DX2                !
 ! A9    A(3,2,8)              109.4095         estimate D2E/DX2                !
 ! A10   A(2,3,4)              112.6276         estimate D2E/DX2                !
 ! A11   A(2,3,14)             109.6426         estimate D2E/DX2                !
 ! A12   A(2,3,15)             110.9459         estimate D2E/DX2                !
 ! A13   A(4,3,14)             105.3211         estimate D2E/DX2                !
 ! A14   A(4,3,15)             110.9448         estimate D2E/DX2                !
 ! A15   A(14,3,15)            107.0522         estimate D2E/DX2                !
 ! A16   A(3,4,5)              110.2904         estimate D2E/DX2                !
 ! A17   A(3,4,16)             111.0178         estimate D2E/DX2                !
 ! A18   A(3,4,17)             109.4511         estimate D2E/DX2                !
 ! A19   A(5,4,16)             108.4748         estimate D2E/DX2                !
 ! A20   A(5,4,17)             110.2756         estimate D2E/DX2                !
 ! A21   A(16,4,17)            107.2824         estimate D2E/DX2                !
 ! A22   A(4,5,6)              108.9901         estimate D2E/DX2                !
 ! A23   A(4,5,18)             111.5317         estimate D2E/DX2                !
 ! A24   A(4,5,19)             110.8422         estimate D2E/DX2                !
 ! A25   A(6,5,18)             107.9758         estimate D2E/DX2                !
 ! A26   A(6,5,19)             108.0146         estimate D2E/DX2                !
 ! A27   A(18,5,19)            109.377          estimate D2E/DX2                !
 ! A28   A(5,6,7)              111.7591         estimate D2E/DX2                !
 ! A29   A(2,8,9)              111.1012         estimate D2E/DX2                !
 ! A30   A(2,8,20)             109.5613         estimate D2E/DX2                !
 ! A31   A(9,8,20)             104.6285         estimate D2E/DX2                !
 ! A32   A(8,9,10)             106.0927         estimate D2E/DX2                !
 ! A33   A(8,9,21)             111.7334         estimate D2E/DX2                !
 ! A34   A(8,9,22)             111.9608         estimate D2E/DX2                !
 ! A35   A(10,9,21)            107.0939         estimate D2E/DX2                !
 ! A36   A(10,9,22)            110.5876         estimate D2E/DX2                !
 ! A37   A(21,9,22)            109.231          estimate D2E/DX2                !
 ! A38   A(9,10,23)            106.799          estimate D2E/DX2                !
 ! A39   A(9,10,24)            107.6253         estimate D2E/DX2                !
 ! A40   A(23,10,24)           105.508          estimate D2E/DX2                !
 ! D1    D(11,1,2,3)            64.249          estimate D2E/DX2                !
 ! D2    D(11,1,2,8)          -176.6098         estimate D2E/DX2                !
 ! D3    D(12,1,2,3)           -56.9925         estimate D2E/DX2                !
 ! D4    D(12,1,2,8)            62.1487         estimate D2E/DX2                !
 ! D5    D(13,1,2,3)          -178.876          estimate D2E/DX2                !
 ! D6    D(13,1,2,8)           -59.7348         estimate D2E/DX2                !
 ! D7    D(1,2,3,4)            -63.7193         estimate D2E/DX2                !
 ! D8    D(1,2,3,14)           179.362          estimate D2E/DX2                !
 ! D9    D(1,2,3,15)            61.3267         estimate D2E/DX2                !
 ! D10   D(8,2,3,4)            178.2968         estimate D2E/DX2                !
 ! D11   D(8,2,3,14)            61.3781         estimate D2E/DX2                !
 ! D12   D(8,2,3,15)           -56.6572         estimate D2E/DX2                !
 ! D13   D(1,2,8,9)            173.6968         estimate D2E/DX2                !
 ! D14   D(1,2,8,20)            58.5842         estimate D2E/DX2                !
 ! D15   D(3,2,8,9)            -66.6965         estimate D2E/DX2                !
 ! D16   D(3,2,8,20)           178.1909         estimate D2E/DX2                !
 ! D17   D(2,3,4,5)           -176.8207         estimate D2E/DX2                !
 ! D18   D(2,3,4,16)            62.9152         estimate D2E/DX2                !
 ! D19   D(2,3,4,17)           -55.3276         estimate D2E/DX2                !
 ! D20   D(14,3,4,5)           -57.3618         estimate D2E/DX2                !
 ! D21   D(14,3,4,16)         -177.6258         estimate D2E/DX2                !
 ! D22   D(14,3,4,17)           64.1314         estimate D2E/DX2                !
 ! D23   D(15,3,4,5)            58.1326         estimate D2E/DX2                !
 ! D24   D(15,3,4,16)          -62.1314         estimate D2E/DX2                !
 ! D25   D(15,3,4,17)          179.6258         estimate D2E/DX2                !
 ! D26   D(3,4,5,6)           -179.1691         estimate D2E/DX2                !
 ! D27   D(3,4,5,18)            61.7108         estimate D2E/DX2                !
 ! D28   D(3,4,5,19)           -60.4201         estimate D2E/DX2                !
 ! D29   D(16,4,5,6)           -57.3871         estimate D2E/DX2                !
 ! D30   D(16,4,5,18)         -176.5072         estimate D2E/DX2                !
 ! D31   D(16,4,5,19)           61.362          estimate D2E/DX2                !
 ! D32   D(17,4,5,6)            59.8287         estimate D2E/DX2                !
 ! D33   D(17,4,5,18)          -59.2914         estimate D2E/DX2                !
 ! D34   D(17,4,5,19)          178.5777         estimate D2E/DX2                !
 ! D35   D(4,5,6,7)            177.8309         estimate D2E/DX2                !
 ! D36   D(18,5,6,7)           -60.8559         estimate D2E/DX2                !
 ! D37   D(19,5,6,7)            57.3279         estimate D2E/DX2                !
 ! D38   D(2,8,9,10)          -176.2334         estimate D2E/DX2                !
 ! D39   D(2,8,9,21)            67.3856         estimate D2E/DX2                !
 ! D40   D(2,8,9,22)           -55.5067         estimate D2E/DX2                !
 ! D41   D(20,8,9,10)          -58.0936         estimate D2E/DX2                !
 ! D42   D(20,8,9,21)         -174.4746         estimate D2E/DX2                !
 ! D43   D(20,8,9,22)           62.6331         estimate D2E/DX2                !
 ! D44   D(8,9,10,23)          -59.7639         estimate D2E/DX2                !
 ! D45   D(8,9,10,24)         -172.6539         estimate D2E/DX2                !
 ! D46   D(21,9,10,23)          59.7031         estimate D2E/DX2                !
 ! D47   D(21,9,10,24)         -53.1869         estimate D2E/DX2                !
 ! D48   D(22,9,10,23)         178.6255         estimate D2E/DX2                !
 ! D49   D(22,9,10,24)          65.7355         estimate D2E/DX2                !
 --------------------------------------------------------------------------------
 Trust Radius=3.00D-01 FncErr=1.00D-07 GrdErr=1.00D-06 EigMax=2.50D+02 EigMin=1.00D-04
 Number of steps in this run=    122 maximum allowed number of steps=    144.
 GradGradGradGradGradGradGradGradGradGradGradGradGradGradGradGradGradGrad

                          Input orientation:                          
 ---------------------------------------------------------------------
 Center     Atomic      Atomic             Coordinates (Angstroms)
 Number     Number       Type             X           Y           Z
 ---------------------------------------------------------------------
      1          6           0        0.919900   -0.037260    0.023770
      2          7           0        2.392230    0.063360    0.013030
      3          6           0        2.817510    1.368910    0.563360
      4          6           0        2.346750    2.545320   -0.286070
      5          6           0        2.876340    3.849240    0.281270
      6          7           0        2.383910    4.977530   -0.556310
      7          8           0        2.749580    6.066860   -0.115040
      8          7           0        2.919240   -1.024640    0.865500
      9          6           0        4.369940   -1.090330    0.793150
     10          7           0        4.758400   -2.232360    1.583990
     11          1           0        0.465310    0.706620   -0.639200
     12          1           0        0.504430    0.102430    1.029290
     13          1           0        0.586360   -1.006280   -0.362200
     14          1           0        3.911370    1.430380    0.562150
     15          1           0        2.489870    1.481170    1.605290
     16          1           0        1.253850    2.597400   -0.313210
     17          1           0        2.692800    2.411640   -1.319800
     18          1           0        3.970920    3.875540    0.273880
     19          1           0        2.515970    4.004150    1.304050
     20          1           0        2.600580   -1.929710    0.503250
     21          1           0        4.837770   -0.212440    1.245280
     22          1           0        4.723920   -1.197150   -0.236850
     23          1           0        4.421970   -2.063000    2.531100
     24          1           0        5.775120   -2.229500    1.651440
 ---------------------------------------------------------------------
                    Distance matrix (angstroms):
                    1          2          3          4          5
     1  C    0.000000
     2  N    1.475803   0.000000
     3  C    2.422683   1.479252   0.000000
     4  C    2.966753   2.500331   1.525479   0.000000
     5  C    4.358767   3.826121   2.497013   1.517415   0.000000
     6  N    5.256228   4.947048   3.803131   2.447459   1.488981
     7  O    6.373953   6.015489   4.747165   3.548629   2.256317
     8  N    2.383441   1.479253   2.414688   3.794532   4.908958
     9  C    3.688316   2.418868   2.917311   4.298368   5.185770
    10  N    4.689012   3.651987   4.216383   5.669163   6.498083
    11  H    1.095235   2.133590   2.723531   2.654305   4.066496
    12  H    1.096904   2.144318   2.677947   3.330469   4.497119
    13  H    1.095090   2.132157   3.387657   3.964673   5.406860
    14  H    3.375309   2.116143   1.095586   2.100144   2.645952
    15  H    2.696598   2.134247   1.097984   2.174889   2.740464
    16  H    2.677034   2.797088   2.173153   1.094477   2.133772
    17  H    3.308393   2.716836   2.156184   1.098280   2.159585
    18  H    4.968026   4.134371   2.774409   2.172776   1.094921
    19  H    4.529851   4.148719   2.753913   2.164556   1.095419
    20  H    2.576034   2.063020   3.306292   4.551192   5.789783
    21  H    4.107612   2.752303   2.654644   4.019385   4.612349
    22  H    3.985453   2.662349   3.295360   4.433897   5.398894
    23  H    4.759708   3.870650   4.268993   5.786156   6.511934
    24  H    5.570313   4.402901   4.783297   6.189230   6.872508
                    6          7          8          9         10
     6  N    0.000000
     7  O    1.230883   0.000000
     8  N    6.191459   7.160979   0.000000
     9  C    6.525663   7.394305   1.453988   0.000000
    10  N    7.886799   8.706269   2.314590   1.442415   0.000000
    11  H    4.682795   5.850197   3.359041   4.530650   5.657809
    12  H    5.460144   6.474922   2.669910   4.052235   4.884178
    13  H    6.250988   7.400670   2.636269   3.956940   4.764121
    14  H    4.020741   4.827555   2.665233   2.572475   3.895803
    15  H    4.111967   4.904644   2.647779   3.287377   4.351665
    16  H    2.645969   3.783336   4.157169   4.953120   6.261615
    17  H    2.694832   3.849065   4.078582   4.420537   5.853669
    18  H    2.102902   2.538664   5.046564   5.008864   6.296265
    19  H    2.103770   2.514590   5.063959   5.445360   6.633319
    20  H    6.991393   8.021821   1.025632   1.979706   2.432238
    21  H    6.016888   6.755784   2.117701   1.092693   2.049659
    22  H    6.610928   7.528526   2.121746   1.094355   2.094829
    23  H    7.953292   8.711692   2.471965   1.992301   1.019257
    24  H    8.265334   9.005772   3.197724   2.002224   1.018959
                   11         12         13         14         15
    11  H    0.000000
    12  H    1.774946   0.000000
    13  H    1.739370   1.781066   0.000000
    14  H    3.720538   3.686314   4.224621   0.000000
    15  H    3.120338   2.484889   3.698888   1.763911   0.000000
    16  H    2.074395   2.930667   3.665304   3.031601   2.540543
    17  H    2.886524   3.954698   4.127501   2.447350   3.076216
    18  H    4.813011   5.179146   5.974279   2.462814   3.114349
    19  H    4.342250   4.398318   5.621761   3.020240   2.541034
    20  H    3.579777   2.966506   2.378825   3.607193   3.586203
    21  H    4.849159   4.350130   4.613964   2.005926   2.917286
    22  H    4.682092   4.593051   4.143857   2.864010   3.944345
    23  H    5.777262   4.721402   4.919324   4.042423   4.141410
    24  H    6.485516   5.796994   5.698618   4.249099   4.956215
                   16         17         18         19         20
    16  H    0.000000
    17  H    1.765873   0.000000
    18  H    3.059540   2.513247   0.000000
    19  H    2.487453   3.074402   1.787364   0.000000
    20  H    4.793226   4.709494   5.969202   5.988250   0.000000
    21  H    4.813375   4.250450   4.290295   4.813922   2.916272
    22  H    5.142551   4.280373   5.153643   5.856871   2.364945
    23  H    6.312401   6.151574   6.369046   6.476789   2.728993
    24  H    6.899326   6.314202   6.513396   7.042807   3.389088
                   21         22         23         24
    21  H    0.000000
    22  H    1.783066   0.000000
    23  H    2.291461   2.915890   0.000000
    24  H    2.261000   2.395080   1.622510   0.000000
 Stoichiometry    C5H14N4O
 Framework group  C1[X(C5H14N4O)]
 Deg. of freedom    66
 Full point group                 C1      NOp   1
 Largest Abelian subgroup         C1      NOp   1
 Largest concise Abelian subgroup C1      NOp   1
                         Standard orientation:                         
 ---------------------------------------------------------------------
 Center     Atomic      Atomic             Coordinates (Angstroms)
 Number     Number       Type             X           Y           Z
 ---------------------------------------------------------------------
      1          6           0       -0.947607    2.227073    0.152565
      2          7           0       -1.108050    0.837820   -0.318845
      3          6           0       -0.018828   -0.009673    0.213637
      4          6           0        1.355627    0.411848   -0.296538
      5          6           0        2.421806   -0.537270    0.218229
      6          7           0        3.751384   -0.088265   -0.279446
      7          8           0        4.661531   -0.800267    0.144534
      8          7           0       -2.407423    0.343305    0.186402
      9          6           0       -2.713890   -0.970735   -0.355312
     10          7           0       -4.030004   -1.306362    0.130241
     11          1           0       -0.028146    2.676151   -0.237896
     12          1           0       -0.920245    2.290413    1.247297
     13          1           0       -1.756959    2.866215   -0.215767
     14          1           0       -0.152104   -1.040806   -0.131779
     15          1           0       -0.040064   -0.032489    1.311179
     16          1           0        1.603722    1.424922    0.035139
     17          1           0        1.351410    0.419945   -1.394780
     18          1           0        2.255482   -1.559412   -0.137318
     19          1           0        2.451066   -0.533613    1.313251
     20          1           0       -3.161788    0.947411   -0.156977
     21          1           0       -2.028332   -1.733649    0.021450
     22          1           0       -2.694186   -0.977108   -1.449471
     23          1           0       -3.977354   -1.306237    1.148137
     24          1           0       -4.218754   -2.272550   -0.132684
 ---------------------------------------------------------------------
 Rotational constants (GHZ):           2.8266251           0.4377837           0.3896897
 Standard basis: 6-31G(2df,p) (6D, 7F)
 There are   380 symmetry adapted cartesian basis functions of A   symmetry.
 There are   350 symmetry adapted basis functions of A   symmetry.
   350 basis functions,   538 primitive gaussians,   380 cartesian basis functions
    40 alpha electrons       40 beta electrons
       nuclear repulsion energy       541.4542581521 Hartrees.
 NAtoms=   24 NActive=   24 NUniq=   24 SFac= 1.00D+00 NAtFMM=   60 NAOKFM=F Big=F
 Integral buffers will be    131072 words long.
 Raffenetti 2 integral format.
 Two-electron integral symmetry is turned on.
 One-electron integrals computed using PRISM.
 PrsmSu:  requested number of processors reduced to:  13 ShMem   1 Linda.
 NBasis=   350 RedAO= T EigKep=  2.85D-04  NBF=   350
 NBsUse=   350 1.00D-06 EigRej= -1.00D+00 NBFU=   350
 ExpMin= 1.61D-01 ExpMax= 5.48D+03 ExpMxC= 8.25D+02 IAcc=3 IRadAn=         5 AccDes= 0.00D+00
 Harris functional with IExCor=  402 and IRadAn=       5 diagonalized for initial guess.
 HarFok:  IExCor=  402 AccDes= 0.00D+00 IRadAn=         5 IDoV= 1 UseB2=F ITyADJ=14
 ICtDFT=  3500011 ScaDFX=  1.000000  1.000000  1.000000  1.000000
 FoFCou: FMM=F IPFlag=           0 FMFlag=      100000 FMFlg1=           0
         NFxFlg=           0 DoJE=T BraDBF=F KetDBF=T FulRan=T
         wScrn=  0.000000 ICntrl=       500 IOpCl=  0 I1Cent=   200000004 NGrid=           0
         NMat0=    1 NMatS0=      1 NMatT0=    0 NMatD0=    1 NMtDS0=    0 NMtDT0=    0
 Petite list used in FoFCou.
 Requested convergence on RMS density matrix=1.00D-08 within 128 cycles.
 Requested convergence on MAX density matrix=1.00D-06.
 Requested convergence on             energy=1.00D-06.
 No special actions if energy rises.
 Integral accuracy reduced to 1.0D-05 until final iterations.
 Initial convergence to 1.0D-05 achieved.  Increase integral accuracy.
 SCF Done:  E(RB3LYP) =  -493.067861224     A.U. after   13 cycles
            NFock= 13  Conv=0.82D-08     -V/T= 2.0075

 **********************************************************************

            Population analysis using the SCF density.

 **********************************************************************

 Orbital symmetries:
       Occupied  (A) (A) (A) (A) (A) (A) (A) (A) (A) (A) (A) (A)
                 (A) (A) (A) (A) (A) (A) (A) (A) (A) (A) (A) (A)
                 (A) (A) (A) (A) (A) (A) (A) (A) (A) (A) (A) (A)
                 (A) (A) (A) (A)
       Virtual   (A) (A) (A) (A) (A) (A) (A) (A) (A) (A) (A) (A)
                 (A) (A) (A) (A) (A) (A) (A) (A) (A) (A) (A) (A)
                 (A) (A) (A) (A) (A) (A) (A) (A) (A) (A) (A) (A)
                 (A) (A) (A) (A) (A) (A) (A) (A) (A) (A) (A) (A)
                 (A) (A) (A) (A) (A) (A) (A) (A) (A) (A) (A) (A)
                 (A) (A) (A) (A) (A) (A) (A) (A) (A) (A) (A) (A)
                 (A) (A) (A) (A) (A) (A) (A) (A) (A) (A) (A) (A)
                 (A) (A) (A) (A) (A) (A) (A) (A) (A) (A) (A) (A)
                 (A) (A) (A) (A) (A) (A) (A) (A) (A) (A) (A) (A)
                 (A) (A) (A) (A) (A) (A) (A) (A) (A) (A) (A) (A)
                 (A) (A) (A) (A) (A) (A) (A) (A) (A) (A) (A) (A)
                 (A) (A) (A) (A) (A) (A) (A) (A) (A) (A) (A) (A)
                 (A) (A) (A) (A) (A) (A) (A) (A) (A) (A) (A) (A)
                 (A) (A) (A) (A) (A) (A) (A) (A) (A) (A) (A) (A)
                 (A) (A) (A) (A) (A) (A) (A) (A) (A) (A) (A) (A)
                 (A) (A) (A) (A) (A) (A) (A) (A) (A) (A) (A) (A)
                 (A) (A) (A) (A) (A) (A) (A) (A) (A) (A) (A) (A)
                 (A) (A) (A) (A) (A) (A) (A) (A) (A) (A) (A) (A)
                 (A) (A) (A) (A) (A) (A) (A) (A) (A) (A) (A) (A)
                 (A) (A) (A) (A) (A) (A) (A) (A) (A) (A) (A) (A)
                 (A) (A) (A) (A) (A) (A) (A) (A) (A) (A) (A) (A)
                 (A) (A) (A) (A) (A) (A) (A) (A) (A) (A) (A) (A)
                 (A) (A) (A) (A) (A) (A) (A) (A) (A) (A) (A) (A)
                 (A) (A) (A) (A) (A) (A) (A) (A) (A) (A) (A) (A)
                 (A) (A) (A) (A) (A) (A) (A) (A) (A) (A) (A) (A)
                 (A) (A) (A) (A) (A) (A) (A) (A) (A) (A)
 The electronic state is 1-A.
 Alpha  occ. eigenvalues --  -19.19954 -14.44521 -14.34937 -14.33788 -14.31049
 Alpha  occ. eigenvalues --  -10.22572 -10.22052 -10.21202 -10.20341 -10.19318
 Alpha  occ. eigenvalues --   -1.13925  -0.96721  -0.89342  -0.83168  -0.79701
 Alpha  occ. eigenvalues --   -0.73415  -0.67050  -0.63509  -0.60281  -0.58231
 Alpha  occ. eigenvalues --   -0.50963  -0.50506  -0.50189  -0.48604  -0.46513
 Alpha  occ. eigenvalues --   -0.45647  -0.44109  -0.42806  -0.41853  -0.40598
 Alpha  occ. eigenvalues --   -0.39456  -0.38226  -0.37303  -0.36068  -0.35677
 Alpha  occ. eigenvalues --   -0.34235  -0.29487  -0.24091  -0.22821  -0.18914
 Alpha virt. eigenvalues --   -0.09335   0.07735   0.08161   0.09334   0.11036
 Alpha virt. eigenvalues --    0.12204   0.12363   0.14132   0.14354   0.15112
 Alpha virt. eigenvalues --    0.16033   0.16340   0.17991   0.18363   0.19578
 Alpha virt. eigenvalues --    0.20664   0.21002   0.21707   0.23239   0.23966
 Alpha virt. eigenvalues --    0.24529   0.27936   0.29247   0.33990   0.43036
 Alpha virt. eigenvalues --    0.43439   0.44974   0.46317   0.47524   0.48846
 Alpha virt. eigenvalues --    0.50855   0.52545   0.53238   0.54596   0.56071
 Alpha virt. eigenvalues --    0.56531   0.58408   0.61569   0.61860   0.62146
 Alpha virt. eigenvalues --    0.64502   0.66123   0.66871   0.67826   0.68369
 Alpha virt. eigenvalues --    0.69618   0.71461   0.71765   0.71992   0.72940
 Alpha virt. eigenvalues --    0.73603   0.74361   0.75106   0.75759   0.76925
 Alpha virt. eigenvalues --    0.78034   0.78504   0.79773   0.80900   0.82531
 Alpha virt. eigenvalues --    0.82665   0.83061   0.83955   0.85368   0.86779
 Alpha virt. eigenvalues --    0.88046   0.89136   0.90108   0.91133   0.92397
 Alpha virt. eigenvalues --    0.93682   0.94385   0.96543   0.97630   1.00030
 Alpha virt. eigenvalues --    1.04067   1.04665   1.07720   1.12348   1.13520
 Alpha virt. eigenvalues --    1.16248   1.18018   1.19075   1.20360   1.22791
 Alpha virt. eigenvalues --    1.24989   1.27364   1.28418   1.31455   1.32423
 Alpha virt. eigenvalues --    1.34700   1.35494   1.37741   1.40852   1.42871
 Alpha virt. eigenvalues --    1.45510   1.46649   1.50771   1.52031   1.52719
 Alpha virt. eigenvalues --    1.53327   1.54787   1.55863   1.58480   1.58999
 Alpha virt. eigenvalues --    1.61044   1.62502   1.65417   1.68818   1.70513
 Alpha virt. eigenvalues --    1.71932   1.73319   1.77095   1.78213   1.79682
 Alpha virt. eigenvalues --    1.81424   1.82555   1.83969   1.86654   1.89209
 Alpha virt. eigenvalues --    1.91656   1.92560   1.96994   1.98261   2.02048
 Alpha virt. eigenvalues --    2.05756   2.07650   2.08441   2.12571   2.15689
 Alpha virt. eigenvalues --    2.19472   2.21073   2.28157   2.28899   2.30177
 Alpha virt. eigenvalues --    2.32962   2.36645   2.38743   2.38840   2.43620
 Alpha virt. eigenvalues --    2.44085   2.48644   2.52219   2.56443   2.57619
 Alpha virt. eigenvalues --    2.63274   2.65224   2.69207   2.70684   2.73156
 Alpha virt. eigenvalues --    2.74068   2.77083   2.78725   2.79132   2.80695
 Alpha virt. eigenvalues --    2.81886   2.84191   2.85702   2.87004   2.87944
 Alpha virt. eigenvalues --    2.89701   2.90993   2.92052   2.93628   2.95077
 Alpha virt. eigenvalues --    2.97176   2.97975   2.99767   3.02069   3.04166
 Alpha virt. eigenvalues --    3.05835   3.08461   3.15054   3.17259   3.20354
 Alpha virt. eigenvalues --    3.22431   3.23761   3.24694   3.25947   3.29823
 Alpha virt. eigenvalues --    3.32522   3.33795   3.35466   3.36679   3.39424
 Alpha virt. eigenvalues --    3.40531   3.41215   3.44632   3.44893   3.48110
 Alpha virt. eigenvalues --    3.49975   3.51155   3.54398   3.58443   3.61461
 Alpha virt. eigenvalues --    3.63419   3.64426   3.66612   3.68137   3.70428
 Alpha virt. eigenvalues --    3.71821   3.72709   3.76491   3.80712   3.81910
 Alpha virt. eigenvalues --    3.83066   3.84529   3.91962   3.94048   3.95489
 Alpha virt. eigenvalues --    3.99652   4.03295   4.05933   4.10444   4.13834
 Alpha virt. eigenvalues --    4.15342   4.18118   4.19688   4.20413   4.22666
 Alpha virt. eigenvalues --    4.25223   4.28527   4.30253   4.32260   4.33730
 Alpha virt. eigenvalues --    4.35002   4.36634   4.37115   4.38415   4.40662
 Alpha virt. eigenvalues --    4.43304   4.44953   4.45627   4.46925   4.48691
 Alpha virt. eigenvalues --    4.49991   4.50301   4.51197   4.53152   4.54558
 Alpha virt. eigenvalues --    4.55030   4.56099   4.58207   4.58559   4.59848
 Alpha virt. eigenvalues --    4.60801   4.62204   4.63224   4.64786   4.66273
 Alpha virt. eigenvalues --    4.67329   4.69052   4.70320   4.73485   4.74625
 Alpha virt. eigenvalues --    4.76662   4.77671   4.78585   4.80685   4.84177
 Alpha virt. eigenvalues --    4.84882   4.86943   4.87629   4.89749   4.91543
 Alpha virt. eigenvalues --    4.93088   4.95597   4.97395   5.00740   5.01633
 Alpha virt. eigenvalues --    5.03132   5.06725   5.07855   5.08456   5.09553
 Alpha virt. eigenvalues --    5.16169   5.21534   5.24262   5.25821   5.27561
 Alpha virt. eigenvalues --    5.32693   5.36196   5.40654   5.43803   5.44703
 Alpha virt. eigenvalues --    5.46867   5.52736   5.55443   5.60244   5.65722
 Alpha virt. eigenvalues --    5.70308   5.80405   6.07134   6.11775   6.30297
 Alpha virt. eigenvalues --    6.73914   8.02417   9.14661  10.84755  11.19288
 Alpha virt. eigenvalues --   11.35403  11.40453  11.47914  11.52383  11.58392
 Alpha virt. eigenvalues --   12.03430  12.36434  12.86779  13.56650  16.77703
          Condensed to atoms (all electrons):
               1          2          3          4          5          6
     1  C    4.947980   0.382997  -0.073095  -0.002488   0.000045   0.000005
     2  N    0.382997   6.365182   0.387662  -0.040368   0.000764  -0.000005
     3  C   -0.073095   0.387662   4.861366   0.391475  -0.047808   0.001415
     4  C   -0.002488  -0.040368   0.391475   4.926847   0.358792  -0.021572
     5  C    0.000045   0.000764  -0.047808   0.358792   4.988679   0.284190
     6  N    0.000005  -0.000005   0.001415  -0.021572   0.284190   6.307583
     7  O   -0.000000   0.000000  -0.000035   0.004827  -0.091621   0.428413
     8  N   -0.046501   0.231713  -0.048771   0.001567  -0.000067   0.000000
     9  C    0.003546  -0.049424  -0.009103  -0.000114   0.000011  -0.000000
    10  N   -0.000160   0.002204   0.000101  -0.000010  -0.000000  -0.000000
    11  H    0.381564  -0.022862  -0.002770   0.000211   0.000088  -0.000001
    12  H    0.350982  -0.040953  -0.007818  -0.000326   0.000126   0.000001
    13  H    0.376134  -0.024282   0.004914   0.000042  -0.000013  -0.000000
    14  H    0.005492  -0.020257   0.353617  -0.022261  -0.005444  -0.000018
    15  H   -0.008850  -0.043930   0.337602  -0.042416   0.001531   0.000010
    16  H    0.000727  -0.001323  -0.031714   0.365785  -0.032625   0.001338
    17  H   -0.000160   0.004913  -0.024526   0.358488  -0.031196   0.001218
    18  H    0.000004   0.000097   0.000390  -0.029587   0.345954  -0.018087
    19  H    0.000006   0.000075   0.001943  -0.029989   0.345964  -0.018503
    20  H   -0.005687  -0.029310   0.004656  -0.000217   0.000000  -0.000000
    21  H   -0.000085  -0.001610  -0.003154  -0.000006  -0.000021  -0.000000
    22  H    0.000427   0.010897   0.000869   0.000021   0.000010   0.000000
    23  H    0.000016  -0.000165   0.000011  -0.000000   0.000000   0.000000
    24  H    0.000005  -0.000182   0.000019  -0.000000   0.000000  -0.000000
               7          8          9         10         11         12
     1  C   -0.000000  -0.046501   0.003546  -0.000160   0.381564   0.350982
     2  N    0.000000   0.231713  -0.049424   0.002204  -0.022862  -0.040953
     3  C   -0.000035  -0.048771  -0.009103   0.000101  -0.002770  -0.007818
     4  C    0.004827   0.001567  -0.000114  -0.000010   0.000211  -0.000326
     5  C   -0.091621  -0.000067   0.000011  -0.000000   0.000088   0.000126
     6  N    0.428413   0.000000  -0.000000  -0.000000  -0.000001   0.000001
     7  O    7.872041  -0.000000   0.000000  -0.000000  -0.000000   0.000000
     8  N   -0.000000   6.548207   0.366824  -0.048818   0.002607   0.007743
     9  C    0.000000   0.366824   4.804473   0.377844  -0.000264   0.000194
    10  N   -0.000000  -0.048818   0.377844   6.563013   0.000001   0.000012
    11  H   -0.000000   0.002607  -0.000264   0.000001   0.577461  -0.039744
    12  H    0.000000   0.007743   0.000194   0.000012  -0.039744   0.651897
    13  H   -0.000000  -0.001997   0.000172  -0.000007  -0.029141  -0.041744
    14  H    0.000003  -0.004074  -0.000031  -0.000266   0.000022  -0.000332
    15  H    0.000003   0.008908   0.001211  -0.000010  -0.000371   0.016411
    16  H    0.000202   0.000034   0.000001   0.000000   0.001982   0.000619
    17  H    0.000118   0.000018   0.000031   0.000000   0.000614   0.000307
    18  H    0.003009   0.000004  -0.000006   0.000000  -0.000001   0.000001
    19  H    0.003351   0.000005   0.000002   0.000000   0.000015   0.000020
    20  H    0.000000   0.324931  -0.050734   0.011987  -0.000132  -0.000759
    21  H    0.000000  -0.035005   0.380702  -0.037551   0.000002  -0.000051
    22  H    0.000000  -0.035286   0.345763  -0.026051   0.000012   0.000097
    23  H    0.000000   0.010482  -0.057964   0.335063   0.000000   0.000025
    24  H    0.000000   0.004814  -0.048515   0.337976  -0.000000   0.000001
              13         14         15         16         17         18
     1  C    0.376134   0.005492  -0.008850   0.000727  -0.000160   0.000004
     2  N   -0.024282  -0.020257  -0.043930  -0.001323   0.004913   0.000097
     3  C    0.004914   0.353617   0.337602  -0.031714  -0.024526   0.000390
     4  C    0.000042  -0.022261  -0.042416   0.365785   0.358488  -0.029587
     5  C   -0.000013  -0.005444   0.001531  -0.032625  -0.031196   0.345954
     6  N   -0.000000  -0.000018   0.000010   0.001338   0.001218  -0.018087
     7  O   -0.000000   0.000003   0.000003   0.000202   0.000118   0.003009
     8  N   -0.001997  -0.004074   0.008908   0.000034   0.000018   0.000004
     9  C    0.000172  -0.000031   0.001211   0.000001   0.000031  -0.000006
    10  N   -0.000007  -0.000266  -0.000010   0.000000   0.000000   0.000000
    11  H   -0.029141   0.000022  -0.000371   0.001982   0.000614  -0.000001
    12  H   -0.041744  -0.000332   0.016411   0.000619   0.000307   0.000001
    13  H    0.593935  -0.000199  -0.000361  -0.000166  -0.000077   0.000000
    14  H   -0.000199   0.637871  -0.054741   0.006201  -0.007193   0.005576
    15  H   -0.000361  -0.054741   0.695429  -0.005537   0.006900  -0.000524
    16  H   -0.000166   0.006201  -0.005537   0.618574  -0.039284   0.005866
    17  H   -0.000077  -0.007193   0.006900  -0.039284   0.607258  -0.004250
    18  H    0.000000   0.005576  -0.000524   0.005866  -0.004250   0.581186
    19  H   -0.000000  -0.000812   0.005409  -0.004192   0.005671  -0.024514
    20  H    0.005207   0.000139  -0.000202  -0.000002   0.000002   0.000000
    21  H    0.000007   0.005318  -0.000328  -0.000004   0.000019  -0.000016
    22  H   -0.000100  -0.000843   0.000585   0.000002   0.000066   0.000001
    23  H   -0.000003  -0.000069   0.000145   0.000000   0.000000   0.000000
    24  H    0.000000  -0.000027   0.000007   0.000000   0.000000   0.000000
              19         20         21         22         23         24
     1  C    0.000006  -0.005687  -0.000085   0.000427   0.000016   0.000005
     2  N    0.000075  -0.029310  -0.001610   0.010897  -0.000165  -0.000182
     3  C    0.001943   0.004656  -0.003154   0.000869   0.000011   0.000019
     4  C   -0.029989  -0.000217  -0.000006   0.000021  -0.000000  -0.000000
     5  C    0.345964   0.000000  -0.000021   0.000010   0.000000   0.000000
     6  N   -0.018503  -0.000000  -0.000000   0.000000   0.000000  -0.000000
     7  O    0.003351   0.000000   0.000000   0.000000   0.000000   0.000000
     8  N    0.000005   0.324931  -0.035005  -0.035286   0.010482   0.004814
     9  C    0.000002  -0.050734   0.380702   0.345763  -0.057964  -0.048515
    10  N    0.000000   0.011987  -0.037551  -0.026051   0.335063   0.337976
    11  H    0.000015  -0.000132   0.000002   0.000012   0.000000  -0.000000
    12  H    0.000020  -0.000759  -0.000051   0.000097   0.000025   0.000001
    13  H   -0.000000   0.005207   0.000007  -0.000100  -0.000003   0.000000
    14  H   -0.000812   0.000139   0.005318  -0.000843  -0.000069  -0.000027
    15  H    0.005409  -0.000202  -0.000328   0.000585   0.000145   0.000007
    16  H   -0.004192  -0.000002  -0.000004   0.000002   0.000000   0.000000
    17  H    0.005671   0.000002   0.000019   0.000066   0.000000   0.000000
    18  H   -0.024514   0.000000  -0.000016   0.000001   0.000000   0.000000
    19  H    0.579177   0.000000   0.000004   0.000000   0.000000   0.000000
    20  H    0.000000   0.509923   0.008243  -0.008978  -0.001525  -0.000534
    21  H    0.000004   0.008243   0.672372  -0.064073  -0.008312  -0.004945
    22  H    0.000000  -0.008978  -0.064073   0.674129   0.008695   0.000881
    23  H    0.000000  -0.001525  -0.008312   0.008695   0.513107  -0.028071
    24  H    0.000000  -0.000534  -0.004945   0.000881  -0.028071   0.512842
 Mulliken charges:
               1
     1  C   -0.312902
     2  N   -0.111832
     3  C   -0.097244
     4  C   -0.218703
     5  C   -0.117360
     6  N    0.034014
     7  O   -0.220313
     8  N   -0.287339
     9  C   -0.064620
    10  N   -0.515330
    11  H    0.130704
    12  H    0.103292
    13  H    0.117677
    14  H    0.102329
    15  H    0.083119
    16  H    0.113518
    17  H    0.121064
    18  H    0.134898
    19  H    0.136369
    20  H    0.232992
    21  H    0.088496
    22  H    0.092876
    23  H    0.228563
    24  H    0.225731
 Sum of Mulliken charges =  -0.00000
 Mulliken charges with hydrogens summed into heavy atoms:
               1
     1  C    0.038771
     2  N   -0.111832
     3  C    0.088203
     4  C    0.015880
     5  C    0.153907
     6  N    0.034014
     7  O   -0.220313
     8  N   -0.054346
     9  C    0.116752
    10  N   -0.061036
 Electronic spatial extent (au):  <R**2>=           2715.2985
 Charge=             -0.0000 electrons
 Dipole moment (field-independent basis, Debye):
    X=             -1.7788    Y=             -0.8466    Z=              0.6826  Tot=              2.0849
 Quadrupole moment (field-independent basis, Debye-Ang):
   XX=            -81.1371   YY=            -54.9356   ZZ=            -61.9117
   XY=              3.6586   XZ=              0.8015   YZ=              0.4733
 Traceless Quadrupole moment (field-independent basis, Debye-Ang):
   XX=            -15.1423   YY=             11.0592   ZZ=              4.0831
   XY=              3.6586   XZ=              0.8015   YZ=              0.4733
 Octapole moment (field-independent basis, Debye-Ang**2):
  XXX=            -54.0976  YYY=             -8.5898  ZZZ=              2.9760  XYY=            -17.8765
  XXY=             -3.5270  XXZ=              8.9783  XZZ=              3.5696  YZZ=             -5.4221
  YYZ=             -1.0449  XYZ=              7.4693
 Hexadecapole moment (field-independent basis, Debye-Ang**3):
 XXXX=          -3356.8785 YYYY=           -479.3068 ZZZZ=           -120.0747 XXXY=             68.2776
 XXXZ=             -9.0781 YYYX=             24.8897 YYYZ=             -2.3129 ZZZX=             -2.3762
 ZZZY=             -2.5600 XXYY=           -474.8198 XXZZ=           -456.0985 YYZZ=           -107.8333
 XXYZ=             -1.1565 YYXZ=             -2.7172 ZZXY=              4.9937
 N-N= 5.414542581521D+02 E-N=-2.231917339570D+03  KE= 4.894085866730D+02
 PrsmSu:  requested number of processors reduced to:  13 ShMem   1 Linda.
 Calling FoFJK, ICntrl=      2127 FMM=F ISym2X=0 I1Cent= 0 IOpClX= 0 NMat=1 NMatS=1 NMatT=0.
 ***** Axes restored to original set *****
 -------------------------------------------------------------------
 Center     Atomic                   Forces (Hartrees/Bohr)
 Number     Number              X              Y              Z
 -------------------------------------------------------------------
      1        6           0.004874829   -0.000709597   -0.001384310
      2        7          -0.005072136   -0.002458770   -0.007661892
      3        6           0.000536543   -0.007396569   -0.005475663
      4        6          -0.003519569   -0.004482317   -0.001065004
      5        6          -0.004105806   -0.006201484   -0.003967669
      6        7           0.013549584    0.038016779    0.015881836
      7        8          -0.012071277   -0.030542195   -0.015111026
      8        7          -0.002500876    0.012034258    0.008663366
      9        6           0.000486910    0.002743413    0.003624919
     10        7           0.006137247   -0.015696827    0.005785298
     11        1           0.005162713   -0.000276656    0.000897265
     12        1          -0.001809840   -0.001268546    0.003915771
     13        1           0.004527139   -0.002001515    0.001858582
     14        1          -0.001101832   -0.005114494    0.001463631
     15        1          -0.001888607    0.000723782    0.004647160
     16        1           0.000504184    0.001427849   -0.000977530
     17        1          -0.001131611    0.000260346    0.001690961
     18        1           0.001033960    0.002845315    0.001994148
     19        1           0.002636899    0.002963015    0.001117632
     20        1          -0.003113323    0.010061479   -0.004228941
     21        1          -0.005548142    0.011377181   -0.006450452
     22        1           0.004354747   -0.000257254   -0.003630662
     23        1          -0.000052446   -0.001849526   -0.001090200
     24        1          -0.001889290   -0.004197668   -0.000497220
 -------------------------------------------------------------------
 Cartesian Forces:  Max     0.038016779 RMS     0.008007156

 GradGradGradGradGradGradGradGradGradGradGradGradGradGradGradGradGradGrad
 Berny optimization.
 FormGI is forming the generalized inverse of G from B-inverse, IUseBI=4.
 Internal  Forces:  Max     0.036033012 RMS     0.005635686
 Search for a local minimum.
 Step number   1 out of a maximum of  122
 All quantities printed in internal units (Hartrees-Bohrs-Radians)
 Mixed Optimization -- RFO/linear search
 Second derivative matrix not updated -- first step.
 ITU=  0
     Eigenvalues ---    0.00246   0.00429   0.00515   0.00536   0.00643
     Eigenvalues ---    0.00689   0.00978   0.01131   0.03414   0.03526
     Eigenvalues ---    0.03861   0.04084   0.04980   0.05203   0.05232
     Eigenvalues ---    0.05596   0.05691   0.05978   0.06914   0.06940
     Eigenvalues ---    0.07225   0.07996   0.09155   0.09289   0.11168
     Eigenvalues ---    0.11191   0.11929   0.12681   0.12861   0.13600
     Eigenvalues ---    0.16000   0.16000   0.16000   0.16000   0.16000
     Eigenvalues ---    0.16189   0.17370   0.21875   0.21931   0.21961
     Eigenvalues ---    0.22028   0.23703   0.25000   0.29845   0.30617
     Eigenvalues ---    0.33561   0.33873   0.33906   0.34027   0.34175
     Eigenvalues ---    0.34194   0.34215   0.34231   0.34250   0.34300
     Eigenvalues ---    0.34314   0.34503   0.34655   0.34655   0.35055
     Eigenvalues ---    0.37727   0.39256   0.43452   0.44457   0.44505
     Eigenvalues ---    0.90719
 RFO step:  Lambda=-1.57371155D-02 EMin= 2.46443274D-03
 Linear search not attempted -- first point.
 Iteration  1 RMS(Cart)=  0.11472432 RMS(Int)=  0.00455662
 Iteration  2 RMS(Cart)=  0.01181072 RMS(Int)=  0.00032503
 Iteration  3 RMS(Cart)=  0.00007303 RMS(Int)=  0.00032356
 Iteration  4 RMS(Cart)=  0.00000002 RMS(Int)=  0.00032356
 Variable       Old X    -DE/DX   Delta X   Delta X   Delta X     New X
                                 (Linear)    (Quad)   (Total)
    R1        2.78886  -0.01240   0.00000  -0.03384  -0.03384   2.75502
    R2        2.06969  -0.00287   0.00000  -0.00803  -0.00803   2.06166
    R3        2.07285   0.00411   0.00000   0.01155   0.01155   2.08440
    R4        2.06942  -0.00026   0.00000  -0.00073  -0.00073   2.06869
    R5        2.79538  -0.00814   0.00000  -0.02247  -0.02247   2.77291
    R6        2.79538  -0.00996   0.00000  -0.02748  -0.02748   2.76790
    R7        2.88274   0.00451   0.00000   0.01434   0.01434   2.89708
    R8        2.07036  -0.00139   0.00000  -0.00388  -0.00388   2.06647
    R9        2.07489   0.00505   0.00000   0.01423   0.01423   2.08911
   R10        2.86750   0.00642   0.00000   0.01994   0.01994   2.88744
   R11        2.06826  -0.00041   0.00000  -0.00115  -0.00115   2.06711
   R12        2.07545  -0.00198   0.00000  -0.00558  -0.00558   2.06986
   R13        2.81377   0.00474   0.00000   0.01349   0.01349   2.82726
   R14        2.06910   0.00109   0.00000   0.00304   0.00304   2.07214
   R15        2.07004   0.00059   0.00000   0.00166   0.00166   2.07170
   R16        2.32603  -0.03603   0.00000  -0.03904  -0.03904   2.28699
   R17        2.74764   0.00395   0.00000   0.01004   0.01004   2.75768
   R18        1.93816  -0.00642   0.00000  -0.01425  -0.01425   1.92391
   R19        2.72577   0.02065   0.00000   0.05057   0.05057   2.77634
   R20        2.06489   0.00410   0.00000   0.01135   0.01135   2.07624
   R21        2.06803   0.00485   0.00000   0.01352   0.01352   2.08155
   R22        1.92612  -0.00130   0.00000  -0.00283  -0.00283   1.92329
   R23        1.92555  -0.00193   0.00000  -0.00419  -0.00419   1.92136
    A1        1.94268  -0.00484   0.00000  -0.02431  -0.02449   1.91819
    A2        1.95612   0.00270   0.00000   0.01579   0.01583   1.97195
    A3        1.94081  -0.00628   0.00000  -0.03938  -0.03962   1.90119
    A4        1.88724   0.00264   0.00000   0.02165   0.02172   1.90896
    A5        1.83510   0.00546   0.00000   0.03021   0.02972   1.86482
    A6        1.89697   0.00077   0.00000  -0.00144  -0.00144   1.89552
    A7        1.92227   0.00486   0.00000   0.01223   0.01139   1.93366
    A8        1.87663  -0.00673   0.00000  -0.05092  -0.05099   1.82564
    A9        1.90956  -0.00028   0.00000  -0.01491  -0.01515   1.89441
   A10        1.96572   0.00180   0.00000   0.00887   0.00890   1.97462
   A11        1.91362  -0.00450   0.00000  -0.03569  -0.03580   1.87782
   A12        1.93637   0.00043   0.00000   0.00232   0.00225   1.93862
   A13        1.83820   0.00382   0.00000   0.03115   0.03126   1.86946
   A14        1.93635  -0.00145   0.00000  -0.00334  -0.00336   1.93299
   A15        1.86841  -0.00014   0.00000  -0.00349  -0.00370   1.86471
   A16        1.92493   0.00271   0.00000   0.01355   0.01351   1.93844
   A17        1.93763   0.00049   0.00000   0.01119   0.01117   1.94879
   A18        1.91028  -0.00098   0.00000  -0.00564  -0.00558   1.90470
   A19        1.89324  -0.00134   0.00000  -0.00458  -0.00475   1.88849
   A20        1.92467  -0.00103   0.00000  -0.00863  -0.00863   1.91604
   A21        1.87243   0.00005   0.00000  -0.00653  -0.00655   1.86588
   A22        1.90224   0.00507   0.00000   0.02521   0.02501   1.92725
   A23        1.94660   0.00133   0.00000   0.01326   0.01331   1.95991
   A24        1.93456   0.00219   0.00000   0.02121   0.02116   1.95572
   A25        1.88453  -0.00327   0.00000  -0.01936  -0.01963   1.86490
   A26        1.88521  -0.00318   0.00000  -0.01552  -0.01600   1.86921
   A27        1.90899  -0.00241   0.00000  -0.02653  -0.02682   1.88217
   A28        1.95056   0.00678   0.00000   0.02550   0.02550   1.97607
   A29        1.93908   0.01063   0.00000   0.02918   0.02909   1.96817
   A30        1.91221  -0.01087   0.00000  -0.10417  -0.10419   1.80801
   A31        1.82611   0.00006   0.00000  -0.01562  -0.01597   1.81014
   A32        1.85167  -0.00184   0.00000  -0.00210  -0.00245   1.84921
   A33        1.95012  -0.00739   0.00000  -0.04794  -0.04925   1.90087
   A34        1.95408   0.00319   0.00000   0.00099   0.00026   1.95434
   A35        1.86914   0.01381   0.00000   0.11893   0.11956   1.98870
   A36        1.93012  -0.00482   0.00000  -0.03867  -0.03845   1.89167
   A37        1.90644  -0.00247   0.00000  -0.02553  -0.02586   1.88058
   A38        1.86399   0.00212   0.00000   0.01888   0.01840   1.88239
   A39        1.87842   0.00598   0.00000   0.04066   0.04019   1.91861
   A40        1.84146  -0.00084   0.00000   0.01168   0.01064   1.85210
    D1        1.12136   0.00168   0.00000   0.03686   0.03663   1.15799
    D2       -3.08242   0.00008   0.00000  -0.00454  -0.00476  -3.08719
    D3       -0.99471  -0.00017   0.00000   0.01519   0.01522  -0.97949
    D4        1.08470  -0.00177   0.00000  -0.02621  -0.02618   1.05852
    D5       -3.12197   0.00144   0.00000   0.03416   0.03436  -3.08762
    D6       -1.04257  -0.00016   0.00000  -0.00724  -0.00704  -1.04960
    D7       -1.11211  -0.00204   0.00000  -0.04178  -0.04198  -1.15409
    D8        3.13046  -0.00498   0.00000  -0.06281  -0.06276   3.06769
    D9        1.07035  -0.00226   0.00000  -0.03767  -0.03784   1.03251
   D10        3.11187   0.00345   0.00000   0.02203   0.02205   3.13392
   D11        1.07125   0.00052   0.00000   0.00100   0.00126   1.07251
   D12       -0.98885   0.00324   0.00000   0.02614   0.02618  -0.96267
   D13        3.03158  -0.00363   0.00000  -0.16425  -0.16450   2.86709
   D14        1.02249  -0.00335   0.00000  -0.10025  -0.10088   0.92161
   D15       -1.16407  -0.00189   0.00000  -0.18773  -0.18711  -1.35118
   D16        3.11002  -0.00162   0.00000  -0.12373  -0.12349   2.98653
   D17       -3.08610   0.00152   0.00000   0.03203   0.03204  -3.05407
   D18        1.09808   0.00109   0.00000   0.02153   0.02144   1.11952
   D19       -0.96565   0.00134   0.00000   0.02630   0.02627  -0.93938
   D20       -1.00115  -0.00054   0.00000   0.01328   0.01335  -0.98780
   D21       -3.10016  -0.00097   0.00000   0.00278   0.00275  -3.09740
   D22        1.11930  -0.00072   0.00000   0.00755   0.00758   1.12689
   D23        1.01461   0.00071   0.00000   0.02483   0.02489   1.03949
   D24       -1.08440   0.00028   0.00000   0.01433   0.01429  -1.07011
   D25        3.13506   0.00053   0.00000   0.01910   0.01912  -3.12901
   D26       -3.12709  -0.00069   0.00000  -0.01042  -0.01047  -3.13756
   D27        1.07706  -0.00073   0.00000  -0.01081  -0.01087   1.06619
   D28       -1.05453  -0.00011   0.00000  -0.00101  -0.00089  -1.05542
   D29       -1.00159   0.00074   0.00000   0.00888   0.00880  -0.99280
   D30       -3.08063   0.00070   0.00000   0.00850   0.00840  -3.07223
   D31        1.07097   0.00131   0.00000   0.01829   0.01838   1.08935
   D32        1.04421  -0.00057   0.00000  -0.00657  -0.00660   1.03761
   D33       -1.03483  -0.00060   0.00000  -0.00696  -0.00699  -1.04182
   D34        3.11677   0.00001   0.00000   0.00284   0.00299   3.11976
   D35        3.10374   0.00037   0.00000   0.00465   0.00464   3.10838
   D36       -1.06214   0.00301   0.00000   0.02393   0.02353  -1.03861
   D37        1.00056  -0.00334   0.00000  -0.02639  -0.02600   0.97456
   D38       -3.07585   0.01043   0.00000   0.15601   0.15569  -2.92017
   D39        1.17610  -0.00114   0.00000   0.03999   0.04079   1.21689
   D40       -0.96878   0.00520   0.00000   0.10797   0.10764  -0.86113
   D41       -1.01392   0.00294   0.00000   0.03834   0.03792  -0.97601
   D42       -3.04516  -0.00863   0.00000  -0.07768  -0.07698  -3.12214
   D43        1.09315  -0.00229   0.00000  -0.00970  -0.01012   1.08303
   D44       -1.04308   0.00178   0.00000  -0.00496  -0.00505  -1.04813
   D45       -3.01338  -0.00101   0.00000  -0.04604  -0.04672  -3.06010
   D46        1.04202  -0.00078   0.00000  -0.00166  -0.00063   1.04139
   D47       -0.92829  -0.00358   0.00000  -0.04275  -0.04230  -0.97059
   D48        3.11760   0.00181   0.00000   0.01719   0.01713   3.13473
   D49        1.14730  -0.00098   0.00000  -0.02390  -0.02454   1.12276
         Item               Value     Threshold  Converged?
 Maximum Force            0.036033     0.000450     NO 
 RMS     Force            0.005636     0.000300     NO 
 Maximum Displacement     0.597284     0.001800     NO 
 RMS     Displacement     0.117986     0.001200     NO 
 Predicted change in Energy=-9.492767D-03
 GradGradGradGradGradGradGradGradGradGradGradGradGradGradGradGradGradGrad

                          Input orientation:                          
 ---------------------------------------------------------------------
 Center     Atomic      Atomic             Coordinates (Angstroms)
 Number     Number       Type             X           Y           Z
 ---------------------------------------------------------------------
      1          6           0        1.007870   -0.078884    0.040725
      2          7           0        2.453138    0.112542    0.044191
      3          6           0        2.802917    1.428584    0.590845
      4          6           0        2.328584    2.591505   -0.288318
      5          6           0        2.822683    3.930133    0.258144
      6          7           0        2.347336    5.054578   -0.606756
      7          8           0        2.680249    6.144160   -0.198565
      8          7           0        2.960024   -0.918754    0.952414
      9          6           0        4.396865   -1.134463    0.816336
     10          7           0        4.689231   -2.377242    1.543317
     11          1           0        0.542673    0.617269   -0.658713
     12          1           0        0.554352    0.046867    1.038300
     13          1           0        0.784148   -1.087955   -0.319962
     14          1           0        3.893790    1.486649    0.640187
     15          1           0        2.429076    1.541581    1.625074
     16          1           0        1.237268    2.630338   -0.352128
     17          1           0        2.702314    2.446559   -1.307657
     18          1           0        3.917250    3.990187    0.284494
     19          1           0        2.451208    4.123531    1.271295
     20          1           0        2.551588   -1.778166    0.590339
     21          1           0        4.927486   -0.254718    1.205734
     22          1           0        4.695762   -1.268631   -0.235319
     23          1           0        4.416329   -2.242220    2.514465
     24          1           0        5.691899   -2.545569    1.552677
 ---------------------------------------------------------------------
                    Distance matrix (angstroms):
                    1          2          3          4          5
     1  C    0.000000
     2  N    1.457894   0.000000
     3  C    2.407755   1.467359   0.000000
     4  C    2.997255   2.504263   1.533070   0.000000
     5  C    4.406023   3.841399   2.523654   1.527966   0.000000
     6  N    5.344701   4.985844   3.845729   2.483643   1.496122
     7  O    6.448286   6.040772   4.782768   3.571145   2.265123
     8  N    2.312459   1.464710   2.380213   3.776248   4.900264
     9  C    3.633332   2.435016   3.026670   4.402373   5.332894
    10  N    4.592674   3.666949   4.353126   5.797930   6.702138
    11  H    1.090986   2.097308   2.707088   2.687802   4.124820
    12  H    1.103018   2.144284   2.676826   3.373870   4.564397
    13  H    1.094701   2.087901   3.352308   3.990578   5.447113
    14  H    3.337481   2.078186   1.093531   2.129013   2.695152
    15  H    2.675051   2.131179   1.105512   2.184836   2.780037
    16  H    2.747151   2.823952   2.187387   1.093869   2.139028
    17  H    3.326731   2.708730   2.156549   1.095325   2.160373
    18  H    5.008119   4.151807   2.810231   2.192780   1.096530
    19  H    4.610620   4.194499   2.801686   2.189642   1.096299
    20  H    2.360657   1.970468   3.216584   4.462711   5.724380
    21  H    4.092867   2.757982   2.779459   4.133699   4.779236
    22  H    3.884873   2.648608   3.397113   4.528464   5.547889
    23  H    4.734661   3.937167   4.447271   5.964828   6.762296
    24  H    5.505512   4.453163   5.006519   6.410201   7.200204
                    6          7          8          9         10
     6  N    0.000000
     7  O    1.210223   0.000000
     8  N    6.203797   7.161549   0.000000
     9  C    6.673079   7.546863   1.459301   0.000000
    10  N    8.083269   8.926615   2.338057   1.469177   0.000000
    11  H    4.790534   5.943693   3.286135   4.483205   5.568660
    12  H    5.567600   6.574667   2.593657   4.026129   4.819603
    13  H    6.344802   7.477528   2.526264   3.787487   4.514837
    14  H    4.083687   4.885550   2.599109   2.674760   4.046977
    15  H    4.162799   4.957063   2.605308   3.418694   4.524618
    16  H    2.678437   3.801673   4.155210   5.051938   6.370606
    17  H    2.723790   3.860417   4.061979   4.495172   5.945163
    18  H    2.095682   2.530438   5.045801   5.174450   6.536417
    19  H    2.098741   2.509161   5.077914   5.624861   6.880610
    20  H    6.939823   7.962548   1.018089   1.967352   2.415901
    21  H    6.175023   6.925877   2.091895   1.098701   2.162369
    22  H    6.755445   7.681999   2.132113   1.101507   2.095855
    23  H    8.201586   8.983645   2.512447   2.027597   1.017760
    24  H    8.579714   9.362066   3.235735   2.051958   1.016742
                   11         12         13         14         15
    11  H    0.000000
    12  H    1.790349   0.000000
    13  H    1.755235   1.784798   0.000000
    14  H    3.697694   3.658320   4.149740   0.000000
    15  H    3.102991   2.468413   3.661068   1.765902   0.000000
    16  H    2.151489   3.012306   3.745938   3.057747   2.552474
    17  H    2.903702   3.984442   4.140978   2.476921   3.081325
    18  H    4.863536   5.237087   5.997435   2.528789   3.163462
    19  H    4.434107   4.502392   5.698313   3.071235   2.606168
    20  H    3.366597   2.742328   2.104492   3.530298   3.479426
    21  H    4.843874   4.386717   4.493250   2.102553   3.105574
    22  H    4.580832   4.528125   3.916699   3.000206   4.061554
    23  H    5.766364   4.725870   4.749637   4.205999   4.365472
    24  H    6.434929   5.777516   5.451370   4.508283   5.230302
                   16         17         18         19         20
    16  H    0.000000
    17  H    1.758741   0.000000
    18  H    3.071934   2.528597   0.000000
    19  H    2.517693   3.086467   1.772240   0.000000
    20  H    4.695805   4.633941   5.935694   5.941700   0.000000
    21  H    4.936414   4.308762   4.459650   5.030438   2.888684
    22  H    5.213135   4.350446   5.341484   6.031858   2.353469
    23  H    6.485800   6.287378   6.638129   6.777164   2.719350
    24  H    7.089572   6.483863   6.890122   7.420117   3.372915
                   21         22         23         24
    21  H    0.000000
    22  H    1.777175   0.000000
    23  H    2.433973   2.930404   0.000000
    24  H    2.439815   2.412424   1.626079   0.000000
 Stoichiometry    C5H14N4O
 Framework group  C1[X(C5H14N4O)]
 Deg. of freedom    66
 Full point group                 C1      NOp   1
 Largest Abelian subgroup         C1      NOp   1
 Largest concise Abelian subgroup C1      NOp   1
                         Standard orientation:                         
 ---------------------------------------------------------------------
 Center     Atomic      Atomic             Coordinates (Angstroms)
 Number     Number       Type             X           Y           Z
 ---------------------------------------------------------------------
      1          6           0       -1.012440    2.157299    0.105946
      2          7           0       -1.090752    0.764392   -0.317294
      3          6           0        0.015257   -0.015338    0.250076
      4          6           0        1.387516    0.405662   -0.288409
      5          6           0        2.489156   -0.513803    0.236615
      6          7           0        3.821797   -0.087019   -0.292822
      7          8           0        4.737852   -0.760626    0.121591
      8          7           0       -2.347202    0.274803    0.254555
      9          6           0       -2.791282   -0.978191   -0.347406
     10          7           0       -4.179385   -1.168808    0.094539
     11          1           0       -0.125937    2.626594   -0.323151
     12          1           0       -0.993622    2.273810    1.202632
     13          1           0       -1.879388    2.697399   -0.287837
     14          1           0       -0.135977   -1.059915   -0.035927
     15          1           0        0.000487    0.019567    1.354938
     16          1           0        1.635089    1.432499   -0.004041
     17          1           0        1.368691    0.374029   -1.383115
     18          1           0        2.343437   -1.555880   -0.071961
     19          1           0        2.555509   -0.493642    1.330719
     20          1           0       -3.035810    0.953327   -0.064710
     21          1           0       -2.110299   -1.782950   -0.037940
     22          1           0       -2.780111   -0.933492   -1.447948
     23          1           0       -4.179522   -1.215536    1.111226
     24          1           0       -4.525812   -2.068151   -0.229396
 ---------------------------------------------------------------------
 Rotational constants (GHZ):           3.0637238           0.4197658           0.3794404
 Standard basis: 6-31G(2df,p) (6D, 7F)
 There are   380 symmetry adapted cartesian basis functions of A   symmetry.
 There are   350 symmetry adapted basis functions of A   symmetry.
   350 basis functions,   538 primitive gaussians,   380 cartesian basis functions
    40 alpha electrons       40 beta electrons
       nuclear repulsion energy       539.7544638246 Hartrees.
 NAtoms=   24 NActive=   24 NUniq=   24 SFac= 1.00D+00 NAtFMM=   60 NAOKFM=F Big=F
 Integral buffers will be    131072 words long.
 Raffenetti 2 integral format.
 Two-electron integral symmetry is turned on.
 One-electron integrals computed using PRISM.
 PrsmSu:  requested number of processors reduced to:  13 ShMem   1 Linda.
 NBasis=   350 RedAO= T EigKep=  2.84D-04  NBF=   350
 NBsUse=   350 1.00D-06 EigRej= -1.00D+00 NBFU=   350
 Initial guess from the checkpoint file:  "CNpCCCNdOpNCN.chk"
 B after Tr=    -0.000000   -0.000000   -0.000000
         Rot=    0.999992    0.003908   -0.000218    0.001132 Ang=   0.47 deg.
 ExpMin= 1.61D-01 ExpMax= 5.48D+03 ExpMxC= 8.25D+02 IAcc=2 IRadAn=         4 AccDes= 0.00D+00
 Harris functional with IExCor=  402 and IRadAn=       4 diagonalized for initial guess.
 HarFok:  IExCor=  402 AccDes= 0.00D+00 IRadAn=         4 IDoV= 1 UseB2=F ITyADJ=14
 ICtDFT=  3500011 ScaDFX=  1.000000  1.000000  1.000000  1.000000
 FoFCou: FMM=F IPFlag=           0 FMFlag=      100000 FMFlg1=           0
         NFxFlg=           0 DoJE=T BraDBF=F KetDBF=T FulRan=T
         wScrn=  0.000000 ICntrl=       500 IOpCl=  0 I1Cent=   200000004 NGrid=           0
         NMat0=    1 NMatS0=      1 NMatT0=    0 NMatD0=    1 NMtDS0=    0 NMtDT0=    0
 Petite list used in FoFCou.
 Requested convergence on RMS density matrix=1.00D-08 within 128 cycles.
 Requested convergence on MAX density matrix=1.00D-06.
 Requested convergence on             energy=1.00D-06.
 No special actions if energy rises.
 Integral accuracy reduced to 1.0D-05 until final iterations.
 Initial convergence to 1.0D-05 achieved.  Increase integral accuracy.
 SCF Done:  E(RB3LYP) =  -493.075741635     A.U. after   13 cycles
            NFock= 13  Conv=0.72D-08     -V/T= 2.0074
 PrsmSu:  requested number of processors reduced to:  13 ShMem   1 Linda.
 Calling FoFJK, ICntrl=      2127 FMM=F ISym2X=0 I1Cent= 0 IOpClX= 0 NMat=1 NMatS=1 NMatT=0.
 ***** Axes restored to original set *****
 -------------------------------------------------------------------
 Center     Atomic                   Forces (Hartrees/Bohr)
 Number     Number              X              Y              Z
 -------------------------------------------------------------------
      1        6          -0.001954569    0.000679127   -0.004263673
      2        7          -0.000815383    0.001821347   -0.001093513
      3        6           0.000025991    0.000795979   -0.000346694
      4        6           0.001314557    0.000509000    0.001141582
      5        6          -0.000288599   -0.004228697    0.000103660
      6        7           0.001086951    0.011878271    0.000285667
      7        8          -0.002469843   -0.010707130   -0.002718304
      8        7           0.000830797   -0.001229863    0.003513565
      9        6           0.003085595   -0.004356340   -0.001672100
     10        7          -0.000993069    0.004683550    0.000041010
     11        1          -0.000201195    0.000377417    0.000254395
     12        1           0.000237697   -0.000429638    0.000392438
     13        1          -0.000619693   -0.000317923    0.000328368
     14        1           0.001046805   -0.000612823    0.001322809
     15        1          -0.000761113   -0.000103523    0.000105204
     16        1          -0.000330385   -0.000218383    0.000270507
     17        1          -0.000272174    0.000189303   -0.000271838
     18        1           0.000513846    0.000459755    0.000848983
     19        1           0.000938341    0.000569851    0.000808554
     20        1          -0.001118534   -0.001039247    0.002259147
     21        1           0.000529181    0.000802825    0.000856163
     22        1           0.001410753    0.000538603   -0.000039724
     23        1          -0.000051925   -0.000180380   -0.000287771
     24        1          -0.001144030    0.000118920   -0.001838434
 -------------------------------------------------------------------
 Cartesian Forces:  Max     0.011878271 RMS     0.002396860

 GradGradGradGradGradGradGradGradGradGradGradGradGradGradGradGradGradGrad
 Berny optimization.
 Using GEDIIS/GDIIS optimizer.
 FormGI is forming the generalized inverse of G from B-inverse, IUseBI=4.
 Internal  Forces:  Max     0.011236037 RMS     0.001752591
 Search for a local minimum.
 Step number   2 out of a maximum of  122
 All quantities printed in internal units (Hartrees-Bohrs-Radians)
 Mixed Optimization -- RFO/linear search
 Update second derivatives using D2CorX and points    1    2
 DE= -7.88D-03 DEPred=-9.49D-03 R= 8.30D-01
 TightC=F SS=  1.41D+00  RLast= 4.57D-01 DXNew= 5.0454D-01 1.3713D+00
 Trust test= 8.30D-01 RLast= 4.57D-01 DXMaxT set to 5.05D-01
 ITU=  1  0
 Use linear search instead of GDIIS.
     Eigenvalues ---    0.00266   0.00429   0.00515   0.00536   0.00641
     Eigenvalues ---    0.00690   0.00988   0.01128   0.03755   0.03776
     Eigenvalues ---    0.04011   0.04109   0.04853   0.04950   0.04970
     Eigenvalues ---    0.05509   0.05527   0.06009   0.06897   0.06977
     Eigenvalues ---    0.07532   0.08135   0.09168   0.09387   0.11157
     Eigenvalues ---    0.11337   0.12036   0.12390   0.12909   0.13738
     Eigenvalues ---    0.15662   0.15994   0.16000   0.16000   0.16000
     Eigenvalues ---    0.16356   0.17523   0.21784   0.21876   0.21967
     Eigenvalues ---    0.22034   0.24726   0.25954   0.29927   0.30804
     Eigenvalues ---    0.33195   0.33868   0.33877   0.34006   0.34167
     Eigenvalues ---    0.34188   0.34215   0.34231   0.34238   0.34284
     Eigenvalues ---    0.34303   0.34437   0.34602   0.34821   0.35576
     Eigenvalues ---    0.37596   0.41039   0.43478   0.44450   0.44506
     Eigenvalues ---    0.84871
 RFO step:  Lambda=-2.51899385D-03 EMin= 2.66014836D-03
 Quartic linear search produced a step of -0.00535.
 Iteration  1 RMS(Cart)=  0.10340047 RMS(Int)=  0.00906902
 Iteration  2 RMS(Cart)=  0.02070691 RMS(Int)=  0.00021856
 Iteration  3 RMS(Cart)=  0.00032657 RMS(Int)=  0.00004876
 Iteration  4 RMS(Cart)=  0.00000008 RMS(Int)=  0.00004876
 Variable       Old X    -DE/DX   Delta X   Delta X   Delta X     New X
                                 (Linear)    (Quad)   (Total)
    R1        2.75502   0.00248   0.00018   0.00624   0.00642   2.76144
    R2        2.06166   0.00016   0.00004   0.00032   0.00036   2.06203
    R3        2.08440   0.00021  -0.00006   0.00079   0.00073   2.08513
    R4        2.06869   0.00031   0.00000   0.00086   0.00087   2.06955
    R5        2.77291  -0.00055   0.00012  -0.00192  -0.00180   2.77111
    R6        2.76790   0.00310   0.00015   0.00816   0.00830   2.77620
    R7        2.89708  -0.00160  -0.00008  -0.00490  -0.00497   2.89211
    R8        2.06647   0.00107   0.00002   0.00296   0.00298   2.06945
    R9        2.08911   0.00035  -0.00008   0.00123   0.00116   2.09027
   R10        2.88744  -0.00209  -0.00011  -0.00622  -0.00632   2.88111
   R11        2.06711   0.00031   0.00001   0.00084   0.00085   2.06796
   R12        2.06986   0.00014   0.00003   0.00029   0.00032   2.07018
   R13        2.82726   0.00273  -0.00007   0.00807   0.00800   2.83526
   R14        2.07214   0.00056  -0.00002   0.00163   0.00161   2.07375
   R15        2.07170   0.00053  -0.00001   0.00152   0.00151   2.07322
   R16        2.28699  -0.01124   0.00021  -0.01266  -0.01245   2.27454
   R17        2.75768   0.00283  -0.00005   0.00741   0.00736   2.76504
   R18        1.92391   0.00052   0.00008   0.00091   0.00099   1.92490
   R19        2.77634  -0.00538  -0.00027  -0.01234  -0.01261   2.76373
   R20        2.07624   0.00120  -0.00006   0.00356   0.00350   2.07974
   R21        2.08155   0.00036  -0.00007   0.00124   0.00116   2.08271
   R22        1.92329  -0.00028   0.00002  -0.00067  -0.00065   1.92264
   R23        1.92136  -0.00116   0.00002  -0.00260  -0.00258   1.91878
    A1        1.91819   0.00026   0.00013   0.00207   0.00219   1.92038
    A2        1.97195  -0.00078  -0.00008  -0.00581  -0.00590   1.96605
    A3        1.90119   0.00094   0.00021   0.00527   0.00548   1.90667
    A4        1.90896   0.00010  -0.00012   0.00023   0.00011   1.90907
    A5        1.86482  -0.00001  -0.00016   0.00356   0.00338   1.86820
    A6        1.89552  -0.00048   0.00001  -0.00485  -0.00484   1.89068
    A7        1.93366   0.00046  -0.00006   0.00903   0.00908   1.94274
    A8        1.82564   0.00442   0.00027   0.03132   0.03167   1.85731
    A9        1.89441  -0.00402   0.00008  -0.01858  -0.01876   1.87565
   A10        1.97462  -0.00086  -0.00005  -0.00359  -0.00363   1.97099
   A11        1.87782  -0.00019   0.00019  -0.00223  -0.00203   1.87579
   A12        1.93862   0.00021  -0.00001  -0.00157  -0.00159   1.93703
   A13        1.86946   0.00099  -0.00017   0.00949   0.00932   1.87878
   A14        1.93299   0.00021   0.00002   0.00017   0.00018   1.93317
   A15        1.86471  -0.00032   0.00002  -0.00182  -0.00181   1.86290
   A16        1.93844   0.00022  -0.00007   0.00148   0.00141   1.93984
   A17        1.94879  -0.00046  -0.00006  -0.00314  -0.00321   1.94559
   A18        1.90470   0.00031   0.00003   0.00260   0.00263   1.90733
   A19        1.88849   0.00032   0.00003   0.00284   0.00287   1.89136
   A20        1.91604  -0.00042   0.00005  -0.00312  -0.00308   1.91296
   A21        1.86588   0.00001   0.00004  -0.00081  -0.00077   1.86510
   A22        1.92725  -0.00078  -0.00013  -0.00165  -0.00178   1.92546
   A23        1.95991   0.00059  -0.00007   0.00349   0.00342   1.96333
   A24        1.95572   0.00094  -0.00011   0.00735   0.00724   1.96296
   A25        1.86490   0.00011   0.00011  -0.00071  -0.00060   1.86429
   A26        1.86921   0.00008   0.00009   0.00100   0.00108   1.87029
   A27        1.88217  -0.00099   0.00014  -0.01008  -0.00994   1.87224
   A28        1.97607  -0.00314  -0.00014  -0.01161  -0.01175   1.96432
   A29        1.96817  -0.00660  -0.00016  -0.02440  -0.02451   1.94366
   A30        1.80801   0.00229   0.00056   0.01423   0.01487   1.82288
   A31        1.81014   0.00120   0.00009   0.00696   0.00717   1.81731
   A32        1.84921  -0.00148   0.00001  -0.00633  -0.00631   1.84290
   A33        1.90087   0.00049   0.00026   0.00089   0.00116   1.90203
   A34        1.95434   0.00111  -0.00000   0.00901   0.00901   1.96335
   A35        1.98870   0.00023  -0.00064   0.00084   0.00020   1.98890
   A36        1.89167   0.00018   0.00021  -0.00053  -0.00031   1.89135
   A37        1.88058  -0.00047   0.00014  -0.00342  -0.00329   1.87730
   A38        1.88239   0.00057  -0.00010   0.00598   0.00589   1.88828
   A39        1.91861  -0.00135  -0.00022  -0.00514  -0.00536   1.91326
   A40        1.85210   0.00084  -0.00006   0.00998   0.00993   1.86203
    D1        1.15799   0.00053  -0.00020  -0.02245  -0.02278   1.13521
    D2       -3.08719  -0.00151   0.00003  -0.02247  -0.02233  -3.10951
    D3       -0.97949   0.00075  -0.00008  -0.02020  -0.02041  -0.99990
    D4        1.05852  -0.00129   0.00014  -0.02022  -0.01995   1.03857
    D5       -3.08762   0.00121  -0.00018  -0.01395  -0.01425  -3.10186
    D6       -1.04960  -0.00082   0.00004  -0.01396  -0.01379  -1.06339
    D7       -1.15409   0.00142   0.00022  -0.03241  -0.03224  -1.18633
    D8        3.06769   0.00083   0.00034  -0.04058  -0.04029   3.02740
    D9        1.03251   0.00121   0.00020  -0.03621  -0.03606   0.99645
   D10        3.13392  -0.00183  -0.00012  -0.06424  -0.06431   3.06961
   D11        1.07251  -0.00243  -0.00001  -0.07241  -0.07236   1.00015
   D12       -0.96267  -0.00205  -0.00014  -0.06804  -0.06813  -1.03080
   D13        2.86709  -0.00167   0.00088  -0.24094  -0.24002   2.62707
   D14        0.92161  -0.00151   0.00054  -0.24646  -0.24578   0.67583
   D15       -1.35118  -0.00075   0.00100  -0.22303  -0.22217  -1.57335
   D16        2.98653  -0.00060   0.00066  -0.22854  -0.22793   2.75860
   D17       -3.05407   0.00033  -0.00017   0.03365   0.03348  -3.02058
   D18        1.11952   0.00008  -0.00011   0.03116   0.03105   1.15057
   D19       -0.93938   0.00016  -0.00014   0.03242   0.03228  -0.90710
   D20       -0.98780   0.00025  -0.00007   0.03501   0.03493  -0.95287
   D21       -3.09740  -0.00001  -0.00001   0.03252   0.03250  -3.06490
   D22        1.12689   0.00007  -0.00004   0.03377   0.03373   1.16062
   D23        1.03949   0.00055  -0.00013   0.03837   0.03824   1.07773
   D24       -1.07011   0.00029  -0.00008   0.03588   0.03581  -1.03430
   D25       -3.12901   0.00037  -0.00010   0.03713   0.03704  -3.09197
   D26       -3.13756   0.00010   0.00006   0.00175   0.00180  -3.13576
   D27        1.06619   0.00012   0.00006   0.00148   0.00154   1.06772
   D28       -1.05542   0.00029   0.00000   0.00670   0.00671  -1.04871
   D29       -0.99280  -0.00011  -0.00005   0.00067   0.00063  -0.99217
   D30       -3.07223  -0.00009  -0.00004   0.00041   0.00036  -3.07187
   D31        1.08935   0.00008  -0.00010   0.00563   0.00553   1.09488
   D32        1.03761  -0.00015   0.00004  -0.00040  -0.00036   1.03725
   D33       -1.04182  -0.00013   0.00004  -0.00067  -0.00063  -1.04245
   D34        3.11976   0.00004  -0.00002   0.00456   0.00454   3.12430
   D35        3.10838   0.00013  -0.00002   0.00039   0.00037   3.10875
[...]
 .09763035,-0.00228153,-0.00182803,-0.00032302,-0.00043856,0.00140386,-
 0.00073676,0.00110512,-0.00127157,0.00030877,0.00012429,0.00050646,0.0
 0023783,-0.00000848,-0.00011526,-0.00006545,0.00002165,0.00005207,0.00
 000074,0.00054173,-0.00082645,0.00063879,0.00010692,-0.00006296,0.0001
 5696,0.00023052,-0.00014373,0.00032599,0.00168710,0.00020955,-0.000282
 35,0.00093173,0.00051442,-0.00020408,0.27562319,0.00036222,-0.00125323
 ,0.00098964,-0.00026856,0.00113484,-0.00040515,0.02279384,0.00253894,0
 .01080159,-0.01693874,-0.04693758,-0.00835299,-0.02831873,-0.00788132,
 -0.01281680,-0.00297059,0.00295079,-0.00208050,0.00176859,-0.00025993,
 -0.00004675,-0.00031217,-0.00040717,-0.00036900,-0.00004458,-0.0000103
 1,-0.00008467,-0.00002337,0.00000129,0.00000853,-0.00069603,-0.0017974
 6,-0.00053823,-0.00012855,0.00001184,-0.00003153,-0.00015774,0.0001811
 7,-0.00023972,0.00011562,-0.00316218,0.00325130,-0.00057913,0.00074759
 ,-0.00099502,0.02201962,0.05821833,-0.00054896,-0.00022989,-0.00035769
 ,0.00025239,-0.00056826,0.00033062,-0.02252828,-0.00242365,-0.01134583
 ,-0.09681382,-0.00797540,-0.09700670,-0.01224789,-0.00308510,-0.005832
 92,-0.00047898,0.00116168,-0.00076060,0.00088862,-0.00059035,0.0002085
 9,0.00017807,0.00057302,0.00025352,0.00014405,-0.00006249,-0.00003551,
 0.00000200,0.00002411,0.00001119,0.00006816,-0.00040235,0.00074081,0.0
 0013605,0.00006850,-0.00012995,0.00027512,-0.00012161,0.00019493,-0.00
 006883,0.00349809,-0.00245665,0.00022902,-0.00079196,0.00081138,0.1107
 3651,0.01042157,0.10477286,-0.00017219,-0.00022697,-0.00007779,0.00023
 024,-0.00000873,-0.00040644,0.00283225,-0.00036113,-0.00308740,-0.1807
 6425,0.01962941,0.12735849,0.00243758,0.00146282,-0.00331457,-0.000216
 84,-0.00162109,0.00036473,-0.00006051,0.00052943,0.00009183,0.00017300
 ,-0.00022054,-0.00020530,-0.00005579,-0.00000929,0.00006843,0.00001085
 ,-0.00001018,-0.00001996,-0.00014874,0.00008185,0.00021618,0.00000572,
 0.00006844,-0.00007584,0.00003754,-0.00008918,0.00006206,0.00084513,-0
 .00049030,0.00003438,0.00135567,0.00089577,-0.00071922,-0.02004467,0.0
 0331661,0.02031455,0.19149924,-0.00044231,-0.00019582,-0.00016206,-0.0
 0010325,0.00213955,-0.00043823,-0.01752015,0.00101373,0.01860950,0.019
 03597,-0.04843514,-0.02107751,0.02292805,-0.00593294,-0.02245854,0.001
 54368,0.00224637,-0.00074141,-0.00100531,-0.00034390,0.00067401,0.0002
 1835,0.00002223,-0.00007795,0.00001807,-0.00004854,0.00000374,-0.00000
 702,0.00007512,-0.00006056,-0.00001001,0.00002793,0.00004554,0.0002451
 3,0.00011061,-0.00010858,0.00000896,-0.00002535,-0.00003358,0.00026391
 ,0.00075082,-0.00088037,0.00082239,-0.00336717,0.00328859,-0.00211187,
 0.00020599,0.00236350,-0.02233095,0.05559353,0.00004911,0.00012633,-0.
 00003620,-0.00040561,-0.00144205,0.00209411,0.01777304,-0.00158912,-0.
 01939504,0.12655672,-0.02045318,-0.17371144,0.00887368,-0.00331950,-0.
 00991454,-0.00056888,0.00142951,0.00037381,0.00026186,-0.00032317,-0.0
 0010096,-0.00044983,-0.00009055,0.00039383,0.00010687,0.00008472,-0.00
 007846,-0.00002754,-0.00004091,0.00006111,0.00002514,0.00008426,0.0000
 3028,-0.00018582,-0.00011522,-0.00001958,0.00003317,0.00000527,0.00004
 867,-0.00015798,-0.00070048,0.00065374,-0.00093148,0.00349909,-0.00270
 671,-0.01033662,0.00206451,0.01046049,-0.14023090,0.02253454,0.1918543
 7,-0.00005683,0.00017209,-0.00003793,0.00039684,-0.00014028,0.00018484
 ,0.00011391,0.00079599,-0.00006395,-0.00272647,-0.00050824,-0.00132752
 ,-0.25668016,-0.02681018,-0.09317891,-0.00302671,0.00473981,-0.0003320
 8,0.00157416,-0.00063822,-0.00292525,0.00000313,-0.00007873,0.00002007
 ,-0.00005261,0.00003064,0.00001095,0.00001557,-0.00003300,0.00001906,0
 .00002587,-0.00000347,0.00005400,0.00000757,-0.00001213,0.00000727,0.0
 0004388,0.00000432,0.00001156,0.00026541,-0.00051896,0.00033839,0.0000
 0547,-0.00001717,-0.00005892,0.00146352,-0.00050420,-0.00040766,0.0008
 4637,-0.00031273,0.00004781,0.27446345,-0.00033098,0.00003355,-0.00034
 137,0.00014513,0.00045503,-0.00024955,-0.00148152,0.00198387,-0.000309
 51,-0.02904910,-0.00629588,-0.01656206,-0.02431103,-0.03805523,-0.0081
 5282,0.02148405,-0.00214704,0.00747864,-0.00026492,-0.00550569,0.00448
 882,0.00011650,0.00020748,0.00009750,0.00005842,-0.00007354,-0.0000553
 7,-0.00000580,0.00005391,-0.00000983,0.00016303,-0.00003787,0.00023377
 ,0.00006798,-0.00001292,0.00002864,0.00009492,-0.00004854,0.00011683,0
 .00076362,-0.00033890,0.00062722,0.00014449,-0.00004804,0.00011621,0.0
 0020390,-0.00583918,-0.00247167,0.00043517,0.00139881,0.00044913,0.026
 83542,0.05342839,-0.00006020,0.00010024,-0.00014244,0.00026493,0.00009
 401,0.00000087,0.00052122,0.00082589,0.00019621,-0.01171779,-0.0046227
 4,-0.00559386,-0.09259123,-0.01102679,-0.09742711,-0.02109193,-0.00175
 626,-0.00534834,-0.00122917,0.00452959,-0.00401139,0.00002419,-0.00004
 207,0.00000207,-0.00004111,-0.00001395,0.00002716,0.00001290,0.0000044
 6,-0.00001423,0.00003558,-0.00000802,0.00006571,0.00002424,-0.00000927
 ,0.00002093,0.00002906,-0.00000347,0.00002965,0.00008441,-0.00021400,0
 .00053381,0.00006161,0.00000644,0.00003168,-0.00026522,-0.00206994,-0.
 00018498,-0.00019434,0.00038694,0.00024450,0.10813115,0.01199407,0.101
 11082,0.00003156,0.00002740,0.00009480,0.00013567,-0.00014456,-0.00033
 968,-0.00017373,0.00011185,0.00034368,0.00354620,-0.00183459,-0.003510
 01,-0.19425789,0.03699769,0.12144299,-0.00019533,0.00148147,0.00422184
 ,0.00283581,-0.00173413,-0.00425133,-0.00004288,0.00007303,-0.00002118
 ,-0.00001118,-0.00000057,0.00001700,0.00000679,0.00000646,-0.00001743,
 -0.00001850,0.00000103,-0.00002869,-0.00000702,0.00000540,-0.00000972,
 -0.00000290,0.00000757,-0.00001093,-0.00000107,-0.00003781,0.00012517,
 0.00024203,0.00031014,-0.00025528,0.00086497,0.00058765,-0.00009481,0.
 00124422,-0.00131032,-0.00039515,-0.01668625,0.00495351,0.01798867,0.2
 0247905,0.00012267,0.00006596,-0.00008456,-0.00040802,-0.00011451,0.00
 056897,0.00087679,0.00134271,-0.00153472,0.02258661,-0.00480416,-0.019
 40067,0.04007208,-0.05836212,-0.03642056,-0.01633762,-0.00090533,0.026
 07885,-0.00221845,0.00313822,-0.00566722,-0.00008199,-0.00004736,0.000
 07660,-0.00000932,0.00005557,-0.00004021,-0.00000416,-0.00003152,0.000
 03700,0.00007253,0.00002154,-0.00001062,-0.00005384,-0.00003826,0.0000
 5918,-0.00001387,-0.00000910,0.00002011,-0.00005657,-0.00007583,0.0000
 9877,-0.00051635,-0.00036740,0.00076796,-0.00045375,0.00157301,0.00054
 114,-0.00108667,-0.00545994,-0.00185760,-0.00296384,0.00077966,0.00182
 661,-0.03952211,0.06330515,0.00003336,0.00003111,-0.00004522,-0.000123
 09,0.00006786,0.00019807,-0.00015007,0.00029266,-0.00011566,0.00790813
 ,-0.00274512,-0.00716582,0.11674813,-0.03258424,-0.15401423,0.02516140
 ,0.00489402,-0.02675836,-0.00365198,-0.00587006,0.00695370,-0.00004629
 ,-0.00003345,0.00007025,0.00001454,-0.00000004,-0.00002850,-0.00000610
 ,0.00000374,0.00000897,0.00002985,0.00000707,-0.00002472,-0.00001082,-
 0.00002331,0.00002325,-0.00000941,0.00000815,0.00001066,-0.00000800,-0
 .00004575,0.00006363,-0.00003487,-0.00020185,0.00053502,0.00010347,0.0
 0049289,0.00026857,-0.00015522,-0.00169977,-0.00032600,-0.01048455,0.0
 0251368,0.01047553,-0.13532348,0.03491484,0.16986357,0.00720594,0.0016
 4883,-0.00443243,0.00952726,0.01179220,-0.02027016,0.00023649,-0.00174
 754,-0.00068058,0.00022955,0.00019686,0.00013995,-0.00005242,0.0001277
 0,-0.00002117,0.00002134,-0.00003548,0.00002493,-0.00002891,0.00001869
 ,-0.00001476,-0.22576811,-0.08208645,0.16891811,-0.01662603,-0.0154734
 7,0.00982756,0.00122583,-0.00082013,-0.00189116,-0.00053690,-0.0001251
 9,0.00016381,0.00058908,-0.00005663,0.00275718,-0.00035471,0.00013911,
 -0.00001048,-0.00020432,0.00015005,0.00013393,-0.00020673,-0.00066855,
 0.00052784,-0.00002344,-0.00004915,-0.00001089,-0.00007470,0.00003844,
 0.00001706,-0.00001014,-0.00002139,-0.00000068,0.00001241,0.00000241,0
 .00000761,0.22444818,-0.00164054,0.00032121,-0.00234279,-0.01459510,-0
 .01721529,0.01651539,-0.00184714,0.00175157,0.00495128,0.00057112,-0.0
 0136342,-0.00053521,0.00004323,-0.00040970,0.00032780,-0.00012545,0.00
 016769,-0.00025188,0.00021629,-0.00016282,0.00008107,-0.09053383,-0.10
 362255,0.10365604,0.02257551,0.00686630,-0.02208221,-0.00188394,0.0020
 1901,-0.00041244,-0.00001318,-0.00016969,-0.00045751,0.00190845,0.0003
 3254,-0.00021577,0.00024048,0.00025200,-0.00028430,-0.00015233,-0.0001
 2560,0.00010616,0.00097384,-0.00044516,-0.00091317,0.00000330,0.000035
 34,-0.00000445,0.00003545,0.00023947,-0.00037038,-0.00003002,0.0000368
 2,0.00000142,0.00002382,-0.00006468,-0.00002096,0.08188721,0.11388144,
 0.00300775,0.00007423,0.00212586,0.00770143,0.02154108,-0.02573493,-0.
 00025381,-0.00126391,-0.00061411,0.00042523,0.00018381,0.00026765,-0.0
 0015071,0.00008350,-0.00010259,0.00004938,-0.00003378,0.00008798,-0.00
 007022,0.00004283,-0.00003774,0.13075566,0.07133345,-0.13721627,0.0197
 3683,0.00424615,-0.01385518,-0.00164156,0.00001758,0.00117553,0.000223
 70,-0.00042855,0.00088190,-0.00183473,-0.00003553,-0.00002467,-0.00030
 048,-0.00033635,-0.00082955,-0.00017852,0.00037667,0.00013894,0.000101
 72,0.00063717,0.00042055,-0.00006846,0.00003259,-0.00002083,-0.0000277
 3,-0.00014609,0.00003650,0.00000039,-0.00002166,-0.00000942,0.00002462
 ,0.00003132,0.00000818,-0.15711119,-0.09626040,0.17386723,-0.00062084,
 -0.00015534,-0.00045236,0.00183233,-0.00114147,0.00007547,-0.00020157,
 0.00033445,-0.00006676,-0.00009330,0.00006655,0.00009489,0.00001782,0.
 00002571,-0.00004381,0.00000801,-0.00001229,0.00001554,-0.00000477,0.0
 0001305,-0.00001051,-0.01461872,-0.00269974,0.01609532,-0.17481476,-0.
 07586167,0.08788637,0.01444891,0.00913208,-0.01111172,-0.00008641,0.00
 007942,-0.00006484,0.00031333,0.00011642,-0.00007417,0.00012330,0.0000
 1208,0.00023507,-0.00002304,-0.00007513,0.00004661,0.00009649,-0.00013
 033,-0.00014409,0.00002051,-0.00000730,-0.00001028,0.00002494,0.000049
 68,-0.00005639,-0.00000065,0.00000209,0.00001135,0.00000569,-0.0000182
 6,-0.00000687,-0.00175926,0.00326828,0.00071295,0.18618061,-0.00001947
 ,-0.00019270,0.00015023,-0.00070995,0.00158095,-0.00163998,0.00013299,
 0.00002318,-0.00029461,-0.00007959,0.00001439,0.00004362,0.00000711,0.
 00001263,0.00000036,-0.00001030,0.00000312,-0.00000774,0.00001096,-0.0
 0000485,-0.00000172,0.02240410,0.00712019,-0.01931596,-0.08273766,-0.0
 9722929,0.05705179,-0.00859775,-0.01268702,0.01987708,0.00004372,0.000
 06034,0.00018229,-0.00014594,-0.00002430,0.00014981,0.00007264,-0.0000
 2988,0.00011819,0.00000972,-0.00001123,-0.00002939,-0.00005240,-0.0000
 1730,0.00007558,0.00000365,0.00000975,-0.00000148,0.00001557,-0.000001
 63,0.00000804,-0.00000337,-0.00000161,0.00000188,0.00000171,-0.0000034
 7,-0.00000298,0.00457508,-0.00322341,-0.00175054,0.07879267,0.10990744
 ,0.00000149,-0.00053516,-0.00009677,-0.00104389,0.00067867,0.00119784,
 0.00008981,-0.00000977,0.00036158,0.00002717,-0.00009533,-0.00005602,0
 .00001164,-0.00002870,0.00003829,-0.00001166,0.00000158,-0.00001763,0.
 00000477,-0.00000507,0.00001111,0.01742672,0.00254121,-0.01465609,0.08
 686043,0.05035276,-0.11673085,0.01014944,0.01801594,-0.01822683,0.0001
 0903,0.00004634,0.00015748,-0.00026022,0.00012267,0.00000140,0.0000612
 7,0.00010264,0.00010347,0.00001383,0.00003012,-0.00010906,-0.00011301,
 0.00012277,0.00002372,-0.00001065,0.00001284,0.00000920,0.00000453,-0.
 00002609,0.00004694,-0.00000188,-0.00000652,-0.00001233,-0.00000884,0.
 00001002,0.00000034,0.00266944,-0.00152286,-0.00095901,-0.10362038,-0.
 06126082,0.13727631,-0.00031672,-0.00023060,0.00043803,0.00149655,-0.0
 0118817,0.00072744,0.00002157,0.00007770,-0.00018848,-0.00012608,0.000
 06151,-0.00007084,-0.00001137,-0.00001358,-0.00001505,0.00001006,-0.00
 000303,0.00000933,-0.00000737,0.00000468,-0.00000495,0.01278706,0.0147
 5733,0.01318786,-0.13674483,-0.07564882,-0.07601993,-0.00841527,-0.005
 45988,-0.01120663,0.00025523,-0.00040016,0.00001471,0.00000359,0.00027
 827,0.00012614,-0.00079490,0.00049779,-0.00031421,-0.00005167,-0.00008
 473,0.00004948,0.00007609,-0.00006532,-0.00003636,0.00003291,0.0000469
 0,-0.00002696,-0.00000421,0.00000887,-0.00002460,0.00000409,0.00000483
 ,0.00000897,0.00000228,-0.00000101,0.00000192,0.00208219,0.00009452,-0
 .00056167,-0.01377208,-0.01446212,-0.01279299,0.14338907,-0.00015032,-
 0.00147848,-0.00041911,-0.00099777,0.00371560,-0.00077182,-0.00016385,
 -0.00013590,0.00054202,0.00012560,-0.00010472,-0.00001763,-0.00000640,
 -0.00008553,0.00015661,-0.00010986,0.00015465,-0.00012885,0.00015492,-
 0.00013082,0.00003799,-0.00449875,-0.02447031,-0.02329917,-0.08111333,
 -0.12091863,-0.07260869,0.01475722,0.01187242,0.01656567,0.00040067,0.
 00034317,0.00039946,0.00005518,0.00026152,0.00007828,0.00104670,0.0003
 1935,0.00052616,0.00021925,0.00034659,0.00007836,-0.00004579,0.0001497
 3,0.00001461,0.00008275,-0.00008398,0.00009893,-0.00001982,-0.00001198
 ,0.00000242,-0.00000349,0.00004457,-0.00000023,-0.00000035,-0.00000647
 ,0.00000237,0.00031166,0.00081025,0.00169597,-0.01117113,-0.00630343,-
 0.00824049,0.07929636,0.13597168,-0.00067673,-0.00097662,0.00022763,0.
 00039571,0.00213574,-0.00003437,0.00011712,-0.00013970,0.00028618,0.00
 007400,-0.00007129,-0.00007924,-0.00000191,-0.00006600,0.00011137,-0.0
 0007040,0.00009321,-0.00008489,0.00009593,-0.00008092,0.00002562,-0.00
 410390,-0.01767450,-0.01189356,-0.07330212,-0.06593791,-0.12423065,-0.
 01852729,-0.01087508,-0.02063537,0.00044347,0.00007470,0.00021459,0.00
 013340,0.00029189,-0.00000948,0.00010229,0.00027048,0.00041901,0.00015
 684,0.00022379,0.00005435,-0.00000538,0.00002280,-0.00005459,0.0000527
 7,-0.00003654,0.00006616,-0.00000457,-0.00000998,0.00002224,-0.0000007
 9,0.00002677,-0.00000417,-0.00000354,-0.00000097,0.00000221,-0.0005947
 2,-0.00023850,0.00051702,0.00944206,0.00832915,0.01037306,0.08893148,0
 .08149701,0.14690883,0.00002317,-0.00035156,0.00009271,0.00021534,0.00
 091340,0.00031422,-0.00002469,0.00005434,-0.00005716,0.00002299,0.0000
 1963,0.00000114,0.00000418,-0.00001440,0.00002464,-0.00002366,0.000032
 44,-0.00002389,0.00002733,-0.00002615,0.00001003,0.00006500,-0.0004951
 0,0.00068277,-0.01130743,-0.01081595,-0.00209478,-0.24166562,-0.129535
 66,-0.17246562,0.00013949,0.00001884,0.00006447,-0.00000195,0.00005977
 ,0.00001618,0.00009696,0.00004041,0.00006154,0.00003391,0.00006407,-0.
 00002895,-0.00003590,0.00001492,0.00001410,0.00000869,-0.00001287,0.00
 002045,-0.00000460,-0.00001132,0.00001709,0.00000210,0.00000669,-0.000
 00550,-0.00000696,0.00000474,0.00000216,-0.00063343,-0.00042881,-0.000
 52897,0.00230445,0.00106249,0.00062360,0.00027047,0.00242041,-0.002234
 42,0.24178502,0.00004578,0.00023287,-0.00002653,-0.00042766,-0.0006721
 9,-0.00022671,0.00013599,-0.00008982,0.00003273,-0.00002217,-0.0000230
 8,-0.00000947,0.00001480,0.00001910,-0.00003708,0.00003780,-0.00005952
 ,0.00004375,-0.00005474,0.00004877,-0.00001066,-0.00113651,0.00158988,
 0.00007567,0.01876592,0.01201604,0.01590757,-0.11822857,-0.14489114,-0
 .10005193,-0.00010112,-0.00006447,-0.00008981,-0.00001396,-0.00002625,
 -0.00000109,-0.00010614,-0.00008570,-0.00006781,-0.00002031,-0.0000738
 8,-0.00000278,-0.00001825,-0.00001765,-0.00000829,-0.00001751,0.000018
 48,-0.00002243,0.00000582,0.00000305,0.00000413,-0.00000081,-0.0000143
 7,-0.00000162,-0.00000118,0.00000284,-0.00000254,0.00001876,0.00005609
 ,0.00004581,0.00030615,0.00074362,0.00018005,0.00258889,-0.00156968,0.
 00322348,0.12698819,0.14799971,0.00000090,-0.00021637,-0.00010051,0.00
 034372,-0.00011930,-0.00023988,-0.00004631,0.00005572,0.00011052,-0.00
 001322,-0.00001185,0.00000457,-0.00000587,-0.00000422,0.00001669,-0.00
 001193,0.00001326,-0.00001682,0.00002195,-0.00001422,-0.00000076,0.000
 72226,-0.00003242,0.00155258,-0.02561621,-0.01259032,-0.02162420,-0.12
 575106,-0.07802638,-0.11442207,0.00002737,0.00000983,0.00001872,0.0000
 5992,0.00004977,0.00000697,0.00004760,0.00003577,0.00002533,-0.0000187
 3,0.00002727,0.00004762,0.00006440,-0.00001912,-0.00002756,0.00001000,
 -0.00000286,-0.00000295,-0.00000025,0.00001302,-0.00002549,-0.00000535
 ,0.00000611,0.00000805,0.00000947,-0.00000917,-0.00000187,0.00048644,0
 .00023684,0.00019932,0.00099850,-0.00200440,0.00147198,-0.00206158,0.0
 0448787,-0.00298458,0.16226108,0.09566788,0.14509356,0.00037007,0.0004
 0619,0.00012083,-0.00045869,0.00165529,0.00063811,-0.00031642,-0.00007
 330,-0.00056552,0.00001723,0.00014715,0.00013611,0.00000675,0.00008546
 ,-0.00013117,0.00007854,-0.00009337,0.00009932,-0.00010494,0.00008474,
 -0.00002497,-0.00121270,0.00330349,-0.00429181,-0.00660582,0.00501370,
 0.01432276,-0.09743661,0.15708357,0.04269181,-0.00011951,-0.00004850,-
 0.00006874,-0.00009297,-0.00004215,0.00004014,-0.00000961,-0.00009192,
 -0.00004411,0.00002221,-0.00003086,0.00000455,-0.00005104,0.00007071,0
 .00007265,-0.00001415,0.00000066,-0.00000763,0.00000373,-0.00001628,0.
 00000926,0.00000845,-0.00001501,-0.00000114,-0.00000296,0.00000800,0.0
 0000019,0.00070083,-0.00059114,-0.00001162,0.00061902,-0.00031385,-0.0
 0018964,-0.00018668,-0.00058983,-0.00041929,0.00870515,-0.02875916,-0.
 01152312,0.09608013,0.00012649,-0.00036963,0.00009865,0.00095008,0.000
 24009,-0.00034763,0.00016797,0.00005816,0.00003249,0.00001390,0.000005
 09,-0.00005348,0.00000458,-0.00000052,0.00000771,0.00001215,-0.0000142
 4,0.00000777,-0.00001926,0.00001123,-0.00000059,0.00016804,-0.00172589
 ,0.00487389,0.00958781,-0.01918168,-0.01213282,0.11699959,-0.29432817,
 -0.12331433,0.00009224,0.00004727,0.00002558,0.00002263,0.00001568,0.0
 0001076,0.00001883,0.00004314,0.00001578,-0.00002709,0.00002101,-0.000
 02386,0.00000112,-0.00004096,-0.00001204,-0.00000375,0.00000497,0.0000
 0056,-0.00000149,-0.00000478,0.00001022,0.00000059,-0.00000328,-0.0000
 0319,-0.00000311,0.00000548,0.00000169,0.00017701,0.00003260,-0.000065
 33,-0.00092595,0.00025451,-0.00048682,-0.00016026,0.00131038,-0.000081
 04,0.00999149,-0.01514270,-0.00755271,-0.13719360,0.32876222,-0.000032
 12,0.00005182,0.00014403,-0.00071726,0.00159739,0.00046368,-0.00031501
 ,0.00015848,-0.00014367,0.00000255,0.00003869,0.00006387,-0.00000379,0
 .00000792,-0.00000512,-0.00001669,0.00002349,-0.00001600,0.00002378,-0
 .00001780,0.00000201,0.00001702,0.00091848,-0.00382063,-0.01168620,0.0
 2974863,0.00886209,0.04111231,-0.15656319,-0.10848526,0.00002521,0.000
 00252,0.00001474,-0.00003681,-0.00001812,-0.00002179,-0.00002155,-0.00
 002477,0.00000410,0.00003231,0.00001593,-0.00001048,-0.00000743,0.0000
 3997,0.00002950,0.00000082,-0.00000576,0.00000627,0.00000435,0.0000013
 3,-0.00000617,-0.00000073,0.00000298,0.00000131,0.00000183,-0.00000507
 ,-0.00000155,-0.00063565,0.00003683,-0.00032237,0.00004803,0.00032160,
 -0.00020810,-0.00017113,-0.00069775,0.00078264,0.01323311,-0.01462232,
 -0.00910925,-0.04085697,0.13898873,0.11177616\\0.00000405,-0.00000224,
 0.00000229,-0.00000201,0.00000133,-0.00001241,-0.00000337,0.00000248,0
 .00000654,0.00000088,-0.00000480,-0.00000576,0.00000209,0.00001069,0.0
 0000286,0.00000283,-0.00000798,0.00000517,-0.00000689,0.00000757,-0.00
 000295,-0.00000159,-0.00000820,0.00000952,0.00000705,-0.00000044,-0.00
 000052,-0.00000131,0.00000329,-0.00000155,-0.00000067,-0.00000096,-0.0
 0000047,-0.00000039,0.00000221,0.00000081,0.00000067,-0.00000002,0.000
 00028,-0.00000173,-0.00000019,-0.00000241,-0.00000034,0.00000190,0.000
 00250,0.00000136,0.00000110,0.00000165,0.00000058,0.00000064,0.0000010
 3,-0.00000027,-0.00000277,-0.00000350,0.00000064,-0.00000439,-0.000000
 92,-0.00000185,0.00000217,-0.00000100,-0.00000076,0.00000127,-0.000001
 97,0.00000107,-0.00000055,0.00000315,0.00000040,-0.00000064,-0.0000024
 0,-0.00000044,-0.00000149,0.00000007\\\@


 "MATHEMATICS IS THE ART OF GIVING THE SAME NAME
 TO DIFFERENT THINGS."
                    - H. POINCARE
 Job cpu time:       0 days  2 hours 26 minutes  0.6 seconds.
 Elapsed time:       0 days  0 hours 37 minutes  1.0 seconds.
 File lengths (MBytes):  RWF=    224 Int=      0 D2E=      0 Chk=     11 Scr=      1
 Normal termination of Gaussian 16 at Tue Jun  1 07:34:38 2021.
### All Done ###
