### Starting Gaussian ###
 Entering Gaussian System, Link 0=g16
 Initial command:
 /cluster/software/gaussian/gaussian-16-A.03/avx2/g16/l1.exe "/local/scratch/cz9n3/Gau-16020.inp" -scrdir="/local/scratch/cz9n3/"
 Entering Link 1 = /cluster/software/gaussian/gaussian-16-A.03/avx2/g16/l1.exe PID=     16021.
  
 Copyright (c) 1988,1990,1992,1993,1995,1998,2003,2009,2016,
            Gaussian, Inc.  All Rights Reserved.
  
 This is part of the Gaussian(R) 16 program.  It is based on
 the Gaussian(R) 09 system (copyright 2009, Gaussian, Inc.),
 the Gaussian(R) 03 system (copyright 2003, Gaussian, Inc.),
 the Gaussian(R) 98 system (copyright 1998, Gaussian, Inc.),
 the Gaussian(R) 94 system (copyright 1995, Gaussian, Inc.),
 the Gaussian 92(TM) system (copyright 1992, Gaussian, Inc.),
 the Gaussian 90(TM) system (copyright 1990, Gaussian, Inc.),
 the Gaussian 88(TM) system (copyright 1988, Gaussian, Inc.),
 the Gaussian 86(TM) system (copyright 1986, Carnegie Mellon
 University), and the Gaussian 82(TM) system (copyright 1983,
 Carnegie Mellon University). Gaussian is a federally registered
 trademark of Gaussian, Inc.
  
 This software contains proprietary and confidential information,
 including trade secrets, belonging to Gaussian, Inc.
  
 This software is provided under written license and may be
 used, copied, transmitted, or stored only in accord with that
 written license.
  
 The following legend is applicable only to US Government
 contracts under FAR:
  
                    RESTRICTED RIGHTS LEGEND
  
 Use, reproduction and disclosure by the US Government is
 subject to restrictions as set forth in subparagraphs (a)
 and (c) of the Commercial Computer Software - Restricted
 Rights clause in FAR 52.227-19.
  
 Gaussian, Inc.
 340 Quinnipiac St., Bldg. 40, Wallingford CT 06492
  
  
 ---------------------------------------------------------------
 Warning -- This program may not be used in any manner that
 competes with the business of Gaussian, Inc. or will provide
 assistance to any competitor of Gaussian, Inc.  The licensee
 of this program is prohibited from giving any competitor of
 Gaussian, Inc. access to this program.  By using this program,
 the user acknowledges that Gaussian, Inc. is engaged in the
 business of creating and licensing software in the field of
 computational chemistry and represents and warrants to the
 licensee that it is not a competitor of Gaussian, Inc. and that
 it will not use this program in any manner prohibited above.
 ---------------------------------------------------------------
  

 Cite this work as:
 Gaussian 16, Revision A.03,
 M. J. Frisch, G. W. Trucks, H. B. Schlegel, G. E. Scuseria, 
 M. A. Robb, J. R. Cheeseman, G. Scalmani, V. Barone, 
 G. A. Petersson, H. Nakatsuji, X. Li, M. Caricato, A. V. Marenich, 
 J. Bloino, B. G. Janesko, R. Gomperts, B. Mennucci, H. P. Hratchian, 
 J. V. Ortiz, A. F. Izmaylov, J. L. Sonnenberg, D. Williams-Young, 
 F. Ding, F. Lipparini, F. Egidi, J. Goings, B. Peng, A. Petrone, 
 T. Henderson, D. Ranasinghe, V. G. Zakrzewski, J. Gao, N. Rega, 
 G. Zheng, W. Liang, M. Hada, M. Ehara, K. Toyota, R. Fukuda, 
 J. Hasegawa, M. Ishida, T. Nakajima, Y. Honda, O. Kitao, H. Nakai, 
 T. Vreven, K. Throssell, J. A. Montgomery, Jr., J. E. Peralta, 
 F. Ogliaro, M. J. Bearpark, J. J. Heyd, E. N. Brothers, K. N. Kudin, 
 V. N. Staroverov, T. A. Keith, R. Kobayashi, J. Normand, 
 K. Raghavachari, A. P. Rendell, J. C. Burant, S. S. Iyengar, 
 J. Tomasi, M. Cossi, J. M. Millam, M. Klene, C. Adamo, R. Cammi, 
 J. W. Ochterski, R. L. Martin, K. Morokuma, O. Farkas, 
 J. B. Foresman, and D. J. Fox, Gaussian, Inc., Wallingford CT, 2016.
 
 ******************************************
 Gaussian 16:  ES64L-G16RevA.03 25-Dec-2016
                 1-Jun-2021 
 ******************************************
 %chk=CNpCNCCCNpNCtN.chk
 %NProcShared=20
 Will use up to   20 processors via shared memory.
 -----------------------------
 # opt freq b3lyp/6-31g(2df,p)
 -----------------------------
 1/18=20,19=15,26=3,38=1/1,3;
 2/9=110,12=2,17=6,18=5,40=1/2;
 3/5=1,6=6,7=104,11=2,25=1,30=1,71=1,74=-5/1,2,3;
 4//1;
 5/5=2,38=5/2;
 6/7=2,8=2,9=2,10=2,28=1/1;
 7//1,2,3,16;
 1/18=20,19=15,26=3/3(2);
 2/9=110/2;
 99//99;
 2/9=110/2;
 3/5=1,6=6,7=104,11=2,25=1,30=1,71=1,74=-5/1,2,3;
 4/5=5,16=3,69=1/1;
 5/5=2,38=5/2;
 7//1,2,3,16;
 1/18=20,19=15,26=3/3(-5);
 2/9=110/2;
 6/7=2,8=2,9=2,10=2,19=2,28=1/1;
 99/9=1/99;
 -------------------
 Title Card Required
 -------------------
 Symbolic Z-matrix:
 Charge =  0 Multiplicity = 1
 C                     1.08722   0.0197    0.04635 
 N                     2.55909  -0.03009   0.03418 
 C                     3.02266  -1.42798  -0.09567 
 N                     2.567    -2.2459    1.01907 
 C                     3.03997  -3.61584   0.85426 
 C                     2.52176  -4.47387   2.00332 
 C                     3.01866  -5.90567   1.84495 
 N                     2.52042  -6.73075   2.93633 
 N                     3.06546   0.76774  -1.02414 
 C                     4.38887   0.94484  -1.16257 
 N                     5.52645   1.06823  -1.35479 
 H                     0.66182  -0.52965   0.89267 
 H                     0.66966  -0.3983   -0.8772 
 H                     0.7285    1.04705   0.16209 
 H                     4.11934  -1.44075  -0.09122 
 H                     2.6809   -1.84182  -1.05268 
 H                     1.55225  -2.26679   1.03501 
 H                     4.13525  -3.63206   0.84522 
 H                     2.67977  -4.02533  -0.09771 
 H                     1.42354  -4.45986   2.01771 
 H                     2.8646   -4.05916   2.96021 
 H                     4.11415  -5.92536   1.83637 
 H                     2.66971  -6.31967   0.89263 
 H                     2.87331  -6.36972   3.82271 
 H                     2.89067  -7.67522   2.84412 
 H                     2.37856   1.26523  -1.60037 
 

 GradGradGradGradGradGradGradGradGradGradGradGradGradGradGradGradGradGrad
 Berny optimization.
 Initialization pass.
                           ----------------------------
                           !    Initial Parameters    !
                           ! (Angstroms and Degrees)  !
 --------------------------                            --------------------------
 ! Name  Definition              Value          Derivative Info.                !
 --------------------------------------------------------------------------------
 ! R1    R(1,2)                  1.4728         estimate D2E/DX2                !
 ! R2    R(1,12)                 1.095          estimate D2E/DX2                !
 ! R3    R(1,13)                 1.0964         estimate D2E/DX2                !
 ! R4    R(1,14)                 1.0943         estimate D2E/DX2                !
 ! R5    R(2,3)                  1.4785         estimate D2E/DX2                !
 ! R6    R(2,9)                  1.4188         estimate D2E/DX2                !
 ! R7    R(3,4)                  1.4558         estimate D2E/DX2                !
 ! R8    R(3,15)                 1.0968         estimate D2E/DX2                !
 ! R9    R(3,16)                 1.0972         estimate D2E/DX2                !
 ! R10   R(4,5)                  1.4586         estimate D2E/DX2                !
 ! R11   R(4,17)                 1.0151         estimate D2E/DX2                !
 ! R12   R(5,6)                  1.5248         estimate D2E/DX2                !
 ! R13   R(5,18)                 1.0954         estimate D2E/DX2                !
 ! R14   R(5,19)                 1.0971         estimate D2E/DX2                !
 ! R15   R(6,7)                  1.5238         estimate D2E/DX2                !
 ! R16   R(6,20)                 1.0984         estimate D2E/DX2                !
 ! R17   R(6,21)                 1.0978         estimate D2E/DX2                !
 ! R18   R(7,8)                  1.4561         estimate D2E/DX2                !
 ! R19   R(7,22)                 1.0957         estimate D2E/DX2                !
 ! R20   R(7,23)                 1.0955         estimate D2E/DX2                !
 ! R21   R(8,24)                 1.0201         estimate D2E/DX2                !
 ! R22   R(8,25)                 1.0186         estimate D2E/DX2                !
 ! R23   R(9,10)                 1.3424         estimate D2E/DX2                !
 ! R24   R(9,26)                 1.0254         estimate D2E/DX2                !
 ! R25   R(10,11)                1.1603         estimate D2E/DX2                !
 ! A1    A(2,1,12)             112.1905         estimate D2E/DX2                !
 ! A2    A(2,1,13)             111.1479         estimate D2E/DX2                !
 ! A3    A(2,1,14)             111.1135         estimate D2E/DX2                !
 ! A4    A(12,1,13)            108.1697         estimate D2E/DX2                !
 ! A5    A(12,1,14)            105.1827         estimate D2E/DX2                !
 ! A6    A(13,1,14)            108.7945         estimate D2E/DX2                !
 ! A7    A(1,2,3)              110.2458         estimate D2E/DX2                !
 ! A8    A(1,2,9)              110.1109         estimate D2E/DX2                !
 ! A9    A(3,2,9)              110.7483         estimate D2E/DX2                !
 ! A10   A(2,3,4)              111.4588         estimate D2E/DX2                !
 ! A11   A(2,3,15)             108.9157         estimate D2E/DX2                !
 ! A12   A(2,3,16)             109.6061         estimate D2E/DX2                !
 ! A13   A(4,3,15)             107.6577         estimate D2E/DX2                !
 ! A14   A(4,3,16)             111.0066         estimate D2E/DX2                !
 ! A15   A(15,3,16)            108.0952         estimate D2E/DX2                !
 ! A16   A(3,4,5)              109.8569         estimate D2E/DX2                !
 ! A17   A(3,4,17)             109.6629         estimate D2E/DX2                !
 ! A18   A(5,4,17)             107.8541         estimate D2E/DX2                !
 ! A19   A(4,5,6)              109.46           estimate D2E/DX2                !
 ! A20   A(4,5,18)             109.8189         estimate D2E/DX2                !
 ! A21   A(4,5,19)             110.0067         estimate D2E/DX2                !
 ! A22   A(6,5,18)             109.736          estimate D2E/DX2                !
 ! A23   A(6,5,19)             109.4065         estimate D2E/DX2                !
 ! A24   A(18,5,19)            108.3958         estimate D2E/DX2                !
 ! A25   A(5,6,7)              109.8517         estimate D2E/DX2                !
 ! A26   A(5,6,20)             110.0285         estimate D2E/DX2                !
 ! A27   A(5,6,21)             109.7635         estimate D2E/DX2                !
 ! A28   A(7,6,20)             109.839          estimate D2E/DX2                !
 ! A29   A(7,6,21)             110.1027         estimate D2E/DX2                !
 ! A30   A(20,6,21)            107.218          estimate D2E/DX2                !
 ! A31   A(6,7,8)              110.0568         estimate D2E/DX2                !
 ! A32   A(6,7,22)             110.1039         estimate D2E/DX2                !
 ! A33   A(6,7,23)             109.9726         estimate D2E/DX2                !
 ! A34   A(8,7,22)             109.7432         estimate D2E/DX2                !
 ! A35   A(8,7,23)             109.1745         estimate D2E/DX2                !
 ! A36   A(22,7,23)            107.7507         estimate D2E/DX2                !
 ! A37   A(7,8,24)             109.4131         estimate D2E/DX2                !
 ! A38   A(7,8,25)             109.4613         estimate D2E/DX2                !
 ! A39   A(24,8,25)            106.3243         estimate D2E/DX2                !
 ! A40   A(2,9,10)             120.1969         estimate D2E/DX2                !
 ! A41   A(2,9,26)             116.9322         estimate D2E/DX2                !
 ! A42   A(10,9,26)            122.5806         estimate D2E/DX2                !
 ! A43   L(9,10,11,7,-1)       180.0428         estimate D2E/DX2                !
 ! A44   L(9,10,11,7,-2)       175.8729         estimate D2E/DX2                !
 ! D1    D(12,1,2,3)            61.4373         estimate D2E/DX2                !
 ! D2    D(12,1,2,9)          -176.0719         estimate D2E/DX2                !
 ! D3    D(13,1,2,3)           -59.82           estimate D2E/DX2                !
 ! D4    D(13,1,2,9)            62.6708         estimate D2E/DX2                !
 ! D5    D(14,1,2,3)           178.87           estimate D2E/DX2                !
 ! D6    D(14,1,2,9)           -58.6392         estimate D2E/DX2                !
 ! D7    D(1,2,3,4)            -60.7434         estimate D2E/DX2                !
 ! D8    D(1,2,3,15)          -179.3786         estimate D2E/DX2                !
 ! D9    D(1,2,3,16)            62.5482         estimate D2E/DX2                !
 ! D10   D(9,2,3,4)            177.1414         estimate D2E/DX2                !
 ! D11   D(9,2,3,15)            58.5062         estimate D2E/DX2                !
 ! D12   D(9,2,3,16)           -59.5671         estimate D2E/DX2                !
 ! D13   D(1,2,9,10)           175.1792         estimate D2E/DX2                !
 ! D14   D(1,2,9,26)             1.2081         estimate D2E/DX2                !
 ! D15   D(3,2,9,10)           -62.6266         estimate D2E/DX2                !
 ! D16   D(3,2,9,26)           123.4023         estimate D2E/DX2                !
 ! D17   D(2,3,4,5)            179.8522         estimate D2E/DX2                !
 ! D18   D(2,3,4,17)            61.4796         estimate D2E/DX2                !
 ! D19   D(15,3,4,5)           -60.7629         estimate D2E/DX2                !
 ! D20   D(15,3,4,17)         -179.1355         estimate D2E/DX2                !
 ! D21   D(16,3,4,5)            57.3621         estimate D2E/DX2                !
 ! D22   D(16,3,4,17)          -61.0106         estimate D2E/DX2                !
 ! D23   D(3,4,5,6)           -178.256          estimate D2E/DX2                !
 ! D24   D(3,4,5,18)            61.211          estimate D2E/DX2                !
 ! D25   D(3,4,5,19)           -58.0122         estimate D2E/DX2                !
 ! D26   D(17,4,5,6)           -58.7718         estimate D2E/DX2                !
 ! D27   D(17,4,5,18)         -179.3048         estimate D2E/DX2                !
 ! D28   D(17,4,5,19)           61.472          estimate D2E/DX2                !
 ! D29   D(4,5,6,7)           -179.6206         estimate D2E/DX2                !
 ! D30   D(4,5,6,20)            59.3379         estimate D2E/DX2                !
 ! D31   D(4,5,6,21)           -58.4214         estimate D2E/DX2                !
 ! D32   D(18,5,6,7)           -59.0371         estimate D2E/DX2                !
 ! D33   D(18,5,6,20)          179.9215         estimate D2E/DX2                !
 ! D34   D(18,5,6,21)           62.1621         estimate D2E/DX2                !
 ! D35   D(19,5,6,7)            59.7696         estimate D2E/DX2                !
 ! D36   D(19,5,6,20)          -61.2719         estimate D2E/DX2                !
 ! D37   D(19,5,6,21)         -179.0313         estimate D2E/DX2                !
 ! D38   D(5,6,7,8)           -179.6989         estimate D2E/DX2                !
 ! D39   D(5,6,7,22)            59.1981         estimate D2E/DX2                !
 ! D40   D(5,6,7,23)           -59.3866         estimate D2E/DX2                !
 ! D41   D(20,6,7,8)           -58.5435         estimate D2E/DX2                !
 ! D42   D(20,6,7,22)         -179.6466         estimate D2E/DX2                !
 ! D43   D(20,6,7,23)           61.7687         estimate D2E/DX2                !
 ! D44   D(21,6,7,8)            59.306          estimate D2E/DX2                !
 ! D45   D(21,6,7,22)          -61.7971         estimate D2E/DX2                !
 ! D46   D(21,6,7,23)          179.6182         estimate D2E/DX2                !
 ! D47   D(6,7,8,24)           -61.404          estimate D2E/DX2                !
 ! D48   D(6,7,8,25)          -177.5465         estimate D2E/DX2                !
 ! D49   D(22,7,8,24)           59.9149         estimate D2E/DX2                !
 ! D50   D(22,7,8,25)          -56.2276         estimate D2E/DX2                !
 ! D51   D(23,7,8,24)          177.803          estimate D2E/DX2                !
 ! D52   D(23,7,8,25)           61.6606         estimate D2E/DX2                !
 --------------------------------------------------------------------------------
 Trust Radius=3.00D-01 FncErr=1.00D-07 GrdErr=1.00D-06 EigMax=2.50D+02 EigMin=1.00D-04
 Number of steps in this run=    131 maximum allowed number of steps=    156.
 GradGradGradGradGradGradGradGradGradGradGradGradGradGradGradGradGradGrad

                          Input orientation:                          
 ---------------------------------------------------------------------
 Center     Atomic      Atomic             Coordinates (Angstroms)
 Number     Number       Type             X           Y           Z
 ---------------------------------------------------------------------
      1          6           0        1.087220    0.019700    0.046350
      2          7           0        2.559090   -0.030090    0.034180
      3          6           0        3.022660   -1.427980   -0.095670
      4          7           0        2.567000   -2.245900    1.019070
      5          6           0        3.039970   -3.615840    0.854260
      6          6           0        2.521760   -4.473870    2.003320
      7          6           0        3.018660   -5.905670    1.844950
      8          7           0        2.520420   -6.730750    2.936330
      9          7           0        3.065460    0.767740   -1.024140
     10          6           0        4.388870    0.944840   -1.162570
     11          7           0        5.526450    1.068230   -1.354790
     12          1           0        0.661820   -0.529650    0.892670
     13          1           0        0.669660   -0.398300   -0.877200
     14          1           0        0.728500    1.047050    0.162090
     15          1           0        4.119340   -1.440750   -0.091220
     16          1           0        2.680900   -1.841820   -1.052680
     17          1           0        1.552250   -2.266790    1.035010
     18          1           0        4.135250   -3.632060    0.845220
     19          1           0        2.679770   -4.025330   -0.097710
     20          1           0        1.423540   -4.459860    2.017710
     21          1           0        2.864600   -4.059160    2.960210
     22          1           0        4.114150   -5.925360    1.836370
     23          1           0        2.669710   -6.319670    0.892630
     24          1           0        2.873310   -6.369720    3.822710
     25          1           0        2.890670   -7.675220    2.844120
     26          1           0        2.378560    1.265230   -1.600370
 ---------------------------------------------------------------------
                    Distance matrix (angstroms):
                    1          2          3          4          5
     1  C    0.000000
     2  N    1.472762   0.000000
     3  C    2.421131   1.478464   0.000000
     4  N    2.875565   2.424847   1.455769   0.000000
     5  C    4.205128   3.709633   2.385246   1.458629   0.000000
     6  C    5.106839   4.860667   3.732842   2.436113   1.524827
     7  C    6.486558   6.165430   4.880136   3.778888   2.495044
     8  N    7.481619   7.302247   6.129000   4.877698   3.782540
     9  N    2.370432   1.418797   2.384339   3.674942   4.769152
    10  C    3.635693   2.393908   2.938551   4.273124   5.165940
    11  N    4.771726   3.455542   3.753054   5.037560   5.744823
    12  H    1.094992   2.141541   2.712449   2.567334   3.896363
    13  H    1.096369   2.129821   2.684705   3.257202   4.355329
    14  H    1.094314   2.127828   3.384580   3.867560   5.250194
    15  H    3.368322   2.107147   1.096763   2.071417   2.605761
    16  H    2.685692   2.116239   1.097238   2.113859   2.629163
    17  H    2.534115   2.649191   2.035717   1.015090   2.016412
    18  H    4.823280   4.014505   2.642177   2.100255   1.095437
    19  H    4.349625   3.999238   2.619886   2.103874   1.097120
    20  H    4.905694   4.984649   4.026892   2.684474   2.163061
    21  H    5.318530   4.988827   4.035653   2.672920   2.159239
    22  H    6.907258   6.357697   5.015033   4.074319   2.729887
    23  H    6.588481   6.348857   5.002993   4.077026   2.729334
    24  H    7.633852   7.392063   6.308471   4.996010   4.052570
    25  H    8.384017   8.151915   6.905635   5.736993   4.523317
    26  H    2.435280   2.093370   3.151566   4.384633   5.503409
                    6          7          8          9         10
     6  C    0.000000
     7  C    1.523825   0.000000
     8  N    2.442134   1.456060   0.000000
     9  N    6.077467   7.264177   8.497632   0.000000
    10  C    6.547624   7.606059   8.899818   1.342364   0.000000
    11  N    7.142824   8.072337   9.395425   2.501219   1.160285
    12  H    4.499977   5.946690   6.788563   3.336895   4.504335
    13  H    5.323339   6.577159   7.620252   2.668539   3.964591
    14  H    6.089866   7.511136   8.449944   2.635629   3.894031
    15  H    4.017359   4.989565   6.301326   2.618861   2.628969
    16  H    4.036353   5.002521   6.311861   2.637898   3.270277
    17  H    2.597841   4.005972   4.947657   3.967150   4.815635
    18  H    2.157125   2.723148   4.072137   4.898693   5.004354
    19  H    2.154178   2.724785   4.068180   4.896994   5.362606
    20  H    1.098404   2.159773   2.684017   6.267101   6.936724
    21  H    1.097799   2.162669   2.693775   6.262136   6.660385
    22  H    2.161111   1.095701   2.097270   7.353901   7.501251
    23  H    2.159282   1.095480   2.089972   7.352687   7.742898
    24  H    2.651040   2.036665   1.020070   8.629728   8.980686
    25  H    3.330418   2.036180   1.018632   9.288572   9.623077
    26  H    6.778227   7.981339   9.194426   1.025363   2.082226
                   11         12         13         14         15
    11  N    0.000000
    12  H    5.591862   0.000000
    13  H    5.095803   1.774755   0.000000
    14  H    5.032067   1.739016   1.781186   0.000000
    15  H    3.141902   3.708448   3.688463   4.213207   0.000000
    16  H    4.081276   3.095620   2.481860   3.692303   1.776055
    17  H    5.712072   1.957238   2.815451   3.524498   2.922445
    18  H    5.372914   4.657458   5.043238   5.828094   2.383068
    19  H    5.968935   4.156050   4.219419   5.440955   2.958455
    20  H    7.665990   4.158423   5.044314   5.852560   4.563984
    21  H    7.210742   4.645902   5.739806   6.202079   4.212086
    22  H    7.815907   6.474785   7.055237   7.929713   4.881327
    23  H    8.233646   6.128291   6.495777   7.653140   5.183941
    24  H    9.442921   6.897988   7.912211   8.544520   6.416088
    25  H   10.051174   7.735315   8.469632   9.377967   6.999605
    26  H    3.163594   3.519096   2.492117   2.424163   3.553896
                   16         17         18         19         20
    16  H    0.000000
    17  H    2.410996   0.000000
    18  H    2.986991   2.927776   0.000000
    19  H    2.383209   2.376304   1.778258   0.000000
    20  H    4.226391   2.406620   3.068119   2.498386   0.000000
    21  H    4.588423   2.939600   2.504026   3.063688   1.767914
    22  H    5.203471   4.537691   2.498409   3.067283   3.069195
    23  H    4.882161   4.206522   3.061585   2.498974   2.505521
    24  H    6.656450   5.133274   4.237065   4.572014   3.001237
    25  H    7.018377   5.857932   4.678859   4.692605   3.629596
    26  H    3.169406   4.483657   5.748941   5.508061   6.839534
                   21         22         23         24         25
    21  H    0.000000
    22  H    2.511393   0.000000
    23  H    3.069654   1.769896   0.000000
    24  H    2.466307   2.383839   2.937572   0.000000
    25  H    3.618017   2.361032   2.386347   1.631646   0.000000
    26  H    7.027393   8.156472   7.989401   9.378008   9.997369
                   26
    26  H    0.000000
 Stoichiometry    C6H15N5
 Framework group  C1[X(C6H15N5)]
 Deg. of freedom    72
 Full point group                 C1      NOp   1
 Largest Abelian subgroup         C1      NOp   1
 Largest concise Abelian subgroup C1      NOp   1
                         Standard orientation:                         
 ---------------------------------------------------------------------
 Center     Atomic      Atomic             Coordinates (Angstroms)
 Number     Number       Type             X           Y           Z
 ---------------------------------------------------------------------
      1          6           0       -1.937388    2.132070    0.018885
      2          7           0       -2.057548    0.701227   -0.308645
      3          6           0       -0.914064   -0.049749    0.252009
      4          7           0        0.350791    0.419072   -0.295361
      5          6           0        1.453081   -0.341430    0.282731
      6          6           0        2.775482    0.185587   -0.263717
      7          6           0        3.933296   -0.609316    0.327584
      8          7           0        5.199021   -0.104968   -0.185917
      9          7           0       -3.285429    0.189318    0.184552
     10          6           0       -3.647238   -1.074749   -0.085951
     11          7           0       -3.964250   -2.179893   -0.242226
     12          1           0       -1.032543    2.579015   -0.405972
     13          1           0       -1.919418    2.289356    1.103765
     14          1           0       -2.766996    2.704902   -0.406717
     15          1           0       -1.019480   -1.108605   -0.013702
     16          1           0       -0.922553    0.029479    1.346350
     17          1           0        0.486289    1.395734   -0.054155
     18          1           0        1.345044   -1.401983    0.030661
     19          1           0        1.444888   -0.242673    1.375366
     20          1           0        2.888137    1.249461   -0.014777
     21          1           0        2.783024    0.105471   -1.358563
     22          1           0        3.828539   -1.670690    0.076444
     23          1           0        3.927766   -0.522372    1.419594
     24          1           0        5.222860   -0.217873   -1.199440
     25          1           0        5.963482   -0.668120    0.182959
     26          1           0       -3.906151    0.851131    0.662125
 ---------------------------------------------------------------------
 Rotational constants (GHZ):           2.5227865           0.3389735           0.3058127
 Standard basis: 6-31G(2df,p) (6D, 7F)
 There are   416 symmetry adapted cartesian basis functions of A   symmetry.
 There are   383 symmetry adapted basis functions of A   symmetry.
   383 basis functions,   589 primitive gaussians,   416 cartesian basis functions
    43 alpha electrons       43 beta electrons
       nuclear repulsion energy       601.9812067336 Hartrees.
 NAtoms=   26 NActive=   26 NUniq=   26 SFac= 1.00D+00 NAtFMM=   60 NAOKFM=F Big=F
 Integral buffers will be    131072 words long.
 Raffenetti 2 integral format.
 Two-electron integral symmetry is turned on.
 One-electron integrals computed using PRISM.
 PrsmSu:  requested number of processors reduced to:  13 ShMem   1 Linda.
 NBasis=   383 RedAO= T EigKep=  1.31D-04  NBF=   383
 NBsUse=   383 1.00D-06 EigRej= -1.00D+00 NBFU=   383
 ExpMin= 1.61D-01 ExpMax= 4.17D+03 ExpMxC= 6.27D+02 IAcc=3 IRadAn=         5 AccDes= 0.00D+00
 Harris functional with IExCor=  402 and IRadAn=       5 diagonalized for initial guess.
 HarFok:  IExCor=  402 AccDes= 0.00D+00 IRadAn=         5 IDoV= 1 UseB2=F ITyADJ=14
 ICtDFT=  3500011 ScaDFX=  1.000000  1.000000  1.000000  1.000000
 FoFCou: FMM=F IPFlag=           0 FMFlag=      100000 FMFlg1=           0
         NFxFlg=           0 DoJE=T BraDBF=F KetDBF=T FulRan=T
         wScrn=  0.000000 ICntrl=       500 IOpCl=  0 I1Cent=   200000004 NGrid=           0
         NMat0=    1 NMatS0=      1 NMatT0=    0 NMatD0=    1 NMtDS0=    0 NMtDT0=    0
 Petite list used in FoFCou.
 Requested convergence on RMS density matrix=1.00D-08 within 128 cycles.
 Requested convergence on MAX density matrix=1.00D-06.
 Requested convergence on             energy=1.00D-06.
 No special actions if energy rises.
 Integral accuracy reduced to 1.0D-05 until final iterations.
 Initial convergence to 1.0D-05 achieved.  Increase integral accuracy.
 SCF Done:  E(RB3LYP) =  -511.358385933     A.U. after   13 cycles
            NFock= 13  Conv=0.87D-08     -V/T= 2.0076

 **********************************************************************

            Population analysis using the SCF density.

 **********************************************************************

 Orbital symmetries:
       Occupied  (A) (A) (A) (A) (A) (A) (A) (A) (A) (A) (A) (A)
                 (A) (A) (A) (A) (A) (A) (A) (A) (A) (A) (A) (A)
                 (A) (A) (A) (A) (A) (A) (A) (A) (A) (A) (A) (A)
                 (A) (A) (A) (A) (A) (A) (A)
       Virtual   (A) (A) (A) (A) (A) (A) (A) (A) (A) (A) (A) (A)
                 (A) (A) (A) (A) (A) (A) (A) (A) (A) (A) (A) (A)
                 (A) (A) (A) (A) (A) (A) (A) (A) (A) (A) (A) (A)
                 (A) (A) (A) (A) (A) (A) (A) (A) (A) (A) (A) (A)
                 (A) (A) (A) (A) (A) (A) (A) (A) (A) (A) (A) (A)
                 (A) (A) (A) (A) (A) (A) (A) (A) (A) (A) (A) (A)
                 (A) (A) (A) (A) (A) (A) (A) (A) (A) (A) (A) (A)
                 (A) (A) (A) (A) (A) (A) (A) (A) (A) (A) (A) (A)
                 (A) (A) (A) (A) (A) (A) (A) (A) (A) (A) (A) (A)
                 (A) (A) (A) (A) (A) (A) (A) (A) (A) (A) (A) (A)
                 (A) (A) (A) (A) (A) (A) (A) (A) (A) (A) (A) (A)
                 (A) (A) (A) (A) (A) (A) (A) (A) (A) (A) (A) (A)
                 (A) (A) (A) (A) (A) (A) (A) (A) (A) (A) (A) (A)
                 (A) (A) (A) (A) (A) (A) (A) (A) (A) (A) (A) (A)
                 (A) (A) (A) (A) (A) (A) (A) (A) (A) (A) (A) (A)
                 (A) (A) (A) (A) (A) (A) (A) (A) (A) (A) (A) (A)
                 (A) (A) (A) (A) (A) (A) (A) (A) (A) (A) (A) (A)
                 (A) (A) (A) (A) (A) (A) (A) (A) (A) (A) (A) (A)
                 (A) (A) (A) (A) (A) (A) (A) (A) (A) (A) (A) (A)
                 (A) (A) (A) (A) (A) (A) (A) (A) (A) (A) (A) (A)
                 (A) (A) (A) (A) (A) (A) (A) (A) (A) (A) (A) (A)
                 (A) (A) (A) (A) (A) (A) (A) (A) (A) (A) (A) (A)
                 (A) (A) (A) (A) (A) (A) (A) (A) (A) (A) (A) (A)
                 (A) (A) (A) (A) (A) (A) (A) (A) (A) (A) (A) (A)
                 (A) (A) (A) (A) (A) (A) (A) (A) (A) (A) (A) (A)
                 (A) (A) (A) (A) (A) (A) (A) (A) (A) (A) (A) (A)
                 (A) (A) (A) (A) (A) (A) (A) (A) (A) (A) (A) (A)
                 (A) (A) (A) (A) (A) (A) (A) (A) (A) (A) (A) (A)
                 (A) (A) (A) (A)
 The electronic state is 1-A.
 Alpha  occ. eigenvalues --  -14.40772 -14.37842 -14.32321 -14.31179 -14.30563
 Alpha  occ. eigenvalues --  -10.23944 -10.23811 -10.23211 -10.21036 -10.20472
 Alpha  occ. eigenvalues --  -10.18209  -1.02293  -0.92460  -0.89134  -0.88013
 Alpha  occ. eigenvalues --   -0.83713  -0.76283  -0.71745  -0.65966  -0.62837
 Alpha  occ. eigenvalues --   -0.60443  -0.59086  -0.53470  -0.51165  -0.48377
 Alpha  occ. eigenvalues --   -0.47723  -0.46375  -0.45235  -0.43944  -0.42535
 Alpha  occ. eigenvalues --   -0.40675  -0.39929  -0.39455  -0.38055  -0.35558
 Alpha  occ. eigenvalues --   -0.34964  -0.34685  -0.33933  -0.32616  -0.29247
 Alpha  occ. eigenvalues --   -0.23703  -0.23292  -0.21080
 Alpha virt. eigenvalues --    0.01897   0.05518   0.07151   0.07893   0.09446
 Alpha virt. eigenvalues --    0.10038   0.10569   0.12214   0.12955   0.13276
 Alpha virt. eigenvalues --    0.14033   0.14912   0.16003   0.16958   0.17989
 Alpha virt. eigenvalues --    0.19744   0.19900   0.20400   0.21123   0.21554
 Alpha virt. eigenvalues --    0.22188   0.22582   0.24986   0.25554   0.29386
 Alpha virt. eigenvalues --    0.30537   0.38544   0.40589   0.43314   0.44381
 Alpha virt. eigenvalues --    0.45965   0.46627   0.49348   0.50604   0.50865
 Alpha virt. eigenvalues --    0.52632   0.53370   0.54449   0.55105   0.57131
 Alpha virt. eigenvalues --    0.58042   0.59302   0.60238   0.61458   0.62008
 Alpha virt. eigenvalues --    0.62791   0.64002   0.65510   0.66279   0.67249
 Alpha virt. eigenvalues --    0.68315   0.69668   0.70143   0.70281   0.71343
 Alpha virt. eigenvalues --    0.72004   0.72931   0.73802   0.74547   0.75166
 Alpha virt. eigenvalues --    0.75579   0.77691   0.78457   0.78984   0.79449
 Alpha virt. eigenvalues --    0.80642   0.81734   0.83289   0.83963   0.84277
 Alpha virt. eigenvalues --    0.84795   0.85884   0.86788   0.86942   0.87740
 Alpha virt. eigenvalues --    0.88210   0.89265   0.90072   0.91099   0.94673
 Alpha virt. eigenvalues --    0.97502   0.97777   1.02322   1.03892   1.08813
 Alpha virt. eigenvalues --    1.10693   1.11992   1.14302   1.15748   1.18886
 Alpha virt. eigenvalues --    1.20495   1.21804   1.22486   1.23583   1.25295
 Alpha virt. eigenvalues --    1.26690   1.29294   1.30615   1.31328   1.32894
 Alpha virt. eigenvalues --    1.35569   1.37415   1.39266   1.41322   1.42256
 Alpha virt. eigenvalues --    1.43816   1.47599   1.49324   1.51011   1.53521
 Alpha virt. eigenvalues --    1.53734   1.54912   1.56682   1.57435   1.58168
 Alpha virt. eigenvalues --    1.60247   1.61438   1.64578   1.69446   1.71712
 Alpha virt. eigenvalues --    1.72142   1.72774   1.74027   1.75905   1.79213
 Alpha virt. eigenvalues --    1.80722   1.80894   1.82444   1.85793   1.88080
 Alpha virt. eigenvalues --    1.90213   1.92035   1.93423   1.94060   1.95894
 Alpha virt. eigenvalues --    1.98911   2.04876   2.05980   2.07171   2.08651
 Alpha virt. eigenvalues --    2.15309   2.18754   2.19946   2.22783   2.25554
 Alpha virt. eigenvalues --    2.28596   2.30192   2.31081   2.33026   2.35966
 Alpha virt. eigenvalues --    2.37082   2.38841   2.43177   2.43278   2.44881
 Alpha virt. eigenvalues --    2.47701   2.51912   2.55052   2.59966   2.62996
 Alpha virt. eigenvalues --    2.63796   2.67153   2.69557   2.73693   2.74479
 Alpha virt. eigenvalues --    2.76433   2.76976   2.77609   2.78515   2.79479
 Alpha virt. eigenvalues --    2.81054   2.81780   2.82609   2.84167   2.85730
 Alpha virt. eigenvalues --    2.87473   2.87840   2.88141   2.91599   2.92445
 Alpha virt. eigenvalues --    2.93275   2.95835   2.96893   2.97098   2.98223
 Alpha virt. eigenvalues --    2.98765   3.00110   3.02523   3.04263   3.06021
 Alpha virt. eigenvalues --    3.08052   3.10038   3.11424   3.14543   3.16595
 Alpha virt. eigenvalues --    3.17825   3.23165   3.23957   3.26242   3.27485
 Alpha virt. eigenvalues --    3.29025   3.31548   3.34109   3.36050   3.37522
 Alpha virt. eigenvalues --    3.39119   3.40900   3.45484   3.45602   3.46582
 Alpha virt. eigenvalues --    3.50640   3.54212   3.56515   3.60517   3.61721
 Alpha virt. eigenvalues --    3.63284   3.64013   3.65152   3.66321   3.67262
 Alpha virt. eigenvalues --    3.68483   3.69267   3.70180   3.70491   3.72690
 Alpha virt. eigenvalues --    3.73099   3.75644   3.76670   3.78282   3.80675
 Alpha virt. eigenvalues --    3.86246   3.89748   3.90001   3.90873   3.97785
 Alpha virt. eigenvalues --    3.99666   4.00712   4.04973   4.08974   4.10987
 Alpha virt. eigenvalues --    4.12772   4.14399   4.15641   4.18046   4.19769
 Alpha virt. eigenvalues --    4.21040   4.23319   4.24127   4.26055   4.28634
 Alpha virt. eigenvalues --    4.30960   4.32892   4.33726   4.35582   4.36516
 Alpha virt. eigenvalues --    4.38577   4.39649   4.41264   4.42567   4.43692
 Alpha virt. eigenvalues --    4.45967   4.46910   4.47267   4.48668   4.49731
 Alpha virt. eigenvalues --    4.50465   4.52986   4.53945   4.55815   4.57126
 Alpha virt. eigenvalues --    4.57718   4.58333   4.58810   4.59747   4.60513
 Alpha virt. eigenvalues --    4.61292   4.63402   4.65347   4.65628   4.67599
 Alpha virt. eigenvalues --    4.68317   4.70107   4.72031   4.72878   4.74648
 Alpha virt. eigenvalues --    4.76449   4.77817   4.79452   4.80979   4.81914
 Alpha virt. eigenvalues --    4.82805   4.86970   4.88155   4.90211   4.91311
 Alpha virt. eigenvalues --    4.93136   4.94750   4.96991   4.99411   5.05020
 Alpha virt. eigenvalues --    5.06498   5.08075   5.09556   5.14826   5.18682
 Alpha virt. eigenvalues --    5.19846   5.21323   5.23710   5.27025   5.31138
 Alpha virt. eigenvalues --    5.32277   5.33215   5.35105   5.43064   5.46482
 Alpha virt. eigenvalues --    5.49152   5.52112   5.53422   5.60530   5.62186
 Alpha virt. eigenvalues --    5.68575   5.72584   5.85473   6.45940   9.64013
 Alpha virt. eigenvalues --   10.01619  11.04019  11.14101  11.21446  11.40647
 Alpha virt. eigenvalues --   11.41522  11.53076  11.54701  11.61733  12.01184
 Alpha virt. eigenvalues --   12.31050  12.49822  14.12998  17.76989  24.61678
          Condensed to atoms (all electrons):
               1          2          3          4          5          6
     1  C    4.997028   0.370906  -0.075716  -0.000795   0.000221   0.000003
     2  N    0.370906   6.364164   0.375742  -0.026328   0.002127  -0.000077
     3  C   -0.075716   0.375742   4.871613   0.382529  -0.063379   0.001845
     4  N   -0.000795  -0.026328   0.382529   6.417162   0.380150  -0.035936
     5  C    0.000221   0.002127  -0.063379   0.380150   4.839894   0.395881
     6  C    0.000003  -0.000077   0.001845  -0.035936   0.395881   4.861514
     7  C   -0.000000   0.000000  -0.000227   0.002356  -0.039537   0.399666
     8  N    0.000000  -0.000000   0.000000  -0.000019   0.002070  -0.038010
     9  N   -0.042221   0.243983  -0.066341   0.001875  -0.000122   0.000000
    10  C    0.003443  -0.039200  -0.004454   0.000039   0.000031  -0.000000
    11  N    0.000071  -0.004302  -0.000478   0.000009   0.000001  -0.000000
    12  H    0.385854  -0.021692  -0.002263   0.001365  -0.000066  -0.000000
    13  H    0.343897  -0.046093  -0.004676  -0.001816   0.000043   0.000002
    14  H    0.376666  -0.024964   0.004674   0.000138  -0.000013  -0.000000
    15  H    0.005782  -0.009538   0.350304  -0.011998  -0.005187   0.000230
    16  H   -0.011362  -0.066011   0.343967  -0.058786   0.000641  -0.000006
    17  H    0.006759  -0.000900  -0.056100   0.335967  -0.047969   0.000967
    18  H    0.000007   0.000227  -0.003410  -0.021413   0.357811  -0.020380
    19  H   -0.000119  -0.000131  -0.002729  -0.045637   0.359174  -0.042385
    20  H   -0.000016   0.000009   0.000164  -0.002430  -0.031299   0.360408
    21  H   -0.000002   0.000001   0.000262   0.004406  -0.028746   0.364962
    22  H   -0.000000   0.000000   0.000027   0.000100   0.003251  -0.048525
    23  H   -0.000000  -0.000000   0.000002   0.000007  -0.006203  -0.019895
    24  H    0.000000   0.000000  -0.000000  -0.000001  -0.000303  -0.003142
    25  H   -0.000000   0.000000  -0.000000   0.000001  -0.000331   0.005234
    26  H   -0.005346  -0.036897   0.003972  -0.000122   0.000007  -0.000000
               7          8          9         10         11         12
     1  C   -0.000000   0.000000  -0.042221   0.003443   0.000071   0.385854
     2  N    0.000000  -0.000000   0.243983  -0.039200  -0.004302  -0.021692
     3  C   -0.000227   0.000000  -0.066341  -0.004454  -0.000478  -0.002263
     4  N    0.002356  -0.000019   0.001875   0.000039   0.000009   0.001365
     5  C   -0.039537   0.002070  -0.000122   0.000031   0.000001  -0.000066
     6  C    0.399666  -0.038010   0.000000  -0.000000  -0.000000  -0.000000
     7  C    4.812353   0.391387   0.000000   0.000000   0.000000   0.000001
     8  N    0.391387   6.546409   0.000000  -0.000000  -0.000000   0.000000
     9  N    0.000000   0.000000   6.471681   0.381982   0.026954   0.002113
    10  C    0.000000  -0.000000   0.381982   4.343946   0.958204  -0.000188
    11  N    0.000000  -0.000000   0.026954   0.958204   6.370492   0.000001
    12  H    0.000001   0.000000   0.002113  -0.000188   0.000001   0.542027
    13  H    0.000000   0.000000   0.002957   0.000855  -0.000007  -0.039553
    14  H   -0.000000  -0.000000   0.002087   0.000121  -0.000001  -0.024096
    15  H   -0.000006   0.000000  -0.006600   0.006594   0.001691  -0.000027
    16  H    0.000053   0.000000   0.015197   0.003361  -0.000118   0.000111
    17  H   -0.000371   0.000000  -0.000163  -0.000020  -0.000001   0.001021
    18  H   -0.005640  -0.000051  -0.000003  -0.000010  -0.000001  -0.000012
    19  H    0.001246   0.000053   0.000033   0.000006   0.000000   0.000116
    20  H   -0.028980   0.003889   0.000000   0.000000   0.000000  -0.000018
    21  H   -0.034381  -0.002075   0.000000   0.000000   0.000000   0.000011
    22  H    0.379564  -0.047704   0.000000   0.000000   0.000000  -0.000000
    23  H    0.356495  -0.021795   0.000000  -0.000000   0.000000   0.000000
    24  H   -0.053714   0.341426  -0.000000  -0.000000   0.000000  -0.000000
    25  H   -0.044754   0.337932  -0.000000  -0.000000   0.000000   0.000000
    26  H    0.000000  -0.000000   0.352787  -0.035994   0.000683  -0.000443
              13         14         15         16         17         18
     1  C    0.343897   0.376666   0.005782  -0.011362   0.006759   0.000007
     2  N   -0.046093  -0.024964  -0.009538  -0.066011  -0.000900   0.000227
     3  C   -0.004676   0.004674   0.350304   0.343967  -0.056100  -0.003410
     4  N   -0.001816   0.000138  -0.011998  -0.058786   0.335967  -0.021413
     5  C    0.000043  -0.000013  -0.005187   0.000641  -0.047969   0.357811
     6  C    0.000002  -0.000000   0.000230  -0.000006   0.000967  -0.020380
     7  C    0.000000  -0.000000  -0.000006   0.000053  -0.000371  -0.005640
     8  N    0.000000  -0.000000   0.000000   0.000000   0.000000  -0.000051
     9  N    0.002957   0.002087  -0.006600   0.015197  -0.000163  -0.000003
    10  C    0.000855   0.000121   0.006594   0.003361  -0.000020  -0.000010
    11  N   -0.000007  -0.000001   0.001691  -0.000118  -0.000001  -0.000001
    12  H   -0.039553  -0.024096  -0.000027   0.000111   0.001021  -0.000012
    13  H    0.657127  -0.044087  -0.000422   0.017051   0.000259  -0.000001
    14  H   -0.044087   0.570969  -0.000139  -0.000472  -0.000235   0.000001
    15  H   -0.000422  -0.000139   0.579356  -0.057582   0.006746   0.005813
    16  H    0.017051  -0.000472  -0.057582   0.742699  -0.007807  -0.001919
    17  H    0.000259  -0.000235   0.006746  -0.007807   0.543895   0.006903
    18  H   -0.000001   0.000001   0.005813  -0.001919   0.006903   0.617837
    19  H    0.000062  -0.000001  -0.001797   0.014876  -0.007926  -0.052583
    20  H    0.000001   0.000000   0.000006  -0.000012   0.006243   0.005827
    21  H   -0.000000  -0.000000  -0.000015   0.000033  -0.000691  -0.006291
    22  H    0.000000  -0.000000  -0.000005   0.000001   0.000014   0.005380
    23  H   -0.000000   0.000000   0.000001  -0.000003   0.000004  -0.000669
    24  H   -0.000000   0.000000   0.000000  -0.000000   0.000002   0.000002
    25  H    0.000000   0.000000   0.000000   0.000000  -0.000000  -0.000002
    26  H    0.007630   0.001763  -0.000109   0.001415   0.000005   0.000000
              19         20         21         22         23         24
     1  C   -0.000119  -0.000016  -0.000002  -0.000000  -0.000000   0.000000
     2  N   -0.000131   0.000009   0.000001   0.000000  -0.000000   0.000000
     3  C   -0.002729   0.000164   0.000262   0.000027   0.000002  -0.000000
     4  N   -0.045637  -0.002430   0.004406   0.000100   0.000007  -0.000001
     5  C    0.359174  -0.031299  -0.028746   0.003251  -0.006203  -0.000303
     6  C   -0.042385   0.360408   0.364962  -0.048525  -0.019895  -0.003142
     7  C    0.001246  -0.028980  -0.034381   0.379564   0.356495  -0.053714
     8  N    0.000053   0.003889  -0.002075  -0.047704  -0.021795   0.341426
     9  N    0.000033   0.000000   0.000000   0.000000   0.000000  -0.000000
    10  C    0.000006   0.000000   0.000000   0.000000  -0.000000  -0.000000
    11  N    0.000000   0.000000   0.000000   0.000000   0.000000   0.000000
    12  H    0.000116  -0.000018   0.000011  -0.000000   0.000000  -0.000000
    13  H    0.000062   0.000001  -0.000000   0.000000  -0.000000  -0.000000
    14  H   -0.000001   0.000000  -0.000000  -0.000000   0.000000   0.000000
    15  H   -0.001797   0.000006  -0.000015  -0.000005   0.000001   0.000000
    16  H    0.014876  -0.000012   0.000033   0.000001  -0.000003  -0.000000
    17  H   -0.007926   0.006243  -0.000691   0.000014   0.000004   0.000002
    18  H   -0.052583   0.005827  -0.006291   0.005380  -0.000669   0.000002
    19  H    0.691020  -0.006508   0.006743  -0.000517   0.005092   0.000013
    20  H   -0.006508   0.634163  -0.041926   0.006841  -0.006504  -0.000540
    21  H    0.006743  -0.041926   0.627093  -0.006787   0.005962   0.005664
    22  H   -0.000517   0.006841  -0.006787   0.689534  -0.051790  -0.005871
    23  H    0.005092  -0.006504   0.005962  -0.051790   0.632749   0.006820
    24  H    0.000013  -0.000540   0.005664  -0.005871   0.006820   0.518920
    25  H    0.000012  -0.000140   0.000019  -0.004649  -0.002148  -0.031255
    26  H   -0.000000   0.000000  -0.000000  -0.000000  -0.000000   0.000000
              25         26
     1  C   -0.000000  -0.005346
     2  N    0.000000  -0.036897
     3  C   -0.000000   0.003972
     4  N    0.000001  -0.000122
     5  C   -0.000331   0.000007
     6  C    0.005234  -0.000000
     7  C   -0.044754   0.000000
     8  N    0.337932  -0.000000
     9  N   -0.000000   0.352787
    10  C   -0.000000  -0.035994
    11  N    0.000000   0.000683
    12  H    0.000000  -0.000443
    13  H    0.000000   0.007630
    14  H    0.000000   0.001763
    15  H    0.000000  -0.000109
    16  H    0.000000   0.001415
    17  H   -0.000000   0.000005
    18  H   -0.000002   0.000000
    19  H    0.000012  -0.000000
    20  H   -0.000140   0.000000
    21  H    0.000019  -0.000000
    22  H   -0.004649  -0.000000
    23  H   -0.002148  -0.000000
    24  H   -0.031255   0.000000
    25  H    0.517565   0.000000
    26  H    0.000000   0.434405
 Mulliken charges:
               1
     1  C   -0.355060
     2  N   -0.081028
     3  C   -0.055329
     4  N   -0.320822
     5  C   -0.118147
     6  C   -0.182354
     7  C   -0.135509
     8  N   -0.513510
     9  N   -0.386199
    10  C    0.381285
    11  N   -0.353199
    12  H    0.155737
    13  H    0.106772
    14  H    0.137593
    15  H    0.136904
    16  H    0.064671
    17  H    0.213397
    18  H    0.112578
    19  H    0.081888
    20  H    0.100821
    21  H    0.105761
    22  H    0.081135
    23  H    0.101876
    24  H    0.221980
    25  H    0.222516
    26  H    0.276243
 Sum of Mulliken charges =  -0.00000
 Mulliken charges with hydrogens summed into heavy atoms:
               1
     1  C    0.045043
     2  N   -0.081028
     3  C    0.146246
     4  N   -0.107425
     5  C    0.076319
     6  C    0.024228
     7  C    0.047502
     8  N   -0.069015
     9  N   -0.109956
    10  C    0.381285
    11  N   -0.353199
 Electronic spatial extent (au):  <R**2>=           3472.0195
 Charge=             -0.0000 electrons
 Dipole moment (field-independent basis, Debye):
    X=              2.0412    Y=              3.6978    Z=              1.9039  Tot=              4.6331
 Quadrupole moment (field-independent basis, Debye-Ang):
   XX=            -72.1649   YY=            -71.1624   ZZ=            -68.8698
   XY=            -24.8768   XZ=             -7.1208   YZ=              0.4702
 Traceless Quadrupole moment (field-independent basis, Debye-Ang):
   XX=             -1.4325   YY=             -0.4300   ZZ=              1.8626
   XY=            -24.8768   XZ=             -7.1208   YZ=              0.4702
 Octapole moment (field-independent basis, Debye-Ang**2):
  XXX=             43.7331  YYY=             36.8257  ZZZ=             -0.5581  XYY=             27.4551
  XXY=             32.1703  XXZ=              9.1359  XZZ=             10.9624  YZZ=              0.8673
  YYZ=              0.9579  XYZ=              1.6287
 Hexadecapole moment (field-independent basis, Debye-Ang**3):
 XXXX=          -3786.5459 YYYY=           -611.3462 ZZZZ=           -134.3790 XXXY=           -541.7240
 XXXZ=           -139.8974 YYYX=           -124.2564 YYYZ=            -10.4233 ZZZX=            -17.2313
 ZZZY=              2.3994 XXYY=           -864.8517 XXZZ=           -625.3251 YYZZ=           -121.1811
 XXYZ=             -8.1946 YYXZ=            -11.2527 ZZXY=             -9.3545
 N-N= 6.019812067336D+02 E-N=-2.392627794768D+03  KE= 5.075016006993D+02
 PrsmSu:  requested number of processors reduced to:  13 ShMem   1 Linda.
 Calling FoFJK, ICntrl=      2127 FMM=F ISym2X=0 I1Cent= 0 IOpClX= 0 NMat=1 NMatS=1 NMatT=0.
 ***** Axes restored to original set *****
 -------------------------------------------------------------------
 Center     Atomic                   Forces (Hartrees/Bohr)
 Number     Number              X              Y              Z
 -------------------------------------------------------------------
      1        6           0.006437811    0.008112638   -0.002026196
      2        7          -0.010644374   -0.012394785    0.025636082
      3        6          -0.003980207    0.002805936    0.003780074
      4        7           0.008122271    0.009912702   -0.002065683
      5        6          -0.009105165    0.003736513    0.009806888
      6        6           0.004912953   -0.003148701   -0.005864101
      7        6          -0.000070424   -0.001410698    0.009135067
      8        7          -0.006678039   -0.008569321    0.005475919
      9        7           0.004570301    0.006871384   -0.013732598
     10        6          -0.029786035    0.000628274   -0.000972845
     11        7           0.008547421    0.001352938    0.000985052
     12        1           0.007569931    0.000975307   -0.000985950
     13        1          -0.004166092   -0.001618255   -0.005202361
     14        1           0.003739684    0.001728651   -0.001536988
     15        1          -0.001649294    0.002602591   -0.000775336
     16        1          -0.000772813   -0.001801452   -0.011046283
     17        1           0.001180940   -0.001614393   -0.000572000
     18        1           0.000233396    0.002025295   -0.001253681
     19        1           0.002987748   -0.005698644   -0.004968568
     20        1           0.001010910   -0.001500125    0.000593044
     21        1          -0.000248091    0.000537780   -0.001265070
     22        1           0.005518246    0.005102867   -0.007045790
     23        1          -0.000402894   -0.001093325   -0.000086850
     24        1          -0.000446043   -0.001871850   -0.003009575
     25        1          -0.001402291    0.002002037    0.001922027
     26        1           0.014520152   -0.007673363    0.005075720
 -------------------------------------------------------------------
 Cartesian Forces:  Max     0.029786035 RMS     0.006912209

 GradGradGradGradGradGradGradGradGradGradGradGradGradGradGradGradGradGrad
 Berny optimization.
 FormGI is forming the generalized inverse of G from B-inverse, IUseBI=4.
 Internal  Forces:  Max     0.020670147 RMS     0.004855007
 Search for a local minimum.
 Step number   1 out of a maximum of  131
 All quantities printed in internal units (Hartrees-Bohrs-Radians)
 Mixed Optimization -- RFO/linear search
 Second derivative matrix not updated -- first step.
 ITU=  0
     Eigenvalues ---    0.00438   0.00451   0.00654   0.00729   0.00916
     Eigenvalues ---    0.00950   0.00954   0.01046   0.01099   0.03179
     Eigenvalues ---    0.03235   0.03869   0.04513   0.04591   0.04594
     Eigenvalues ---    0.04863   0.04863   0.04965   0.05169   0.05555
     Eigenvalues ---    0.05612   0.06637   0.07042   0.07193   0.07907
     Eigenvalues ---    0.08948   0.09112   0.09834   0.10550   0.11870
     Eigenvalues ---    0.12516   0.12606   0.13189   0.16000   0.16000
     Eigenvalues ---    0.16000   0.16000   0.16000   0.16000   0.16675
     Eigenvalues ---    0.18294   0.21865   0.21927   0.21941   0.22011
     Eigenvalues ---    0.22016   0.23520   0.29906   0.30001   0.33859
     Eigenvalues ---    0.33927   0.33989   0.34003   0.34043   0.34087
     Eigenvalues ---    0.34162   0.34187   0.34192   0.34242   0.34319
     Eigenvalues ---    0.34746   0.35412   0.37136   0.37462   0.37499
     Eigenvalues ---    0.42642   0.43493   0.44327   0.44557   0.45131
     Eigenvalues ---    0.56678   1.27607
 RFO step:  Lambda=-1.49666214D-02 EMin= 4.37540034D-03
 Linear search not attempted -- first point.
 Iteration  1 RMS(Cart)=  0.11679797 RMS(Int)=  0.00399978
 Iteration  2 RMS(Cart)=  0.00746165 RMS(Int)=  0.00049462
 Iteration  3 RMS(Cart)=  0.00002133 RMS(Int)=  0.00049449
 Iteration  4 RMS(Cart)=  0.00000001 RMS(Int)=  0.00049449
 Variable       Old X    -DE/DX   Delta X   Delta X   Delta X     New X
                                 (Linear)    (Quad)   (Total)
    R1        2.78312  -0.01334   0.00000  -0.03615  -0.03615   2.74697
    R2        2.06924  -0.00419   0.00000  -0.01173  -0.01173   2.05750
    R3        2.07184   0.00659   0.00000   0.01851   0.01851   2.09035
    R4        2.06795   0.00023   0.00000   0.00065   0.00065   2.06861
    R5        2.79389  -0.00153   0.00000  -0.00421  -0.00421   2.78968
    R6        2.68114   0.00635   0.00000   0.01438   0.01438   2.69552
    R7        2.75101  -0.00025   0.00000  -0.00063  -0.00063   2.75038
    R8        2.07258  -0.00168   0.00000  -0.00473  -0.00473   2.06785
    R9        2.07348   0.01055   0.00000   0.02974   0.02974   2.10322
   R10        2.75641   0.00769   0.00000   0.01992   0.01992   2.77633
   R11        1.91824  -0.00116   0.00000  -0.00248  -0.00248   1.91576
   R12        2.88150   0.00475   0.00000   0.01512   0.01512   2.89663
   R13        2.07008   0.00021   0.00000   0.00060   0.00060   2.07068
   R14        2.07326   0.00546   0.00000   0.01537   0.01537   2.08863
   R15        2.87961   0.00368   0.00000   0.01169   0.01169   2.89130
   R16        2.07568  -0.00102   0.00000  -0.00289  -0.00289   2.07279
   R17        2.07454  -0.00098   0.00000  -0.00276  -0.00276   2.07178
   R18        2.75155   0.01099   0.00000   0.02821   0.02821   2.77976
   R19        2.07057   0.00548   0.00000   0.01537   0.01537   2.08594
   R20        2.07016   0.00062   0.00000   0.00173   0.00173   2.07189
   R21        1.92765  -0.00343   0.00000  -0.00749  -0.00749   1.92016
   R22        1.92494  -0.00254   0.00000  -0.00552  -0.00552   1.91942
   R23        2.53670  -0.02067   0.00000  -0.03553  -0.03553   2.50117
   R24        1.93765  -0.01630   0.00000  -0.03624  -0.03624   1.90142
   R25        2.19262   0.00836   0.00000   0.00648   0.00648   2.19910
    A1        1.95809  -0.00889   0.00000  -0.05219  -0.05252   1.90557
    A2        1.93990   0.00553   0.00000   0.03555   0.03588   1.97578
    A3        1.93930  -0.00519   0.00000  -0.03221  -0.03265   1.90665
    A4        1.88792   0.00280   0.00000   0.02062   0.02103   1.90895
    A5        1.83578   0.00564   0.00000   0.02468   0.02347   1.85926
    A6        1.89882   0.00042   0.00000   0.00499   0.00521   1.90403
    A7        1.92415   0.01370   0.00000   0.05676   0.05524   1.97939
    A8        1.92180  -0.00865   0.00000  -0.05816  -0.05735   1.86444
    A9        1.93292  -0.00625   0.00000  -0.04512  -0.04420   1.88872
   A10        1.94532   0.00225   0.00000   0.01261   0.01179   1.95711
   A11        1.90094  -0.00456   0.00000  -0.04921  -0.04935   1.85159
   A12        1.91299  -0.00027   0.00000   0.01323   0.01205   1.92503
   A13        1.87898  -0.00041   0.00000  -0.01329  -0.01337   1.86561
   A14        1.93743   0.00327   0.00000   0.04504   0.04433   1.98176
   A15        1.88662  -0.00053   0.00000  -0.01166  -0.01156   1.87505
   A16        1.91736   0.00911   0.00000   0.03865   0.03854   1.95590
   A17        1.91398  -0.00228   0.00000  -0.00325  -0.00342   1.91056
   A18        1.88241  -0.00248   0.00000  -0.00403  -0.00420   1.87821
   A19        1.91044   0.00623   0.00000   0.03303   0.03253   1.94297
   A20        1.91670  -0.00485   0.00000  -0.03741  -0.03707   1.87963
   A21        1.91998   0.00225   0.00000   0.03794   0.03749   1.95747
   A22        1.91525   0.00004   0.00000  -0.00417  -0.00393   1.91133
   A23        1.90950  -0.00294   0.00000  -0.00495  -0.00617   1.90333
   A24        1.89186  -0.00081   0.00000  -0.02498  -0.02475   1.86712
   A25        1.91727   0.01104   0.00000   0.05115   0.05113   1.96841
   A26        1.92036  -0.00199   0.00000  -0.00185  -0.00171   1.91864
   A27        1.91573  -0.00425   0.00000  -0.01842  -0.01857   1.89716
   A28        1.91705  -0.00461   0.00000  -0.02256  -0.02280   1.89425
   A29        1.92166  -0.00230   0.00000  -0.00509  -0.00509   1.91657
   A30        1.87131   0.00179   0.00000  -0.00496  -0.00520   1.86610
   A31        1.92085   0.00226   0.00000   0.01451   0.01412   1.93497
   A32        1.92168  -0.00491   0.00000  -0.02507  -0.02634   1.89534
   A33        1.91938   0.00017   0.00000  -0.01366  -0.01393   1.90545
   A34        1.91538   0.00632   0.00000   0.06936   0.06954   1.98492
   A35        1.90545  -0.00326   0.00000  -0.02810  -0.02780   1.87766
   A36        1.88061  -0.00061   0.00000  -0.01751  -0.01767   1.86294
   A37        1.90962  -0.00039   0.00000  -0.00277  -0.00277   1.90685
   A38        1.91046   0.00274   0.00000   0.01513   0.01514   1.92560
   A39        1.85571  -0.00126   0.00000  -0.00832  -0.00831   1.84740
   A40        2.09783   0.00199   0.00000   0.00677   0.00587   2.10370
   A41        2.04085   0.00379   0.00000   0.02057   0.01966   2.06052
   A42        2.13944  -0.00595   0.00000  -0.03510  -0.03602   2.10341
   A43        3.14234  -0.00106   0.00000  -0.01672  -0.01672   3.12562
   A44        3.06956   0.00494   0.00000   0.07762   0.07762   3.14718
    D1        1.07228   0.00389   0.00000   0.06494   0.06470   1.13698
    D2       -3.07303  -0.00061   0.00000   0.00714   0.00605  -3.06699
    D3       -1.04406   0.00257   0.00000   0.04964   0.05014  -0.99392
    D4        1.09381  -0.00192   0.00000  -0.00817  -0.00852   1.08529
    D5        3.12187   0.00181   0.00000   0.04100   0.04201  -3.11930
    D6       -1.02345  -0.00268   0.00000  -0.01681  -0.01664  -1.04009
    D7       -1.06017  -0.00620   0.00000  -0.10683  -0.10720  -1.16737
    D8       -3.13075  -0.00416   0.00000  -0.06682  -0.06723   3.08521
    D9        1.09167  -0.00069   0.00000  -0.03152  -0.03186   1.05981
   D10        3.09170  -0.00036   0.00000  -0.04149  -0.04111   3.05059
   D11        1.02113   0.00167   0.00000  -0.00148  -0.00115   1.01998
   D12       -1.03964   0.00514   0.00000   0.03383   0.03423  -1.00542
   D13        3.05745  -0.00788   0.00000  -0.16814  -0.16929   2.88816
   D14        0.02109  -0.00576   0.00000  -0.08557  -0.08687  -0.06579
   D15       -1.09304  -0.00064   0.00000  -0.16621  -0.16490  -1.25794
   D16        2.15378   0.00148   0.00000  -0.08364  -0.08249   2.07129
   D17        3.13901   0.00445   0.00000   0.09758   0.09799  -3.04618
   D18        1.07302   0.00338   0.00000   0.08124   0.08158   1.15460
   D19       -1.06051  -0.00007   0.00000   0.03636   0.03647  -1.02404
   D20       -3.12650  -0.00114   0.00000   0.02001   0.02006  -3.10645
   D21        1.00116   0.00089   0.00000   0.03968   0.03926   1.04042
   D22       -1.06484  -0.00019   0.00000   0.02334   0.02285  -1.04199
   D23       -3.11115  -0.00050   0.00000  -0.01279  -0.01340  -3.12456
   D24        1.06833  -0.00143   0.00000  -0.00506  -0.00511   1.06322
   D25       -1.01250   0.00119   0.00000   0.02541   0.02599  -0.98651
   D26       -1.02576   0.00050   0.00000   0.00307   0.00251  -1.02325
   D27       -3.12946  -0.00043   0.00000   0.01080   0.01080  -3.11865
   D28        1.07289   0.00218   0.00000   0.04127   0.04191   1.11479
   D29       -3.13497   0.00181   0.00000   0.02644   0.02658  -3.10839
   D30        1.03564   0.00172   0.00000   0.02278   0.02270   1.05834
   D31       -1.01965   0.00328   0.00000   0.04101   0.04093  -0.97872
   D32       -1.03039  -0.00024   0.00000  -0.00155  -0.00144  -1.03183
   D33        3.14022  -0.00033   0.00000  -0.00521  -0.00532   3.13490
   D34        1.08493   0.00123   0.00000   0.01302   0.01291   1.09784
   D35        1.04318  -0.00298   0.00000  -0.03750  -0.03731   1.00586
   D36       -1.06940  -0.00307   0.00000  -0.04116  -0.04119  -1.11059
   D37       -3.12469  -0.00151   0.00000  -0.02293  -0.02296   3.13554
   D38       -3.13634   0.00247   0.00000   0.03567   0.03564  -3.10069
   D39        1.03320  -0.00369   0.00000  -0.04393  -0.04341   0.98979
   D40       -1.03649  -0.00003   0.00000   0.00137   0.00133  -1.03516
   D41       -1.02178   0.00412   0.00000   0.05166   0.05134  -0.97044
   D42       -3.13542  -0.00205   0.00000  -0.02794  -0.02771   3.12005
   D43        1.07807   0.00161   0.00000   0.01736   0.01703   1.09510
   D44        1.03508   0.00213   0.00000   0.02890   0.02871   1.06379
   D45       -1.07856  -0.00404   0.00000  -0.05070  -0.05034  -1.12891
   D46        3.13493  -0.00038   0.00000  -0.00540  -0.00560   3.12933
   D47       -1.07170  -0.00021   0.00000  -0.02408  -0.02461  -1.09631
   D48       -3.09877  -0.00003   0.00000  -0.02107  -0.02159  -3.12036
   D49        1.04571  -0.00078   0.00000  -0.00114  -0.00043   1.04528
   D50       -0.98136  -0.00060   0.00000   0.00187   0.00259  -0.97877
   D51        3.10325   0.00025   0.00000   0.00151   0.00131   3.10456
   D52        1.07618   0.00043   0.00000   0.00452   0.00433   1.08051
         Item               Value     Threshold  Converged?
 Maximum Force            0.020670     0.000450     NO 
 RMS     Force            0.004855     0.000300     NO 
 Maximum Displacement     0.422727     0.001800     NO 
 RMS     Displacement     0.115348     0.001200     NO 
 Predicted change in Energy=-8.961059D-03
 GradGradGradGradGradGradGradGradGradGradGradGradGradGradGradGradGradGrad

                          Input orientation:                          
 ---------------------------------------------------------------------
 Center     Atomic      Atomic             Coordinates (Angstroms)
 Number     Number       Type             X           Y           Z
 ---------------------------------------------------------------------
      1          6           0        1.095529    0.178138    0.018728
      2          7           0        2.533242   -0.035697    0.036016
      3          6           0        2.918734   -1.447015   -0.161084
      4          7           0        2.509450   -2.288132    0.953951
      5          6           0        3.004738   -3.664583    0.817832
      6          6           0        2.544097   -4.540996    1.987993
      7          6           0        3.080296   -5.971492    1.903735
      8          7           0        2.568703   -6.789053    3.014441
      9          7           0        3.077375    0.729314   -1.037911
     10          6           0        4.378090    0.965076   -1.104038
     11          7           0        5.524795    1.158105   -1.149135
     12          1           0        0.648092   -0.329444    0.871731
     13          1           0        0.613603   -0.174602   -0.912357
     14          1           0        0.887926    1.245212    0.147318
     15          1           0        4.012610   -1.461959   -0.185855
     16          1           0        2.557842   -1.811468   -1.148834
     17          1           0        1.497230   -2.328773    0.992746
     18          1           0        4.099600   -3.624300    0.799610
     19          1           0        2.683121   -4.131356   -0.130996
     20          1           0        1.448315   -4.580541    2.016792
     21          1           0        2.871347   -4.076125    2.925416
     22          1           0        4.182214   -5.931888    1.852192
     23          1           0        2.736758   -6.430369    0.969125
     24          1           0        2.902317   -6.405452    3.894228
     25          1           0        2.945295   -7.730911    2.961942
     26          1           0        2.438269    1.217312   -1.642737
 ---------------------------------------------------------------------
                    Distance matrix (angstroms):
                    1          2          3          4          5
     1  C    0.000000
     2  N    1.453632   0.000000
     3  C    2.448986   1.476236   0.000000
     4  N    2.992709   2.432414   1.455437   0.000000
     5  C    4.364648   3.741973   2.425548   1.469169   0.000000
     6  C    5.314751   4.909995   3.785710   2.479080   1.532830
     7  C    6.731308   6.246704   4.975990   3.846439   2.550828
     8  N    7.725690   7.381063   6.224456   4.950496   3.844155
     9  N    2.312574   1.426409   2.351680   3.659923   4.770261
    10  C    3.557399   2.388459   2.972720   4.279078   5.197444
    11  N    4.684298   3.432075   3.815030   5.039031   5.786015
    12  H    1.088785   2.082906   2.733402   2.703308   4.084096
    13  H    1.106163   2.145629   2.738079   3.397698   4.570673
    14  H    1.094661   2.088105   3.386352   3.970456   5.388560
    15  H    3.352780   2.066877   1.094258   2.059420   2.621973
    16  H    2.731317   2.134909   1.112978   2.156677   2.738892
    17  H    2.719316   2.691998   2.032116   1.013778   2.021773
    18  H    4.908438   3.989314   2.656680   2.082725   1.095754
    19  H    4.595064   4.101803   2.694830   2.145868   1.105255
    20  H    5.173176   5.075052   4.089531   2.740580   2.167704
    21  H    5.449874   4.978756   4.054744   2.685994   2.151528
    22  H    7.086722   6.386131   5.075800   4.108762   2.756269
    23  H    6.875264   6.465597   5.113150   4.148497   2.782854
    24  H    7.850328   7.456259   6.405617   5.074633   4.121537
    25  H    8.639282   8.243006   7.017218   5.817716   4.597365
    26  H    2.375563   2.096965   3.086224   4.363026   5.496197
                    6          7          8          9         10
     6  C    0.000000
     7  C    1.530009   0.000000
     8  N    2.471429   1.470987   0.000000
     9  N    6.100545   7.318066   8.556059   0.000000
    10  C    6.575790   7.671177   8.964501   1.323562   0.000000
    11  N    7.155829   8.131836   9.446225   2.487187   1.163712
    12  H    4.751636   6.230036   7.071527   3.266361   4.415012
    13  H    5.586075   6.900643   7.936820   2.627357   3.937890
    14  H    6.293743   7.744179   8.694528   2.542559   3.718281
    15  H    4.045072   5.056825   6.380023   2.530285   2.620522
    16  H    4.158148   5.186226   6.489170   2.595725   3.320317
    17  H    2.642040   4.074972   5.012923   3.996539   4.852350
    18  H    2.161522   2.787003   4.155091   4.834809   4.976325
    19  H    2.162695   2.771999   4.119493   4.960246   5.458329
    20  H    1.096874   2.147298   2.669849   6.338739   7.005501
    21  H    1.096339   2.163310   2.731208   6.232388   6.627254
    22  H    2.153241   1.103834   2.165404   7.344724   7.506382
    23  H    2.155212   1.096395   2.083318   7.443472   7.853954
    24  H    2.690400   2.045009   1.016107   8.675341   9.026919
    25  H    3.359329   2.057567   1.015713   9.359042   9.705941
    26  H    6.808194   8.041677   9.263271   1.006187   2.028971
                   11         12         13         14         15
    11  N    0.000000
    12  H    5.484427   0.000000
    13  H    5.094309   1.791126   0.000000
    14  H    4.815489   1.749811   1.792774   0.000000
    15  H    3.174800   3.704194   3.706527   4.147702   0.000000
    16  H    4.197759   3.150590   2.552511   3.716439   1.779280
    17  H    5.741712   2.175545   3.008433   3.722818   2.909915
    18  H    5.357256   4.772231   5.194557   5.869624   2.377904
    19  H    6.090166   4.427340   4.533137   5.675181   2.982655
    20  H    7.718346   4.474746   5.356208   6.143971   4.599219
    21  H    7.144223   4.816441   5.920118   6.322058   4.220942
    22  H    7.815273   6.696170   7.316013   8.078966   4.915553
    23  H    8.357339   6.449286   6.868943   7.937764   5.258029
    24  H    9.461517   7.150867   8.195424   8.753844   6.505225
    25  H   10.127654   8.026695   8.805951   9.629416   7.095600
    26  H    3.126306   3.452497   2.408378   2.368256   3.432135
                   16         17         18         19         20
    16  H    0.000000
    17  H    2.445172   0.000000
    18  H    3.075681   2.913421   0.000000
    19  H    2.536449   2.432785   1.769052   0.000000
    20  H    4.349714   2.474171   3.070056   2.517839   0.000000
    21  H    4.671881   2.945615   2.496358   3.062701   1.762116
    22  H    5.350009   4.574956   2.537659   3.069564   3.054085
    23  H    5.084487   4.284866   3.124115   2.549236   2.485871
    24  H    6.830508   5.197325   4.329545   4.628390   2.994860
    25  H    7.217230   5.929394   4.782505   4.753083   3.613736
    26  H    3.071114   4.517305   5.671533   5.563593   6.927284
                   21         22         23         24         25
    21  H    0.000000
    22  H    2.512775   0.000000
    23  H    3.063928   1.765682   0.000000
    24  H    2.522959   2.456077   2.929891   0.000000
    25  H    3.655716   2.449081   2.388769   1.621063   0.000000
    26  H    7.005430   8.146590   8.086899   9.432914  10.076251
                   26
    26  H    0.000000
 Stoichiometry    C6H15N5
 Framework group  C1[X(C6H15N5)]
 Deg. of freedom    72
 Full point group                 C1      NOp   1
 Largest Abelian subgroup         C1      NOp   1
 Largest concise Abelian subgroup C1      NOp   1
                         Standard orientation:                         
 ---------------------------------------------------------------------
 Center     Atomic      Atomic             Coordinates (Angstroms)
 Number     Number       Type             X           Y           Z
 ---------------------------------------------------------------------
      1          6           0       -2.134891    2.111445   -0.081019
      2          7           0       -2.071782    0.677037   -0.308034
      3          6           0       -0.923338    0.028254    0.354860
      4          7           0        0.347952    0.446153   -0.217397
      5          6           0        1.480642   -0.294488    0.354373
      6          6           0        2.812084    0.175464   -0.242262
      7          6           0        4.011630   -0.606694    0.296482
      8          7           0        5.269606   -0.085738   -0.260206
      9          7           0       -3.269891    0.120740    0.230215
     10          6           0       -3.633701   -1.114794   -0.074605
     11          7           0       -3.935473   -2.204647   -0.349159
     12          1           0       -1.271783    2.585459   -0.545571
     13          1           0       -2.169356    2.381938    0.991009
     14          1           0       -3.019900    2.517297   -0.581343
     15          1           0       -1.024384   -1.043145    0.156630
     16          1           0       -0.982957    0.170484    1.457101
     17          1           0        0.497216    1.430495   -0.026250
     18          1           0        1.332632   -1.356320    0.127917
     19          1           0        1.525924   -0.202453    1.454859
     20          1           0        2.964034    1.239885   -0.025348
     21          1           0        2.763109    0.075929   -1.332975
     22          1           0        3.849335   -1.680444    0.098565
     23          1           0        4.057963   -0.489845    1.385648
     24          1           0        5.268509   -0.214062   -1.268177
     25          1           0        6.058437   -0.623214    0.086981
     26          1           0       -3.906228    0.738054    0.706041
 ---------------------------------------------------------------------
 Rotational constants (GHZ):           2.4939140           0.3310879           0.2999356
 Standard basis: 6-31G(2df,p) (6D, 7F)
 There are   416 symmetry adapted cartesian basis functions of A   symmetry.
 There are   383 symmetry adapted basis functions of A   symmetry.
   383 basis functions,   589 primitive gaussians,   416 cartesian basis functions
    43 alpha electrons       43 beta electrons
       nuclear repulsion energy       598.8172450523 Hartrees.
 NAtoms=   26 NActive=   26 NUniq=   26 SFac= 1.00D+00 NAtFMM=   60 NAOKFM=F Big=F
 Integral buffers will be    131072 words long.
 Raffenetti 2 integral format.
 Two-electron integral symmetry is turned on.
 One-electron integrals computed using PRISM.
 PrsmSu:  requested number of processors reduced to:  13 ShMem   1 Linda.
 NBasis=   383 RedAO= T EigKep=  1.26D-04  NBF=   383
 NBsUse=   383 1.00D-06 EigRej= -1.00D+00 NBFU=   383
 Initial guess from the checkpoint file:  "CNpCNCCCNpNCtN.chk"
 B after Tr=     0.000000    0.000000    0.000000
         Rot=    0.999968    0.005422   -0.000261   -0.005833 Ang=   0.91 deg.
 ExpMin= 1.61D-01 ExpMax= 4.17D+03 ExpMxC= 6.27D+02 IAcc=2 IRadAn=         4 AccDes= 0.00D+00
 Harris functional with IExCor=  402 and IRadAn=       4 diagonalized for initial guess.
 HarFok:  IExCor=  402 AccDes= 0.00D+00 IRadAn=         4 IDoV= 1 UseB2=F ITyADJ=14
 ICtDFT=  3500011 ScaDFX=  1.000000  1.000000  1.000000  1.000000
 FoFCou: FMM=F IPFlag=           0 FMFlag=      100000 FMFlg1=           0
         NFxFlg=           0 DoJE=T BraDBF=F KetDBF=T FulRan=T
         wScrn=  0.000000 ICntrl=       500 IOpCl=  0 I1Cent=   200000004 NGrid=           0
         NMat0=    1 NMatS0=      1 NMatT0=    0 NMatD0=    1 NMtDS0=    0 NMtDT0=    0
 Petite list used in FoFCou.
 Requested convergence on RMS density matrix=1.00D-08 within 128 cycles.
 Requested convergence on MAX density matrix=1.00D-06.
 Requested convergence on             energy=1.00D-06.
 No special actions if energy rises.
 Integral accuracy reduced to 1.0D-05 until final iterations.
 Initial convergence to 1.0D-05 achieved.  Increase integral accuracy.
 SCF Done:  E(RB3LYP) =  -511.366112743     A.U. after   13 cycles
            NFock= 13  Conv=0.59D-08     -V/T= 2.0076
 PrsmSu:  requested number of processors reduced to:  13 ShMem   1 Linda.
 Calling FoFJK, ICntrl=      2127 FMM=F ISym2X=0 I1Cent= 0 IOpClX= 0 NMat=1 NMatS=1 NMatT=0.
 ***** Axes restored to original set *****
 -------------------------------------------------------------------
 Center     Atomic                   Forces (Hartrees/Bohr)
 Number     Number              X              Y              Z
 -------------------------------------------------------------------
      1        6          -0.000478035    0.002401009    0.003477738
      2        7          -0.002846267   -0.003976245    0.005662372
      3        6           0.000683386   -0.004116961    0.001316712
      4        7          -0.000014420    0.002221714   -0.002757858
      5        6          -0.001276346    0.000819460    0.002788878
      6        6          -0.000190774    0.001032130   -0.001145111
      7        6          -0.000117300   -0.001041741    0.001455229
      8        7          -0.000477575    0.003076791   -0.001374244
      9        7           0.005325083   -0.000129888   -0.005409113
     10        6          -0.001247624    0.004823306    0.004647318
     11        7           0.000758867   -0.001033539   -0.001727639
     12        1          -0.000454220   -0.002038584    0.000577050
     13        1          -0.000077293   -0.000294193   -0.000090722
     14        1           0.000562052   -0.000156099   -0.000837129
     15        1           0.000502336   -0.000244531   -0.001882446
     16        1          -0.001160582    0.000755358   -0.000281762
     17        1          -0.002018028   -0.000365020    0.000151229
     18        1           0.000958002    0.000049256   -0.000699483
     19        1           0.001067624   -0.000130849   -0.000876114
     20        1          -0.000425086    0.000056593    0.000514016
     21        1          -0.000205555    0.000512454    0.000439334
     22        1           0.000437392   -0.000471159   -0.000362504
     23        1           0.000374026   -0.000596103   -0.000531699
     24        1           0.000316183   -0.000036047    0.000449031
     25        1           0.000227624    0.000467894   -0.000999223
     26        1          -0.000223469   -0.001585007   -0.002503858
 -------------------------------------------------------------------
 Cartesian Forces:  Max     0.005662372 RMS     0.001873052

 GradGradGradGradGradGradGradGradGradGradGradGradGradGradGradGradGradGrad
 Berny optimization.
 Using GEDIIS/GDIIS optimizer.
 FormGI is forming the generalized inverse of G from B-inverse, IUseBI=4.
 Internal  Forces:  Max     0.006629042 RMS     0.001549472
 Search for a local minimum.
 Step number   2 out of a maximum of  131
 All quantities printed in internal units (Hartrees-Bohrs-Radians)
 Mixed Optimization -- RFO/linear search
 Update second derivatives using D2CorX and points    1    2
 DE= -7.73D-03 DEPred=-8.96D-03 R= 8.62D-01
 TightC=F SS=  1.41D+00  RLast= 4.38D-01 DXNew= 5.0454D-01 1.3138D+00
 Trust test= 8.62D-01 RLast= 4.38D-01 DXMaxT set to 5.05D-01
 ITU=  1  0
 Use linear search instead of GDIIS.
     Eigenvalues ---    0.00438   0.00451   0.00661   0.00735   0.00916
     Eigenvalues ---    0.00930   0.00950   0.00982   0.01205   0.03044
     Eigenvalues ---    0.03472   0.03597   0.04329   0.04368   0.04545
     Eigenvalues ---    0.04845   0.04874   0.04901   0.05403   0.05613
     Eigenvalues ---    0.05757   0.06713   0.06982   0.07646   0.08382
     Eigenvalues ---    0.09182   0.09246   0.09880   0.10895   0.12208
     Eigenvalues ---    0.12665   0.12738   0.13315   0.15511   0.16000
     Eigenvalues ---    0.16000   0.16000   0.16000   0.16060   0.16756
     Eigenvalues ---    0.18310   0.21508   0.21909   0.21940   0.22044
     Eigenvalues ---    0.23099   0.24373   0.29969   0.30237   0.33569
     Eigenvalues ---    0.33864   0.33934   0.34000   0.34050   0.34066
     Eigenvalues ---    0.34144   0.34187   0.34197   0.34311   0.34349
     Eigenvalues ---    0.34734   0.35333   0.37198   0.37331   0.38967
     Eigenvalues ---    0.42066   0.44129   0.44465   0.44554   0.45392
     Eigenvalues ---    0.56556   1.27464
 RFO step:  Lambda=-4.07624277D-03 EMin= 4.37543425D-03
 Quartic linear search produced a step of  0.04798.
 Iteration  1 RMS(Cart)=  0.07752122 RMS(Int)=  0.00695938
 Iteration  2 RMS(Cart)=  0.01712975 RMS(Int)=  0.00025379
 Iteration  3 RMS(Cart)=  0.00033294 RMS(Int)=  0.00012222
 Iteration  4 RMS(Cart)=  0.00000011 RMS(Int)=  0.00012222
 Variable       Old X    -DE/DX   Delta X   Delta X   Delta X     New X
                                 (Linear)    (Quad)   (Total)
    R1        2.74697   0.00039  -0.00173  -0.00313  -0.00486   2.74211
    R2        2.05750   0.00159  -0.00056   0.00326   0.00270   2.06020
    R3        2.09035   0.00020   0.00089   0.00276   0.00365   2.09400
    R4        2.06861  -0.00036   0.00003  -0.00096  -0.00093   2.06768
    R5        2.78968  -0.00174  -0.00020  -0.00548  -0.00569   2.78399
    R6        2.69552   0.00663   0.00069   0.01724   0.01793   2.71345
    R7        2.75038  -0.00512  -0.00003  -0.01371  -0.01374   2.73664
    R8        2.06785   0.00055  -0.00023   0.00105   0.00083   2.06867
    R9        2.10322   0.00038   0.00143   0.00459   0.00602   2.10924
   R10        2.77633  -0.00324   0.00096  -0.00638  -0.00542   2.77091
   R11        1.91576   0.00204  -0.00012   0.00422   0.00410   1.91987
   R12        2.89663  -0.00289   0.00073  -0.00785  -0.00713   2.88950
[...]
 13490,0.00015891,0.00001959,0.00005426,0.00004126,-0.00023270,-0.00033
 600,0.00002239,0.00001589,-0.00001527,0.00006626,0.00011571,-0.0000712
 5,0.00128194,0.00078538,-0.00114346,0.00021404,-0.00032424,-0.00022293
 ,0.00066504,0.00043246,0.00074280,0.01006901,-0.00972170,-0.01518604,0
 .10578654,-0.00011430,0.00016603,-0.00017006,-0.00044319,-0.00038750,0
 .00025616,0.00292388,0.00329131,-0.00458390,0.01909608,-0.01629037,-0.
 00601842,0.04321754,-0.10358803,-0.08501081,-0.00916563,0.00985439,0.0
 1720796,-0.00074392,0.00110321,-0.00006747,-0.00014067,0.00010925,0.00
 004820,-0.00014213,-0.00015318,-0.00000051,0.00024905,-0.00001337,0.00
 007562,-0.00015273,-0.00000393,-0.00001622,-0.00006124,0.00015511,0.00
 024394,0.00003064,-0.00003348,0.00007207,-0.00006617,-0.00005306,0.000
 06676,-0.00160393,-0.00013767,0.00114436,-0.00027707,0.00021726,0.0002
 9824,-0.00081227,0.00038326,0.00078076,0.00829022,-0.00914099,-0.01706
 633,-0.05923567,0.11592039,-0.00006369,0.00019499,0.00002705,0.0001812
 0,-0.00034086,-0.00022479,-0.00251687,-0.00029397,0.00387755,-0.006268
 50,0.01023153,0.01116934,0.07156310,-0.08354982,-0.18114552,0.00929097
 ,-0.01140830,-0.01872546,0.00124390,-0.00167157,-0.00005050,-0.0004433
 5,0.00059018,0.00032813,0.00014160,0.00011620,0.00002945,0.00008322,0.
 00000428,-0.00003599,-0.00005255,0.00001256,0.00002978,-0.00003414,0.0
 0003387,-0.00008397,-0.00000635,-0.00004916,0.00006441,0.00005059,0.00
 007192,-0.00005581,0.00099916,-0.00202885,0.00007734,-0.00005678,-0.00
 015606,0.00022871,0.00082823,0.00000814,0.00103575,0.00642736,-0.00680
 477,-0.01103942,-0.08228378,0.09001323,0.19479546,-0.00005174,0.000029
 05,0.00004216,0.00014433,0.00002638,0.00003289,0.00004575,-0.00005701,
 0.00026477,0.00109028,0.00112907,-0.00006885,-0.00928288,-0.00707096,-
 0.00500436,-0.16484673,-0.10189592,-0.07015846,-0.02123712,-0.01528708
 ,-0.01209264,0.00249695,-0.00047859,0.00148225,0.00004156,0.00008294,-
 0.00003631,-0.00003555,0.00000790,-0.00001757,0.00001764,-0.00002049,0
 .00001693,0.00000386,-0.00001003,-0.00000020,0.00002128,-0.00001172,0.
 00000173,-0.00000217,0.00000324,-0.00000160,-0.00001110,0.00001076,-0.
 00004851,0.00002197,-0.00006146,0.00003947,0.00050807,-0.00072795,0.00
 043220,-0.00006060,-0.00090894,0.00165645,0.00015799,0.00031692,-0.000
 08798,0.18365935,-0.00003899,0.00005813,0.00004319,0.00023513,-0.00005
 884,0.00007167,-0.00002836,-0.00001227,0.00011929,-0.00037863,0.001501
 73,-0.00127889,-0.01522809,-0.01461821,-0.00870410,-0.10385913,-0.1372
 3088,-0.06442856,0.01461969,0.01035475,0.00908797,-0.00014640,0.001192
 82,-0.00102921,0.00010093,0.00010665,-0.00000623,-0.00002950,0.0000295
 8,-0.00002012,0.00001661,-0.00002212,0.00001906,-0.00004091,-0.0000025
 4,-0.00003151,0.00002567,-0.00003940,0.00002022,0.00000433,0.00001691,
 -0.00000476,0.00004137,0.00006725,-0.00011823,0.00005987,-0.00005461,0
 .00004151,0.00063365,-0.00067665,0.00114164,-0.00103248,-0.00148177,0.
 00367376,0.00065997,0.00103738,0.00025838,0.11358340,0.15015906,0.0000
 5373,-0.00001050,-0.00008916,-0.00007480,0.00018401,-0.00010210,0.0003
 7186,-0.00018359,0.00022451,0.00105529,-0.00123277,0.00147541,0.017087
 53,0.01598862,0.00913324,-0.07040111,-0.06343513,-0.09222918,-0.009794
 87,-0.00778045,-0.00614394,0.00094669,-0.00073583,0.00065417,-0.000086
 72,0.00000827,0.00000018,-0.00002112,-0.00003172,-0.00000192,0.0000080
 5,0.00001178,0.00000484,-0.00003097,0.00000859,-0.00001536,-0.00003297
 ,0.00001261,0.00003108,0.00000408,0.00001206,-0.00000161,-0.00000617,0
 .00000730,0.00003424,-0.00003377,-0.00004282,0.00003520,-0.00066799,-0
 .00040264,0.00004564,0.00141172,0.00361159,-0.00264671,-0.00041134,-0.
 00078899,0.00140760,0.07853877,0.06621167,0.09794533,-0.00004874,-0.00
 004415,0.00004961,-0.00001148,-0.00000369,-0.00003865,0.00006124,0.000
 05186,-0.00009334,0.00089762,-0.00011627,-0.00119208,-0.00694923,0.006
 25023,0.01035381,-0.09523194,0.05440018,0.07926996,-0.01261329,0.01426
 024,0.01918099,0.00114187,-0.00166081,0.00029825,-0.00000600,-0.000033
 60,-0.00005182,0.00001713,0.00001480,0.00002106,-0.00000354,-0.0000087
 9,-0.00002154,0.00006379,0.00000979,0.00003012,0.00001421,0.00001320,-
 0.00003622,-0.00000393,-0.00003304,0.00000300,-0.00003505,0.00013885,-
 0.00009214,0.00001674,-0.00004199,-0.00001771,0.00005069,-0.00016049,-
 0.00006726,0.00012058,0.00056344,-0.00022529,-0.00030192,-0.00152626,0
 .00181868,0.00964137,-0.01133892,-0.01681191,0.10485693,-0.00000487,-0
 .00007172,0.00000958,0.00004358,0.00001770,-0.00003808,-0.00044854,-0.
 00014942,0.00016918,-0.00045154,0.00137136,-0.00114229,-0.01028991,0.0
 1025322,0.01825964,0.05546926,-0.11470513,-0.09813722,0.00896539,-0.01
 143131,-0.01438527,-0.00069097,0.00127210,-0.00080482,0.00001672,0.000
 01508,-0.00000577,-0.00001220,0.00000365,-0.00000307,0.00000866,0.0000
 0352,-0.00000018,0.00003037,-0.00005306,0.00001302,0.00000505,0.000009
 08,-0.00001453,0.00000408,-0.00000392,-0.00000447,0.00020376,-0.000064
 36,-0.00013840,0.00004891,0.00002810,-0.00007203,0.00011268,-0.0000996
 3,-0.00000941,0.00036645,0.00121392,-0.00065932,-0.00110939,-0.0022059
 9,0.00375558,0.00829682,-0.00981453,-0.01423204,-0.06297000,0.12490192
 ,0.00014229,0.00009839,-0.00012736,-0.00008853,0.00007542,-0.00003980,
 0.00001521,0.00039315,0.00014633,-0.00072318,-0.00104045,0.00221489,0.
 01169479,-0.01203335,-0.01985701,0.07925491,-0.09623744,-0.18436296,-0
 .00615967,0.00791913,0.00903962,-0.00038604,-0.00065442,0.00165716,-0.
 00006304,0.00000450,0.00007222,0.00003211,-0.00001011,0.00000109,-0.00
 001900,0.00001678,0.00000636,-0.00005499,0.00007391,-0.00003304,-0.000
 03933,-0.00000673,0.00003843,-0.00001489,0.00000898,0.00001768,-0.0001
 9753,-0.00019799,0.00030276,-0.00006032,0.00008440,0.00001057,0.000227
 49,-0.00019512,-0.00045208,-0.00028974,0.00010205,0.00129917,0.0014928
 6,0.00390747,-0.00221819,0.00584265,-0.00698177,-0.01059108,-0.0898156
 3,0.10333063,0.20184474,-0.00001459,0.00002170,-0.00000787,0.00007326,
 0.00000930,0.00004305,-0.00008707,-0.00008370,-0.00000358,0.00056803,0
 .00060123,0.00002292,-0.00053507,-0.00137799,0.00049245,-0.01913885,-0
 .01356560,-0.01383237,-0.16151184,-0.08721745,-0.06805986,-0.00878008,
 -0.01372994,0.00271026,0.00004394,0.00008575,0.00001317,-0.00008409,-0
 .00001653,-0.00003686,0.00004074,-0.00001590,0.00003667,-0.00002116,-0
 .00001946,-0.00002429,0.00000607,-0.00000728,0.00002085,0.00000127,0.0
 0002813,-0.00000238,0.00002066,0.00001624,-0.00002088,0.00001550,0.000
 01981,-0.00000315,0.00015926,-0.00023250,0.00040933,0.00067493,0.00094
 147,-0.00029079,0.00008995,0.00015558,-0.00007073,-0.00326590,0.002951
 22,-0.00178476,0.00091179,-0.00050284,0.00090069,0.18019528,-0.0000245
 1,0.00001068,0.00000092,0.00001627,-0.00001297,0.00003673,-0.00009187,
 0.00002871,-0.00012173,0.00024516,0.00024958,-0.00003770,0.00033746,0.
 00104324,-0.00032431,0.01390881,0.00992085,0.00878522,-0.08884922,-0.1
 2367538,-0.05929938,-0.02089218,-0.01925832,0.00251925,-0.00000081,0.0
 0000377,-0.00000720,-0.00002613,-0.00000531,-0.00000939,0.00001586,-0.
 00002134,0.00001528,-0.00000400,0.00000535,0.00000452,0.00000843,-0.00
 000650,0.00000790,-0.00000280,0.00000019,0.00000006,-0.00000791,-0.000
 00751,0.00000119,0.00001865,0.00000844,-0.00000863,-0.00009216,-0.0001
 0488,-0.00007190,-0.00015835,0.00009868,-0.00013854,-0.00009455,-0.000
 05063,0.00009041,0.00340805,-0.00160652,0.00233094,-0.00074018,0.00087
 260,-0.00035228,0.10399007,0.14060133,-0.00000587,0.00000859,0.0000120
 6,0.00004346,0.00000191,0.00003501,-0.00009449,-0.00014138,0.00001801,
 0.00026285,0.00041853,-0.00009384,-0.00062119,-0.00129493,0.00031200,-
 0.00898712,-0.00762051,-0.00569212,-0.06768861,-0.05822250,-0.09471739
 ,0.02114069,0.02148575,0.00685385,0.00004373,0.00006202,0.00000746,-0.
 00007764,-0.00001692,-0.00002507,0.00004064,-0.00000729,0.00001751,0.0
 0000167,-0.00001588,-0.00001304,0.00000505,-0.00000237,0.,-0.00000047,
 0.00001200,0.00000107,0.00001716,0.00001049,-0.00002162,0.00000969,0.0
 0002208,-0.00000466,0.00015227,-0.00009123,0.00018443,0.00017131,0.000
 75494,-0.00004180,-0.00003428,0.00001961,-0.00000952,-0.00196212,0.002
 40924,-0.00010744,0.00041399,0.00065126,0.00084916,0.07388144,0.056324
 48,0.09907806,-0.00002006,-0.00001813,0.00001859,0.00000144,-0.0000082
 9,0.00000928,0.00006718,-0.00007771,-0.00010775,0.00027570,-0.00029544
 ,-0.00036515,0.00008048,-0.00065255,0.00113354,-0.01177135,0.01509877,
 0.01789702,-0.09125635,0.05194880,0.07308013,-0.00722615,0.00579611,0.
 01225559,0.00001172,0.00000045,-0.00000882,-0.00001605,-0.00000549,-0.
 00000353,0.00000622,-0.00000074,0.00000084,0.00000494,-0.00001108,0.00
 000845,0.00000514,0.00000345,-0.00000768,0.00000154,0.00000152,-0.0000
 0163,0.00000942,0.00004731,-0.00003338,-0.00000843,0.00000666,0.000004
 29,-0.00011839,0.00004733,0.00013932,0.00007391,0.00002618,-0.00016532
 ,0.00056685,0.00015043,-0.00070377,0.00081652,-0.00072210,0.00058675,-
 0.00299849,0.00290415,-0.00202180,0.00946913,-0.01247536,-0.01673671,0
 .10134431,0.00001721,0.00002531,-0.00002537,-0.00001008,0.00000225,0.0
 0000680,0.00001572,0.00001480,0.00002264,-0.00053823,0.00024657,0.0006
 2283,0.00070199,0.00012041,-0.00184323,0.00826690,-0.01161948,-0.01398
 019,0.05735553,-0.12414907,-0.10434198,-0.01344094,0.01194407,0.021268
 59,-0.00001773,-0.00000223,0.00001425,0.00003198,0.00000119,0.00000096
 ,-0.00002075,0.00000416,0.00000923,-0.00001799,0.00000922,-0.00001087,
 -0.00000475,-0.00000476,0.00001749,-0.00000132,0.00000850,-0.00000129,
 -0.00001002,-0.00004789,0.00005276,0.00000343,-0.00000975,0.00001079,0
 .00006838,0.00000187,-0.00012211,0.00003337,0.00000206,0.00007164,-0.0
 0031403,-0.00000784,0.00110300,-0.00046159,0.00108998,0.00054403,0.002
 85107,-0.00122116,0.00249139,0.00727528,-0.00974551,-0.01371873,-0.059
 90220,0.13418805,-0.00000272,-0.00000275,-0.00000204,0.00000484,0.0000
 1123,0.00001310,0.00006738,-0.00011105,0.00000472,-0.00015971,0.000063
 04,0.00001070,-0.00015291,0.00001946,0.00075708,-0.00556799,0.00702780
 ,0.00997359,0.07378165,-0.09852426,-0.18173962,0.01465033,-0.00777279,
 -0.02117317,-0.00000047,0.00000607,0.00000337,0.00000106,-0.00000514,-
 0.00000586,-0.00000457,0.00000551,0.00001117,-0.00000525,-0.00000745,-
 0.00000322,0.00000111,0.00000041,0.00000462,0.00000241,0.00000763,-0.0
 0000300,0.00001611,0.00002099,-0.00001634,-0.00000152,-0.00002463,0.00
 002100,0.00000800,0.00000980,-0.00001931,0.00005090,0.00010129,-0.0000
 7093,-0.00008475,-0.00019819,0.00020021,0.00067827,-0.00022083,0.00077
 695,-0.00211316,0.00224276,-0.00020320,0.00492826,-0.00979231,-0.01006
 875,-0.08668968,0.10356595,0.20414883,0.00002327,-0.00000181,-0.000006
 03,-0.00003080,0.00000298,-0.00002355,-0.00000200,0.00005318,-0.000002
 34,-0.00007781,0.00002872,-0.00001254,-0.00014884,0.00028556,-0.000033
 83,0.00134189,-0.00055625,-0.00141804,-0.00957267,0.00411794,0.0170251
 6,-0.06370515,0.06260513,0.08013653,-0.00002307,-0.00002585,0.00000253
 ,0.00004764,0.00001442,0.00001774,-0.00002454,0.00000654,-0.00001770,0
 .00000928,0.00000313,0.00000299,-0.00000707,0.00000478,-0.00000770,-0.
 00000102,-0.00000789,0.00000141,-0.00000798,-0.00000764,0.00000994,-0.
 00000593,0.00000792,-0.00001329,0.00001915,-0.00000085,-0.00007639,-0.
 00012012,-0.00013264,0.00005272,-0.00010160,0.00000053,0.00003084,-0.0
 0008557,-0.00010259,-0.00027492,0.00036853,0.00029679,0.00038713,0.000
 37269,0.00178284,-0.00044981,0.00007938,-0.00235805,0.00100109,0.08485
 805,0.00001533,-0.00001759,0.00000890,-0.00001733,0.00001478,-0.000005
 75,-0.00003620,-0.00005212,0.00002183,0.00010069,0.00000722,-0.0001562
 8,-0.00015544,-0.00014015,0.00011147,-0.00091488,0.00202541,0.00028227
 ,-0.01371694,0.01010382,0.02465580,0.09369464,-0.14630619,-0.14582972,
 0.00001169,0.00000607,0.00000759,-0.00002763,-0.00001056,-0.00000358,0
 .00001531,0.00001443,-0.00000680,0.00001556,-0.00000784,0.00000206,-0.
 00000500,0.00000836,-0.00001611,-0.00000060,-0.00000354,0.00000302,0.0
 0000718,0.00000967,-0.00000852,-0.00000926,0.00002348,-0.00001551,-0.0
 0000197,0.00000115,0.00000245,-0.00004552,-0.00002145,0.00002769,0.000
 13229,-0.00006921,-0.00020167,0.00003473,-0.00013736,-0.00020318,0.000
 48908,-0.00046366,-0.00061673,-0.00005423,0.00117401,0.00023043,-0.001
 84226,-0.00207778,0.00401620,-0.08246903,0.14961612,0.00000103,0.00001
 227,-0.00000643,-0.00000846,-0.00000766,-0.00000722,0.00003174,0.00007
 571,-0.00001740,-0.00013156,0.00006822,0.00013807,-0.00001532,0.000487
 32,0.00013376,0.00036613,-0.00121996,0.00001464,0.00638048,-0.01714806
 ,-0.02232937,0.12349178,-0.13651045,-0.28338370,-0.00001827,-0.0000194
 2,-0.00000421,0.00004702,0.00001264,0.00001443,-0.00002581,-0.00000313
 ,-0.00000621,-0.00000524,0.00000984,0.00000176,0.00000040,-0.00000346,
 0.00000625,-0.00000187,-0.00000355,-0.00000119,-0.00001098,-0.00000817
 ,0.00000959,0.00000330,-0.00001809,0.00000459,0.00002604,-0.00000515,-
 0.00006493,-0.00000675,-0.00001980,-0.00001137,-0.00019486,-0.00016996
 ,0.00039858,0.00001854,0.00002706,-0.00008243,-0.00084363,0.00110233,0
 .00004822,-0.00006161,0.00021501,0.00232334,0.00192150,0.00486932,-0.0
 0262437,-0.12119363,0.14106212,0.29616777,0.00001754,-0.00001265,0.000
 00200,-0.00001912,0.00001662,-0.00001324,0.00001237,-0.00008474,0.0000
 6431,-0.00000792,-0.00008348,0.00009762,0.00052053,-0.00023784,0.00042
 148,-0.00050293,-0.00089823,0.00059069,0.00823312,-0.01765594,0.007664
 11,-0.24399973,0.19954776,-0.07804597,0.00000473,0.00000221,0.00001119
 ,-0.00000532,-0.00000692,-0.00000041,-0.00000169,0.00001412,-0.0000080
 4,0.00000580,-0.00000868,-0.00000298,-0.00000736,0.00000748,-0.0000092
 1,0.00000211,0.00000232,0.00000182,0.00000977,0.00000322,0.00000203,-0
 .00001299,0.00000737,0.00000086,-0.00001130,0.00000577,0.00002366,0.00
 008131,0.00006720,-0.00009866,0.00002995,0.00005453,-0.00007174,0.0002
 1085,0.00002429,0.00035087,0.00004001,-0.00029402,-0.00006387,0.000793
 94,-0.00027120,0.00047240,0.00060331,0.00047471,-0.00041126,-0.0132057
 8,0.00477881,-0.00976961,0.24720840,0.00000395,-0.00000871,0.00000867,
 -0.00002805,0.00000596,-0.00003016,0.00015943,0.00000321,0.00006459,-0
 .00021759,-0.00031464,0.00026001,0.00136385,0.00020727,0.00025188,-0.0
 0373414,-0.00214640,0.00289115,0.01823418,-0.01791528,0.01040824,0.152
 87530,-0.15636173,0.06983503,-0.00000778,-0.00002445,-0.00000470,0.000
 02409,0.00000723,0.00000985,-0.00001051,0.00000906,-0.00001557,0.00000
 506,0.00000455,0.00000637,-0.00000263,0.00000311,-0.00000783,0.0000001
 8,-0.00000879,0.00000011,0.00000197,0.00000402,-0.00000189,-0.00001932
 ,-0.00003616,0.00002168,-0.00001425,0.00001150,0.00001420,0.00002664,-
 0.00003039,-0.00011200,-0.00005094,-0.00000844,0.00006878,0.00006705,0
 .00017120,0.00011253,-0.00037873,0.00031666,-0.00017063,0.00073257,0.0
 0048015,-0.00127820,-0.00002461,0.00123877,-0.00043347,0.01645304,-0.0
 1370335,0.00720134,-0.18545826,0.18809200,0.00004683,-0.00001453,-0.00
 000986,-0.00000574,0.00001996,0.00001160,-0.00029745,-0.00015417,-0.00
 000229,0.00037430,0.00070970,-0.00056513,-0.00181797,0.00078186,0.0005
 2907,0.00407024,0.00355201,-0.00438360,-0.02339166,0.01230829,-0.00875
 185,-0.08370317,0.09613124,-0.09500003,0.00002697,0.00004562,0.0000344
 6,-0.00007340,-0.00001947,-0.00001874,0.00003897,0.00001583,0.00000071
 ,0.00001261,-0.00002434,-0.00002089,-0.00001366,0.00001184,-0.00001182
 ,0.00000044,0.00001338,0.00000399,0.00003694,0.00000749,-0.00001523,0.
 00000259,0.00011028,-0.00007712,0.00001805,-0.00001025,0.00003023,0.00
 005902,0.00005097,-0.00001352,0.00001271,-0.00009413,-0.00011013,0.000
 43468,-0.00030259,0.00026046,-0.00002668,0.00011656,0.00035362,0.00075
 751,-0.00016256,0.00111398,-0.00021258,-0.00062729,0.00000533,0.024856
 70,-0.02336674,0.00927401,0.07879272,-0.08910867,0.09737605,0.00690950
 ,-0.00477460,0.00138952,0.01242301,-0.01360510,0.01440261,0.00315948,0
 .00129410,0.00273935,-0.00109416,-0.00043297,-0.00007338,-0.00005557,0
 .00009741,-0.00008192,-0.00005224,-0.00001433,-0.00005051,-0.00000259,
 0.00000856,-0.00001704,0.00000114,-0.00000622,0.00000745,-0.18404959,0
 .11729018,-0.11787133,-0.02844103,0.01898369,-0.01491287,0.00285979,-0
 .00237055,0.00008857,-0.00063770,0.00017490,-0.00020394,-0.00052056,0.
 00118987,-0.00285055,-0.00051570,0.00034300,-0.00025548,-0.00029414,0.
 00008877,0.00000120,-0.00060585,0.00110330,-0.00074768,0.00002752,-0.0
 0028818,-0.00005410,-0.00005842,0.00008388,-0.00004628,0.00001299,-0.0
 0000021,0.00000138,0.00000158,-0.00001003,0.00001807,0.00000113,0.0000
 0161,0.00000744,0.00000221,-0.00000038,0.00000197,-0.00000192,0.000002
 11,0.00000259,0.00000010,0.00000101,-0.00000036,0.00000039,-0.00000051
 ,0.00000103,0.19093062,-0.00118873,0.00168693,-0.00369858,0.00608418,-
 0.02051396,0.01189819,0.00337705,0.00137617,0.00481728,-0.00100730,-0.
 00069117,-0.00078446,0.00007313,0.00029381,0.00000903,-0.00009483,0.00
 000017,-0.00006766,-0.00000915,0.00004757,-0.00001682,-0.00000161,-0.0
 0003393,0.00000946,0.13049613,-0.17267849,0.14347232,-0.01461413,0.007
 65926,-0.01790816,-0.00142330,-0.00161970,0.00153835,0.00021535,-0.000
 09738,-0.00023916,-0.00139506,0.00072426,0.00132755,-0.00008669,0.0001
 2684,-0.00001345,0.00037627,-0.00049398,-0.00040514,-0.00138175,-0.000
 40046,-0.00072192,-0.00012044,-0.00038692,0.00001392,-0.00015919,0.000
 13361,-0.00011885,0.00000514,-0.00009388,-0.00004803,-0.00000455,-0.00
 002975,0.00003566,0.00001418,0.00000498,-0.00000917,-0.00000489,-0.000
 00267,-0.00000138,0.00000482,-0.00001174,-0.00000525,-0.00000089,0.000
 00628,-0.00000632,0.00000556,0.00000364,0.00000972,-0.11915931,0.18499
 052,-0.00403441,0.00083266,0.00186411,-0.00363094,0.02399319,-0.019821
 56,0.00051627,-0.00194619,0.00041166,-0.00012582,0.00016627,-0.0003526
 5,0.00019662,-0.00013168,-0.00005245,-0.00009645,0.00004614,0.00003786
 ,0.00008409,-0.00000644,0.00002017,-0.00003092,0.00003667,-0.00003148,
 -0.09663222,0.11561309,-0.10482873,-0.02207430,-0.00149126,-0.01279778
 ,0.00494130,0.00245624,0.00298557,0.00006738,-0.00030843,0.00062495,0.
 00166376,-0.00085887,0.00001148,0.00010941,-0.00028016,-0.00086372,0.0
 0032353,0.00004308,0.00006704,0.00020963,0.00089267,0.00036797,-0.0000
 7259,0.00006434,0.00010763,0.00008312,-0.00008412,0.00006456,0.0000045
 6,0.00005059,0.00002994,-0.00000315,0.00000214,-0.00001792,0.00000758,
 -0.00000363,-0.00001729,-0.00001745,-0.00000600,-0.00001068,0.00000251
 ,-0.00000062,-0.00000086,0.00000500,-0.00000126,0.00000383,-0.00000078
 ,0.00000870,-0.00001329,0.11850427,-0.13908712,0.13221165\\-0.00000094
 ,-0.00000356,0.00000153,0.00000916,-0.00000216,-0.00001175,-0.00000489
 ,0.00001037,0.00001254,0.00000865,-0.00000859,-0.00000585,-0.00000890,
 0.00001193,-0.00000829,-0.00000625,-0.00000315,0.00000420,0.00000653,-
 0.00000115,-0.00000078,0.00000046,0.00000102,0.00000490,-0.00000733,-0
 .00000100,0.00000279,-0.00000253,-0.00000697,-0.00000948,0.00000073,0.
 00000384,0.00000323,-0.00000228,0.00000548,0.00000421,-0.00000340,-0.0
 0000174,-0.00000043,0.00000189,-0.00000169,-0.00000070,0.00000403,-0.0
 0000057,-0.00000163,-0.00000349,0.00000167,-0.00000367,0.00000344,0.00
 000120,0.00000794,-0.00000179,-0.00000015,0.00000150,0.00000164,-0.000
 00417,-0.00000023,0.00000047,0.00000098,-0.00000113,0.00000138,-0.0000
 0129,0.00000105,-0.00000157,0.00000197,-0.00000050,-0.00000133,-0.0000
 0040,0.00000056,0.00000305,-0.00000106,-0.00000146,-0.00000041,-0.0000
 0027,-0.00000380,0.00000368,-0.00000055,0.00000525\\\@


 THE RARE EARTHS PERPLEX US IN OUR RESEARCHES,
 BAFFLE US IN OUR SPECULATIONS, AND HAUNT US IN OUR
 VERY DREAMS.  THEY STRETCH LIKE AN UNKNOWN BEFORE US,
 MOCKING, MYSTIFYING, AND MURMURING STRANGE REVELATIONS
 AND POSSIBILITIES.  -- SIR WILLIAM CROOKE, 1832-1919
 Job cpu time:       0 days  3 hours 19 minutes 44.7 seconds.
 Elapsed time:       0 days  0 hours 49 minutes 56.4 seconds.
 File lengths (MBytes):  RWF=    286 Int=      0 D2E=      0 Chk=     13 Scr=      1
 Normal termination of Gaussian 16 at Tue Jun  1 17:26:52 2021.
### All Done ###
