### Starting Gaussian ###
 Entering Gaussian System, Link 0=g16
 Initial command:
 /cluster/software/gaussian/gaussian-16-A.03/avx2/g16/l1.exe "/local/scratch/cz9n3/Gau-7689.inp" -scrdir="/local/scratch/cz9n3/"
 Entering Link 1 = /cluster/software/gaussian/gaussian-16-A.03/avx2/g16/l1.exe PID=      7690.
  
 Copyright (c) 1988,1990,1992,1993,1995,1998,2003,2009,2016,
            Gaussian, Inc.  All Rights Reserved.
  
 This is part of the Gaussian(R) 16 program.  It is based on
 the Gaussian(R) 09 system (copyright 2009, Gaussian, Inc.),
 the Gaussian(R) 03 system (copyright 2003, Gaussian, Inc.),
 the Gaussian(R) 98 system (copyright 1998, Gaussian, Inc.),
 the Gaussian(R) 94 system (copyright 1995, Gaussian, Inc.),
 the Gaussian 92(TM) system (copyright 1992, Gaussian, Inc.),
 the Gaussian 90(TM) system (copyright 1990, Gaussian, Inc.),
 the Gaussian 88(TM) system (copyright 1988, Gaussian, Inc.),
 the Gaussian 86(TM) system (copyright 1986, Carnegie Mellon
 University), and the Gaussian 82(TM) system (copyright 1983,
 Carnegie Mellon University). Gaussian is a federally registered
 trademark of Gaussian, Inc.
  
 This software contains proprietary and confidential information,
 including trade secrets, belonging to Gaussian, Inc.
  
 This software is provided under written license and may be
 used, copied, transmitted, or stored only in accord with that
 written license.
  
 The following legend is applicable only to US Government
 contracts under FAR:
  
                    RESTRICTED RIGHTS LEGEND
  
 Use, reproduction and disclosure by the US Government is
 subject to restrictions as set forth in subparagraphs (a)
 and (c) of the Commercial Computer Software - Restricted
 Rights clause in FAR 52.227-19.
  
 Gaussian, Inc.
 340 Quinnipiac St., Bldg. 40, Wallingford CT 06492
  
  
 ---------------------------------------------------------------
 Warning -- This program may not be used in any manner that
 competes with the business of Gaussian, Inc. or will provide
 assistance to any competitor of Gaussian, Inc.  The licensee
 of this program is prohibited from giving any competitor of
 Gaussian, Inc. access to this program.  By using this program,
 the user acknowledges that Gaussian, Inc. is engaged in the
 business of creating and licensing software in the field of
 computational chemistry and represents and warrants to the
 licensee that it is not a competitor of Gaussian, Inc. and that
 it will not use this program in any manner prohibited above.
 ---------------------------------------------------------------
  

 Cite this work as:
 Gaussian 16, Revision A.03,
 M. J. Frisch, G. W. Trucks, H. B. Schlegel, G. E. Scuseria, 
 M. A. Robb, J. R. Cheeseman, G. Scalmani, V. Barone, 
 G. A. Petersson, H. Nakatsuji, X. Li, M. Caricato, A. V. Marenich, 
 J. Bloino, B. G. Janesko, R. Gomperts, B. Mennucci, H. P. Hratchian, 
 J. V. Ortiz, A. F. Izmaylov, J. L. Sonnenberg, D. Williams-Young, 
 F. Ding, F. Lipparini, F. Egidi, J. Goings, B. Peng, A. Petrone, 
 T. Henderson, D. Ranasinghe, V. G. Zakrzewski, J. Gao, N. Rega, 
 G. Zheng, W. Liang, M. Hada, M. Ehara, K. Toyota, R. Fukuda, 
 J. Hasegawa, M. Ishida, T. Nakajima, Y. Honda, O. Kitao, H. Nakai, 
 T. Vreven, K. Throssell, J. A. Montgomery, Jr., J. E. Peralta, 
 F. Ogliaro, M. J. Bearpark, J. J. Heyd, E. N. Brothers, K. N. Kudin, 
 V. N. Staroverov, T. A. Keith, R. Kobayashi, J. Normand, 
 K. Raghavachari, A. P. Rendell, J. C. Burant, S. S. Iyengar, 
 J. Tomasi, M. Cossi, J. M. Millam, M. Klene, C. Adamo, R. Cammi, 
 J. W. Ochterski, R. L. Martin, K. Morokuma, O. Farkas, 
 J. B. Foresman, and D. J. Fox, Gaussian, Inc., Wallingford CT, 2016.
 
 ******************************************
 Gaussian 16:  ES64L-G16RevA.03 25-Dec-2016
                 1-Jun-2021 
 ******************************************
 %chk=CNpCdCNpNCNdN.chk
 %NProcShared=20
 Will use up to   20 processors via shared memory.
 -----------------------------
 # opt freq b3lyp/6-31g(2df,p)
 -----------------------------
 1/18=20,19=15,26=3,38=1/1,3;
 2/9=110,12=2,17=6,18=5,40=1/2;
 3/5=1,6=6,7=104,11=2,25=1,30=1,71=1,74=-5/1,2,3;
 4//1;
 5/5=2,38=5/2;
 6/7=2,8=2,9=2,10=2,28=1/1;
 7//1,2,3,16;
 1/18=20,19=15,26=3/3(2);
 2/9=110/2;
 99//99;
 2/9=110/2;
 3/5=1,6=6,7=104,11=2,25=1,30=1,71=1,74=-5/1,2,3;
 4/5=5,16=3,69=1/1;
 5/5=2,38=5/2;
 7//1,2,3,16;
 1/18=20,19=15,26=3/3(-5);
 2/9=110/2;
 6/7=2,8=2,9=2,10=2,19=2,28=1/1;
 99/9=1/99;
 -------------------
 Title Card Required
 -------------------
 Symbolic Z-matrix:
 Charge =  0 Multiplicity = 1
 C                     1.07616  -0.00326   0.02201 
 N                     2.5403   -0.00649   0.16576 
 C                     3.16637  -0.35757   1.35328 
 C                     2.6374   -0.68621   2.54073 
 N                     3.31809  -0.99875   3.67225 
 N                     3.26931   0.28052  -1.04848 
 C                     4.73073   0.24935  -0.92893 
 N                     5.41882   0.60136  -2.18621 
 N                     6.66143   0.57084  -2.05144 
 H                     0.55177  -0.25855   0.94654 
 H                     0.76243  -0.72872  -0.73551 
 H                     0.73203   0.99368  -0.27175 
 H                     4.2484   -0.35909   1.31984 
 H                     1.5646   -0.72088   2.68445 
 H                     4.331    -1.00785   3.67535 
 H                     2.81084  -1.23745   4.5157 
 H                     3.02458   1.21594  -1.3778 
 H                     5.04978  -0.7603   -0.64314 
 H                     5.04926   0.96984  -0.16479 
 H                     7.15417   0.79572  -2.92418 
 

 GradGradGradGradGradGradGradGradGradGradGradGradGradGradGradGradGradGrad
 Berny optimization.
 Initialization pass.
                           ----------------------------
                           !    Initial Parameters    !
                           ! (Angstroms and Degrees)  !
 --------------------------                            --------------------------
 ! Name  Definition              Value          Derivative Info.                !
 --------------------------------------------------------------------------------
 ! R1    R(1,2)                  1.4712         estimate D2E/DX2                !
 ! R2    R(1,10)                 1.0931         estimate D2E/DX2                !
 ! R3    R(1,11)                 1.0948         estimate D2E/DX2                !
 ! R4    R(1,12)                 1.0948         estimate D2E/DX2                !
 ! R5    R(2,3)                  1.3876         estimate D2E/DX2                !
 ! R6    R(2,6)                  1.4451         estimate D2E/DX2                !
 ! R7    R(3,4)                  1.3408         estimate D2E/DX2                !
 ! R8    R(3,13)                 1.0825         estimate D2E/DX2                !
 ! R9    R(4,5)                  1.357          estimate D2E/DX2                !
 ! R10   R(4,14)                 1.0829         estimate D2E/DX2                !
 ! R11   R(5,15)                 1.013          estimate D2E/DX2                !
 ! R12   R(5,16)                 1.0128         estimate D2E/DX2                !
 ! R13   R(6,7)                  1.4666         estimate D2E/DX2                !
 ! R14   R(6,17)                 1.0214         estimate D2E/DX2                !
 ! R15   R(7,8)                  1.4758         estimate D2E/DX2                !
 ! R16   R(7,18)                 1.0968         estimate D2E/DX2                !
 ! R17   R(7,19)                 1.0975         estimate D2E/DX2                !
 ! R18   R(8,9)                  1.2503         estimate D2E/DX2                !
 ! R19   R(9,20)                 1.0272         estimate D2E/DX2                !
 ! A1    A(2,1,10)             113.2203         estimate D2E/DX2                !
 ! A2    A(2,1,11)             110.5699         estimate D2E/DX2                !
 ! A3    A(2,1,12)             109.9403         estimate D2E/DX2                !
 ! A4    A(10,1,11)            107.037          estimate D2E/DX2                !
 ! A5    A(10,1,12)            106.7869         estimate D2E/DX2                !
 ! A6    A(11,1,12)            109.1278         estimate D2E/DX2                !
 ! A7    A(1,2,3)              122.2224         estimate D2E/DX2                !
 ! A8    A(1,2,6)              114.8048         estimate D2E/DX2                !
 ! A9    A(3,2,6)              122.8024         estimate D2E/DX2                !
 ! A10   A(2,3,4)              129.9354         estimate D2E/DX2                !
 ! A11   A(2,3,13)             115.1439         estimate D2E/DX2                !
 ! A12   A(4,3,13)             114.9186         estimate D2E/DX2                !
 ! A13   A(3,4,5)              126.6571         estimate D2E/DX2                !
 ! A14   A(3,4,14)             121.0771         estimate D2E/DX2                !
 ! A15   A(5,4,14)             112.2651         estimate D2E/DX2                !
 ! A16   A(4,5,15)             120.4127         estimate D2E/DX2                !
 ! A17   A(4,5,16)             119.8346         estimate D2E/DX2                !
 ! A18   A(15,5,16)            119.7469         estimate D2E/DX2                !
 ! A19   A(2,6,7)              115.466          estimate D2E/DX2                !
 ! A20   A(2,6,17)             109.3856         estimate D2E/DX2                !
 ! A21   A(7,6,17)             106.5279         estimate D2E/DX2                !
 ! A22   A(6,7,8)              112.9586         estimate D2E/DX2                !
 ! A23   A(6,7,18)             109.3098         estimate D2E/DX2                !
 ! A24   A(6,7,19)             109.3906         estimate D2E/DX2                !
 ! A25   A(8,7,18)             107.8141         estimate D2E/DX2                !
 ! A26   A(8,7,19)             107.5326         estimate D2E/DX2                !
 ! A27   A(18,7,19)            109.785          estimate D2E/DX2                !
 ! A28   A(7,8,9)              111.4522         estimate D2E/DX2                !
 ! A29   A(8,9,20)             112.324          estimate D2E/DX2                !
 ! D1    D(10,1,2,3)             2.5413         estimate D2E/DX2                !
 ! D2    D(10,1,2,6)           177.9204         estimate D2E/DX2                !
 ! D3    D(11,1,2,3)          -117.5598         estimate D2E/DX2                !
 ! D4    D(11,1,2,6)            57.8194         estimate D2E/DX2                !
 ! D5    D(12,1,2,3)           121.8791         estimate D2E/DX2                !
 ! D6    D(12,1,2,6)           -62.7418         estimate D2E/DX2                !
 ! D7    D(1,2,3,4)             -2.9321         estimate D2E/DX2                !
 ! D8    D(1,2,3,13)           177.6266         estimate D2E/DX2                !
 ! D9    D(6,2,3,4)           -177.9409         estimate D2E/DX2                !
 ! D10   D(6,2,3,13)             2.6178         estimate D2E/DX2                !
 ! D11   D(1,2,6,7)           -178.5934         estimate D2E/DX2                !
 ! D12   D(1,2,6,17)            61.2997         estimate D2E/DX2                !
 ! D13   D(3,2,6,7)             -3.2443         estimate D2E/DX2                !
 ! D14   D(3,2,6,17)          -123.3511         estimate D2E/DX2                !
 ! D15   D(2,3,4,5)           -178.8048         estimate D2E/DX2                !
 ! D16   D(2,3,4,14)             0.8597         estimate D2E/DX2                !
 ! D17   D(13,3,4,5)             0.6375         estimate D2E/DX2                !
 ! D18   D(13,3,4,14)         -179.6979         estimate D2E/DX2                !
 ! D19   D(3,4,5,15)            -0.5546         estimate D2E/DX2                !
 ! D20   D(3,4,5,16)          -179.6733         estimate D2E/DX2                !
 ! D21   D(14,4,5,15)          179.7559         estimate D2E/DX2                !
 ! D22   D(14,4,5,16)            0.6372         estimate D2E/DX2                !
 ! D23   D(2,6,7,8)           -177.7556         estimate D2E/DX2                !
 ! D24   D(2,6,7,18)            62.2123         estimate D2E/DX2                !
 ! D25   D(2,6,7,19)           -58.0237         estimate D2E/DX2                !
 ! D26   D(17,6,7,8)           -56.1            estimate D2E/DX2                !
 ! D27   D(17,6,7,18)         -176.1321         estimate D2E/DX2                !
 ! D28   D(17,6,7,19)           63.6319         estimate D2E/DX2                !
 ! D29   D(6,7,8,9)            179.752          estimate D2E/DX2                !
 ! D30   D(18,7,8,9)           -59.3618         estimate D2E/DX2                !
 ! D31   D(19,7,8,9)            58.9571         estimate D2E/DX2                !
 ! D32   D(7,8,9,20)           178.8638         estimate D2E/DX2                !
 --------------------------------------------------------------------------------
 Trust Radius=3.00D-01 FncErr=1.00D-07 GrdErr=1.00D-06 EigMax=2.50D+02 EigMin=1.00D-04
 Number of steps in this run=     90 maximum allowed number of steps=    120.
 GradGradGradGradGradGradGradGradGradGradGradGradGradGradGradGradGradGrad

                          Input orientation:                          
 ---------------------------------------------------------------------
 Center     Atomic      Atomic             Coordinates (Angstroms)
 Number     Number       Type             X           Y           Z
 ---------------------------------------------------------------------
      1          6           0        1.076160   -0.003260    0.022010
      2          7           0        2.540300   -0.006490    0.165760
      3          6           0        3.166370   -0.357570    1.353280
      4          6           0        2.637400   -0.686210    2.540730
      5          7           0        3.318090   -0.998750    3.672250
      6          7           0        3.269310    0.280520   -1.048480
      7          6           0        4.730730    0.249350   -0.928930
      8          7           0        5.418820    0.601360   -2.186210
      9          7           0        6.661430    0.570840   -2.051440
     10          1           0        0.551770   -0.258550    0.946540
     11          1           0        0.762430   -0.728720   -0.735510
     12          1           0        0.732030    0.993680   -0.271750
     13          1           0        4.248400   -0.359090    1.319840
     14          1           0        1.564600   -0.720880    2.684450
     15          1           0        4.331000   -1.007850    3.675350
     16          1           0        2.810840   -1.237450    4.515700
     17          1           0        3.024580    1.215940   -1.377800
     18          1           0        5.049780   -0.760300   -0.643140
     19          1           0        5.049260    0.969840   -0.164790
     20          1           0        7.154170    0.795720   -2.924180
 ---------------------------------------------------------------------
                    Distance matrix (angstroms):
                    1          2          3          4          5
     1  C    0.000000
     2  N    1.471183   0.000000
     3  C    2.503356   1.387597   0.000000
     4  C    3.041026   2.472232   1.340840   0.000000
     5  N    4.397898   3.726259   2.410758   1.356966   0.000000
     6  N    2.456906   1.445064   2.487209   3.770452   4.891237
     7  C    3.784703   2.462069   2.832677   4.158827   4.972340
     8  N    4.909226   3.766580   4.303611   5.633657   6.426116
     9  N    5.985318   4.715188   4.966841   6.233861   6.811913
    10  H    1.093121   2.151140   2.647900   2.659734   3.953469
    11  H    1.094785   2.120077   3.206201   3.775059   5.102221
    12  H    1.094810   2.112249   3.223757   3.789790   5.119826
    13  H    3.445879   2.091371   1.082548   2.047657   2.609305
    14  H    2.800382   2.793948   2.114161   1.082939   2.031671
    15  H    4.995005   4.065286   2.677916   2.063758   1.012956
    16  H    4.972483   4.528844   3.301741   2.057779   1.012763
    17  H    2.691144   2.027669   3.155129   4.372981   5.522138
    18  H    4.099413   2.742269   2.774007   3.995259   4.655985
    19  H    4.094794   2.712446   2.758954   3.984898   4.647061
    20  H    6.801515   5.610621   5.960645   7.243105   7.838911
                    6          7          8          9         10
     6  N    0.000000
     7  C    1.466633   0.000000
     8  N    2.453113   1.475850   0.000000
     9  N    3.549182   2.256322   1.250270   0.000000
    10  H    3.414048   4.608585   5.851645   6.855926   0.000000
    11  H    2.720471   4.091630   5.055256   6.182130   1.759184
    12  H    2.747671   4.120135   5.077900   6.205149   1.756361
    13  H    2.641336   2.379035   3.818996   4.248884   3.716791
    14  H    4.224169   4.901249   6.350327   7.076360   2.063954
    15  H    5.010155   4.789544   6.175014   6.381167   4.721275
    16  H    5.785717   5.961589   7.422828   7.824595   4.335960
    17  H    1.021448   2.011648   2.600696   3.754547   3.700198
    18  H    2.101828   1.096751   2.090783   2.520448   4.796971
    19  H    2.103400   1.097487   2.087700   2.513512   4.792850
    20  H    4.344631   3.186315   1.895736   1.027151   7.725648
                   11         12         13         14         15
    11  H    0.000000
    12  H    1.784001   0.000000
    13  H    4.063629   4.089988   0.000000
    14  H    3.512786   3.517386   3.032464   0.000000
    15  H    5.680519   5.704236   2.444614   2.952491   0.000000
    16  H    5.659505   5.676184   3.612702   2.274519   1.752082
    17  H    3.051485   2.555099   3.354954   4.731246   5.673297
    18  H    4.288461   4.675184   2.157886   4.818806   4.384892
    19  H    4.646261   4.318621   2.147454   4.808280   4.378793
    20  H    6.925932   6.951148   5.271507   8.062264   7.401145
                   16         17         18         19         20
    16  H    0.000000
    17  H    6.387343   0.000000
    18  H    5.643948   2.923471   0.000000
    19  H    5.638230   2.373033   1.795050   0.000000
    20  H    8.851560   4.429604   3.471714   3.474938   0.000000
 Stoichiometry    C4H11N5
 Framework group  C1[X(C4H11N5)]
 Deg. of freedom    54
 Full point group                 C1      NOp   1
 Largest Abelian subgroup         C1      NOp   1
 Largest concise Abelian subgroup C1      NOp   1
                         Standard orientation:                         
 ---------------------------------------------------------------------
 Center     Atomic      Atomic             Coordinates (Angstroms)
 Number     Number       Type             X           Y           Z
 ---------------------------------------------------------------------
      1          6           0       -1.285138    2.203432   -0.039446
      2          7           0       -0.569118    0.919182    0.009526
      3          6           0       -1.233324   -0.299080   -0.000138
      4          6           0       -2.547997   -0.562676    0.001496
      5          7           0       -3.128322   -1.789224    0.014192
      6          7           0        0.871224    1.025939   -0.037669
      7          6           0        1.598795   -0.247408   -0.022183
      8          7           0        3.064307   -0.073058   -0.018882
      9          7           0        3.655774   -1.174424   -0.000583
     10          1           0       -2.372457    2.090956   -0.038613
     11          1           0       -1.020620    2.756976   -0.946185
     12          1           0       -1.029055    2.807356    0.837085
     13          1           0       -0.593109   -1.172025   -0.001059
     14          1           0       -3.278434    0.236827   -0.002368
     15          1           0       -2.557994   -2.626363    0.015289
     16          1           0       -4.137924   -1.869018    0.009115
     17          1           0        1.198476    1.557453    0.770882
     18          1           0        1.332025   -0.828394   -0.913334
     19          1           0        1.330659   -0.809307    0.881614
     20          1           0        4.677367   -1.068973   -0.016892
 ---------------------------------------------------------------------
 Rotational constants (GHZ):           2.5864431           0.7314195           0.5752138
 Standard basis: 6-31G(2df,p) (6D, 7F)
 There are   334 symmetry adapted cartesian basis functions of A   symmetry.
 There are   307 symmetry adapted basis functions of A   symmetry.
   307 basis functions,   473 primitive gaussians,   334 cartesian basis functions
    35 alpha electrons       35 beta electrons
       nuclear repulsion energy       440.7926688988 Hartrees.
 NAtoms=   20 NActive=   20 NUniq=   20 SFac= 1.00D+00 NAtFMM=   60 NAOKFM=F Big=F
 Integral buffers will be    131072 words long.
 Raffenetti 2 integral format.
 Two-electron integral symmetry is turned on.
 One-electron integrals computed using PRISM.
 PrsmSu:  requested number of processors reduced to:  13 ShMem   1 Linda.
 NBasis=   307 RedAO= T EigKep=  2.12D-04  NBF=   307
 NBsUse=   307 1.00D-06 EigRej= -1.00D+00 NBFU=   307
 ExpMin= 1.61D-01 ExpMax= 4.17D+03 ExpMxC= 6.27D+02 IAcc=3 IRadAn=         5 AccDes= 0.00D+00
 Harris functional with IExCor=  402 and IRadAn=       5 diagonalized for initial guess.
 HarFok:  IExCor=  402 AccDes= 0.00D+00 IRadAn=         5 IDoV= 1 UseB2=F ITyADJ=14
 ICtDFT=  3500011 ScaDFX=  1.000000  1.000000  1.000000  1.000000
 FoFCou: FMM=F IPFlag=           0 FMFlag=      100000 FMFlg1=           0
         NFxFlg=           0 DoJE=T BraDBF=F KetDBF=T FulRan=T
         wScrn=  0.000000 ICntrl=       500 IOpCl=  0 I1Cent=   200000004 NGrid=           0
         NMat0=    1 NMatS0=      1 NMatT0=    0 NMatD0=    1 NMtDS0=    0 NMtDT0=    0
 Petite list used in FoFCou.
 Requested convergence on RMS density matrix=1.00D-08 within 128 cycles.
 Requested convergence on MAX density matrix=1.00D-06.
 Requested convergence on             energy=1.00D-06.
 No special actions if energy rises.
 Integral accuracy reduced to 1.0D-05 until final iterations.
 EnCoef did     2 forward-backward iterations
 Initial convergence to 1.0D-05 achieved.  Increase integral accuracy.
 SCF Done:  E(RB3LYP) =  -432.663490203     A.U. after   19 cycles
            NFock= 19  Conv=0.57D-08     -V/T= 2.0078

 **********************************************************************

            Population analysis using the SCF density.

 **********************************************************************

 Orbital symmetries:
       Occupied  (A) (A) (A) (A) (A) (A) (A) (A) (A) (A) (A) (A)
                 (A) (A) (A) (A) (A) (A) (A) (A) (A) (A) (A) (A)
                 (A) (A) (A) (A) (A) (A) (A) (A) (A) (A) (A)
       Virtual   (A) (A) (A) (A) (A) (A) (A) (A) (A) (A) (A) (A)
                 (A) (A) (A) (A) (A) (A) (A) (A) (A) (A) (A) (A)
                 (A) (A) (A) (A) (A) (A) (A) (A) (A) (A) (A) (A)
                 (A) (A) (A) (A) (A) (A) (A) (A) (A) (A) (A) (A)
                 (A) (A) (A) (A) (A) (A) (A) (A) (A) (A) (A) (A)
                 (A) (A) (A) (A) (A) (A) (A) (A) (A) (A) (A) (A)
                 (A) (A) (A) (A) (A) (A) (A) (A) (A) (A) (A) (A)
                 (A) (A) (A) (A) (A) (A) (A) (A) (A) (A) (A) (A)
                 (A) (A) (A) (A) (A) (A) (A) (A) (A) (A) (A) (A)
                 (A) (A) (A) (A) (A) (A) (A) (A) (A) (A) (A) (A)
                 (A) (A) (A) (A) (A) (A) (A) (A) (A) (A) (A) (A)
                 (A) (A) (A) (A) (A) (A) (A) (A) (A) (A) (A) (A)
                 (A) (A) (A) (A) (A) (A) (A) (A) (A) (A) (A) (A)
                 (A) (A) (A) (A) (A) (A) (A) (A) (A) (A) (A) (A)
                 (A) (A) (A) (A) (A) (A) (A) (A) (A) (A) (A) (A)
                 (A) (A) (A) (A) (A) (A) (A) (A) (A) (A) (A) (A)
                 (A) (A) (A) (A) (A) (A) (A) (A) (A) (A) (A) (A)
                 (A) (A) (A) (A) (A) (A) (A) (A) (A) (A) (A) (A)
                 (A) (A) (A) (A) (A) (A) (A) (A) (A) (A) (A) (A)
                 (A) (A) (A) (A) (A) (A) (A) (A) (A) (A) (A) (A)
                 (A) (A) (A) (A) (A) (A) (A) (A) (A) (A) (A) (A)
                 (A) (A) (A) (A) (A) (A) (A) (A) (A) (A) (A) (A)
                 (A) (A) (A) (A) (A) (A) (A) (A)
 The electronic state is 1-A.
 Alpha  occ. eigenvalues --  -14.39272 -14.37672 -14.34869 -14.34867 -14.31010
 Alpha  occ. eigenvalues --  -10.23946 -10.20723 -10.17643 -10.17465  -1.02807
 Alpha  occ. eigenvalues --   -0.96747  -0.88619  -0.83310  -0.73868  -0.71467
 Alpha  occ. eigenvalues --   -0.64995  -0.61162  -0.55525  -0.52961  -0.50538
 Alpha  occ. eigenvalues --   -0.49093  -0.46794  -0.46109  -0.43896  -0.42543
 Alpha  occ. eigenvalues --   -0.42122  -0.39305  -0.38201  -0.35796  -0.34618
 Alpha  occ. eigenvalues --   -0.33254  -0.29237  -0.23183  -0.22354  -0.11957
 Alpha virt. eigenvalues --   -0.05384   0.08261   0.08662   0.09144   0.10306
 Alpha virt. eigenvalues --    0.10868   0.11870   0.13277   0.15259   0.16369
 Alpha virt. eigenvalues --    0.17883   0.18633   0.18931   0.20810   0.22731
 Alpha virt. eigenvalues --    0.24482   0.26626   0.31831   0.34414   0.36387
 Alpha virt. eigenvalues --    0.40722   0.43400   0.44499   0.48874   0.49599
 Alpha virt. eigenvalues --    0.50108   0.52666   0.53179   0.55211   0.56185
 Alpha virt. eigenvalues --    0.56606   0.58708   0.59273   0.59474   0.60042
 Alpha virt. eigenvalues --    0.62493   0.65022   0.65674   0.67122   0.70054
 Alpha virt. eigenvalues --    0.70533   0.71869   0.72654   0.73021   0.74141
 Alpha virt. eigenvalues --    0.75097   0.75799   0.76763   0.77343   0.78586
 Alpha virt. eigenvalues --    0.79495   0.80764   0.81655   0.82147   0.83182
 Alpha virt. eigenvalues --    0.84752   0.87059   0.88427   0.89899   0.90308
 Alpha virt. eigenvalues --    0.93738   0.94109   0.95904   0.96733   0.98367
 Alpha virt. eigenvalues --    0.99316   1.01267   1.04112   1.08394   1.12049
 Alpha virt. eigenvalues --    1.17787   1.20111   1.20827   1.24922   1.26893
 Alpha virt. eigenvalues --    1.28841   1.29702   1.32058   1.34381   1.36822
 Alpha virt. eigenvalues --    1.38802   1.39157   1.41111   1.41749   1.44380
 Alpha virt. eigenvalues --    1.50211   1.51483   1.52622   1.54627   1.55943
 Alpha virt. eigenvalues --    1.57811   1.62049   1.64223   1.65413   1.66438
 Alpha virt. eigenvalues --    1.68106   1.72862   1.75132   1.80670   1.82618
 Alpha virt. eigenvalues --    1.83966   1.84757   1.86574   1.89723   1.92081
 Alpha virt. eigenvalues --    1.93337   1.95481   1.96502   1.97950   2.03815
 Alpha virt. eigenvalues --    2.05916   2.11134   2.13332   2.19834   2.20514
 Alpha virt. eigenvalues --    2.23755   2.28614   2.31246   2.35917   2.39295
 Alpha virt. eigenvalues --    2.40804   2.43193   2.45032   2.47898   2.52662
 Alpha virt. eigenvalues --    2.55988   2.61662   2.65111   2.65352   2.74414
 Alpha virt. eigenvalues --    2.76374   2.78287   2.79868   2.81101   2.83421
 Alpha virt. eigenvalues --    2.84689   2.87469   2.88149   2.89244   2.91225
 Alpha virt. eigenvalues --    2.94067   2.95270   2.96450   2.99634   3.02627
 Alpha virt. eigenvalues --    3.04435   3.05599   3.08245   3.11517   3.13031
 Alpha virt. eigenvalues --    3.15285   3.19129   3.22681   3.25787   3.27823
 Alpha virt. eigenvalues --    3.30017   3.31089   3.31868   3.35994   3.37657
 Alpha virt. eigenvalues --    3.38933   3.39542   3.41247   3.45544   3.47260
 Alpha virt. eigenvalues --    3.50211   3.52088   3.55972   3.57196   3.60317
 Alpha virt. eigenvalues --    3.62836   3.64119   3.64801   3.67592   3.68718
 Alpha virt. eigenvalues --    3.71339   3.74086   3.78766   3.79212   3.89491
 Alpha virt. eigenvalues --    3.90434   3.93274   3.95390   3.97210   4.04228
 Alpha virt. eigenvalues --    4.05929   4.07099   4.09037   4.09968   4.10668
 Alpha virt. eigenvalues --    4.11877   4.13240   4.13915   4.15557   4.17688
 Alpha virt. eigenvalues --    4.20915   4.22680   4.25252   4.27710   4.27778
 Alpha virt. eigenvalues --    4.29958   4.32941   4.33950   4.35181   4.38288
 Alpha virt. eigenvalues --    4.39970   4.41018   4.45596   4.46141   4.48010
 Alpha virt. eigenvalues --    4.48438   4.49467   4.51940   4.54092   4.55609
 Alpha virt. eigenvalues --    4.56958   4.57660   4.59248   4.59479   4.60495
 Alpha virt. eigenvalues --    4.61264   4.62677   4.64919   4.65899   4.73008
 Alpha virt. eigenvalues --    4.73475   4.75002   4.78159   4.79147   4.81639
 Alpha virt. eigenvalues --    4.85112   4.87169   4.87639   4.90301   4.92939
 Alpha virt. eigenvalues --    4.95632   4.96900   5.03868   5.05726   5.08015
 Alpha virt. eigenvalues --    5.12834   5.13716   5.14643   5.20063   5.24453
 Alpha virt. eigenvalues --    5.28274   5.30169   5.33652   5.37418   5.45593
 Alpha virt. eigenvalues --    5.52175   5.57857   5.65101   5.71598   5.72928
 Alpha virt. eigenvalues --    5.88398   6.03625   6.14771   6.46536   8.99774
 Alpha virt. eigenvalues --    9.82636  10.66484  10.95083  11.22269  11.26367
 Alpha virt. eigenvalues --   11.41332  11.48501  11.50568  11.55587  12.37600
 Alpha virt. eigenvalues --   13.04850  21.06794
          Condensed to atoms (all electrons):
               1          2          3          4          5          6
     1  C    4.910018   0.411586  -0.063955  -0.007382   0.000040  -0.056935
     2  N    0.411586   6.246256   0.404062  -0.021454   0.002094   0.276654
     3  C   -0.063955   0.404062   4.768429   0.643867  -0.011578  -0.050560
     4  C   -0.007382  -0.021454   0.643867   4.822083   0.378592   0.004474
     5  N    0.000040   0.002094  -0.011578   0.378592   6.499644  -0.000016
     6  N   -0.056935   0.276654  -0.050560   0.004474  -0.000016   6.538905
     7  C    0.003782  -0.043326  -0.006251  -0.000474  -0.000005   0.376714
     8  N   -0.000048   0.000495  -0.000048  -0.000016   0.000000  -0.020478
     9  N    0.000001   0.000022  -0.000006   0.000000  -0.000000   0.001624
    10  H    0.378682  -0.015813  -0.005339   0.000293   0.000078   0.002095
    11  H    0.370639  -0.036927   0.003887   0.000517  -0.000007   0.007412
    12  H    0.370877  -0.038480   0.002025   0.000967  -0.000008  -0.000749
    13  H    0.005980  -0.032971   0.346330  -0.047027  -0.011787  -0.016030
    14  H    0.000829  -0.013699  -0.031775   0.348306  -0.044945  -0.000167
    15  H    0.000006  -0.000146  -0.010158  -0.029865   0.350622  -0.000001
    16  H    0.000009  -0.000010   0.003077  -0.036632   0.369673   0.000001
    17  H   -0.004093  -0.059794   0.006388   0.000224  -0.000002   0.327334
    18  H   -0.000084  -0.002658   0.002885   0.000636  -0.000009  -0.023329
    19  H    0.000278   0.011264  -0.001919  -0.000198   0.000012  -0.058875
    20  H   -0.000000  -0.000002  -0.000000  -0.000000   0.000000  -0.000259
               7          8          9         10         11         12
     1  C    0.003782  -0.000048   0.000001   0.378682   0.370639   0.370877
     2  N   -0.043326   0.000495   0.000022  -0.015813  -0.036927  -0.038480
     3  C   -0.006251  -0.000048  -0.000006  -0.005339   0.003887   0.002025
     4  C   -0.000474  -0.000016   0.000000   0.000293   0.000517   0.000967
     5  N   -0.000005   0.000000  -0.000000   0.000078  -0.000007  -0.000008
     6  N    0.376714  -0.020478   0.001624   0.002095   0.007412  -0.000749
     7  C    4.746735   0.358781  -0.079384  -0.000155   0.000278  -0.000091
     8  N    0.358781   6.475549   0.470386   0.000000  -0.000001   0.000003
     9  N   -0.079384   0.470386   6.561237  -0.000000   0.000000  -0.000000
    10  H   -0.000155   0.000000  -0.000000   0.553226  -0.029087  -0.033695
    11  H    0.000278  -0.000001   0.000000  -0.029087   0.607865  -0.049819
    12  H   -0.000091   0.000003  -0.000000  -0.033695  -0.049819   0.628702
    13  H    0.006154  -0.000202   0.000156   0.000178  -0.000125  -0.000209
    14  H    0.000014   0.000000   0.000000   0.004754  -0.000080  -0.000069
    15  H   -0.000019   0.000000  -0.000000   0.000003   0.000000   0.000000
    16  H   -0.000000   0.000000  -0.000000  -0.000003  -0.000000  -0.000000
    17  H   -0.057977   0.005127  -0.000280  -0.000275  -0.002689   0.008589
    18  H    0.346906  -0.021451   0.000581  -0.000005  -0.000098   0.000032
    19  H    0.360299  -0.042907   0.008299   0.000017   0.000068  -0.000115
    20  H    0.006239  -0.076183   0.309557   0.000000  -0.000000   0.000000
              13         14         15         16         17         18
     1  C    0.005980   0.000829   0.000006   0.000009  -0.004093  -0.000084
     2  N   -0.032971  -0.013699  -0.000146  -0.000010  -0.059794  -0.002658
     3  C    0.346330  -0.031775  -0.010158   0.003077   0.006388   0.002885
     4  C   -0.047027   0.348306  -0.029865  -0.036632   0.000224   0.000636
     5  N   -0.011787  -0.044945   0.350622   0.369673  -0.000002  -0.000009
     6  N   -0.016030  -0.000167  -0.000001   0.000001   0.327334  -0.023329
     7  C    0.006154   0.000014  -0.000019  -0.000000  -0.057977   0.346906
     8  N   -0.000202   0.000000   0.000000   0.000000   0.005127  -0.021451
     9  N    0.000156   0.000000  -0.000000  -0.000000  -0.000280   0.000581
    10  H    0.000178   0.004754   0.000003  -0.000003  -0.000275  -0.000005
    11  H   -0.000125  -0.000080   0.000000  -0.000000  -0.002689  -0.000098
    12  H   -0.000209  -0.000069   0.000000  -0.000000   0.008589   0.000032
    13  H    0.656521   0.007950   0.006736  -0.000230   0.000061   0.001313
    14  H    0.007950   0.667799   0.006815  -0.007275   0.000005   0.000000
    15  H    0.006736   0.006815   0.469073  -0.031402  -0.000000  -0.000008
    16  H   -0.000230  -0.007275  -0.031402   0.454408  -0.000000  -0.000000
    17  H    0.000061   0.000005  -0.000000  -0.000000   0.555862   0.008069
    18  H    0.001313   0.000000  -0.000008  -0.000000   0.008069   0.588282
    19  H    0.004841  -0.000007  -0.000010  -0.000000  -0.009617  -0.043759
    20  H   -0.000003  -0.000000   0.000000   0.000000  -0.000025  -0.000689
              19         20
     1  C    0.000278  -0.000000
     2  N    0.011264  -0.000002
     3  C   -0.001919  -0.000000
     4  C   -0.000198  -0.000000
     5  N    0.000012   0.000000
     6  N   -0.058875  -0.000259
     7  C    0.360299   0.006239
     8  N   -0.042907  -0.076183
     9  N    0.008299   0.309557
    10  H    0.000017   0.000000
    11  H    0.000068  -0.000000
    12  H   -0.000115   0.000000
    13  H    0.004841  -0.000003
    14  H   -0.000007  -0.000000
    15  H   -0.000010   0.000000
    16  H   -0.000000   0.000000
    17  H   -0.009617  -0.000025
    18  H   -0.043759  -0.000689
    19  H    0.656077  -0.000702
    20  H   -0.000702   0.508119
 Mulliken charges:
               1
     1  C   -0.320230
     2  N   -0.087155
     3  C    0.000641
     4  C   -0.056911
     5  N   -0.532398
     6  N   -0.307814
     7  C   -0.018219
     8  N   -0.149008
     9  N   -0.272193
    10  H    0.145046
    11  H    0.128167
    12  H    0.112039
    13  H    0.072365
    14  H    0.061545
    15  H    0.238356
    16  H    0.248386
    17  H    0.223094
    18  H    0.143385
    19  H    0.116955
    20  H    0.253948
 Sum of Mulliken charges =  -0.00000
 Mulliken charges with hydrogens summed into heavy atoms:
               1
     1  C    0.065022
     2  N   -0.087155
     3  C    0.073006
     4  C    0.004635
     5  N   -0.045655
     6  N   -0.084720
     7  C    0.242120
     8  N   -0.149008
     9  N   -0.018245
 Electronic spatial extent (au):  <R**2>=           1882.4834
 Charge=             -0.0000 electrons
 Dipole moment (field-independent basis, Debye):
    X=             -0.7249    Y=             -0.4969    Z=              0.8206  Tot=              1.2024
 Quadrupole moment (field-independent basis, Debye-Ang):
   XX=            -43.2277   YY=            -50.8056   ZZ=            -56.6319
   XY=             -0.1577   XZ=              1.3407   YZ=              2.0296
 Traceless Quadrupole moment (field-independent basis, Debye-Ang):
   XX=              6.9941   YY=             -0.5839   ZZ=             -6.4102
   XY=             -0.1577   XZ=              1.3407   YZ=              2.0296
 Octapole moment (field-independent basis, Debye-Ang**2):
  XXX=              5.4227  YYY=             -6.1896  ZZZ=              0.5763  XYY=            -20.1486
  XXY=            -20.2465  XXZ=              0.7785  XZZ=             10.0784  YZZ=              1.9273
  YYZ=              2.7309  XYZ=              3.2026
 Hexadecapole moment (field-independent basis, Debye-Ang**3):
 XXXX=          -1285.0473 YYYY=           -536.8417 ZZZZ=            -69.3075 XXXY=             -1.6195
 XXXZ=              0.1064 YYYX=             51.6707 YYYZ=              5.1137 ZZZX=              1.1403
 ZZZY=              1.9973 XXYY=           -364.9068 XXZZ=           -323.0606 YYZZ=           -108.9716
 XXYZ=              4.3651 YYXZ=              4.0765 ZZXY=             -5.7774
 N-N= 4.407926688988D+02 E-N=-1.889171598302D+03  KE= 4.293206135473D+02
 PrsmSu:  requested number of processors reduced to:  13 ShMem   1 Linda.
 Calling FoFJK, ICntrl=      2127 FMM=F ISym2X=0 I1Cent= 0 IOpClX= 0 NMat=1 NMatS=1 NMatT=0.
 ***** Axes restored to original set *****
 -------------------------------------------------------------------
 Center     Atomic                   Forces (Hartrees/Bohr)
 Number     Number              X              Y              Z
 -------------------------------------------------------------------
      1        6           0.020065893   -0.002112512   -0.008147298
      2        7          -0.014355212    0.004919809   -0.002687621
      3        6           0.013298168    0.000368077    0.009544678
      4        6          -0.027428632    0.007331622   -0.025802206
      5        7           0.021262899   -0.009347975    0.032231821
      6        7          -0.001735901   -0.007861938   -0.015157367
      7        6          -0.004536275   -0.002248910    0.015511713
      8        7           0.009320794    0.003725849   -0.014085498
      9        7          -0.015588912   -0.007405734    0.020900348
     10        1           0.008595216    0.000368896    0.001009916
     11        1          -0.000972185    0.000343000   -0.003350360
     12        1          -0.002513232    0.002504003   -0.002665018
     13        1           0.000681612    0.001281682   -0.002903721
     14        1          -0.002432339    0.000749826   -0.000984784
     15        1          -0.009558808   -0.001314500    0.004707568
     16        1           0.010111876    0.002007640   -0.009112138
     17        1          -0.002234386    0.002332968    0.006130197
     18        1          -0.000061261    0.002127361    0.001149397
     19        1           0.009263678   -0.001486751    0.002728202
     20        1          -0.011182993    0.003717586   -0.009017828
 -------------------------------------------------------------------
 Cartesian Forces:  Max     0.032231821 RMS     0.010346535

 GradGradGradGradGradGradGradGradGradGradGradGradGradGradGradGradGradGrad
 Berny optimization.
 FormGI is forming the generalized inverse of G from B-inverse, IUseBI=4.
 Internal  Forces:  Max     0.036140675 RMS     0.009110828
 Search for a local minimum.
 Step number   1 out of a maximum of   90
 All quantities printed in internal units (Hartrees-Bohrs-Radians)
 Mixed Optimization -- RFO/linear search
 Second derivative matrix not updated -- first step.
 ITU=  0
     Eigenvalues ---    0.00688   0.00699   0.00750   0.00810   0.01098
     Eigenvalues ---    0.01856   0.02261   0.02262   0.02363   0.02590
     Eigenvalues ---    0.02871   0.02994   0.03275   0.05988   0.07047
     Eigenvalues ---    0.07306   0.07353   0.11667   0.12016   0.14086
     Eigenvalues ---    0.16000   0.16000   0.16000   0.16000   0.16000
     Eigenvalues ---    0.16000   0.16000   0.16000   0.22000   0.22000
     Eigenvalues ---    0.22185   0.23511   0.24919   0.24952   0.25000
     Eigenvalues ---    0.33962   0.34044   0.34263   0.34265   0.34454
     Eigenvalues ---    0.35049   0.35599   0.35642   0.35688   0.36146
     Eigenvalues ---    0.38899   0.43217   0.44108   0.45481   0.45513
     Eigenvalues ---    0.47739   0.53565   0.57017   0.83137
 RFO step:  Lambda=-2.33561468D-02 EMin= 6.88436289D-03
 Linear search not attempted -- first point.
 Iteration  1 RMS(Cart)=  0.14227752 RMS(Int)=  0.00813147
 Iteration  2 RMS(Cart)=  0.01358766 RMS(Int)=  0.00066259
 Iteration  3 RMS(Cart)=  0.00018231 RMS(Int)=  0.00065249
 Iteration  4 RMS(Cart)=  0.00000012 RMS(Int)=  0.00065249
 Variable       Old X    -DE/DX   Delta X   Delta X   Delta X     New X
                                 (Linear)    (Quad)   (Total)
    R1        2.78013  -0.02377   0.00000  -0.06265  -0.06265   2.71748
    R2        2.06570  -0.00336   0.00000  -0.00912  -0.00912   2.05658
    R3        2.06884   0.00237   0.00000   0.00647   0.00647   2.07532
    R4        2.06889   0.00379   0.00000   0.01034   0.01034   2.07923
    R5        2.62218   0.00898   0.00000   0.01793   0.01793   2.64011
    R6        2.73077  -0.01672   0.00000  -0.04055  -0.04055   2.69023
    R7        2.53382   0.00424   0.00000   0.00714   0.00714   2.54096
    R8        2.04572   0.00077   0.00000   0.00202   0.00202   2.04774
    R9        2.56429   0.03614   0.00000   0.06465   0.06465   2.62895
   R10        2.04646   0.00225   0.00000   0.00594   0.00594   2.05240
   R11        1.91421  -0.00953   0.00000  -0.01994  -0.01994   1.89427
   R12        1.91384  -0.01313   0.00000  -0.02743  -0.02743   1.88641
   R13        2.77153  -0.01130   0.00000  -0.02938  -0.02938   2.74216
   R14        1.93026   0.00070   0.00000   0.00150   0.00150   1.93175
   R15        2.78895  -0.00625   0.00000  -0.01672  -0.01672   2.77223
   R16        2.07256  -0.00168   0.00000  -0.00461  -0.00461   2.06795
   R17        2.07395   0.00361   0.00000   0.00995   0.00995   2.08390
   R18        2.36267  -0.02524   0.00000  -0.02953  -0.02953   2.33314
   R19        1.94103   0.00311   0.00000   0.00683   0.00683   1.94786
    A1        1.97607  -0.01210   0.00000  -0.06773  -0.06761   1.90845
    A2        1.92981   0.00242   0.00000   0.01423   0.01412   1.94393
    A3        1.91882   0.00394   0.00000   0.02215   0.02211   1.94093
    A4        1.86815   0.00476   0.00000   0.02467   0.02471   1.89286
    A5        1.86378   0.00357   0.00000   0.01743   0.01761   1.88140
    A6        1.90464  -0.00242   0.00000  -0.00980  -0.01004   1.89460
    A7        2.13318   0.00905   0.00000   0.03265   0.03257   2.16575
    A8        2.00372  -0.01787   0.00000  -0.06594  -0.06597   1.93775
    A9        2.14331   0.00877   0.00000   0.03167   0.03158   2.17489
   A10        2.26780  -0.00536   0.00000  -0.02202  -0.02203   2.24577
   A11        2.00964  -0.00051   0.00000  -0.00636  -0.00638   2.00326
   A12        2.00571   0.00588   0.00000   0.02847   0.02845   2.03416
   A13        2.21058  -0.00519   0.00000  -0.02131  -0.02133   2.18926
   A14        2.11319   0.00109   0.00000   0.00247   0.00245   2.11565
   A15        1.95940   0.00410   0.00000   0.01889   0.01888   1.97827
   A16        2.10160   0.00370   0.00000   0.02012   0.02010   2.12170
   A17        2.09151   0.00206   0.00000   0.01118   0.01117   2.10268
   A18        2.08998  -0.00576   0.00000  -0.03144  -0.03145   2.05852
   A19        2.01526  -0.00098   0.00000  -0.00873  -0.00888   2.00639
   A20        1.90914  -0.00541   0.00000  -0.04983  -0.04980   1.85934
   A21        1.85926   0.00441   0.00000   0.01954   0.01902   1.87829
   A22        1.97150  -0.03027   0.00000  -0.12572  -0.12500   1.84650
   A23        1.90782   0.00512   0.00000   0.01096   0.00898   1.91680
   A24        1.90923   0.01680   0.00000   0.09643   0.09645   2.00568
   A25        1.88171   0.00936   0.00000   0.02304   0.02160   1.90331
   A26        1.87680   0.00476   0.00000   0.01256   0.01549   1.89229
   A27        1.91611  -0.00581   0.00000  -0.01765  -0.01936   1.89675
   A28        1.94521  -0.00814   0.00000  -0.02978  -0.02978   1.91543
   A29        1.96042  -0.02803   0.00000  -0.15288  -0.15288   1.80755
    D1        0.04435   0.00015   0.00000   0.00682   0.00672   0.05107
    D2        3.10530  -0.00026   0.00000  -0.01385  -0.01363   3.09167
    D3       -2.05181   0.00057   0.00000   0.01119   0.01114  -2.04067
    D4        1.00914   0.00016   0.00000  -0.00948  -0.00921   0.99993
    D5        2.12719  -0.00052   0.00000  -0.00013  -0.00046   2.12673
    D6       -1.09505  -0.00093   0.00000  -0.02080  -0.02081  -1.11586
    D7       -0.05117  -0.00024   0.00000  -0.00008  -0.00049  -0.05166
    D8        3.10017  -0.00081   0.00000  -0.01203  -0.01233   3.08784
    D9       -3.10565   0.00142   0.00000   0.02670   0.02700  -3.07865
   D10        0.04569   0.00085   0.00000   0.01475   0.01516   0.06085
   D11       -3.11704   0.00373   0.00000   0.10107   0.10121  -3.01583
   D12        1.06988   0.00273   0.00000   0.11921   0.11873   1.18861
   D13       -0.05662   0.00332   0.00000   0.08028   0.08075   0.02413
   D14       -2.15288   0.00233   0.00000   0.09841   0.09827  -2.05461
   D15       -3.12073  -0.00118   0.00000  -0.02356  -0.02360   3.13886
   D16        0.01500  -0.00069   0.00000  -0.01378  -0.01384   0.00116
   D17        0.01113  -0.00064   0.00000  -0.01180  -0.01174  -0.00061
   D18       -3.13632  -0.00016   0.00000  -0.00202  -0.00198  -3.13831
   D19       -0.00968   0.00017   0.00000   0.00334   0.00336  -0.00632
   D20       -3.13589   0.00066   0.00000   0.01407   0.01408  -3.12181
   D21        3.13733  -0.00027   0.00000  -0.00568  -0.00569   3.13164
   D22        0.01112   0.00022   0.00000   0.00505   0.00504   0.01616
   D23       -3.10242   0.00179   0.00000   0.02519   0.02712  -3.07530
   D24        1.08581   0.00607   0.00000   0.07012   0.07036   1.15617
   D25       -1.01271  -0.00021   0.00000   0.02612   0.02432  -0.98838
   D26       -0.97913  -0.00249   0.00000  -0.02971  -0.02802  -1.00715
   D27       -3.07408   0.00179   0.00000   0.01522   0.01522  -3.05887
   D28        1.11059  -0.00449   0.00000  -0.02878  -0.03082   1.07977
   D29        3.13726   0.00422   0.00000   0.04460   0.04470  -3.10122
   D30       -1.03606  -0.00195   0.00000  -0.00478  -0.00442  -1.04048
   D31        1.02900  -0.00126   0.00000  -0.00658  -0.00703   1.02196
   D32        3.12176   0.00252   0.00000   0.04483   0.04483  -3.11659
         Item               Value     Threshold  Converged?
 Maximum Force            0.036141     0.000450     NO 
 RMS     Force            0.009111     0.000300     NO 
 Maximum Displacement     0.650791     0.001800     NO 
 RMS     Displacement     0.146865     0.001200     NO 
 Predicted change in Energy=-1.331524D-02
 GradGradGradGradGradGradGradGradGradGradGradGradGradGradGradGradGradGrad

                          Input orientation:                          
 ---------------------------------------------------------------------
 Center     Atomic      Atomic             Coordinates (Angstroms)
 Number     Number       Type             X           Y           Z
 ---------------------------------------------------------------------
      1          6           0        1.186314   -0.012449   -0.057583
      2          7           0        2.601979    0.022205    0.192653
      3          6           0        3.189768   -0.316279    1.414038
      4          6           0        2.591428   -0.670703    2.564849
      5          7           0        3.247127   -0.998901    3.747102
      6          7           0        3.324191    0.315444   -0.998598
      7          6           0        4.766749    0.210688   -0.881519
      8          7           0        5.304746    0.639206   -2.177291
      9          7           0        6.534874    0.533745   -2.173675
     10          1           0        0.665137   -0.288025    0.857194
     11          1           0        0.935076   -0.746048   -0.835259
     12          1           0        0.813614    0.973586   -0.372947
     13          1           0        4.272969   -0.286904    1.420377
     14          1           0        1.509634   -0.727829    2.642503
     15          1           0        4.247498   -0.994942    3.810823
     16          1           0        2.727925   -1.268538    4.555940
     17          1           0        3.103007    1.283316   -1.242060
     18          1           0        5.049999   -0.831335   -0.704106
     19          1           0        5.215648    0.837753   -0.093266
     20          1           0        6.809786    0.878140   -3.105496
 ---------------------------------------------------------------------
                    Distance matrix (angstroms):
                    1          2          3          4          5
     1  C    0.000000
     2  N    1.438028   0.000000
     3  C    2.504358   1.397085   0.000000
     4  C    3.047096   2.471345   1.344616   0.000000
     5  N    4.437980   3.754062   2.431553   1.391178   0.000000
     6  N    2.358715   1.423608   2.497589   3.769294   4.924947
     7  C    3.680784   2.423964   2.834457   4.169691   5.019611
     8  N    4.677531   3.647229   4.275948   5.618349   6.481946
     9  N    5.777825   4.618316   4.978349   6.281326   6.943621
    10  H    1.088295   2.071041   2.585466   2.602523   3.939998
    11  H    1.098212   2.103659   3.213670   3.782845   5.138828
    12  H    1.100283   2.103159   3.240860   3.807224   5.175664
    13  H    3.433239   2.096441   1.083618   2.069951   2.640632
    14  H    2.811899   2.785234   2.121638   1.086081   2.076656
    15  H    5.029981   4.102861   2.706281   2.097653   1.002406
    16  H    5.023836   4.551939   3.315365   2.083383   0.998246
    17  H    2.599173   1.974800   3.101788   4.309578   5.488263
    18  H    4.002078   2.743267   2.865707   4.093463   4.805380
    19  H    4.118209   2.752842   2.776319   4.028342   4.690074
    20  H    6.458046   5.414431   5.912475   7.235073   7.948203
                    6          7          8          9         10
     6  N    0.000000
     7  C    1.451087   0.000000
     8  N    2.327389   1.467002   0.000000
     9  N    3.425922   2.213661   1.234645   0.000000
    10  H    3.298288   4.482751   5.620839   6.656972   0.000000
    11  H    2.619411   3.949582   4.776400   5.898047   1.773993
    12  H    2.669755   4.058071   4.851571   6.014058   1.768319
    13  H    2.667291   2.406272   3.855576   4.325146   3.651524
    14  H    4.199839   4.889616   6.285068   7.073908   2.023347
    15  H    5.069530   4.872498   6.296485   6.586591   4.696485
    16  H    5.806671   5.992569   7.457607   7.939068   4.347094
    17  H    1.022240   2.012103   2.477335   3.634209   3.580390
    18  H    2.092902   1.094312   2.097060   2.495581   4.686135
    19  H    2.161028   1.102753   2.095357   2.482112   4.783085
    20  H    4.111572   3.092825   1.784321   1.030765   7.404024
                   11         12         13         14         15
    11  H    0.000000
    12  H    1.784832   0.000000
    13  H    4.054656   4.095362   0.000000
    14  H    3.524951   3.531600   3.053527   0.000000
    15  H    5.711407   5.759392   2.493230   2.988682   0.000000
    16  H    5.705466   5.743312   3.630774   2.331918   1.714397
    17  H    2.997287   2.468322   3.304993   4.655467   5.659677
    18  H    4.117896   4.616749   2.326717   4.872852   4.588612
    19  H    4.624097   4.413001   2.108225   4.865184   4.420180
    20  H    6.504167   6.590146   5.317547   7.981870   7.609811
                   16         17         18         19         20
    16  H    0.000000
    17  H    6.345822   0.000000
    18  H    5.766391   2.924367   0.000000
    19  H    5.678058   2.445712   1.785055   0.000000
    20  H    8.942451   4.168546   3.433050   3.408290   0.000000
 Stoichiometry    C4H11N5
 Framework group  C1[X(C4H11N5)]
 Deg. of freedom    54
 Full point group                 C1      NOp   1
 Largest Abelian subgroup         C1      NOp   1
 Largest concise Abelian subgroup C1      NOp   1
                         Standard orientation:                         
 ---------------------------------------------------------------------
 Center     Atomic      Atomic             Coordinates (Angstroms)
 Number     Number       Type             X           Y           Z
 ---------------------------------------------------------------------
      1          6           0       -1.061681    2.197154   -0.080329
      2          7           0       -0.504581    0.876478    0.035337
      3          6           0       -1.264193   -0.296041    0.041207
      4          6           0       -2.601370   -0.431100   -0.000134
      5          7           0       -3.290570   -1.639547    0.005963
      6          7           0        0.918161    0.918126    0.008290
      7          6           0        1.567739   -0.378330   -0.045603
      8          7           0        3.007551   -0.106961    0.027836
      9          7           0        3.636563   -1.165780   -0.059322
     10          1           0       -2.147510    2.129282   -0.107759
     11          1           0       -0.721319    2.696318   -0.997421
     12          1           0       -0.785508    2.822545    0.781785
     13          1           0       -0.685995   -1.211552    0.083109
     14          1           0       -3.253570    0.436120   -0.046373
     15          1           0       -2.808975   -2.518111    0.037758
     16          1           0       -4.287460   -1.654073   -0.043966
     17          1           0        1.212273    1.375814    0.873735
     18          1           0        1.344349   -0.865996   -0.999436
     19          1           0        1.300569   -1.066260    0.773809
     20          1           0        4.620302   -0.870398    0.027183
 ---------------------------------------------------------------------
 Rotational constants (GHZ):           2.7791075           0.7260059           0.5812180
 Standard basis: 6-31G(2df,p) (6D, 7F)
 There are   334 symmetry adapted cartesian basis functions of A   symmetry.
 There are   307 symmetry adapted basis functions of A   symmetry.
   307 basis functions,   473 primitive gaussians,   334 cartesian basis functions
    35 alpha electrons       35 beta electrons
       nuclear repulsion energy       443.9516609729 Hartrees.
 NAtoms=   20 NActive=   20 NUniq=   20 SFac= 1.00D+00 NAtFMM=   60 NAOKFM=F Big=F
 Integral buffers will be    131072 words long.
 Raffenetti 2 integral format.
 Two-electron integral symmetry is turned on.
 One-electron integrals computed using PRISM.
 PrsmSu:  requested number of processors reduced to:  13 ShMem   1 Linda.
 NBasis=   307 RedAO= T EigKep=  2.06D-04  NBF=   307
 NBsUse=   307 1.00D-06 EigRej= -1.00D+00 NBFU=   307
 Initial guess from the checkpoint file:  "CNpCdCNpNCNdN.chk"
 B after Tr=    -0.000000    0.000000    0.000000
         Rot=    0.999821   -0.001945    0.000591    0.018793 Ang=  -2.17 deg.
 ExpMin= 1.61D-01 ExpMax= 4.17D+03 ExpMxC= 6.27D+02 IAcc=2 IRadAn=         4 AccDes= 0.00D+00
 Harris functional with IExCor=  402 and IRadAn=       4 diagonalized for initial guess.
 HarFok:  IExCor=  402 AccDes= 0.00D+00 IRadAn=         4 IDoV= 1 UseB2=F ITyADJ=14
 ICtDFT=  3500011 ScaDFX=  1.000000  1.000000  1.000000  1.000000
 FoFCou: FMM=F IPFlag=           0 FMFlag=      100000 FMFlg1=           0
         NFxFlg=           0 DoJE=T BraDBF=F KetDBF=T FulRan=T
         wScrn=  0.000000 ICntrl=       500 IOpCl=  0 I1Cent=   200000004 NGrid=           0
         NMat0=    1 NMatS0=      1 NMatT0=    0 NMatD0=    1 NMtDS0=    0 NMtDT0=    0
 Petite list used in FoFCou.
 Requested convergence on RMS density matrix=1.00D-08 within 128 cycles.
 Requested convergence on MAX density matrix=1.00D-06.
 Requested convergence on             energy=1.00D-06.
 No special actions if energy rises.
 Integral accuracy reduced to 1.0D-05 until final iterations.
 Initial convergence to 1.0D-05 achieved.  Increase integral accuracy.
 SCF Done:  E(RB3LYP) =  -432.674286015     A.U. after   14 cycles
            NFock= 14  Conv=0.51D-08     -V/T= 2.0074
 PrsmSu:  requested number of processors reduced to:  13 ShMem   1 Linda.
 Calling FoFJK, ICntrl=      2127 FMM=F ISym2X=0 I1Cent= 0 IOpClX= 0 NMat=1 NMatS=1 NMatT=0.
 ***** Axes restored to original set *****
 -------------------------------------------------------------------
 Center     Atomic                   Forces (Hartrees/Bohr)
 Number     Number              X              Y              Z
 -------------------------------------------------------------------
      1        6           0.004418573   -0.004472283    0.002377486
      2        7          -0.006240861   -0.001285965   -0.000406860
      3        6           0.004370231    0.001070016    0.004379461
      4        6          -0.006955959    0.001151254   -0.006600536
      5        7           0.003327654    0.000083974    0.002007167
      6        7           0.001169951   -0.000987867    0.004200044
      7        6          -0.010273525   -0.002977822    0.000354755
      8        7          -0.007207020    0.001088755    0.008712319
      9        7           0.007245517    0.004140825   -0.011187318
     10        1          -0.001742069    0.000363196   -0.000023661
     11        1          -0.000383698    0.000770484   -0.001010413
     12        1          -0.001193098    0.000731740   -0.000917943
     13        1          -0.000265379    0.000892440   -0.002047103
     14        1           0.001424994    0.000227478    0.001163259
     15        1          -0.000599412   -0.000403296    0.000325096
     16        1           0.000016034   -0.000560807    0.000519176
     17        1           0.003003598    0.002639450   -0.000852851
     18        1          -0.000040193   -0.000755585    0.001657342
     19        1           0.001185933   -0.000310465   -0.000633597
     20        1           0.008738728   -0.001405522   -0.002015824
 -------------------------------------------------------------------
 Cartesian Forces:  Max     0.011187318 RMS     0.003683046

 GradGradGradGradGradGradGradGradGradGradGradGradGradGradGradGradGradGrad
 Berny optimization.
 Using GEDIIS/GDIIS optimizer.
 FormGI is forming the generalized inverse of G from B-inverse, IUseBI=4.
 Internal  Forces:  Max     0.016389739 RMS     0.003580208
 Search for a local minimum.
 Step number   2 out of a maximum of   90
 All quantities printed in internal units (Hartrees-Bohrs-Radians)
 Mixed Optimization -- RFO/linear search
 Update second derivatives using D2CorX and points    1    2
 DE= -1.08D-02 DEPred=-1.33D-02 R= 8.11D-01
 TightC=F SS=  1.41D+00  RLast= 3.73D-01 DXNew= 5.0454D-01 1.1198D+00
 Trust test= 8.11D-01 RLast= 3.73D-01 DXMaxT set to 5.05D-01
 ITU=  1  0
 Use linear search instead of GDIIS.
     Eigenvalues ---    0.00686   0.00692   0.00750   0.00811   0.01130
     Eigenvalues ---    0.01856   0.02261   0.02263   0.02371   0.02588
     Eigenvalues ---    0.02869   0.03193   0.03322   0.06624   0.07165
     Eigenvalues ---    0.07304   0.07427   0.11056   0.11927   0.13308
     Eigenvalues ---    0.15613   0.16000   0.16000   0.16000   0.16000
     Eigenvalues ---    0.16000   0.16000   0.18481   0.20512   0.22000
     Eigenvalues ---    0.22103   0.23749   0.24490   0.24861   0.29006
     Eigenvalues ---    0.33943   0.34055   0.34156   0.34266   0.34458
     Eigenvalues ---    0.34728   0.35624   0.35688   0.36051   0.36842
     Eigenvalues ---    0.39546   0.43188   0.44107   0.45431   0.45607
     Eigenvalues ---    0.47746   0.52064   0.57055   0.87408
 RFO step:  Lambda=-5.32498393D-03 EMin= 6.85546795D-03
 Quartic linear search produced a step of -0.08760.
 Iteration  1 RMS(Cart)=  0.11494177 RMS(Int)=  0.00949134
 Iteration  2 RMS(Cart)=  0.01996679 RMS(Int)=  0.00016939
 Iteration  3 RMS(Cart)=  0.00028059 RMS(Int)=  0.00006064
 Iteration  4 RMS(Cart)=  0.00000006 RMS(Int)=  0.00006064
 Variable       Old X    -DE/DX   Delta X   Delta X   Delta X     New X
                                 (Linear)    (Quad)   (Total)
    R1        2.71748  -0.00109   0.00549  -0.01735  -0.01186   2.70562
    R2        2.05658   0.00072   0.00080  -0.00029   0.00051   2.05709
    R3        2.07532   0.00029  -0.00057   0.00225   0.00169   2.07701
    R4        2.07923   0.00132  -0.00091   0.00581   0.00491   2.08414
    R5        2.64011  -0.00026  -0.00157   0.00368   0.00210   2.64221
    R6        2.69023   0.00204   0.00355  -0.00484  -0.00129   2.68894
    R7        2.54096  -0.00110  -0.00063  -0.00006  -0.00069   2.54027
    R8        2.04774  -0.00025  -0.00018  -0.00015  -0.00033   2.04741
    R9        2.62895   0.00392  -0.00566   0.02144   0.01577   2.64472
   R10        2.05240  -0.00135  -0.00052  -0.00194  -0.00246   2.04994
   R11        1.89427  -0.00058   0.00175  -0.00575  -0.00401   1.89027
   R12        1.88641   0.00056   0.00240  -0.00528  -0.00288   1.88353
   R13        2.74216  -0.00058   0.00257  -0.00829  -0.00571   2.73644
   R14        1.93175   0.00205  -0.00013   0.00445   0.00432   1.93607
   R15        2.77223   0.00830   0.00146   0.01691   0.01837   2.79060
   R16        2.06795   0.00098   0.00040   0.00144   0.00185   2.06980
   R17        2.08390  -0.00015  -0.00087   0.00195   0.00108   2.08498
   R18        2.33314   0.01565   0.00259   0.00990   0.01249   2.34563
   R19        1.94786   0.00368  -0.00060   0.00910   0.00850   1.95637
    A1        1.90845   0.00234   0.00592  -0.00117   0.00472   1.91317
    A2        1.94393   0.00002  -0.00124   0.00285   0.00161   1.94554
    A3        1.94093   0.00055  -0.00194   0.00636   0.00442   1.94536
    A4        1.89286  -0.00045  -0.00216   0.00723   0.00504   1.89790
    A5        1.88140  -0.00122  -0.00154  -0.00113  -0.00271   1.87869
    A6        1.89460  -0.00132   0.00088  -0.01423  -0.01333   1.88127
    A7        2.16575   0.00158  -0.00285   0.01248   0.00949   2.17525
    A8        1.93775   0.00083   0.00578  -0.01343  -0.00776   1.92999
    A9        2.17489  -0.00244  -0.00277  -0.00189  -0.00476   2.17013
   A10        2.24577  -0.00147   0.00193  -0.01107  -0.00915   2.23662
   A11        2.00326  -0.00153   0.00056  -0.01092  -0.01037   1.99289
   A12        2.03416   0.00301  -0.00249   0.02199   0.01949   2.05364
   A13        2.18926  -0.00243   0.00187  -0.01469  -0.01282   2.17644
   A14        2.11565   0.00241  -0.00021   0.01183   0.01162   2.12726
   A15        1.97827   0.00001  -0.00165   0.00285   0.00120   1.97947
   A16        2.12170   0.00036  -0.00176   0.00670   0.00489   2.12659
   A17        2.10268   0.00014  -0.00098   0.00333   0.00230   2.10498
   A18        2.05852  -0.00051   0.00276  -0.01047  -0.00776   2.05076
   A19        2.00639   0.00612   0.00078   0.02377   0.02446   2.03085
   A20        1.85934   0.00001   0.00436   0.00201   0.00624   1.86558
   A21        1.87829  -0.00263  -0.00167  -0.00131  -0.00314   1.87515
   A22        1.84650  -0.00006   0.01095  -0.02927  -0.01832   1.82817
   A23        1.91680  -0.00085  -0.00079  -0.00149  -0.00209   1.91471
   A24        2.00568   0.00162  -0.00845   0.03239   0.02392   2.02960
   A25        1.90331   0.00152  -0.00189   0.01699   0.01522   1.91853
   A26        1.89229  -0.00146  -0.00136  -0.00765  -0.00914   1.88316
   A27        1.89675  -0.00070   0.00170  -0.01110  -0.00927   1.88748
   A28        1.91543   0.01639   0.00261   0.05022   0.05282   1.96826
   A29        1.80755   0.01594   0.01339   0.04905   0.06244   1.86999
    D1        0.05107   0.00041  -0.00059   0.01036   0.00982   0.06089
    D2        3.09167  -0.00014   0.00119  -0.01976  -0.01862   3.07305
    D3       -2.04067  -0.00056  -0.00098   0.00033  -0.00061  -2.04128
    D4        0.99993  -0.00111   0.00081  -0.02979  -0.02905   0.97088
    D5        2.12673   0.00073   0.00004   0.01212   0.01223   2.13897
    D6       -1.11586   0.00018   0.00182  -0.01799  -0.01620  -1.13206
    D7       -0.05166  -0.00013   0.00004  -0.01091  -0.01089  -0.06256
    D8        3.08784  -0.00025   0.00108  -0.01845  -0.01736   3.07048
    D9       -3.07865   0.00027  -0.00237   0.02374   0.02137  -3.05728
   D10        0.06085   0.00014  -0.00133   0.01620   0.01490   0.07575
   D11       -3.01583   0.00291  -0.00887   0.25137   0.24246  -2.77337
   D12        1.18861   0.00253  -0.01040   0.23738   0.22684   1.41545
   D13        0.02413   0.00263  -0.00707   0.22205   0.21512   0.23925
   D14       -2.05461   0.00226  -0.00861   0.20807   0.19950  -1.85511
   D15        3.13886  -0.00045   0.00207  -0.01909  -0.01705   3.12181
   D16        0.00116  -0.00046   0.00121  -0.01652  -0.01532  -0.01416
   D17       -0.00061  -0.00032   0.00103  -0.01140  -0.01036  -0.01097
   D18       -3.13831  -0.00033   0.00017  -0.00883  -0.00863   3.13625
   D19       -0.00632  -0.00023  -0.00029  -0.00632  -0.00661  -0.01294
   D20       -3.12181   0.00030  -0.00123   0.01405   0.01281  -3.10900
   D21        3.13164  -0.00022   0.00050  -0.00869  -0.00819   3.12345
   D22        0.01616   0.00032  -0.00044   0.01167   0.01124   0.02739
   D23       -3.07530  -0.00005  -0.00238   0.01290   0.01043  -3.06488
   D24        1.15617  -0.00138  -0.00616   0.00987   0.00368   1.15985
   D25       -0.98838  -0.00096  -0.00213   0.00208   0.00003  -0.98835
   D26       -1.00715   0.00188   0.00245   0.02911   0.03149  -0.97566
   D27       -3.05887   0.00055  -0.00133   0.02607   0.02474  -3.03412
   D28        1.07977   0.00097   0.00270   0.01829   0.02109   1.10086
   D29       -3.10122   0.00099  -0.00392   0.05286   0.04904  -3.05218
   D30       -1.04048   0.00072   0.00039   0.04383   0.04416  -0.99632
   D31        1.02196  -0.00009   0.00062   0.03573   0.03630   1.05827
   D32       -3.11659  -0.00257  -0.00393  -0.04706  -0.05099   3.11561
         Item               Value     Threshold  Converged?
 Maximum Force            0.016390     0.000450     NO 
 RMS     Force            0.003580     0.000300     NO 
 Maximum Displacement     0.401125     0.001800     NO 
 RMS     Displacement     0.130427     0.001200     NO 
 Predicted change in Energy=-3.294787D-03
 GradGradGradGradGradGradGradGradGradGradGradGradGradGradGradGradGradGrad

                          Input orientation:                          
 ---------------------------------------------------------------------
 Center     Atomic      Atomic             Coordinates (Angstroms)
 Number     Number       Type             X           Y           Z
 ---------------------------------------------------------------------
      1          6           0        1.216875   -0.062333   -0.082509
      2          7           0        2.605328    0.086155    0.233827
      3          6           0        3.177211   -0.231853    1.469456
      4          6           0        2.560013   -0.657860    2.585072
      5          7           0        3.210030   -0.978268    3.782355
      6          7           0        3.348178    0.437597   -0.927800
      7          6           0        4.769947    0.165731   -0.888393
      8          7           0        5.293783    0.719751   -2.153055
      9          7           0        6.499213    0.476254   -2.321448
     10          1           0        0.674942   -0.398322    0.799755
     11          1           0        1.064043   -0.792124   -0.890022
     12          1           0        0.771759    0.894131   -0.404057
     13          1           0        4.254275   -0.119106    1.502236
     14          1           0        1.484239   -0.789974    2.629862
     15          1           0        4.204006   -0.916683    3.876118
     16          1           0        2.693893   -1.315494    4.565514
     17          1           0        3.232142    1.446737   -1.061306
     18          1           0        4.938346   -0.916072   -0.856728
     19          1           0        5.332515    0.625487   -0.058053
     20          1           0        6.766733    0.878379   -3.237144
 ---------------------------------------------------------------------
                    Distance matrix (angstroms):
                    1          2          3          4          5
     1  C    0.000000
     2  N    1.431754   0.000000
     3  C    2.506043   1.398199   0.000000
     4  C    3.045433   2.466570   1.344252   0.000000
     5  N    4.443960   3.753761   2.430579   1.399525   0.000000
     6  N    2.346678   1.422924   2.494840   3.763177   4.920297
     7  C    3.650450   2.439526   2.873036   4.198461   5.055489
     8  N    4.638965   3.650539   4.302094   5.641024   6.515703
     9  N    5.762467   4.673751   5.089997   6.393548   7.084545
    10  H    1.088563   2.069150   2.595681   2.609255   3.957135
    11  H    1.099104   2.099993   3.216601   3.785794   5.145000
    12  H    1.102880   2.102783   3.250244   3.813321   5.193947
    13  H    3.426432   2.090459   1.083445   2.081661   2.650953
    14  H    2.820975   2.786652   2.127015   1.084781   2.083758
    15  H    5.032256   4.102164   2.704686   2.106301   1.000286
    16  H    5.035486   4.553678   3.315637   2.091066   0.996723
    17  H    2.701229   1.980264   3.037340   4.263468   5.416843
    18  H    3.895848   2.763465   2.996812   4.191554   4.950963
    19  H    4.172791   2.795286   2.777346   4.039784   4.671800
    20  H    6.452719   5.476546   6.022406   7.345388   8.085212
                    6          7          8          9         10
     6  N    0.000000
     7  C    1.448064   0.000000
     8  N    2.316515   1.476723   0.000000
     9  N    3.445689   2.267252   1.241253   0.000000
    10  H    3.290805   4.465094   5.594896   6.665503   0.000000
    11  H    2.594400   3.827690   4.666017   5.761843   1.778153
    12  H    2.668457   4.092756   4.851608   6.054316   1.768889
    13  H    2.652546   2.462145   3.891710   4.473786   3.658287
    14  H    4.199780   4.907888   6.298268   7.160221   2.039031
    15  H    5.064005   4.918585   6.341645   6.754115   4.710308
    16  H    5.803268   6.020726   7.486042   8.069763   4.370162
    17  H    1.024525   2.008909   2.443519   3.633669   3.661566
    18  H    2.089522   1.095289   2.117242   2.553484   4.603109
    19  H    2.174708   1.103323   2.097479   2.550767   4.845308
    20  H    4.148961   3.164120   1.835755   1.035264   7.418655
                   11         12         13         14         15
    11  H    0.000000
    12  H    1.779058   0.000000
    13  H    4.043938   4.097379   0.000000
    14  H    3.544878   3.542386   3.065078   0.000000
    15  H    5.708851   5.777479   2.504790   2.994385   0.000000
    16  H    5.717798   5.768334   3.640029   2.342260   1.707267
    17  H    3.121296   2.605923   3.173069   4.656475   5.559535
    18  H    3.876428   4.565325   2.582212   4.909487   4.789477
    19  H    4.574019   4.581744   2.037529   4.902820   4.373731
    20  H    6.389072   6.630713   5.456111   8.069071   7.770992
                   16         17         18         19         20
    16  H    0.000000
    17  H    6.291323   0.000000
    18  H    5.881991   2.921617   0.000000
    19  H    5.666314   2.468305   1.780352   0.000000
    20  H    9.070975   4.189348   3.497061   3.496792   0.000000
 Stoichiometry    C4H11N5
 Framework group  C1[X(C4H11N5)]
 Deg. of freedom    54
 Full point group                 C1      NOp   1
 Largest Abelian subgroup         C1      NOp   1
 Largest concise Abelian subgroup C1      NOp   1
                         Standard orientation:                         
 ---------------------------------------------------------------------
 Center     Atomic      Atomic             Coordinates (Angstroms)
 Number     Number       Type             X           Y           Z
 ---------------------------------------------------------------------
      1          6           0       -1.012981    2.180534   -0.160625
      2          7           0       -0.512420    0.861763    0.084735
      3          6           0       -1.298094   -0.294554    0.109378
      4          6           0       -2.632543   -0.394610   -0.018091
      5          7           0       -3.346145   -1.598464   -0.004726
      6          7           0        0.909776    0.866961    0.129939
      7          6           0        1.565062   -0.403278   -0.102406
      8          7           0        3.000839   -0.129648    0.108268
      9          7           0        3.719747   -1.106907   -0.154117
     10          1           0       -2.096371    2.147354   -0.261298
     11          1           0       -0.585977    2.608622   -1.078469
     12          1           0       -0.775449    2.863674    0.671987
     13          1           0       -0.735285   -1.210849    0.241675
     14          1           0       -3.262716    0.478637   -0.148745
     15          1           0       -2.888208   -2.482382    0.093021
     16          1           0       -4.334670   -1.603868   -0.132190
     17          1           0        1.176638    1.183195    1.067186
     18          1           0        1.393845   -0.723602   -1.135719
     19          1           0        1.276076   -1.231751    0.566506
     20          1           0        4.700873   -0.813519   -0.002178
 ---------------------------------------------------------------------
 Rotational constants (GHZ):           2.8648529           0.7078494           0.5753421
 Standard basis: 6-31G(2df,p) (6D, 7F)
 There are   334 symmetry adapted cartesian basis functions of A   symmetry.
 There are   307 symmetry adapted basis functions of A   symmetry.
   307 basis functions,   473 primitive gaussians,   334 cartesian basis functions
    35 alpha electrons       35 beta electrons
       nuclear repulsion energy       442.6374183984 Hartrees.
 NAtoms=   20 NActive=   20 NUniq=   20 SFac= 1.00D+00 NAtFMM=   60 NAOKFM=F Big=F
 Integral buffers will be    131072 words long.
 Raffenetti 2 integral format.
 Two-electron integral symmetry is turned on.
 One-electron integrals computed using PRISM.
 PrsmSu:  requested number of processors reduced to:  13 ShMem   1 Linda.
 NBasis=   307 RedAO= T EigKep=  2.18D-04  NBF=   307
 NBsUse=   307 1.00D-06 EigRej= -1.00D+00 NBFU=   307
 Initial guess from the checkpoint file:  "CNpCdCNpNCNdN.chk"
 B after Tr=     0.000000   -0.000000    0.000000
         Rot=    0.999989   -0.003698    0.000962    0.002781 Ang=  -0.54 deg.
 ExpMin= 1.61D-01 ExpMax= 4.17D+03 ExpMxC= 6.27D+02 IAcc=2 IRadAn=         4 AccDes= 0.00D+00
 Harris functional with IExCor=  402 and IRadAn=       4 diagonalized for initial guess.
 HarFok:  IExCor=  402 AccDes= 0.00D+00 IRadAn=         4 IDoV= 1 UseB2=F ITyADJ=14
 ICtDFT=  3500011 ScaDFX=  1.000000  1.000000  1.000000  1.000000
 FoFCou: FMM=F IPFlag=           0 FMFlag=      100000 FMFlg1=           0
         NFxFlg=           0 DoJE=T BraDBF=F KetDBF=T FulRan=T
         wScrn=  0.000000 ICntrl=       500 IOpCl=  0 I1Cent=   200000004 NGrid=           0
         NMat0=    1 NMatS0=      1 NMatT0=    0 NMatD0=    1 NMtDS0=    0 NMtDT0=    0
 Petite list used in FoFCou.
 Requested convergence on RMS density matrix=1.00D-08 within 128 cycles.
 Requested convergence on MAX density matrix=1.00D-06.
 Requested convergence on             energy=1.00D-06.
 No special actions if energy rises.
 Integral accuracy reduced to 1.0D-05 until final iterations.
 Initial convergence to 1.0D-05 achieved.  Increase integral accuracy.
 SCF Done:  E(RB3LYP) =  -432.677931140     A.U. after   14 cycles
            NFock= 14  Conv=0.43D-08     -V/T= 2.0076
 PrsmSu:  requested number of processors reduced to:  13 ShMem   1 Linda.
 Calling FoFJK, ICntrl=      2127 FMM=F ISym2X=0 I1Cent= 0 IOpClX= 0 NMat=1 NMatS=1 NMatT=0.
 ***** Axes restored to original set *****
 -------------------------------------------------------------------
 Center     Atomic                   Forces (Hartrees/Bohr)
 Number     Number              X              Y              Z
 -------------------------------------------------------------------
      1        6          -0.001979004   -0.002894163    0.000651266
      2        7           0.001268472   -0.003108505   -0.005771824
      3        6           0.000874410    0.001261157    0.002411389
      4        6           0.000872176   -0.000778650   -0.000189528
      5        7          -0.001597322    0.002296823   -0.002836300
      6        7          -0.001267310    0.007256388    0.008940985
      7        6           0.001069093   -0.002659175   -0.003475236
      8        7           0.003187429    0.000955072   -0.003302473
      9        7          -0.002999854   -0.003357176    0.002335230
     10        1          -0.001913314   -0.000287903    0.000070004
     11        1          -0.000164254    0.000429887    0.000226258
     12        1          -0.000213167   -0.000624091    0.000214035
     13        1          -0.000170034    0.000578846   -0.000692737
     14        1           0.001013400    0.000295758    0.000766497
     15        1           0.001402049   -0.000196253   -0.000622584
     16        1          -0.001491887   -0.001057507    0.001422447
     17        1           0.003220438    0.000056731   -0.001730589
     18        1           0.000728713   -0.000647865    0.000911259
     19        1          -0.000241725    0.000598367   -0.000687414
     20        1          -0.001598311    0.001882260    0.001359317
 -------------------------------------------------------------------
 Cartesian Forces:  Max     0.008940985 RMS     0.002322800

 GradGradGradGradGradGradGradGradGradGradGradGradGradGradGradGradGradGrad
 Berny optimization.
 Using GEDIIS/GDIIS optimizer.
 FormGI is forming the generalized inverse of G from B-inverse, IUseBI=4.
 Internal  Forces:  Max     0.005193447 RMS     0.001694384
 Search for a local minimum.
 Step number   3 out of a maximum of   90
 All quantities printed in internal units (Hartrees-Bohrs-Radians)
 Mixed Optimization -- RFO/linear search
 Update second derivatives using D2CorX and points    2    3
 DE= -3.65D-03 DEPred=-3.29D-03 R= 1.11D+00
 TightC=F SS=  1.41D+00  RLast= 4.71D-01 DXNew= 8.4853D-01 1.4128D+00
 Trust test= 1.11D+00 RLast= 4.71D-01 DXMaxT set to 8.49D-01
 ITU=  1  1  0
 Use linear search instead of GDIIS.
     Eigenvalues ---    0.00312   0.00689   0.00750   0.00824   0.01149
     Eigenvalues ---    0.01857   0.02259   0.02262   0.02383   0.02592
     Eigenvalues ---    0.02852   0.03014   0.03613   0.06631   0.07141
     Eigenvalues ---    0.07287   0.07361   0.10979   0.12086   0.13407
     Eigenvalues ---    0.15676   0.16000   0.16000   0.16000   0.16000
     Eigenvalues ---    0.16000   0.16191   0.19287   0.21407   0.22000
     Eigenvalues ---    0.22091   0.23639   0.24642   0.25264   0.32324
     Eigenvalues ---    0.33959   0.34038   0.34264   0.34272   0.34457
     Eigenvalues ---    0.35565   0.35681   0.35694   0.36057   0.37568
     Eigenvalues ---    0.41827   0.43945   0.45113   0.45503   0.45946
     Eigenvalues ---    0.47872   0.52680   0.57030   0.97281
 RFO step:  Lambda=-5.86616289D-03 EMin= 3.11693807D-03
 Quartic linear search produced a step of  0.55774.
 Iteration  1 RMS(Cart)=  0.10815678 RMS(Int)=  0.04940441
 Iteration  2 RMS(Cart)=  0.11281326 RMS(Int)=  0.00836859
 Iteration  3 RMS(Cart)=  0.01906447 RMS(Int)=  0.00043938
 Iteration  4 RMS(Cart)=  0.00023934 RMS(Int)=  0.00042127
 Iteration  5 RMS(Cart)=  0.00000038 RMS(Int)=  0.00042127
 Variable       Old X    -DE/DX   Delta X   Delta X   Delta X     New X
                                 (Linear)    (Quad)   (Total)
    R1        2.70562   0.00423  -0.00661   0.01050   0.00389   2.70951
    R2        2.05709   0.00110   0.00028   0.00382   0.00411   2.06119
    R3        2.07701  -0.00043   0.00094  -0.00097  -0.00003   2.07698
    R4        2.08414  -0.00052   0.00274  -0.00033   0.00241   2.08655
    R5        2.64221   0.00005   0.00117   0.00050   0.00167   2.64389
    R6        2.68894  -0.00145  -0.00072  -0.00393  -0.00465   2.68428
[...]
 5668796,-0.00054387,0.00027694,0.00107257,-0.00214069,0.00104568,-0.00
 086518,0.00091115,0.00209899,-0.00489029,-0.00019959,-0.00229883,0.002
 43636,0.00024071,0.00005994,-0.00175914,-0.03408708,-0.00671298,0.0248
 2670,-0.11789807,-0.06005889,0.00329484,0.29260799,-0.00074198,-0.0021
 0554,-0.00144740,0.00752313,-0.00297664,-0.00345914,0.00113007,0.00007
 759,0.00184641,-0.00008401,0.00029164,0.00048716,0.00010196,0.00006002
 ,-0.00118026,0.01582352,0.01664022,-0.01235760,-0.04277619,-0.13517877
 ,-0.00192574,0.01063329,0.35987248,0.00048796,0.00071209,0.00038007,0.
 00027158,0.00025197,-0.00241202,-0.00015379,-0.00298172,0.00296760,0.0
 0035877,0.00154778,-0.00253274,-0.00026853,-0.00005601,0.00267210,0.01
 913096,-0.00239992,-0.01171403,0.02493719,0.02823844,-0.07079358,-0.25
 542846,0.23616707,0.56968643,0.00058340,0.00074133,0.00017854,-0.00268
 302,0.00204599,0.00149090,-0.00070677,-0.00057189,0.00041892,0.0001246
 6,0.00053087,-0.00115342,-0.00008506,-0.00004782,0.00113993,-0.0021202
 5,-0.00538936,0.00277697,-0.03732735,0.02628255,0.04102085,-0.10274096
 ,0.03718763,0.18760371,0.34270530,-0.00013645,-0.00006507,-0.00011143,
 -0.00026308,0.00005079,0.00078875,0.00010194,0.00058847,-0.00091704,-0
 .00007289,-0.00050947,0.00101716,0.00006732,0.00005719,-0.00092584,-0.
 00215591,0.00096829,0.00173797,0.00596876,0.01321999,0.02568180,0.0327
 9360,-0.22936852,-0.26202187,0.10060809,0.38464507,-0.00046184,-0.0010
 2970,-0.00084176,0.00197455,-0.00072644,0.00183605,0.00091814,0.001746
 37,-0.00173021,-0.00028625,-0.00146912,0.00233471,0.00028092,0.0000591
 9,-0.00233537,-0.00361066,0.00445741,0.00154606,0.02356079,-0.00208526
 ,-0.05861294,0.18536872,-0.26300650,-0.42672446,-0.29132069,0.18450032
 ,0.54699069,-0.18370051,0.00683762,0.12449442,-0.02166655,-0.00586999,
 0.01617259,0.00096774,-0.00038230,0.00205563,-0.00003234,0.00013644,-0
 .00008955,0.00047596,0.00013747,-0.00070072,-0.00424915,-0.00115398,-0
 .00101228,0.00008225,-0.00104540,0.00001246,-0.00042554,0.00034850,0.0
 0001941,-0.00000544,0.00001142,0.00017661,0.20647651,0.01029219,-0.048
 15178,-0.01082370,-0.01524751,-0.00231912,0.01522154,0.00026623,0.0006
 6328,0.00009979,0.00057351,0.00043165,-0.00019547,-0.00018859,-0.00012
 886,-0.00008752,-0.00514764,-0.00115801,-0.00001013,-0.00050513,-0.001
 67967,-0.00049559,-0.00019742,0.00070023,-0.00001355,-0.00012094,-0.00
 006321,0.00023819,-0.00107957,0.05271648,0.13194546,-0.00663503,-0.172
 39109,-0.00997749,0.00219426,0.00928062,-0.00026719,-0.00054228,0.0010
 2817,0.00063419,0.00114540,-0.00150082,-0.00028420,-0.00027458,0.00033
 800,-0.00087630,-0.00122609,0.00027374,-0.00020506,-0.00007836,0.00017
 647,-0.00009920,0.00010762,0.00020318,-0.00000906,-0.00006824,-0.00006
 114,-0.14181361,0.00818208,0.18083953,-0.06898610,0.06127484,0.0108949
 2,0.00190869,-0.03367388,-0.01043606,0.00235363,-0.00217605,0.00450847
 ,0.00103874,0.00190133,0.00006879,-0.00025421,0.00000635,-0.00026140,0
 .00262839,-0.00058924,-0.00190049,0.00007845,0.00069517,0.00001383,0.0
 0022206,0.00012325,0.00006684,0.00005393,-0.00009832,0.00001567,-0.005
 89364,0.02247331,0.00320089,0.07111111,0.06244298,-0.25304047,-0.03354
 265,-0.01215928,-0.02171714,-0.01060470,0.00193299,0.00052709,0.004459
 08,-0.00130791,-0.00012463,0.00051769,0.00076561,0.00017347,-0.0022652
 0,0.00111950,0.00052820,-0.00144734,-0.00066668,-0.00177976,-0.0003906
 7,0.00007695,0.00097012,-0.00007242,-0.00028649,-0.00001522,0.00034713
 ,0.00179037,-0.00121903,0.00034733,-0.05845614,0.28687835,0.01017749,-
 0.03371704,-0.05719755,-0.00323336,-0.01388057,-0.00378232,0.00141012,
 -0.00234230,0.00326975,0.00122163,0.00022208,0.00024129,-0.00008134,0.
 00043482,-0.00012634,0.00021781,0.00035491,-0.00025229,-0.00024377,-0.
 00027564,0.00040746,-0.00008736,0.00008704,-0.00015095,-0.00010548,0.0
 0009641,0.00007435,0.00721445,-0.02118966,-0.00379556,-0.00896812,0.04
 434700,0.05646450,-0.06969462,0.03358915,-0.06359879,-0.01420443,0.007
 22026,-0.02908212,-0.00374829,-0.00336994,0.00117367,0.00018425,-0.000
 63202,0.00057055,0.00026499,0.00013230,-0.00043246,0.00226410,0.001264
 40,-0.00085933,-0.00073006,0.00035929,0.00044968,0.00006887,0.00002443
 ,-0.00001830,-0.00006096,-0.00002651,0.00006145,0.00952949,-0.01048641
 ,0.01889583,-0.00230039,0.00539253,-0.00758209,0.07827798,0.03858671,-
 0.09970583,0.10514000,-0.00901896,0.00704373,-0.02062470,-0.00316430,-
 0.00137785,-0.00025932,-0.00073924,-0.00080888,0.00052526,0.00030066,0
 .00030825,-0.00054836,0.00044257,0.00057775,-0.00095044,0.00017197,-0.
 00006821,0.00044348,-0.00005400,-0.00006551,0.00006857,-0.00004229,0.0
 0004259,-0.00005316,-0.00094018,0.00049999,-0.00310002,0.00845601,-0.0
 1264553,0.02582607,-0.03409765,0.10564246,-0.07193572,0.09738645,-0.24
 311371,-0.00571860,0.00197619,-0.01496431,-0.00161393,-0.00014591,0.00
 081694,-0.00022394,-0.00048843,0.00072959,-0.00003111,0.00011044,-0.00
 057527,0.00276292,0.00042067,0.00115998,-0.00029443,0.00006772,-0.0000
 0384,0.00008071,0.00009996,-0.00007236,-0.00005968,0.00001623,0.000102
 08,-0.00675753,0.00839365,-0.01473125,0.00267199,-0.00259653,0.0058717
 1,0.08126134,-0.10525110,0.26477419,0.00284800,0.00016982,-0.00208371,
 -0.01536496,-0.00838458,-0.00781679,-0.17970812,-0.12646698,-0.0571061
 7,-0.00318404,-0.00736607,-0.00471480,-0.00134007,0.00298106,-0.000181
 04,0.00082454,0.00130688,0.00108206,0.00034891,0.00046297,-0.00017415,
 -0.00002888,-0.00020600,0.00015668,0.00009852,-0.00004887,-0.00016251,
 0.00009062,0.00013362,0.00006948,-0.00066090,-0.00044179,-0.00050780,-
 0.00040637,-0.00053529,-0.00048279,0.19269942,0.00039073,0.00080086,0.
 00192367,0.00733074,0.00644289,0.00358051,-0.13088065,-0.15604026,-0.0
 4098211,-0.02020052,-0.01225651,-0.01051514,0.00269624,-0.00031641,-0.
 00172740,0.00107353,0.00117581,0.00022889,-0.00039239,-0.00005076,-0.0
 0031985,0.00024942,0.00001088,0.00015878,-0.00003360,0.00000401,0.0000
 5812,-0.00006662,-0.00024003,-0.00000688,0.00032244,0.00014677,0.00038
 985,0.00025547,0.00039438,0.00027428,0.14248078,0.16009328,0.00000456,
 0.00245143,-0.00444214,-0.02574670,-0.01708710,-0.01296015,-0.05794737
 ,-0.03949862,-0.06995384,0.01103121,0.01214068,0.00626146,0.00294715,-
 0.00097599,0.00264805,-0.00079892,-0.00112566,0.00322754,0.00030586,-0
 .00037829,-0.00051844,0.00023276,-0.00001285,0.00005352,0.00002319,0.0
 0003692,0.00003771,0.00004651,0.00001084,0.00034657,0.00003607,-0.0002
 2045,0.00005784,-0.00123229,-0.00074108,-0.00027463,0.07244205,0.04082
 478,0.07721469,-0.00022986,0.00070212,-0.00104628,-0.00207525,0.002634
 03,0.00151070,-0.00452133,-0.00665383,-0.00645652,-0.18745576,-0.13941
 100,-0.05744506,-0.00591561,-0.00567234,-0.00280902,0.00015091,0.00011
 899,0.00085837,0.00019259,-0.00047597,0.00008653,0.00004866,0.00007019
 ,-0.00006127,-0.00006464,0.00005764,0.00005391,-0.00036397,0.00031379,
 -0.00118485,0.00014479,0.00047313,0.00053144,0.00009376,0.00047742,0.0
 0011372,0.00412555,-0.00505970,-0.00162249,0.19480621,-0.00087131,-0.0
 0076678,0.00000560,0.00114272,-0.00036067,-0.00340209,-0.01780969,-0.0
 1048557,-0.00593256,-0.13608815,-0.16574236,-0.04215979,0.00291324,0.0
 0417549,0.00051007,0.00027045,-0.00033107,-0.00019573,-0.00018667,0.00
 034514,-0.00029505,0.00005111,-0.00004537,0.00007599,0.00005389,-0.000
 03416,-0.00002565,0.00094475,-0.00044145,0.00032172,-0.00045454,0.0005
 3588,-0.00037410,0.00045942,0.00027774,-0.00030280,-0.00401767,0.00108
 967,0.00501688,0.15289172,0.16862020,-0.00023129,0.00105429,-0.0010628
 3,0.00037865,-0.00220342,-0.00026150,0.01352704,0.01136568,0.01078909,
 -0.05435640,-0.04027891,-0.07193333,-0.02564570,-0.02194247,-0.0130180
 6,-0.00001695,-0.00022184,-0.00039949,-0.00012003,0.00022456,0.0000568
 4,-0.00001612,-0.00001576,-0.00003184,0.00001132,-0.00001507,0.0000089
 1,-0.00027496,0.00020642,-0.00037272,-0.00058884,-0.00020852,-0.001272
 22,0.00035056,-0.00010735,-0.00019065,-0.00079762,0.00523903,-0.000786
 07,0.06992133,0.04521566,0.08243726,0.00013799,-0.00039452,-0.00013070
 ,-0.00042465,0.00048173,-0.00064038,0.00268085,0.00025902,0.00238816,-
 0.01069877,-0.00521754,0.00335718,-0.29469823,-0.19126011,-0.09753626,
 -0.00011832,-0.00007623,0.00006055,0.00012285,0.00001533,0.00003369,-0
 .00007486,-0.00002280,0.00006058,0.00003197,-0.00002851,-0.00006679,0.
 00003566,-0.00009928,0.00006594,-0.00020296,0.00009992,-0.00012628,0.0
 0008358,0.00006339,-0.00005632,-0.00039638,0.00114002,-0.00041670,0.00
 118753,0.00041087,-0.00207512,0.29909406,-0.00016990,-0.00028391,-0.00
 001269,0.00106102,-0.00162669,0.00006541,0.00165029,0.00123969,0.00200
 387,0.00226199,0.00363742,-0.00503592,-0.15567138,-0.15659142,-0.02473
 106,0.00008844,0.00028218,-0.00003284,-0.00031127,-0.00003239,0.000030
 94,0.00016996,0.00006399,-0.00020024,-0.00008327,0.00004938,0.00018469
 ,0.00003362,0.00002502,-0.00003350,0.00001735,0.00003657,0.00003714,0.
 00003469,0.00003013,0.00009450,-0.00102753,0.00001201,-0.00055464,-0.0
 0034657,0.00232294,0.00167401,0.18505984,0.16809648,-0.00054753,-0.000
 20508,0.00006056,0.00123028,-0.00028529,0.00022634,-0.00074761,-0.0024
 4225,0.00209376,-0.03390097,-0.02295982,-0.01322883,-0.06611018,-0.016
 64461,-0.05391745,0.00036639,-0.00011138,-0.00003998,-0.00027601,0.000
 00502,-0.00018599,0.00016571,0.00005996,-0.00013101,-0.00006417,0.0000
 6718,0.00016836,0.00013192,-0.00003094,-0.00013718,0.00004248,0.000190
 13,0.00014649,0.00012401,0.00013512,0.00007167,0.00079433,0.00133157,-
 0.00002410,-0.00231416,0.00226682,-0.00524773,0.09116432,0.03535493,0.
 06903957,0.00077285,0.00072639,0.00021677,-0.00020538,0.00073104,-0.00
 155459,0.00068854,-0.00014859,-0.00068048,-0.00231690,0.01007398,0.006
 59393,-0.04350837,0.06565007,-0.04959044,0.00000798,-0.00085019,-0.001
 19399,0.00021244,0.00061642,-0.00033034,-0.00034643,-0.00020115,0.0004
 5216,0.00020906,-0.00016790,-0.00041421,-0.00010544,0.00004613,0.00010
 126,-0.00002866,-0.00039301,-0.00005743,-0.00002743,-0.00010233,-0.000
 07336,-0.00035540,0.00054760,0.00037865,-0.00008531,0.00015382,-0.0000
 0826,0.00321728,-0.03282556,0.00994073,0.04201806,0.00002890,0.0001298
 1,0.00008995,-0.00100403,0.00101528,0.00024388,0.00151395,0.00054631,-
 0.00117412,0.00201131,-0.00101847,-0.00099809,0.03082890,-0.40565521,0
 .09589004,-0.00006657,0.00006868,0.00029354,0.00017009,-0.00009675,0.0
 0004595,-0.00005061,-0.00000880,0.00005079,0.00001829,-0.00001246,-0.0
 0004794,-0.00003559,-0.00000671,-0.00004209,0.00002238,-0.00000500,0.0
 0001542,-0.00002305,-0.00001205,-0.00000338,0.00086603,-0.00048724,-0.
 00035538,-0.00015002,0.00076752,0.00007882,0.00954591,-0.01726839,0.00
 327324,-0.04366025,0.42198667,-0.00028518,-0.00021481,-0.00002871,0.00
 273118,-0.00083484,0.00027955,-0.00595011,-0.00049923,-0.00370844,-0.0
 0321796,0.03955641,-0.01881353,-0.03306298,0.06805133,-0.05013103,0.00
 009068,0.00048107,-0.00052825,-0.00045139,0.00005409,0.00012005,0.0002
 2882,0.00004633,-0.00026010,-0.00010009,0.00009297,0.00023907,0.000050
 98,-0.00001304,0.00001890,-0.00002207,0.00014104,-0.00010372,0.0000140
 5,-0.00001550,-0.00001593,-0.00006410,0.00023131,0.00026858,0.00030708
 ,-0.00095998,0.00095822,0.00387651,-0.00884630,0.00113726,0.03575412,-
 0.09723541,0.07064361,-0.00211355,-0.00284096,0.00445969,-0.02021223,-
 0.01863951,-0.00675097,0.00062825,0.00067809,-0.00075610,0.00004906,-0
 .00012961,-0.00002094,-0.00000558,0.00002294,0.00010792,-0.11135022,-0
 .15132746,-0.02439412,0.00731137,0.02971526,0.00664472,0.00343625,0.00
 154622,-0.00005489,-0.00115524,-0.00148490,-0.00060563,-0.00099262,-0.
 00093851,-0.00023250,-0.00041283,-0.00038125,-0.00011147,0.00014722,-0
 .00002654,0.00035245,0.00036351,-0.00026442,0.00022042,-0.00008755,0.0
 0015054,-0.00001194,0.00004872,-0.00000913,-0.00003379,-0.00000057,-0.
 00000846,-0.00000475,0.12777154,0.00076981,0.00023548,0.00123867,-0.01
 031082,-0.00235522,0.00055084,0.00109489,-0.00069538,-0.00074111,0.000
 22018,-0.00005539,0.00072351,0.00000699,0.00014731,-0.00064680,-0.1255
 7288,-0.31027504,-0.08759053,-0.00895468,-0.02883136,-0.01349440,-0.00
 204920,0.00222699,0.00062454,0.00010317,0.00012584,0.00079363,0.000165
 69,-0.00002301,-0.00024574,0.00004278,0.00008115,0.00000577,0.00007468
 ,0.00008732,0.00002142,0.00012618,-0.00023362,0.00090180,0.00000295,0.
 00013197,-0.00005067,-0.00000715,0.00003710,0.00006796,-0.00019261,0.0
 0000672,0.00002863,0.14136837,0.34054408,0.00016684,0.00136741,-0.0029
 0436,0.02533291,0.03182426,-0.00493556,0.00208235,0.00302722,0.0022427
 5,-0.00070859,-0.00024715,-0.00138475,0.00024780,-0.00016315,0.0002938
 0,-0.04073595,-0.12967347,-0.05763903,-0.00883095,-0.00101889,-0.00481
 715,-0.00198201,-0.00058259,-0.00033718,0.00149669,0.00017174,0.000277
 29,0.00022810,0.00019582,0.00040978,0.00045670,0.00042076,0.00008726,-
 0.00007978,-0.00048041,0.00045874,-0.00090618,-0.00059398,-0.00059068,
 -0.00028217,0.00006259,0.00027595,0.00002841,0.00002671,-0.00006987,0.
 00021402,-0.00007132,-0.00004318,0.02044798,0.09727597,0.06818065,-0.0
 0007529,-0.00061334,-0.00003459,0.00121630,-0.00113450,-0.00023376,-0.
 00042312,0.00009007,-0.00002241,-0.00001569,-0.00001653,0.00006449,0.0
 0001184,-0.00004749,0.00009686,0.00972751,0.02558360,0.01213386,-0.086
 65719,-0.07045991,-0.05261839,-0.01539204,-0.02696091,-0.00773522,0.00
 206124,0.00330297,-0.00411194,-0.00004344,-0.00000133,-0.00007646,-0.0
 0076434,-0.00001752,0.00032809,-0.00007867,0.00014779,-0.00007565,-0.0
 0000760,0.00010905,-0.00005074,-0.00000511,-0.00000025,0.00000832,-0.0
 0000557,0.00000169,0.00000571,0.00003863,-0.00001364,-0.00000043,-0.00
 299435,0.00377678,0.00306515,0.09443196,-0.00037636,-0.00058615,-0.000
 40685,-0.00018794,0.00055314,-0.00054875,0.00062555,-0.00020457,0.0001
 5406,-0.00006286,0.00009600,-0.00008086,-0.00000595,0.00008585,-0.0001
 3150,-0.00245890,-0.02128215,-0.00921398,-0.06759603,-0.18267355,-0.10
 095399,-0.01544982,-0.01715569,-0.00504165,0.00343311,0.00265962,-0.00
 235553,0.00013530,0.00029736,0.00002963,0.00003372,0.00064770,0.000056
 47,0.00001511,-0.00007938,0.00002238,-0.00001759,-0.00008904,0.0000605
 7,0.00004190,-0.00000396,-0.00002816,0.00001106,-0.00001219,-0.0000036
 5,-0.00003795,0.00000892,-0.00001406,0.00201384,-0.00189246,-0.0025488
 0,0.07433100,0.21051819,-0.00006346,-0.00090246,-0.00011827,0.00004418
 ,0.00022375,0.00017778,-0.00002809,-0.00004393,-0.00025373,0.00001122,
 -0.00008652,0.00027588,0.00003818,0.00004625,-0.00018718,0.00076907,-0
 .00455916,0.00133278,-0.05632945,-0.10847636,-0.13422393,0.01360226,0.
 01453889,0.00750519,-0.00219751,0.00282004,0.00236270,-0.00002091,0.00
 029923,0.00004538,0.00025681,0.00059475,0.00001140,-0.00005179,0.00004
 672,-0.00002357,0.00003724,0.00018094,0.00015566,0.00008797,0.00003004
 ,-0.00006452,-0.00000976,0.00001462,0.00005144,-0.00004195,-0.00001476
 ,-0.00000157,0.00059981,0.00027646,-0.00002067,0.05562815,0.11456402,0
 .13570051,-0.00028194,0.00001517,0.00029623,0.00480157,0.00003666,-0.0
 0250015,0.00001889,-0.00002073,-0.00081630,0.00019051,-0.00142708,0.00
 190194,-0.00007163,0.00003684,-0.00065897,-0.02044362,0.02212335,-0.01
 563371,-0.08169850,0.02329408,-0.08292575,0.00879832,-0.00867364,0.023
 47985,0.00007716,-0.00388761,0.00343531,-0.00017071,-0.00010800,0.0000
 9966,-0.00000387,-0.00004000,-0.00002094,0.00032109,0.00005756,0.00008
 738,0.00005013,0.00037244,0.00020087,0.00002666,0.00001170,-0.00004582
 ,-0.00003164,0.00007703,0.00005541,-0.00018963,0.00000703,0.00011579,-
 0.00034171,-0.00064029,-0.00010060,-0.00248983,0.00416101,-0.01207777,
 0.09434552,-0.00000539,-0.00013879,-0.00017285,-0.00465665,0.00117416,
 0.00179368,0.00049284,0.00084098,-0.00045269,-0.00017982,-0.00027152,-
 0.00068363,-0.00004244,0.00014259,0.00010422,0.02294798,-0.01642322,0.
 01765407,0.02460737,-0.07555497,0.06280443,0.00304098,-0.00393110,0.01
 336685,0.00085662,-0.00198666,0.00196745,0.00007768,0.00012234,-0.0000
 9400,0.00006637,0.00006748,-0.00004262,-0.00020910,-0.00012713,-0.0000
 8905,-0.00004198,-0.00047116,-0.00050067,0.00000110,-0.00007825,0.0000
 1082,0.00000989,-0.00001233,-0.00005194,-0.00001195,0.00004474,-0.0000
 3385,0.00061687,0.00063648,0.00078522,-0.00852460,0.00903102,-0.019273
 09,-0.03777838,0.08579532,0.00006357,0.00047775,0.00001331,-0.00002264
 ,0.00025490,0.00064173,-0.00058253,-0.00147814,0.00132280,-0.00014239,
 0.00085789,-0.00187442,0.00029054,-0.00039442,0.00091850,0.00102945,-0
 .00089920,0.00886010,-0.08332719,0.06304156,-0.21723048,0.00045202,0.0
 0518057,-0.02009125,-0.00107711,0.00486157,0.00009101,0.00002130,-0.00
 004776,0.00001672,-0.00001459,-0.00011622,-0.00000907,0.00001985,-0.00
 006911,-0.00003250,0.00045093,-0.00024538,-0.00067373,-0.00026435,0.00
 017429,0.00011613,0.00002394,-0.00004699,-0.00001358,0.00032274,-0.000
 04201,-0.00003382,0.00000723,0.00036745,0.00090156,-0.00677400,0.00585
 975,-0.01301117,0.08690151,-0.07660165,0.23908211,0.00000003,-0.000186
 62,-0.00000979,0.00051107,-0.00033174,0.00010246,-0.00030948,0.0001331
 0,0.00001070,-0.00003627,0.00012044,-0.00001749,-0.00002675,0.00000924
 ,0.00000408,0.00087837,0.00182533,-0.00080179,0.01418955,-0.00685715,0
 .01266409,-0.03245599,0.00515448,0.00669478,-0.19899554,-0.13454081,0.
 08519445,-0.00000888,0.00002154,0.00001319,-0.00003188,0.00005609,0.00
 002442,0.00001588,0.00001673,-0.00000744,0.00000352,-0.00007054,-0.000
 05408,0.00002773,-0.00002596,-0.00000818,0.00001088,-0.00001131,-0.000
 02687,0.00000465,-0.00000056,-0.00001016,-0.00008947,-0.00002485,-0.00
 014071,0.00146477,0.00139181,-0.00025421,-0.00290678,-0.00126739,0.002
 62171,0.21775459,0.00013378,0.00012638,0.00010993,-0.00039523,0.000340
 92,0.00048694,-0.00006608,0.00003425,-0.00038270,-0.00002461,-0.000115
 27,-0.00010244,-0.00000598,-0.00001485,0.00025560,-0.00060591,-0.00101
 137,0.00127479,-0.00753890,0.00882465,-0.01132368,0.03637489,0.0099217
 7,-0.00847549,-0.16528587,-0.17035646,0.07644681,-0.00004525,-0.000025
 49,0.00001878,0.00001285,-0.00004600,-0.00005107,0.00002296,-0.0000139
 9,-0.00000670,0.00002702,0.00001446,0.00000681,-0.00001554,0.00002310,
 0.00000291,0.00000915,-0.00000558,-0.00001697,0.00004602,-0.00000357,-
 0.00001615,-0.00006136,0.00010102,0.00022206,0.00044707,0.00008135,-0.
 00027942,0.00238286,0.00114003,-0.00113484,0.13458816,0.15098464,-0.00
 022869,-0.00030397,-0.00016572,0.00117570,-0.00098529,-0.00090077,0.00
 011628,-0.00005274,0.00061137,-0.00002507,0.00015756,0.00005437,-0.000
 00380,0.00000952,-0.00020000,0.00124129,0.00312936,-0.00179696,0.01171
 610,-0.01256162,0.00622201,0.03336629,0.02536684,-0.04821657,0.0599261
 9,0.04217045,-0.06576309,0.00004519,0.00005982,0.00001269,-0.00004191,
 0.00009978,0.00005797,0.00001597,0.00001532,0.00001310,-0.00003509,-0.
 00003098,-0.00004783,0.00001513,-0.00003192,-0.00000144,-0.00000098,0.
 00000739,0.00000025,-0.00002935,0.00000287,0.00000304,0.00013688,-0.00
 010741,-0.00038535,0.00040295,0.00058090,0.00028588,-0.00179393,-0.000
 49071,0.00100605,-0.10599914,-0.05703516,0.10921098\\-0.00000319,0.000
 00568,0.00000123,0.00003594,-0.00000534,-0.00002506,-0.00001043,0.0000
 0975,-0.00001191,-0.00000998,-0.00000229,-0.00001289,0.00000444,0.0000
 0442,0.00001115,-0.00002092,-0.00000689,0.00003735,-0.00000855,-0.0000
 0086,0.00000697,0.00000180,0.00000329,-0.00000343,0.00000267,-0.000000
 90,-0.00000324,0.00000156,0.00000061,0.00000205,0.00000091,-0.00000257
 ,0.00000140,0.00000123,-0.00000278,-0.00000384,0.00000262,-0.00000263,
 0.00000309,0.00000352,-0.00000137,0.00000049,0.00000378,0.00000070,0.0
 0000039,-0.00000108,-0.00000309,0.00000212,-0.00000405,0.00000070,-0.0
 0000445,0.00000052,0.00000043,-0.00000158,-0.00000164,0.00000111,0.000
 00039,0.00000087,0.00000202,-0.00000021\\\@


 IT MATTERS NOT HOW DEEP YOU PLOW,
 BUT HOW LONG YOU STAY IN THE FURROW.
 Job cpu time:       0 days  1 hours 52 minutes 15.4 seconds.
 Elapsed time:       0 days  0 hours 28 minutes  4.3 seconds.
 File lengths (MBytes):  RWF=    149 Int=      0 D2E=      0 Chk=      9 Scr=      1
 Normal termination of Gaussian 16 at Tue Jun  1 04:55:11 2021.
### All Done ###
