### Starting Gaussian ###
 Entering Gaussian System, Link 0=g16
 Initial command:
 /cluster/software/gaussian/gaussian-16-A.03/avx2/g16/l1.exe "/local/scratch/cz9n3/Gau-32271.inp" -scrdir="/local/scratch/cz9n3/"
 Entering Link 1 = /cluster/software/gaussian/gaussian-16-A.03/avx2/g16/l1.exe PID=     32272.
  
 Copyright (c) 1988,1990,1992,1993,1995,1998,2003,2009,2016,
            Gaussian, Inc.  All Rights Reserved.
  
 This is part of the Gaussian(R) 16 program.  It is based on
 the Gaussian(R) 09 system (copyright 2009, Gaussian, Inc.),
 the Gaussian(R) 03 system (copyright 2003, Gaussian, Inc.),
 the Gaussian(R) 98 system (copyright 1998, Gaussian, Inc.),
 the Gaussian(R) 94 system (copyright 1995, Gaussian, Inc.),
 the Gaussian 92(TM) system (copyright 1992, Gaussian, Inc.),
 the Gaussian 90(TM) system (copyright 1990, Gaussian, Inc.),
 the Gaussian 88(TM) system (copyright 1988, Gaussian, Inc.),
 the Gaussian 86(TM) system (copyright 1986, Carnegie Mellon
 University), and the Gaussian 82(TM) system (copyright 1983,
 Carnegie Mellon University). Gaussian is a federally registered
 trademark of Gaussian, Inc.
  
 This software contains proprietary and confidential information,
 including trade secrets, belonging to Gaussian, Inc.
  
 This software is provided under written license and may be
 used, copied, transmitted, or stored only in accord with that
 written license.
  
 The following legend is applicable only to US Government
 contracts under FAR:
  
                    RESTRICTED RIGHTS LEGEND
  
 Use, reproduction and disclosure by the US Government is
 subject to restrictions as set forth in subparagraphs (a)
 and (c) of the Commercial Computer Software - Restricted
 Rights clause in FAR 52.227-19.
  
 Gaussian, Inc.
 340 Quinnipiac St., Bldg. 40, Wallingford CT 06492
  
  
 ---------------------------------------------------------------
 Warning -- This program may not be used in any manner that
 competes with the business of Gaussian, Inc. or will provide
 assistance to any competitor of Gaussian, Inc.  The licensee
 of this program is prohibited from giving any competitor of
 Gaussian, Inc. access to this program.  By using this program,
 the user acknowledges that Gaussian, Inc. is engaged in the
 business of creating and licensing software in the field of
 computational chemistry and represents and warrants to the
 licensee that it is not a competitor of Gaussian, Inc. and that
 it will not use this program in any manner prohibited above.
 ---------------------------------------------------------------
  

 Cite this work as:
 Gaussian 16, Revision A.03,
 M. J. Frisch, G. W. Trucks, H. B. Schlegel, G. E. Scuseria, 
 M. A. Robb, J. R. Cheeseman, G. Scalmani, V. Barone, 
 G. A. Petersson, H. Nakatsuji, X. Li, M. Caricato, A. V. Marenich, 
 J. Bloino, B. G. Janesko, R. Gomperts, B. Mennucci, H. P. Hratchian, 
 J. V. Ortiz, A. F. Izmaylov, J. L. Sonnenberg, D. Williams-Young, 
 F. Ding, F. Lipparini, F. Egidi, J. Goings, B. Peng, A. Petrone, 
 T. Henderson, D. Ranasinghe, V. G. Zakrzewski, J. Gao, N. Rega, 
 G. Zheng, W. Liang, M. Hada, M. Ehara, K. Toyota, R. Fukuda, 
 J. Hasegawa, M. Ishida, T. Nakajima, Y. Honda, O. Kitao, H. Nakai, 
 T. Vreven, K. Throssell, J. A. Montgomery, Jr., J. E. Peralta, 
 F. Ogliaro, M. J. Bearpark, J. J. Heyd, E. N. Brothers, K. N. Kudin, 
 V. N. Staroverov, T. A. Keith, R. Kobayashi, J. Normand, 
 K. Raghavachari, A. P. Rendell, J. C. Burant, S. S. Iyengar, 
 J. Tomasi, M. Cossi, J. M. Millam, M. Klene, C. Adamo, R. Cammi, 
 J. W. Ochterski, R. L. Martin, K. Morokuma, O. Farkas, 
 J. B. Foresman, and D. J. Fox, Gaussian, Inc., Wallingford CT, 2016.
 
 ******************************************
 Gaussian 16:  ES64L-G16RevA.03 25-Dec-2016
                 1-Jun-2021 
 ******************************************
 %chk=CNpCdCNpCNCN.chk
 %NProcShared=20
 Will use up to   20 processors via shared memory.
 -----------------------------
 # opt freq b3lyp/6-31g(2df,p)
 -----------------------------
 1/18=20,19=15,26=3,38=1/1,3;
 2/9=110,12=2,17=6,18=5,40=1/2;
 3/5=1,6=6,7=104,11=2,25=1,30=1,71=1,74=-5/1,2,3;
 4//1;
 5/5=2,38=5/2;
 6/7=2,8=2,9=2,10=2,28=1/1;
 7//1,2,3,16;
 1/18=20,19=15,26=3/3(2);
 2/9=110/2;
 99//99;
 2/9=110/2;
 3/5=1,6=6,7=104,11=2,25=1,30=1,71=1,74=-5/1,2,3;
 4/5=5,16=3,69=1/1;
 5/5=2,38=5/2;
 7//1,2,3,16;
 1/18=20,19=15,26=3/3(-5);
 2/9=110/2;
 6/7=2,8=2,9=2,10=2,19=2,28=1/1;
 99/9=1/99;
 -------------------
 Title Card Required
 -------------------
 Symbolic Z-matrix:
 Charge =  0 Multiplicity = 1
 C                     0.98678   0.0671   -0.05438 
 N                     2.44026  -0.07049  -0.13972 
 C                     3.05727  -1.1696   -0.71715 
 C                     2.526    -2.24401  -1.31497 
 N                     3.20599  -3.27102  -1.87997 
 C                     3.21801   1.01999   0.47552 
 N                     4.67635   0.93934   0.44381 
 C                     5.32385   2.06764   1.03087 
 N                     6.72217   1.78803   0.83353 
 H                     0.45273  -0.77183  -0.51082 
 H                     0.65333   0.96968  -0.57576 
 H                     0.66191   0.11258   0.98982 
 H                     4.14208  -1.1267   -0.6638 
 H                     1.45295  -2.36214  -1.39392 
 H                     4.21864  -3.27768  -1.86206 
 H                     2.69944  -4.04706  -2.28631 
 H                     2.90095   1.10211   1.52408 
 H                     2.90912   1.95538  -0.01212 
 H                     4.95104   0.90226  -0.5343 
 H                     5.10149   2.14982   2.09849 
 H                     5.06288   3.00252   0.52768 
 H                     6.92562   0.90764   1.30619 
 H                     7.27902   2.49819   1.3014 
 

 GradGradGradGradGradGradGradGradGradGradGradGradGradGradGradGradGradGrad
 Berny optimization.
 Initialization pass.
                           ----------------------------
                           !    Initial Parameters    !
                           ! (Angstroms and Degrees)  !
 --------------------------                            --------------------------
 ! Name  Definition              Value          Derivative Info.                !
 --------------------------------------------------------------------------------
 ! R1    R(1,2)                  1.4625         estimate D2E/DX2                !
 ! R2    R(1,10)                 1.0942         estimate D2E/DX2                !
 ! R3    R(1,11)                 1.0944         estimate D2E/DX2                !
 ! R4    R(1,12)                 1.0945         estimate D2E/DX2                !
 ! R5    R(2,3)                  1.3864         estimate D2E/DX2                !
 ! R6    R(2,6)                  1.474          estimate D2E/DX2                !
 ! R7    R(3,4)                  1.3394         estimate D2E/DX2                !
 ! R8    R(3,13)                 1.087          estimate D2E/DX2                !
 ! R9    R(4,5)                  1.3551         estimate D2E/DX2                !
 ! R10   R(4,14)                 1.0824         estimate D2E/DX2                !
 ! R11   R(5,15)                 1.0128         estimate D2E/DX2                !
 ! R12   R(5,16)                 1.0119         estimate D2E/DX2                !
 ! R13   R(6,7)                  1.4609         estimate D2E/DX2                !
 ! R14   R(6,17)                 1.0985         estimate D2E/DX2                !
 ! R15   R(6,18)                 1.0992         estimate D2E/DX2                !
 ! R16   R(7,8)                  1.4272         estimate D2E/DX2                !
 ! R17   R(7,19)                 1.0166         estimate D2E/DX2                !
 ! R18   R(8,9)                  1.4396         estimate D2E/DX2                !
 ! R19   R(8,20)                 1.0936         estimate D2E/DX2                !
 ! R20   R(8,21)                 1.0933         estimate D2E/DX2                !
 ! R21   R(9,22)                 1.0197         estimate D2E/DX2                !
 ! R22   R(9,23)                 1.0165         estimate D2E/DX2                !
 ! A1    A(2,1,10)             112.8666         estimate D2E/DX2                !
 ! A2    A(2,1,11)             110.6471         estimate D2E/DX2                !
 ! A3    A(2,1,12)             110.7672         estimate D2E/DX2                !
 ! A4    A(10,1,11)            106.5515         estimate D2E/DX2                !
 ! A5    A(10,1,12)            106.5559         estimate D2E/DX2                !
 ! A6    A(11,1,12)            109.257          estimate D2E/DX2                !
 ! A7    A(1,2,3)              122.7646         estimate D2E/DX2                !
 ! A8    A(1,2,6)              115.4965         estimate D2E/DX2                !
 ! A9    A(3,2,6)              121.7038         estimate D2E/DX2                !
 ! A10   A(2,3,4)              130.1877         estimate D2E/DX2                !
 ! A11   A(2,3,13)             113.1054         estimate D2E/DX2                !
 ! A12   A(4,3,13)             116.7069         estimate D2E/DX2                !
 ! A13   A(3,4,5)              126.512          estimate D2E/DX2                !
 ! A14   A(3,4,14)             120.8849         estimate D2E/DX2                !
 ! A15   A(5,4,14)             112.6021         estimate D2E/DX2                !
 ! A16   A(4,5,15)             119.9546         estimate D2E/DX2                !
 ! A17   A(4,5,16)             119.8317         estimate D2E/DX2                !
 ! A18   A(15,5,16)            120.1696         estimate D2E/DX2                !
 ! A19   A(2,6,7)              118.4784         estimate D2E/DX2                !
 ! A20   A(2,6,17)             107.5437         estimate D2E/DX2                !
 ! A21   A(2,6,18)             107.2254         estimate D2E/DX2                !
 ! A22   A(7,6,17)             108.2378         estimate D2E/DX2                !
 ! A23   A(7,6,18)             108.5346         estimate D2E/DX2                !
 ! A24   A(17,6,18)            106.1852         estimate D2E/DX2                !
 ! A25   A(6,7,8)              113.5975         estimate D2E/DX2                !
 ! A26   A(6,7,19)             107.0148         estimate D2E/DX2                !
 ! A27   A(8,7,19)             107.5777         estimate D2E/DX2                !
 ! A28   A(7,8,9)              103.3405         estimate D2E/DX2                !
 ! A29   A(7,8,20)             111.6363         estimate D2E/DX2                !
 ! A30   A(7,8,21)             112.2345         estimate D2E/DX2                !
 ! A31   A(9,8,20)             110.2375         estimate D2E/DX2                !
 ! A32   A(9,8,21)             109.5634         estimate D2E/DX2                !
 ! A33   A(20,8,21)            109.6647         estimate D2E/DX2                !
 ! A34   A(8,9,22)             107.3338         estimate D2E/DX2                !
 ! A35   A(8,9,23)             109.4698         estimate D2E/DX2                !
 ! A36   A(22,9,23)            106.2911         estimate D2E/DX2                !
 ! D1    D(10,1,2,3)            -1.2722         estimate D2E/DX2                !
 ! D2    D(10,1,2,6)          -179.1501         estimate D2E/DX2                !
 ! D3    D(11,1,2,3)          -120.5674         estimate D2E/DX2                !
 ! D4    D(11,1,2,6)            61.5547         estimate D2E/DX2                !
 ! D5    D(12,1,2,3)           118.1122         estimate D2E/DX2                !
 ! D6    D(12,1,2,6)           -59.7657         estimate D2E/DX2                !
 ! D7    D(1,2,3,4)              2.1927         estimate D2E/DX2                !
 ! D8    D(1,2,3,13)          -177.8981         estimate D2E/DX2                !
 ! D9    D(6,2,3,4)            179.9413         estimate D2E/DX2                !
 ! D10   D(6,2,3,13)            -0.1496         estimate D2E/DX2                !
 ! D11   D(1,2,6,7)            179.1725         estimate D2E/DX2                !
 ! D12   D(1,2,6,17)            56.1542         estimate D2E/DX2                !
 ! D13   D(1,2,6,18)           -57.6794         estimate D2E/DX2                !
 ! D14   D(3,2,6,7)              1.2699         estimate D2E/DX2                !
 ! D15   D(3,2,6,17)          -121.7484         estimate D2E/DX2                !
 ! D16   D(3,2,6,18)           124.418          estimate D2E/DX2                !
 ! D17   D(2,3,4,5)            178.6825         estimate D2E/DX2                !
 ! D18   D(2,3,4,14)            -0.9012         estimate D2E/DX2                !
 ! D19   D(13,3,4,5)            -1.2239         estimate D2E/DX2                !
 ! D20   D(13,3,4,14)          179.1924         estimate D2E/DX2                !
 ! D21   D(3,4,5,15)             0.9198         estimate D2E/DX2                !
 ! D22   D(3,4,5,16)           178.5079         estimate D2E/DX2                !
 ! D23   D(14,4,5,15)         -179.4672         estimate D2E/DX2                !
 ! D24   D(14,4,5,16)           -1.8791         estimate D2E/DX2                !
 ! D25   D(2,6,7,8)            178.1599         estimate D2E/DX2                !
 ! D26   D(2,6,7,19)            59.5842         estimate D2E/DX2                !
 ! D27   D(17,6,7,8)           -59.1689         estimate D2E/DX2                !
 ! D28   D(17,6,7,19)         -177.7446         estimate D2E/DX2                !
 ! D29   D(18,6,7,8)            55.6667         estimate D2E/DX2                !
 ! D30   D(18,6,7,19)          -62.909          estimate D2E/DX2                !
 ! D31   D(6,7,8,9)           -177.7287         estimate D2E/DX2                !
 ! D32   D(6,7,8,20)            63.8133         estimate D2E/DX2                !
 ! D33   D(6,7,8,21)           -59.7774         estimate D2E/DX2                !
 ! D34   D(19,7,8,9)           -59.477          estimate D2E/DX2                !
 ! D35   D(19,7,8,20)         -177.935          estimate D2E/DX2                !
 ! D36   D(19,7,8,21)           58.4743         estimate D2E/DX2                !
 ! D37   D(7,8,9,22)           -59.5942         estimate D2E/DX2                !
 ! D38   D(7,8,9,23)          -174.5568         estimate D2E/DX2                !
 ! D39   D(20,8,9,22)           59.8316         estimate D2E/DX2                !
 ! D40   D(20,8,9,23)          -55.131          estimate D2E/DX2                !
 ! D41   D(21,8,9,22)         -179.3951         estimate D2E/DX2                !
 ! D42   D(21,8,9,23)           65.6423         estimate D2E/DX2                !
 --------------------------------------------------------------------------------
 Trust Radius=3.00D-01 FncErr=1.00D-07 GrdErr=1.00D-06 EigMax=2.50D+02 EigMin=1.00D-04
 Number of steps in this run=    110 maximum allowed number of steps=    138.
 GradGradGradGradGradGradGradGradGradGradGradGradGradGradGradGradGradGrad

                          Input orientation:                          
 ---------------------------------------------------------------------
 Center     Atomic      Atomic             Coordinates (Angstroms)
 Number     Number       Type             X           Y           Z
 ---------------------------------------------------------------------
      1          6           0        0.986780    0.067100   -0.054380
      2          7           0        2.440260   -0.070490   -0.139720
      3          6           0        3.057270   -1.169600   -0.717150
      4          6           0        2.526000   -2.244010   -1.314970
      5          7           0        3.205990   -3.271020   -1.879970
      6          6           0        3.218010    1.019990    0.475520
      7          7           0        4.676350    0.939340    0.443810
      8          6           0        5.323850    2.067640    1.030870
      9          7           0        6.722170    1.788030    0.833530
     10          1           0        0.452730   -0.771830   -0.510820
     11          1           0        0.653330    0.969680   -0.575760
     12          1           0        0.661910    0.112580    0.989820
     13          1           0        4.142080   -1.126700   -0.663800
     14          1           0        1.452950   -2.362140   -1.393920
     15          1           0        4.218640   -3.277680   -1.862060
     16          1           0        2.699440   -4.047060   -2.286310
     17          1           0        2.900950    1.102110    1.524080
     18          1           0        2.909120    1.955380   -0.012120
     19          1           0        4.951040    0.902260   -0.534300
     20          1           0        5.101490    2.149820    2.098490
     21          1           0        5.062880    3.002520    0.527680
     22          1           0        6.925620    0.907640    1.306190
     23          1           0        7.279020    2.498190    1.301400
 ---------------------------------------------------------------------
                    Distance matrix (angstroms):
                    1          2          3          4          5
     1  C    0.000000
     2  N    1.462470   0.000000
     3  C    2.501124   1.386423   0.000000
     4  C    3.049511   2.472398   1.339400   0.000000
     5  N    4.404625   3.722661   2.406291   1.355124   0.000000
     6  C    2.483381   1.473961   2.498520   3.786612   4.895022
     7  N    3.823862   2.521976   2.901185   4.225048   5.028821
     8  C    4.897969   3.775841   4.321190   5.649890   6.438914
     9  N    6.053485   4.768235   4.958193   6.203325   6.732057
    10  H    1.094235   2.140063   2.642806   2.666912   3.962444
    11  H    1.094384   2.113103   3.221093   3.792246   5.118650
    12  H    1.094515   2.114688   3.208657   3.786873   5.114371
    13  H    3.428187   2.070370   1.086968   2.069811   2.636938
    14  H    2.812986   2.792751   2.110453   1.082416   2.033582
    15  H    4.990008   4.051562   2.665258   2.057380   1.012830
    16  H    4.984077   4.526382   3.296981   2.055376   1.011901
    17  H    2.688276   2.086973   3.195030   4.404238   5.550214
    18  H    2.694954   2.083329   3.206948   4.413511   5.558080
    19  H    4.079604   2.721388   2.812899   4.048368   4.719353
    20  H    5.089539   4.125713   4.808868   6.131117   6.986170
    21  H    5.056686   4.094746   4.793606   6.112053   6.971522
    22  H    6.150405   4.813091   4.834559   6.013321   6.438048
    23  H    6.880452   5.664675   5.945620   7.205904   7.745610
                    6          7          8          9         10
     6  C    0.000000
     7  N    1.460913   0.000000
     8  C    2.416722   1.427220   0.000000
     9  N    3.605162   2.248897   1.439591   0.000000
    10  H    3.439514   4.656005   5.845272   6.904060   0.000000
    11  H    2.772238   4.150317   5.059697   6.283838   1.754228
    12  H    2.760715   4.134899   5.055455   6.289540   1.754382
    13  H    2.600045   2.404322   3.804247   4.170673   3.709534
    14  H    4.248417   4.966622   6.362894   7.067540   2.075907
    15  H    4.993547   4.828022   6.177619   6.260614   4.720933
    16  H    5.794102   6.018797   7.435104   7.743645   4.350540
    17  H    1.098521   2.084592   2.654421   3.943231   3.694083
    18  H    1.099163   2.088854   2.632746   3.909281   3.704083
    19  H    2.009226   1.016626   1.986669   2.406751   4.799783
    20  H    2.730942   2.093794   1.093622   2.087491   6.079104
    21  H    2.708633   2.100750   1.093301   2.078888   6.047949
    22  H    3.801185   2.409133   1.996764   1.019748   6.929679
    23  H    4.399881   3.152676   2.020210   1.016519   7.783020
                   11         12         13         14         15
    11  H    0.000000
    12  H    1.784863   0.000000
    13  H    4.071110   4.047451   0.000000
    14  H    3.522755   3.525932   3.048083   0.000000
    15  H    5.692633   5.681321   2.463413   2.950663   0.000000
    16  H    5.681569   5.673373   3.638990   2.277949   1.754965
    17  H    3.078743   2.505574   3.360776   4.755256   5.690765
    18  H    2.525447   3.074044   3.382912   4.761384   5.702810
    19  H    4.298439   4.619867   2.188119   4.861264   4.446488
    20  H    5.322638   5.008929   4.391617   6.772485   6.776661
    21  H    4.979372   5.285250   4.395220   6.745644   6.772334
    22  H    6.548832   6.321888   3.970830   6.923306   5.906137
    23  H    7.054066   7.040906   5.180949   8.051748   7.261823
                   16         17         18         19         20
    16  H    0.000000
    17  H    6.408871   0.000000
    18  H    6.422242   1.757284   0.000000
    19  H    5.712706   2.911999   2.356092   0.000000
    20  H    7.962263   2.504001   3.049421   2.917297   0.000000
    21  H    7.949904   3.046032   2.454907   2.356141   1.787745
    22  H    7.437453   4.035253   4.355224   2.699333   2.344824
    23  H    8.756969   4.600665   4.595215   3.366939   2.344856
                   21         22         23
    21  H    0.000000
    22  H    2.909364   0.000000
    23  H    2.400889   1.629345   0.000000
 Stoichiometry    C5H14N4
 Framework group  C1[X(C5H14N4)]
 Deg. of freedom    63
 Full point group                 C1      NOp   1
 Largest Abelian subgroup         C1      NOp   1
 Largest concise Abelian subgroup C1      NOp   1
                         Standard orientation:                         
 ---------------------------------------------------------------------
 Center     Atomic      Atomic             Coordinates (Angstroms)
 Number     Number       Type             X           Y           Z
 ---------------------------------------------------------------------
      1          6           0       -1.435067    2.191480    0.013947
      2          7           0       -0.706276    0.923638   -0.002110
      3          6           0       -1.342803   -0.307941    0.012657
      4          6           0       -2.648543   -0.606174    0.003082
      5          7           0       -3.192025   -1.847507   -0.005961
      6          6           0        0.763285    1.036305    0.013941
      7          7           0        1.556013   -0.190819    0.017783
      8          6           0        2.964406    0.038749   -0.008378
      9          7           0        3.516719   -1.289868   -0.054743
     10          1           0       -2.521086    2.057659    0.016125
     11          1           0       -1.195900    2.785331   -0.873644
     12          1           0       -1.190135    2.768570    0.911130
     13          1           0       -0.650516   -1.145667    0.033965
     14          1           0       -3.397013    0.175717   -0.004841
     15          1           0       -2.591188   -2.662748    0.008220
     16          1           0       -4.197884   -1.956755    0.010067
     17          1           0        1.040439    1.627407    0.897419
     18          1           0        1.053257    1.636859   -0.859793
     19          1           0        1.312981   -0.704617   -0.825114
     20          1           0        3.304970    0.558820    0.891374
     21          1           0        3.276315    0.596049   -0.895754
     22          1           0        3.197513   -1.780894    0.780054
     23          1           0        4.529567   -1.238355    0.014516
 ---------------------------------------------------------------------
 Rotational constants (GHZ):           2.4163273           0.7133779           0.5582210
 Standard basis: 6-31G(2df,p) (6D, 7F)
 There are   349 symmetry adapted cartesian basis functions of A   symmetry.
 There are   322 symmetry adapted basis functions of A   symmetry.
   322 basis functions,   494 primitive gaussians,   349 cartesian basis functions
    36 alpha electrons       36 beta electrons
       nuclear repulsion energy       462.6990204422 Hartrees.
 NAtoms=   23 NActive=   23 NUniq=   23 SFac= 1.00D+00 NAtFMM=   60 NAOKFM=F Big=F
 Integral buffers will be    131072 words long.
 Raffenetti 2 integral format.
 Two-electron integral symmetry is turned on.
 One-electron integrals computed using PRISM.
 PrsmSu:  requested number of processors reduced to:  13 ShMem   1 Linda.
 NBasis=   322 RedAO= T EigKep=  2.34D-04  NBF=   322
 NBsUse=   322 1.00D-06 EigRej= -1.00D+00 NBFU=   322
 ExpMin= 1.61D-01 ExpMax= 4.17D+03 ExpMxC= 6.27D+02 IAcc=3 IRadAn=         5 AccDes= 0.00D+00
 Harris functional with IExCor=  402 and IRadAn=       5 diagonalized for initial guess.
 HarFok:  IExCor=  402 AccDes= 0.00D+00 IRadAn=         5 IDoV= 1 UseB2=F ITyADJ=14
 ICtDFT=  3500011 ScaDFX=  1.000000  1.000000  1.000000  1.000000
 FoFCou: FMM=F IPFlag=           0 FMFlag=      100000 FMFlg1=           0
         NFxFlg=           0 DoJE=T BraDBF=F KetDBF=T FulRan=T
         wScrn=  0.000000 ICntrl=       500 IOpCl=  0 I1Cent=   200000004 NGrid=           0
         NMat0=    1 NMatS0=      1 NMatT0=    0 NMatD0=    1 NMtDS0=    0 NMtDT0=    0
 Petite list used in FoFCou.
 Requested convergence on RMS density matrix=1.00D-08 within 128 cycles.
 Requested convergence on MAX density matrix=1.00D-06.
 Requested convergence on             energy=1.00D-06.
 No special actions if energy rises.
 Integral accuracy reduced to 1.0D-05 until final iterations.
 Initial convergence to 1.0D-05 achieved.  Increase integral accuracy.
 SCF Done:  E(RB3LYP) =  -417.919829161     A.U. after   13 cycles
            NFock= 13  Conv=0.41D-08     -V/T= 2.0074

 **********************************************************************

            Population analysis using the SCF density.

 **********************************************************************

 Orbital symmetries:
       Occupied  (A) (A) (A) (A) (A) (A) (A) (A) (A) (A) (A) (A)
                 (A) (A) (A) (A) (A) (A) (A) (A) (A) (A) (A) (A)
                 (A) (A) (A) (A) (A) (A) (A) (A) (A) (A) (A) (A)
       Virtual   (A) (A) (A) (A) (A) (A) (A) (A) (A) (A) (A) (A)
                 (A) (A) (A) (A) (A) (A) (A) (A) (A) (A) (A) (A)
                 (A) (A) (A) (A) (A) (A) (A) (A) (A) (A) (A) (A)
                 (A) (A) (A) (A) (A) (A) (A) (A) (A) (A) (A) (A)
                 (A) (A) (A) (A) (A) (A) (A) (A) (A) (A) (A) (A)
                 (A) (A) (A) (A) (A) (A) (A) (A) (A) (A) (A) (A)
                 (A) (A) (A) (A) (A) (A) (A) (A) (A) (A) (A) (A)
                 (A) (A) (A) (A) (A) (A) (A) (A) (A) (A) (A) (A)
                 (A) (A) (A) (A) (A) (A) (A) (A) (A) (A) (A) (A)
                 (A) (A) (A) (A) (A) (A) (A) (A) (A) (A) (A) (A)
                 (A) (A) (A) (A) (A) (A) (A) (A) (A) (A) (A) (A)
                 (A) (A) (A) (A) (A) (A) (A) (A) (A) (A) (A) (A)
                 (A) (A) (A) (A) (A) (A) (A) (A) (A) (A) (A) (A)
                 (A) (A) (A) (A) (A) (A) (A) (A) (A) (A) (A) (A)
                 (A) (A) (A) (A) (A) (A) (A) (A) (A) (A) (A) (A)
                 (A) (A) (A) (A) (A) (A) (A) (A) (A) (A) (A) (A)
                 (A) (A) (A) (A) (A) (A) (A) (A) (A) (A) (A) (A)
                 (A) (A) (A) (A) (A) (A) (A) (A) (A) (A) (A) (A)
                 (A) (A) (A) (A) (A) (A) (A) (A) (A) (A) (A) (A)
                 (A) (A) (A) (A) (A) (A) (A) (A) (A) (A) (A) (A)
                 (A) (A) (A) (A) (A) (A) (A) (A) (A) (A) (A) (A)
                 (A) (A) (A) (A) (A) (A) (A) (A) (A) (A) (A) (A)
                 (A) (A) (A) (A) (A) (A) (A) (A) (A) (A) (A) (A)
                 (A) (A) (A) (A) (A) (A) (A) (A) (A) (A)
 The electronic state is 1-A.
 Alpha  occ. eigenvalues --  -14.31637 -14.31309 -14.30380 -14.30372 -10.22945
 Alpha  occ. eigenvalues --  -10.22535 -10.20100 -10.16703 -10.16432  -0.94085
 Alpha  occ. eigenvalues --   -0.90428  -0.87771  -0.84218  -0.71194  -0.69177
 Alpha  occ. eigenvalues --   -0.63167  -0.61743  -0.54832  -0.51681  -0.50888
 Alpha  occ. eigenvalues --   -0.48065  -0.47267  -0.44882  -0.43250  -0.42782
 Alpha  occ. eigenvalues --   -0.41215  -0.39565  -0.38321  -0.37500  -0.36519
 Alpha  occ. eigenvalues --   -0.33766  -0.32329  -0.25399  -0.23912  -0.22682
 Alpha  occ. eigenvalues --   -0.11992
 Alpha virt. eigenvalues --    0.08572   0.09308   0.09435   0.09815   0.10867
 Alpha virt. eigenvalues --    0.12857   0.13508   0.15393   0.15587   0.17244
 Alpha virt. eigenvalues --    0.17607   0.18245   0.19095   0.20418   0.21503
 Alpha virt. eigenvalues --    0.21742   0.22789   0.24748   0.27083   0.29305
 Alpha virt. eigenvalues --    0.33823   0.35545   0.41030   0.41598   0.45739
 Alpha virt. eigenvalues --    0.47896   0.50335   0.50854   0.51217   0.52261
 Alpha virt. eigenvalues --    0.55483   0.56388   0.58054   0.58974   0.59319
 Alpha virt. eigenvalues --    0.60933   0.62008   0.62618   0.64439   0.64629
 Alpha virt. eigenvalues --    0.65638   0.69302   0.69915   0.71365   0.72218
 Alpha virt. eigenvalues --    0.73690   0.74486   0.75402   0.76607   0.77673
 Alpha virt. eigenvalues --    0.77912   0.79467   0.79657   0.81048   0.81232
 Alpha virt. eigenvalues --    0.82191   0.83607   0.84258   0.84682   0.85795
 Alpha virt. eigenvalues --    0.86673   0.88004   0.88917   0.90871   0.91714
 Alpha virt. eigenvalues --    0.93527   0.95816   0.96281   0.99574   1.01338
 Alpha virt. eigenvalues --    1.04117   1.11414   1.12287   1.15736   1.20670
 Alpha virt. eigenvalues --    1.22444   1.23421   1.24964   1.28402   1.29982
 Alpha virt. eigenvalues --    1.31383   1.31827   1.33162   1.34368   1.34906
 Alpha virt. eigenvalues --    1.37200   1.41881   1.43227   1.44730   1.45763
 Alpha virt. eigenvalues --    1.52013   1.54497   1.56008   1.56840   1.59494
 Alpha virt. eigenvalues --    1.61131   1.62205   1.62309   1.64331   1.67466
 Alpha virt. eigenvalues --    1.72252   1.73726   1.78085   1.81225   1.83263
 Alpha virt. eigenvalues --    1.83709   1.87101   1.88298   1.92467   1.94658
 Alpha virt. eigenvalues --    1.95196   1.96740   1.99927   2.04160   2.07206
 Alpha virt. eigenvalues --    2.08482   2.11699   2.13070   2.17631   2.20552
 Alpha virt. eigenvalues --    2.21949   2.23927   2.29306   2.31255   2.33258
 Alpha virt. eigenvalues --    2.35500   2.37150   2.38127   2.40564   2.42847
 Alpha virt. eigenvalues --    2.47016   2.48552   2.53148   2.57015   2.62088
 Alpha virt. eigenvalues --    2.65040   2.65962   2.68173   2.73285   2.76096
 Alpha virt. eigenvalues --    2.78397   2.79850   2.80799   2.81998   2.83140
 Alpha virt. eigenvalues --    2.85525   2.86912   2.88391   2.90953   2.92132
 Alpha virt. eigenvalues --    2.93307   2.94344   2.95131   2.96515   2.97435
 Alpha virt. eigenvalues --    3.00295   3.01812   3.04107   3.05651   3.07181
 Alpha virt. eigenvalues --    3.09651   3.10915   3.11403   3.15941   3.18549
 Alpha virt. eigenvalues --    3.21580   3.23651   3.28659   3.30473   3.32649
 Alpha virt. eigenvalues --    3.33154   3.36438   3.38125   3.38798   3.40886
 Alpha virt. eigenvalues --    3.43104   3.46124   3.48303   3.51192   3.52118
 Alpha virt. eigenvalues --    3.53263   3.55588   3.57588   3.61843   3.63807
 Alpha virt. eigenvalues --    3.64204   3.66012   3.68096   3.70427   3.74286
 Alpha virt. eigenvalues --    3.76404   3.82739   3.89636   3.92874   3.93283
 Alpha virt. eigenvalues --    3.94687   4.01649   4.03768   4.05078   4.07422
 Alpha virt. eigenvalues --    4.11173   4.12750   4.15286   4.18732   4.21157
 Alpha virt. eigenvalues --    4.21449   4.23082   4.23247   4.26030   4.29236
 Alpha virt. eigenvalues --    4.29745   4.30725   4.36164   4.36869   4.37614
 Alpha virt. eigenvalues --    4.38860   4.40623   4.42813   4.43613   4.46060
 Alpha virt. eigenvalues --    4.47959   4.48941   4.49258   4.51244   4.52931
 Alpha virt. eigenvalues --    4.55328   4.56663   4.57926   4.59693   4.60655
 Alpha virt. eigenvalues --    4.60928   4.63688   4.64757   4.66090   4.68499
 Alpha virt. eigenvalues --    4.70260   4.73502   4.75022   4.76421   4.77313
 Alpha virt. eigenvalues --    4.79882   4.80175   4.83978   4.85578   4.87340
 Alpha virt. eigenvalues --    4.88066   4.89354   4.91838   4.93322   4.94551
 Alpha virt. eigenvalues --    5.00237   5.02829   5.03746   5.08249   5.09444
 Alpha virt. eigenvalues --    5.12615   5.18274   5.19207   5.20280   5.26913
 Alpha virt. eigenvalues --    5.30685   5.32387   5.35909   5.41987   5.47281
 Alpha virt. eigenvalues --    5.51551   5.61297   5.62324   5.73737   5.81842
 Alpha virt. eigenvalues --    5.90203   6.04440   6.17281   9.10039   9.82235
 Alpha virt. eigenvalues --   10.59112  10.89847  11.23346  11.42334  11.43561
 Alpha virt. eigenvalues --   11.50343  11.56286  11.80515  12.40030  14.69386
 Alpha virt. eigenvalues --   20.52502
          Condensed to atoms (all electrons):
               1          2          3          4          5          6
     1  C    4.933631   0.406214  -0.055178  -0.009491   0.000007  -0.070893
     2  N    0.406214   6.125925   0.399140  -0.014745   0.002055   0.432882
     3  C   -0.055178   0.399140   4.810353   0.651413  -0.015151  -0.070040
     4  C   -0.009491  -0.014745   0.651413   4.799828   0.383543   0.004485
     5  N    0.000007   0.002055  -0.015151   0.383543   6.494943  -0.000004
     6  C   -0.070893   0.432882  -0.070040   0.004485  -0.000004   4.838711
     7  N    0.001854  -0.023718  -0.004865   0.000632  -0.000008   0.385822
     8  C   -0.000139   0.002561  -0.000163  -0.000023   0.000000  -0.063321
     9  N    0.000001  -0.000009  -0.000015  -0.000000   0.000000   0.003770
    10  H    0.378049  -0.012299  -0.008970   0.001281   0.000023   0.003314
    11  H    0.371526  -0.037441   0.003166   0.000765  -0.000006  -0.001525
    12  H    0.369965  -0.037988   0.003494   0.000783  -0.000008  -0.002311
    13  H    0.006843  -0.040991   0.341480  -0.041740  -0.012304  -0.015680
    14  H    0.001072  -0.013717  -0.028864   0.344729  -0.045714  -0.000299
    15  H    0.000009  -0.000134  -0.008368  -0.031877   0.350679  -0.000010
    16  H    0.000007  -0.000011   0.003404  -0.037908   0.369852   0.000002
    17  H   -0.003333  -0.030392   0.003344  -0.000003  -0.000001   0.327039
    18  H   -0.001228  -0.051390   0.005993   0.000109  -0.000002   0.344039
    19  H    0.000052   0.002474   0.003836  -0.000093  -0.000002  -0.051949
    20  H    0.000000   0.000186  -0.000023  -0.000000   0.000000  -0.001146
    21  H    0.000002  -0.000289   0.000065   0.000002  -0.000000  -0.003915
    22  H    0.000000  -0.000021  -0.000012   0.000001  -0.000000  -0.000177
    23  H   -0.000000   0.000000   0.000000   0.000000  -0.000000  -0.000421
               7          8          9         10         11         12
     1  C    0.001854  -0.000139   0.000001   0.378049   0.371526   0.369965
     2  N   -0.023718   0.002561  -0.000009  -0.012299  -0.037441  -0.037988
     3  C   -0.004865  -0.000163  -0.000015  -0.008970   0.003166   0.003494
     4  C    0.000632  -0.000023  -0.000000   0.001281   0.000765   0.000783
     5  N   -0.000008   0.000000   0.000000   0.000023  -0.000006  -0.000008
     6  C    0.385822  -0.063321   0.003770   0.003314  -0.001525  -0.002311
     7  N    6.383337   0.372867  -0.062686  -0.000066   0.000033   0.000081
     8  C    0.372867   4.803735   0.398553   0.000001   0.000001   0.000000
     9  N   -0.062686   0.398553   6.561235  -0.000000  -0.000000   0.000000
    10  H   -0.000066   0.000001  -0.000000   0.559980  -0.032637  -0.032597
    11  H    0.000033   0.000001  -0.000000  -0.032637   0.627033  -0.051112
    12  H    0.000081   0.000000   0.000000  -0.032597  -0.051112   0.629725
    13  H    0.017648  -0.000640  -0.000021   0.000103  -0.000159  -0.000180
    14  H   -0.000004   0.000000  -0.000000   0.005140  -0.000088  -0.000066
    15  H   -0.000016   0.000000   0.000000   0.000003   0.000000   0.000000
    16  H   -0.000000   0.000000   0.000000   0.000003  -0.000000  -0.000000
    17  H   -0.016861  -0.004575   0.000169  -0.000137  -0.003121   0.011204
    18  H   -0.043052  -0.007391  -0.000148  -0.000102   0.010779  -0.003112
    19  H    0.329873  -0.043596   0.011661  -0.000000  -0.000035   0.000016
    20  H   -0.037809   0.375562  -0.036054  -0.000000  -0.000000  -0.000000
    21  H   -0.026851   0.341914  -0.031125   0.000000   0.000004  -0.000001
    22  H    0.013275  -0.056700   0.333448   0.000000  -0.000000   0.000000
    23  H    0.006097  -0.046689   0.331351   0.000000   0.000000   0.000000
              13         14         15         16         17         18
     1  C    0.006843   0.001072   0.000009   0.000007  -0.003333  -0.001228
     2  N   -0.040991  -0.013717  -0.000134  -0.000011  -0.030392  -0.051390
     3  C    0.341480  -0.028864  -0.008368   0.003404   0.003344   0.005993
     4  C   -0.041740   0.344729  -0.031877  -0.037908  -0.000003   0.000109
     5  N   -0.012304  -0.045714   0.350679   0.369852  -0.000001  -0.000002
     6  C   -0.015680  -0.000299  -0.000010   0.000002   0.327039   0.344039
     7  N    0.017648  -0.000004  -0.000016  -0.000000  -0.016861  -0.043052
     8  C   -0.000640   0.000000   0.000000   0.000000  -0.004575  -0.007391
     9  N   -0.000021  -0.000000   0.000000   0.000000   0.000169  -0.000148
    10  H    0.000103   0.005140   0.000003   0.000003  -0.000137  -0.000102
    11  H   -0.000159  -0.000088   0.000000  -0.000000  -0.003121   0.010779
    12  H   -0.000180  -0.000066   0.000000  -0.000000   0.011204  -0.003112
    13  H    0.657921   0.007735   0.006241  -0.000234  -0.000105   0.001376
    14  H    0.007735   0.672316   0.006905  -0.007352   0.000003   0.000002
    15  H    0.006241   0.006905   0.469945  -0.031325   0.000000  -0.000000
    16  H   -0.000234  -0.007352  -0.031325   0.457782  -0.000000  -0.000000
    17  H   -0.000105   0.000003   0.000000  -0.000000   0.691815  -0.078599
    18  H    0.001376   0.000002  -0.000000  -0.000000  -0.078599   0.750551
    19  H   -0.000745   0.000002   0.000006  -0.000000   0.007529  -0.008915
    20  H   -0.000056  -0.000000   0.000000   0.000000   0.006690  -0.002325
    21  H    0.000123  -0.000000  -0.000000  -0.000000  -0.002238   0.014366
    22  H    0.000168   0.000000  -0.000000  -0.000000  -0.000050   0.000106
    23  H    0.000001  -0.000000  -0.000000  -0.000000  -0.000003   0.000039
              19         20         21         22         23
     1  C    0.000052   0.000000   0.000002   0.000000  -0.000000
     2  N    0.002474   0.000186  -0.000289  -0.000021   0.000000
     3  C    0.003836  -0.000023   0.000065  -0.000012   0.000000
     4  C   -0.000093  -0.000000   0.000002   0.000001   0.000000
     5  N   -0.000002   0.000000  -0.000000  -0.000000  -0.000000
     6  C   -0.051949  -0.001146  -0.003915  -0.000177  -0.000421
     7  N    0.329873  -0.037809  -0.026851   0.013275   0.006097
     8  C   -0.043596   0.375562   0.341914  -0.056700  -0.046689
     9  N    0.011661  -0.036054  -0.031125   0.333448   0.331351
    10  H   -0.000000  -0.000000   0.000000   0.000000   0.000000
    11  H   -0.000035  -0.000000   0.000004  -0.000000   0.000000
    12  H    0.000016  -0.000000  -0.000001   0.000000   0.000000
    13  H   -0.000745  -0.000056   0.000123   0.000168   0.000001
    14  H    0.000002  -0.000000  -0.000000   0.000000  -0.000000
    15  H    0.000006   0.000000  -0.000000  -0.000000  -0.000000
    16  H   -0.000000   0.000000  -0.000000  -0.000000  -0.000000
    17  H    0.007529   0.006690  -0.002238  -0.000050  -0.000003
    18  H   -0.008915  -0.002325   0.014366   0.000106   0.000039
    19  H    0.525330   0.008670  -0.010394  -0.001664  -0.000434
    20  H    0.008670   0.675037  -0.063978  -0.008032  -0.005175
    21  H   -0.010394  -0.063978   0.687705   0.008816   0.002026
    22  H   -0.001664  -0.008032   0.008816   0.509943  -0.027038
    23  H   -0.000434  -0.005175   0.002026  -0.027038   0.521328
 Mulliken charges:
               1
     1  C   -0.328970
     2  N   -0.108292
     3  C   -0.034043
     4  C   -0.051691
     5  N   -0.527904
     6  C   -0.058373
     7  N   -0.295582
     8  C   -0.071959
     9  N   -0.510131
    10  H    0.138910
    11  H    0.112817
    12  H    0.112106
    13  H    0.073217
    14  H    0.058200
    15  H    0.237941
    16  H    0.245778
    17  H    0.091624
    18  H    0.068902
    19  H    0.228376
    20  H    0.088451
    21  H    0.083769
    22  H    0.227936
    23  H    0.218919
 Sum of Mulliken charges =  -0.00000
 Mulliken charges with hydrogens summed into heavy atoms:
               1
     1  C    0.034863
     2  N   -0.108292
     3  C    0.039174
     4  C    0.006509
     5  N   -0.044185
     6  C    0.102153
     7  N   -0.067206
     8  C    0.100262
     9  N   -0.063277
 Electronic spatial extent (au):  <R**2>=           2009.9206
 Charge=             -0.0000 electrons
 Dipole moment (field-independent basis, Debye):
    X=              0.4696    Y=              0.3794    Z=              0.3498  Tot=              0.6977
 Quadrupole moment (field-independent basis, Debye-Ang):
   XX=            -43.9182   YY=            -51.8172   ZZ=            -59.0327
   XY=              2.5757   XZ=              2.6899   YZ=             -1.3994
 Traceless Quadrupole moment (field-independent basis, Debye-Ang):
   XX=              7.6711   YY=             -0.2278   ZZ=             -7.4433
   XY=              2.5757   XZ=              2.6899   YZ=             -1.3994
 Octapole moment (field-independent basis, Debye-Ang**2):
  XXX=              0.5364  YYY=            -17.2435  ZZZ=              0.3134  XYY=            -15.4291
  XXY=            -13.1174  XXZ=             12.9367  XZZ=              8.9148  YZZ=              0.7015
  YYZ=              4.8735  XYZ=             -6.3239
 Hexadecapole moment (field-independent basis, Debye-Ang**3):
 XXXX=          -1486.2589 YYYY=           -583.1920 ZZZZ=            -83.4383 XXXY=             40.5453
 XXXZ=             42.0107 YYYX=             36.7595 YYYZ=             -8.8556 ZZZX=              3.2092
 ZZZY=             -1.1932 XXYY=           -381.7205 XXZZ=           -351.1532 YYZZ=           -120.1680
 XXYZ=            -26.4097 YYXZ=             14.6562 ZZXY=             -6.8758
 N-N= 4.626990204422D+02 E-N=-1.897668185565D+03  KE= 4.148419491867D+02
 PrsmSu:  requested number of processors reduced to:  13 ShMem   1 Linda.
 Calling FoFJK, ICntrl=      2127 FMM=F ISym2X=0 I1Cent= 0 IOpClX= 0 NMat=1 NMatS=1 NMatT=0.
 ***** Axes restored to original set *****
 -------------------------------------------------------------------
 Center     Atomic                   Forces (Hartrees/Bohr)
 Number     Number              X              Y              Z
 -------------------------------------------------------------------
      1        6           0.015687590   -0.000681046   -0.001014368
      2        7          -0.000036094    0.007287142    0.004159945
      3        6           0.013492047   -0.008287002   -0.004158093
      4        6          -0.025241412    0.025811577    0.013883864
      5        7           0.021247766   -0.029777696   -0.017175113
      6        6          -0.014222887   -0.001151342   -0.000172708
      7        7          -0.030747332   -0.026632123   -0.010850309
      8        6           0.008278967   -0.003753064    0.002560606
      9        7           0.022607604    0.004945716    0.000171874
     10        1           0.006749959    0.000006365   -0.000055675
     11        1          -0.002311977    0.004412570    0.000711474
     12        1          -0.002261538    0.002752129    0.003607038
     13        1          -0.000337263    0.001032999    0.002061882
     14        1          -0.003062118    0.000758480    0.000137543
     15        1          -0.009472896   -0.005001055   -0.002388193
     16        1           0.010305408    0.007136190    0.004529942
     17        1           0.002034464    0.001998060    0.004447949
     18        1          -0.006300925    0.007018330   -0.001539227
     19        1           0.004731814    0.000097455    0.001010722
     20        1          -0.012980677    0.000366943    0.003144447
     21        1          -0.000151227    0.009252338    0.000731993
     22        1          -0.000235611    0.002096500   -0.001900567
     23        1           0.002226337    0.000310533   -0.001905025
 -------------------------------------------------------------------
 Cartesian Forces:  Max     0.030747332 RMS     0.010179757

 GradGradGradGradGradGradGradGradGradGradGradGradGradGradGradGradGradGrad
 Berny optimization.
 FormGI is forming the generalized inverse of G from B-inverse, IUseBI=4.
 Internal  Forces:  Max     0.038298095 RMS     0.007750058
 Search for a local minimum.
 Step number   1 out of a maximum of  110
 All quantities printed in internal units (Hartrees-Bohrs-Radians)
 Mixed Optimization -- RFO/linear search
 Second derivative matrix not updated -- first step.
 ITU=  0
     Eigenvalues ---    0.00713   0.00865   0.00886   0.01090   0.01168
     Eigenvalues ---    0.01332   0.01871   0.02285   0.02292   0.02396
     Eigenvalues ---    0.02610   0.02890   0.03217   0.04377   0.04977
     Eigenvalues ---    0.06405   0.06466   0.07148   0.07149   0.07268
     Eigenvalues ---    0.08801   0.10932   0.11058   0.12428   0.13827
     Eigenvalues ---    0.16000   0.16000   0.16000   0.16000   0.16000
     Eigenvalues ---    0.16000   0.16000   0.16000   0.16000   0.21884
     Eigenvalues ---    0.22000   0.22000   0.22079   0.23622   0.24980
     Eigenvalues ---    0.24989   0.33775   0.33846   0.34296   0.34311
     Eigenvalues ---    0.34328   0.34397   0.34434   0.35165   0.35270
     Eigenvalues ---    0.35704   0.36657   0.36850   0.39642   0.41391
     Eigenvalues ---    0.44378   0.44881   0.44898   0.45502   0.45656
     Eigenvalues ---    0.47947   0.53945   0.57340
 RFO step:  Lambda=-2.04278321D-02 EMin= 7.13414018D-03
 Linear search not attempted -- first point.
 Iteration  1 RMS(Cart)=  0.07621992 RMS(Int)=  0.00248648
 Iteration  2 RMS(Cart)=  0.00429496 RMS(Int)=  0.00077906
 Iteration  3 RMS(Cart)=  0.00001290 RMS(Int)=  0.00077901
 Iteration  4 RMS(Cart)=  0.00000006 RMS(Int)=  0.00077901
 Variable       Old X    -DE/DX   Delta X   Delta X   Delta X     New X
                                 (Linear)    (Quad)   (Total)
    R1        2.76367  -0.01695   0.00000  -0.04381  -0.04381   2.71986
    R2        2.06780  -0.00328   0.00000  -0.00901  -0.00901   2.05880
    R3        2.06809   0.00400   0.00000   0.01102   0.01102   2.07910
    R4        2.06833   0.00423   0.00000   0.01163   0.01163   2.07996
    R5        2.61996   0.01098   0.00000   0.02197   0.02197   2.64193
    R6        2.78538  -0.01889   0.00000  -0.05063  -0.05063   2.73475
    R7        2.53110   0.00378   0.00000   0.00637   0.00637   2.53747
    R8        2.05407  -0.00019   0.00000  -0.00052  -0.00052   2.05355
    R9        2.56081   0.03830   0.00000   0.06840   0.06840   2.62922
   R10        2.04547   0.00294   0.00000   0.00780   0.00780   2.05326
   R11        1.91397  -0.00948   0.00000  -0.01994  -0.01994   1.89403
   R12        1.91222  -0.01245   0.00000  -0.02610  -0.02610   1.88611
   R13        2.76072  -0.00537   0.00000  -0.01382  -0.01382   2.74691
   R14        2.07590   0.00381   0.00000   0.01061   0.01061   2.08651
   R15        2.07712   0.00843   0.00000   0.02353   0.02353   2.10064
   R16        2.69705   0.02056   0.00000   0.04734   0.04734   2.74440
   R17        1.92114   0.00030   0.00000   0.00064   0.00064   1.92179
   R18        2.72043   0.02296   0.00000   0.05509   0.05509   2.77552
   R19        2.06665   0.00574   0.00000   0.01574   0.01574   2.08239
   R20        2.06604   0.00761   0.00000   0.02087   0.02087   2.08690
   R21        1.92704  -0.00274   0.00000  -0.00590  -0.00590   1.92115
   R22        1.92094   0.00056   0.00000   0.00119   0.00119   1.92214
    A1        1.96989  -0.00891   0.00000  -0.04925  -0.04911   1.92079
    A2        1.93116   0.00301   0.00000   0.01679   0.01682   1.94797
    A3        1.93325   0.00275   0.00000   0.01503   0.01503   1.94828
    A4        1.85967   0.00313   0.00000   0.01777   0.01793   1.87760
    A5        1.85975   0.00314   0.00000   0.01721   0.01733   1.87708
    A6        1.90689  -0.00312   0.00000  -0.01751  -0.01762   1.88928
    A7        2.14265   0.00503   0.00000   0.01854   0.01853   2.16118
    A8        2.01579  -0.00855   0.00000  -0.03171  -0.03171   1.98408
    A9        2.12413   0.00351   0.00000   0.01289   0.01288   2.13702
   A10        2.27220  -0.00429   0.00000  -0.01784  -0.01787   2.25433
   A11        1.97406   0.00019   0.00000  -0.00191  -0.00195   1.97211
   A12        2.03692   0.00410   0.00000   0.01977   0.01973   2.05665
   A13        2.20805  -0.00385   0.00000  -0.01602  -0.01602   2.19203
   A14        2.10984   0.00078   0.00000   0.00165   0.00164   2.11148
   A15        1.96528   0.00308   0.00000   0.01440   0.01440   1.97967
   A16        2.09360   0.00402   0.00000   0.02211   0.02206   2.11566
   A17        2.09146   0.00246   0.00000   0.01346   0.01341   2.10487
   A18        2.09736  -0.00651   0.00000  -0.03628  -0.03633   2.06103
   A19        2.06784  -0.02572   0.00000  -0.10972  -0.10958   1.95826
   A20        1.87699   0.00985   0.00000   0.03609   0.03436   1.91135
   A21        1.87144   0.00636   0.00000   0.02849   0.02952   1.90095
   A22        1.88911   0.00411   0.00000   0.00018  -0.00048   1.88862
   A23        1.89429   0.01074   0.00000   0.05668   0.05735   1.95164
   A24        1.85328  -0.00367   0.00000  -0.00274  -0.00370   1.84958
   A25        1.98265  -0.00380   0.00000  -0.01120  -0.01120   1.97145
   A26        1.86776   0.00440   0.00000   0.03622   0.03624   1.90400
   A27        1.87758  -0.00072   0.00000  -0.00227  -0.00228   1.87531
   A28        1.80363   0.01973   0.00000   0.09465   0.09375   1.89738
   A29        1.94842  -0.01308   0.00000  -0.07518  -0.07876   1.86966
   A30        1.95886  -0.00052   0.00000   0.00620   0.00572   1.96458
   A31        1.92401   0.00502   0.00000   0.06412   0.06572   1.98973
   A32        1.91224  -0.00956   0.00000  -0.04138  -0.04147   1.87077
   A33        1.91401  -0.00061   0.00000  -0.03938  -0.04021   1.87380
   A34        1.87333   0.00062   0.00000   0.00766   0.00748   1.88081
   A35        1.91061   0.00418   0.00000   0.02717   0.02701   1.93762
   A36        1.85513  -0.00060   0.00000   0.00601   0.00565   1.86078
    D1       -0.02220  -0.00011   0.00000  -0.00578  -0.00578  -0.02798
    D2       -3.12676   0.00009   0.00000   0.00217   0.00214  -3.12462
    D3       -2.10430  -0.00024   0.00000  -0.00716  -0.00704  -2.11134
    D4        1.07433  -0.00003   0.00000   0.00079   0.00087   1.07521
    D5        2.06145  -0.00017   0.00000  -0.00645  -0.00652   2.05493
    D6       -1.04311   0.00003   0.00000   0.00150   0.00139  -1.04171
    D7        0.03827   0.00064   0.00000   0.01616   0.01628   0.05455
    D8       -3.10491   0.00138   0.00000   0.03289   0.03291  -3.07199
    D9        3.14057   0.00017   0.00000   0.00681   0.00679  -3.13583
   D10       -0.00261   0.00092   0.00000   0.02355   0.02343   0.02082
   D11        3.12715  -0.00113   0.00000   0.00811   0.00804   3.13519
   D12        0.98008   0.00368   0.00000   0.05715   0.05760   1.03768
   D13       -1.00670   0.00013   0.00000   0.02929   0.02901  -0.97768
   D14        0.02216  -0.00096   0.00000   0.01583   0.01569   0.03785
   D15       -2.12491   0.00384   0.00000   0.06486   0.06524  -2.05967
   D16        2.17150   0.00029   0.00000   0.03700   0.03665   2.20816
   D17        3.11860   0.00076   0.00000   0.01637   0.01641   3.13501
   D18       -0.01573   0.00056   0.00000   0.01216   0.01221  -0.00352
   D19       -0.02136  -0.00000   0.00000  -0.00084  -0.00089  -0.02225
   D20        3.12750  -0.00020   0.00000  -0.00505  -0.00510   3.12240
   D21        0.01605   0.00025   0.00000   0.00591   0.00591   0.02196
   D22        3.11555  -0.00063   0.00000  -0.01449  -0.01450   3.10105
   D23       -3.13229   0.00043   0.00000   0.00980   0.00980  -3.12249
   D24       -0.03280  -0.00046   0.00000  -0.01061  -0.01060  -0.04340
   D25        3.10948   0.00100   0.00000   0.04776   0.04664  -3.12707
   D26        1.03994   0.00120   0.00000   0.03308   0.03194   1.07188
   D27       -1.03269  -0.00113   0.00000   0.01576   0.01629  -1.01640
   D28       -3.10223  -0.00093   0.00000   0.00109   0.00160  -3.10063
   D29        0.97157   0.00227   0.00000   0.04201   0.04263   1.01420
   D30       -1.09797   0.00247   0.00000   0.02734   0.02794  -1.07003
   D31       -3.10195   0.00262   0.00000   0.01918   0.01740  -3.08455
   D32        1.11375  -0.00840   0.00000  -0.07490  -0.07279   1.04097
   D33       -1.04331   0.00266   0.00000   0.02890   0.02859  -1.01472
   D34       -1.03807   0.00534   0.00000   0.05603   0.05423  -0.98384
   D35       -3.10555  -0.00567   0.00000  -0.03806  -0.03596  -3.14151
   D36        1.02057   0.00538   0.00000   0.06575   0.06542   1.08599
   D37       -1.04012   0.00303   0.00000   0.01628   0.01431  -1.02581
   D38       -3.04659   0.00127   0.00000  -0.00871  -0.01088  -3.05747
   D39        1.04426   0.00114   0.00000   0.01191   0.01410   1.05836
   D40       -0.96222  -0.00061   0.00000  -0.01308  -0.01109  -0.97330
   D41       -3.13104  -0.00257   0.00000  -0.02282  -0.02275   3.12940
   D42        1.14567  -0.00432   0.00000  -0.04781  -0.04794   1.09773
         Item               Value     Threshold  Converged?
 Maximum Force            0.038298     0.000450     NO 
 RMS     Force            0.007750     0.000300     NO 
 Maximum Displacement     0.278267     0.001800     NO 
 RMS     Displacement     0.076602     0.001200     NO 
 Predicted change in Energy=-1.124677D-02
 GradGradGradGradGradGradGradGradGradGradGradGradGradGradGradGradGradGrad

                          Input orientation:                          
 ---------------------------------------------------------------------
 Center     Atomic      Atomic             Coordinates (Angstroms)
 Number     Number       Type             X           Y           Z
 ---------------------------------------------------------------------
      1          6           0        0.993062    0.098878   -0.052490
      2          7           0        2.424225   -0.029916   -0.134525
      3          6           0        3.075480   -1.130440   -0.699550
      4          6           0        2.550098   -2.208726   -1.303124
      5          7           0        3.273806   -3.264115   -1.849179
      6          6           0        3.142561    1.066368    0.479033
      7          7           0        4.583527    0.899608    0.385408
      8          6           0        5.320947    1.981761    1.013303
      9          7           0        6.756819    1.761216    0.796893
     10          1           0        0.513299   -0.762813   -0.515371
     11          1           0        0.636529    0.998604   -0.575793
     12          1           0        0.649424    0.148744    0.991971
     13          1           0        4.156931   -1.077113   -0.607256
     14          1           0        1.474592   -2.322932   -1.407121
     15          1           0        4.274804   -3.286146   -1.803557
     16          1           0        2.804358   -4.047732   -2.251350
     17          1           0        2.871597    1.132850    1.547338
     18          1           0        2.806213    2.020399    0.018188
     19          1           0        4.852624    0.875907   -0.595024
     20          1           0        5.025601    2.002568    2.074736
     21          1           0        5.073852    2.968393    0.583103
     22          1           0        6.996366    0.859388    1.200446
     23          1           0        7.311165    2.456997    1.290030
 ---------------------------------------------------------------------
                    Distance matrix (angstroms):
                    1          2          3          4          5
     1  C    0.000000
     2  N    1.439287   0.000000
     3  C    2.503273   1.398049   0.000000
     4  C    3.051799   2.475617   1.342769   0.000000
     5  N    4.442928   3.757908   2.431779   1.391322   0.000000
     6  C    2.416382   1.447169   2.493897   3.775359   4.918423
     7  N    3.704641   2.407681   2.751806   4.080161   4.903605
     8  C    4.838569   3.708820   4.202592   5.532053   6.316946
     9  N    6.058524   4.779859   4.914598   6.153617   6.662359
    10  H    1.089469   2.081784   2.594965   2.619116   3.956761
    11  H    1.100214   2.109130   3.239850   3.804960   5.171800
    12  H    1.100670   2.109699   3.222313   3.799696   5.158209
    13  H    3.420642   2.079030   1.086691   2.084872   2.665569
    14  H    2.816391   2.789127   2.117909   1.086541   2.078079
    15  H    5.029359   4.100408   2.702643   2.094249   1.002279
    16  H    5.030919   4.557225   3.315446   2.084640   0.998087
    17  H    2.675340   2.093042   3.195709   4.403933   5.570584
    18  H    2.642869   2.091178   3.242752   4.438125   5.624215
    19  H    3.974209   2.632431   2.682274   3.913820   4.604927
    20  H    4.940697   3.972275   4.616857   5.939111   6.797340
    21  H    5.029010   4.065140   4.736994   6.060506   6.928226
    22  H    6.179634   4.845356   4.789858   5.954030   6.337266
    23  H    6.876156   5.665357   5.896538   7.152704   7.673723
                    6          7          8          9         10
     6  C    0.000000
     7  N    1.453601   0.000000
     8  C    2.422551   1.452272   0.000000
     9  N    3.694145   2.373791   1.468741   0.000000
    10  H    3.353769   4.487962   5.743084   6.861071   0.000000
    11  H    2.719825   4.063558   5.043372   6.318528   1.766756
    12  H    2.705711   4.050788   5.018319   6.319683   1.766790
    13  H    2.608349   2.252731   3.652103   4.097214   3.658317
    14  H    4.222210   4.823215   6.259655   7.031348   2.037958
    15  H    5.043468   4.733647   6.064648   6.196660   4.709092
    16  H    5.807185   5.881676   7.303832   7.658825   4.365004
    17  H    1.104136   2.082111   2.646726   4.006614   3.661950
    18  H    1.111613   2.133041   2.704742   4.034952   3.645328
    19  H    2.028346   1.016967   2.007226   2.519358   4.639126
    20  H    2.639805   2.065375   1.101953   2.165236   5.892101
    21  H    2.712639   2.135268   1.104342   2.082153   5.993929
    22  H    3.926205   2.547095   2.025283   1.016627   6.899690
    23  H    4.468649   3.268610   2.064799   1.017151   7.735479
                   11         12         13         14         15
    11  H    0.000000
    12  H    1.783343   0.000000
    13  H    4.086909   4.045103   0.000000
    14  H    3.525062   3.541995   3.063787   0.000000
    15  H    5.753567   5.723358   2.514926   2.987662   0.000000
    16  H    5.742167   5.724795   3.654733   2.335794   1.715443
    17  H    3.085650   2.492980   3.343396   4.756352   5.720578
    18  H    2.470711   3.017132   3.436598   4.761223   5.799563
    19  H    4.217924   4.551286   2.073265   4.722623   4.372312
    20  H    5.224672   4.874419   4.175177   6.591125   6.601162
    21  H    4.991287   5.262428   4.315532   6.701774   6.741949
    22  H    6.604690   6.390003   3.883325   6.885967   5.797964
    23  H    7.082300   7.056604   5.102825   8.011737   7.195378
                   16         17         18         19         20
    16  H    0.000000
    17  H    6.424405   0.000000
    18  H    6.478659   1.769270   0.000000
    19  H    5.583998   2.929198   2.423569   0.000000
    20  H    7.762413   2.382076   3.025786   2.902912   0.000000
    21  H    7.900046   3.024713   2.521905   2.411518   1.777671
    22  H    7.318992   4.148353   4.505891   2.796357   2.440319
    23  H    8.669728   4.639972   4.701360   3.478174   2.458877
                   21         22         23
    21  H    0.000000
    22  H    2.919773   0.000000
    23  H    2.401425   1.630791   0.000000
 Stoichiometry    C5H14N4
 Framework group  C1[X(C5H14N4)]
 Deg. of freedom    63
 Full point group                 C1      NOp   1
 Largest Abelian subgroup         C1      NOp   1
 Largest concise Abelian subgroup C1      NOp   1
                         Standard orientation:                         
 ---------------------------------------------------------------------
 Center     Atomic      Atomic             Coordinates (Angstroms)
 Number     Number       Type             X           Y           Z
 ---------------------------------------------------------------------
      1          6           0       -1.417704    2.194126    0.016310
      2          7           0       -0.688704    0.953343   -0.007403
      3          6           0       -1.295283   -0.306143    0.009809
      4          6           0       -2.601028   -0.618820   -0.007290
      5          7           0       -3.125352   -1.907509    0.004656
      6          6           0        0.748379    1.123181    0.008310
      7          7           0        1.451959   -0.148697   -0.007738
      8          6           0        2.895939    0.002297    0.027126
      9          7           0        3.511288   -1.327665   -0.071606
     10          1           0       -2.489324    1.997767    0.020301
     11          1           0       -1.196244    2.811159   -0.867260
     12          1           0       -1.185076    2.784206    0.915845
     13          1           0       -0.578743   -1.121792    0.056544
     14          1           0       -3.361497    0.156716   -0.035588
     15          1           0       -2.527813   -2.711095    0.046619
     16          1           0       -4.112379   -2.054261    0.025109
     17          1           0        1.045143    1.670181    0.920361
     18          1           0        1.044202    1.769831   -0.846099
     19          1           0        1.218085   -0.647436   -0.862598
     20          1           0        3.143320    0.542909    0.954941
     21          1           0        3.279659    0.602846   -0.816480
     22          1           0        3.172669   -1.884754    0.708470
     23          1           0        4.521842   -1.270430    0.028898
 ---------------------------------------------------------------------
 Rotational constants (GHZ):           2.3142803           0.7388226           0.5677286
 Standard basis: 6-31G(2df,p) (6D, 7F)
 There are   349 symmetry adapted cartesian basis functions of A   symmetry.
 There are   322 symmetry adapted basis functions of A   symmetry.
   322 basis functions,   494 primitive gaussians,   349 cartesian basis functions
    36 alpha electrons       36 beta electrons
       nuclear repulsion energy       463.3988632926 Hartrees.
 NAtoms=   23 NActive=   23 NUniq=   23 SFac= 1.00D+00 NAtFMM=   60 NAOKFM=F Big=F
 Integral buffers will be    131072 words long.
 Raffenetti 2 integral format.
 Two-electron integral symmetry is turned on.
 One-electron integrals computed using PRISM.
 PrsmSu:  requested number of processors reduced to:  13 ShMem   1 Linda.
 NBasis=   322 RedAO= T EigKep=  2.25D-04  NBF=   322
 NBsUse=   322 1.00D-06 EigRej= -1.00D+00 NBFU=   322
 Initial guess from the checkpoint file:  "CNpCdCNpCNCN.chk"
 B after Tr=     0.000000   -0.000000    0.000000
         Rot=    0.999997   -0.001599    0.000175   -0.002002 Ang=  -0.29 deg.
 ExpMin= 1.61D-01 ExpMax= 4.17D+03 ExpMxC= 6.27D+02 IAcc=2 IRadAn=         4 AccDes= 0.00D+00
 Harris functional with IExCor=  402 and IRadAn=       4 diagonalized for initial guess.
 HarFok:  IExCor=  402 AccDes= 0.00D+00 IRadAn=         4 IDoV= 1 UseB2=F ITyADJ=14
 ICtDFT=  3500011 ScaDFX=  1.000000  1.000000  1.000000  1.000000
 FoFCou: FMM=F IPFlag=           0 FMFlag=      100000 FMFlg1=           0
         NFxFlg=           0 DoJE=T BraDBF=F KetDBF=T FulRan=T
         wScrn=  0.000000 ICntrl=       500 IOpCl=  0 I1Cent=   200000004 NGrid=           0
         NMat0=    1 NMatS0=      1 NMatT0=    0 NMatD0=    1 NMtDS0=    0 NMtDT0=    0
 Petite list used in FoFCou.
 Requested convergence on RMS density matrix=1.00D-08 within 128 cycles.
 Requested convergence on MAX density matrix=1.00D-06.
 Requested convergence on             energy=1.00D-06.
 No special actions if energy rises.
 Integral accuracy reduced to 1.0D-05 until final iterations.
 Initial convergence to 1.0D-05 achieved.  Increase integral accuracy.
 SCF Done:  E(RB3LYP) =  -417.929409090     A.U. after   11 cycles
            NFock= 11  Conv=0.80D-08     -V/T= 2.0078
 PrsmSu:  requested number of processors reduced to:  13 ShMem   1 Linda.
 Calling FoFJK, ICntrl=      2127 FMM=F ISym2X=0 I1Cent= 0 IOpClX= 0 NMat=1 NMatS=1 NMatT=0.
 ***** Axes restored to original set *****
 -------------------------------------------------------------------
 Center     Atomic                   Forces (Hartrees/Bohr)
 Number     Number              X              Y              Z
 -------------------------------------------------------------------
      1        6           0.003476843   -0.004025728   -0.002749776
      2        7          -0.001338399    0.003424017   -0.000039542
      3        6           0.005787154   -0.006145443   -0.001828886
      4        6          -0.007882872    0.006805240    0.003565652
      5        7           0.003273891   -0.000377579   -0.002216434
      6        6           0.002460046   -0.005167084   -0.001978618
      7        7           0.001463665    0.003071466   -0.002078188
      8        6           0.005516121    0.002071583    0.001884694
      9        7          -0.005250982   -0.003554757   -0.000516403
     10        1          -0.001166355    0.000367661    0.000238122
     11        1          -0.000867851    0.001136178    0.000635298
     12        1          -0.000928855    0.000994866    0.000838303
     13        1          -0.002981405   -0.000450200    0.001493536
     14        1           0.001215602   -0.001271699   -0.000929489
     15        1          -0.000463054   -0.000832555    0.000274961
     16        1           0.000046699   -0.001016335    0.000361051
     17        1           0.001694173    0.001238843    0.001836746
     18        1          -0.001216922    0.000712352    0.000066504
     19        1           0.000470774    0.000810984   -0.000070133
     20        1          -0.000925888    0.000574035    0.000877035
     21        1           0.000084789    0.001378374    0.001187465
     22        1           0.000592963   -0.000113967    0.000297425
     23        1          -0.003060136    0.000369747   -0.001149323
 -------------------------------------------------------------------
 Cartesian Forces:  Max     0.007882872 RMS     0.002535001

 GradGradGradGradGradGradGradGradGradGradGradGradGradGradGradGradGradGrad
 Berny optimization.
 Using GEDIIS/GDIIS optimizer.
 FormGI is forming the generalized inverse of G from B-inverse, IUseBI=4.
 Internal  Forces:  Max     0.008124138 RMS     0.002038210
 Search for a local minimum.
 Step number   2 out of a maximum of  110
 All quantities printed in internal units (Hartrees-Bohrs-Radians)
 Mixed Optimization -- RFO/linear search
 Update second derivatives using D2CorX and points    1    2
 DE= -9.58D-03 DEPred=-1.12D-02 R= 8.52D-01
 TightC=F SS=  1.41D+00  RLast= 3.26D-01 DXNew= 5.0454D-01 9.7835D-01
 Trust test= 8.52D-01 RLast= 3.26D-01 DXMaxT set to 5.05D-01
 ITU=  1  0
 Use linear search instead of GDIIS.
     Eigenvalues ---    0.00703   0.00865   0.00881   0.01101   0.01166
     Eigenvalues ---    0.01333   0.01860   0.02285   0.02294   0.02399
     Eigenvalues ---    0.02609   0.02890   0.03149   0.04757   0.05005
     Eigenvalues ---    0.05753   0.06569   0.07013   0.07175   0.07388
     Eigenvalues ---    0.09624   0.10011   0.11074   0.12820   0.13279
     Eigenvalues ---    0.15771   0.15999   0.16000   0.16000   0.16000
     Eigenvalues ---    0.16000   0.16000   0.16000   0.16318   0.21474
     Eigenvalues ---    0.21904   0.22000   0.23478   0.24192   0.24787
     Eigenvalues ---    0.27222   0.33567   0.33828   0.34171   0.34305
     Eigenvalues ---    0.34333   0.34362   0.34424   0.35071   0.35622
     Eigenvalues ---    0.35842   0.36508   0.36853   0.40809   0.42549
     Eigenvalues ---    0.44396   0.44880   0.44924   0.45484   0.45916
     Eigenvalues ---    0.47718   0.52432   0.57441
 RFO step:  Lambda=-3.22270075D-03 EMin= 7.02860471D-03
 Quartic linear search produced a step of -0.05727.
 Iteration  1 RMS(Cart)=  0.10916648 RMS(Int)=  0.00544806
 Iteration  2 RMS(Cart)=  0.00667554 RMS(Int)=  0.00009503
 Iteration  3 RMS(Cart)=  0.00003883 RMS(Int)=  0.00009379
 Iteration  4 RMS(Cart)=  0.00000001 RMS(Int)=  0.00009379
 Variable       Old X    -DE/DX   Delta X   Delta X   Delta X     New X
                                 (Linear)    (Quad)   (Total)
    R1        2.71986  -0.00071   0.00251  -0.00926  -0.00676   2.71310
    R2        2.05880   0.00012   0.00052  -0.00121  -0.00069   2.05810
    R3        2.07910   0.00091  -0.00063   0.00433   0.00370   2.08280
    R4        2.07996   0.00113  -0.00067   0.00504   0.00437   2.08433
    R5        2.64193   0.00183  -0.00126   0.00728   0.00602   2.64795
    R6        2.73475   0.00211   0.00290  -0.00310  -0.00020   2.73455
    R7        2.53747  -0.00164  -0.00036  -0.00157  -0.00194   2.53553
    R8        2.05355  -0.00286   0.00003  -0.00762  -0.00759   2.04596
    R9        2.62922   0.00380  -0.00392   0.01816   0.01425   2.64346
   R10        2.05326  -0.00098  -0.00045  -0.00121  -0.00166   2.05161
   R11        1.89403  -0.00043   0.00114  -0.00427  -0.00313   1.89090
   R12        1.88611   0.00063   0.00149  -0.00317  -0.00167   1.88444
   R13        2.74691  -0.00166   0.00079  -0.00652  -0.00573   2.74118
   R14        2.08651   0.00144  -0.00061   0.00574   0.00513   2.09164
   R15        2.10064   0.00095  -0.00135   0.00663   0.00528   2.10592
   R16        2.74440   0.00011  -0.00271   0.00832   0.00561   2.75001
   R17        1.92179   0.00017  -0.00004   0.00047   0.00043   1.92222
   R18        2.77552  -0.00685  -0.00315  -0.00661  -0.00976   2.76576
   R19        2.08239   0.00110  -0.00090   0.00566   0.00476   2.08715
   R20        2.08690   0.00075  -0.00119   0.00558   0.00439   2.09129
   R21        1.92115   0.00036   0.00034  -0.00025   0.00008   1.92123
   R22        1.92214  -0.00197  -0.00007  -0.00387  -0.00394   1.91820
    A1        1.92079   0.00187   0.00281   0.00507   0.00784   1.92862
    A2        1.94797   0.00040  -0.00096   0.00388   0.00290   1.95087
    A3        1.94828   0.00032  -0.00086   0.00285   0.00198   1.95026
    A4        1.87760  -0.00062  -0.00103   0.00259   0.00152   1.87912
    A5        1.87708  -0.00068  -0.00099   0.00161   0.00058   1.87767
    A6        1.88928  -0.00141   0.00101  -0.01635  -0.01534   1.87394
    A7        2.16118  -0.00446  -0.00106  -0.01355  -0.01466   2.14652
    A8        1.98408  -0.00189   0.00182  -0.01266  -0.01089   1.97319
    A9        2.13702   0.00634  -0.00074   0.02537   0.02455   2.16157
   A10        2.25433  -0.00395   0.00102  -0.01966  -0.01871   2.23562
   A11        1.97211   0.00139   0.00011   0.00451   0.00455   1.97667
   A12        2.05665   0.00255  -0.00113   0.01487   0.01367   2.07032
   A13        2.19203  -0.00271   0.00092  -0.01410  -0.01318   2.17885
   A14        2.11148   0.00311  -0.00009   0.01600   0.01591   2.12739
   A15        1.97967  -0.00040  -0.00082  -0.00191  -0.00273   1.97694
   A16        2.11566   0.00049  -0.00126   0.00599   0.00447   2.12013
   A17        2.10487   0.00009  -0.00077   0.00225   0.00123   2.10609
   A18        2.06103  -0.00064   0.00208  -0.01056  -0.00874   2.05229
   A19        1.95826   0.00812   0.00628   0.01858   0.02480   1.98306
   A20        1.91135  -0.00103  -0.00197   0.00917   0.00733   1.91868
   A21        1.90095  -0.00245  -0.00169  -0.00303  -0.00477   1.89618
   A22        1.88862  -0.00307   0.00003  -0.01367  -0.01377   1.87485
   A23        1.95164  -0.00254  -0.00328  -0.00181  -0.00521   1.94643
   A24        1.84958   0.00054   0.00021  -0.01066  -0.01048   1.83910
   A25        1.97145  -0.00065   0.00064  -0.00259  -0.00197   1.96949
   A26        1.90400   0.00045  -0.00208   0.01300   0.01090   1.91490
   A27        1.87531   0.00040   0.00013   0.00602   0.00612   1.88142
   A28        1.89738  -0.00643  -0.00537  -0.01120  -0.01647   1.88091
   A29        1.86966   0.00196   0.00451  -0.00596  -0.00118   1.86847
   A30        1.96458   0.00240  -0.00033   0.01282   0.01252   1.97710
   A31        1.98973   0.00216  -0.00376   0.02084   0.01698   2.00671
   A32        1.87077   0.00161   0.00237  -0.00231   0.00010   1.87088
   A33        1.87380  -0.00150   0.00230  -0.01314  -0.01080   1.86300
   A34        1.88081   0.00142  -0.00043   0.00931   0.00892   1.88973
   A35        1.93762  -0.00398  -0.00155  -0.01819  -0.01970   1.91792
   A36        1.86078   0.00107  -0.00032   0.00688   0.00662   1.86740
    D1       -0.02798  -0.00006   0.00033  -0.01329  -0.01280  -0.04078
    D2       -3.12462   0.00006  -0.00012   0.00657   0.00630  -3.11832
    D3       -2.11134  -0.00077   0.00040  -0.02237  -0.02183  -2.13317
    D4        1.07521  -0.00066  -0.00005  -0.00251  -0.00273   1.07248
    D5        2.05493   0.00053   0.00037  -0.00610  -0.00555   2.04937
    D6       -1.04171   0.00064  -0.00008   0.01377   0.01355  -1.02817
    D7        0.05455   0.00100  -0.00093   0.05123   0.05039   0.10493
    D8       -3.07199   0.00159  -0.00188   0.07483   0.07297  -2.99902
    D9       -3.13583   0.00064  -0.00039   0.02861   0.02819  -3.10764
   D10        0.02082   0.00124  -0.00134   0.05221   0.05078   0.07159
   D11        3.13519   0.00122  -0.00046   0.12172   0.12122  -3.02677
   D12        1.03768   0.00052  -0.00330   0.12070   0.11719   1.15486
   D13       -0.97768   0.00181  -0.00166   0.13009   0.12836  -0.84932
   D14        0.03785   0.00164  -0.00090   0.14239   0.14166   0.17951
   D15       -2.05967   0.00095  -0.00374   0.14137   0.13763  -1.92204
   D16        2.20816   0.00223  -0.00210   0.15076   0.14881   2.35696
   D17        3.13501   0.00043  -0.00094   0.01707   0.01616  -3.13202
   D18       -0.00352   0.00047  -0.00070   0.01769   0.01702   0.01350
   D19       -0.02225  -0.00020   0.00005  -0.00759  -0.00757  -0.02981
   D20        3.12240  -0.00015   0.00029  -0.00697  -0.00670   3.11570
   D21        0.02196   0.00054  -0.00034   0.02052   0.02017   0.04213
   D22        3.10105  -0.00060   0.00083  -0.02439  -0.02355   3.07750
   D23       -3.12249   0.00051  -0.00056   0.01997   0.01940  -3.10309
   D24       -0.04340  -0.00064   0.00061  -0.02494  -0.02432  -0.06772
   D25       -3.12707   0.00082  -0.00267   0.08227   0.07972  -3.04735
   D26        1.07188   0.00043  -0.00183   0.06749   0.06576   1.13764
   D27       -1.01640   0.00258  -0.00093   0.09620   0.09515  -0.92125
   D28       -3.10063   0.00218  -0.00009   0.08141   0.08119  -3.01944
   D29        1.01420  -0.00008  -0.00244   0.07386   0.07144   1.08564
   D30       -1.07003  -0.00048  -0.00160   0.05908   0.05748  -1.01254
   D31       -3.08455  -0.00003  -0.00100  -0.00499  -0.00585  -3.09040
   D32        1.04097  -0.00002   0.00417  -0.01993  -0.01590   1.02507
   D33       -1.01472  -0.00079  -0.00164  -0.00738  -0.00902  -1.02374
   D34       -0.98384   0.00041  -0.00311   0.01369   0.01072  -0.97311
   D35       -3.14151   0.00042   0.00206  -0.00125   0.00068  -3.14083
   D36        1.08599  -0.00035  -0.00375   0.01130   0.00755   1.09354
   D37       -1.02581  -0.00024  -0.00082  -0.02667  -0.02735  -1.05315
   D38       -3.05747  -0.00018   0.00062  -0.03044  -0.02964  -3.08711
   D39        1.05836  -0.00088  -0.00081  -0.02875  -0.02974   1.02863
   D40       -0.97330  -0.00083   0.00063  -0.03253  -0.03203  -1.00533
   D41        3.12940  -0.00037   0.00130  -0.03427  -0.03299   3.09641
   D42        1.09773  -0.00032   0.00275  -0.03805  -0.03529   1.06245
         Item               Value     Threshold  Converged?
 Maximum Force            0.008124     0.000450     NO 
 RMS     Force            0.002038     0.000300     NO 
 Maximum Displacement     0.387638     0.001800     NO 
 RMS     Displacement     0.110669     0.001200     NO 
 Predicted change in Energy=-1.927997D-03
 GradGradGradGradGradGradGradGradGradGradGradGradGradGradGradGradGradGrad

                          Input orientation:                          
 ---------------------------------------------------------------------
 Center     Atomic      Atomic             Coordinates (Angstroms)
 Number     Number       Type             X           Y           Z
 ---------------------------------------------------------------------
      1          6           0        1.035220    0.108067   -0.107506
      2          7           0        2.461436   -0.050659   -0.152041
      3          6           0        3.086444   -1.185483   -0.685899
      4          6           0        2.518213   -2.221403   -1.321712
      5          7           0        3.210321   -3.330184   -1.820111
      6          6           0        3.172834    1.037221    0.483895
      7          7           0        4.611899    0.967857    0.315287
      8          6           0        5.318639    1.996382    1.063873
      9          7           0        6.744749    1.869277    0.760384
     10          1           0        0.541938   -0.742662   -0.575560
     11          1           0        0.708256    1.017438   -0.637526
     12          1           0        0.664247    0.179584    0.928753
     13          1           0        4.155270   -1.205298   -0.514428
     14          1           0        1.448380   -2.267683   -1.500548
     15          1           0        4.197981   -3.429500   -1.693990
     16          1           0        2.718844   -4.092116   -2.235232
     17          1           0        2.966273    1.038559    1.571299
     18          1           0        2.762706    2.001299    0.104091
     19          1           0        4.848089    1.081036   -0.667612
     20          1           0        5.054469    1.861878    2.127818
     21          1           0        5.015762    3.024337    0.787691
     22          1           0        7.050667    0.943470    1.048334
     23          1           0        7.275241    2.540334    1.306849
 ---------------------------------------------------------------------
                    Distance matrix (angstroms):
                    1          2          3          4          5
     1  C    0.000000
     2  N    1.435712   0.000000
     3  C    2.493056   1.401237   0.000000
     4  C    3.016619   2.466471   1.341743   0.000000
     5  N    4.414255   3.754806   2.429306   1.398861   0.000000
     6  C    2.404678   1.447061   2.513224   3.782509   4.938023
     7  N    3.702786   2.424926   2.822456   4.151465   4.999750
     8  C    4.825509   3.719198   4.262471   5.596705   6.413632
     9  N    6.037700   4.781783   4.980612   6.239583   6.795994
    10  H    1.089101   2.083917   2.585107   2.578581   3.919751
    11  H    1.102172   2.109542   3.242064   3.772817   5.153703
    12  H    1.102982   2.109743   3.215205   3.777105   5.133928
    13  H    3.409578   2.081728   1.082675   2.089051   2.666998
    14  H    2.784862   2.785668   2.125573   1.085664   2.082178
    15  H    5.003436   4.099971   2.699514   2.102311   1.000621
    16  H    5.000334   4.554044   3.314223   2.091492   0.997203
    17  H    2.722713   2.100276   3.171080   4.381509   5.535986
    18  H    2.571636   2.089713   3.299162   4.463620   5.685739
    19  H    3.974715   2.691220   2.870686   4.094176   4.844523
    20  H    4.922082   3.947072   4.590919   5.916505   6.778240
    21  H    5.015050   4.106493   4.859662   6.181029   7.102125
    22  H    6.182190   4.846673   4.822352   6.014706   6.421866
    23  H    6.845011   5.658120   5.949687   7.225841   7.795154
                    6          7          8          9         10
     6  C    0.000000
     7  N    1.450568   0.000000
     8  C    2.420917   1.455241   0.000000
[...]
 431,-0.00140451,0.00030554,0.00055515,-0.00021087,-0.00032822,-0.00025
 884,-0.00012760,-0.00018929,0.00020043,0.00005774,0.00020472,-0.000021
 72,-0.00001390,-0.00003122,-0.00051266,0.00094958,0.00040807,0.0000859
 2,0.00013234,-0.00048857,0.00101577,-0.00091681,-0.00067873,-0.0013139
 8,-0.00367167,0.00832302,0.02306239,0.01411575,0.02862365,-0.00043586,
 -0.00016664,0.00005410,0.00004409,-0.00080041,0.00075500,0.00310379,-0
 .00293373,-0.00046748,-0.02087726,0.00093822,-0.00537612,-0.41028742,-
 0.01318918,-0.05328163,0.00019949,0.00018646,0.00011755,-0.00002997,-0
 .00001567,-0.00000307,0.00005480,0.00002929,0.00000830,-0.00003669,-0.
 00001808,0.00001845,0.00003595,-0.00004939,0.00013403,0.00015207,0.000
 01331,0.00001131,-0.00000009,0.00011467,-0.00011557,0.00027540,0.00132
 721,-0.00050713,0.00057875,0.00336583,0.00045495,0.44040761,0.00020664
 ,0.00002210,0.00016353,-0.00056114,-0.00090353,0.00022163,0.00200514,0
 .00211045,0.00035261,0.03489599,0.00253765,0.00677355,-0.01315076,-0.0
 6477704,0.00214473,0.00028110,0.00012340,-0.00015210,-0.00004380,0.000
 21686,0.00014668,-0.00009337,-0.00004231,-0.00009211,0.00002877,0.0000
 1309,0.00001219,-0.00002702,0.00002395,-0.00015147,-0.00014059,-0.0000
 5951,-0.00005763,-0.00004661,-0.00004113,0.00009324,-0.00164322,-0.000
 38415,-0.00038316,0.00269635,-0.00442073,-0.00238106,0.00872437,0.0650
 0195,0.00036481,-0.00003533,0.00045592,-0.00036201,0.00148333,-0.00076
 479,0.00176741,0.00074486,0.00082799,0.01732982,-0.00585745,-0.0029920
 8,-0.10302007,0.00282195,-0.02716676,-0.00035232,-0.00038282,-0.000354
 69,0.00023984,0.00015278,0.00009488,-0.00019400,-0.00012430,-0.0000775
 6,0.00011920,0.00007457,-0.00007606,-0.00001684,-0.00021310,-0.0001356
 1,-0.00007491,0.00005729,0.00008304,-0.00016653,0.00010809,0.00002615,
 -0.00043569,-0.00003392,-0.00009195,0.00032431,-0.00220413,0.00168841,
 0.06552291,0.00152072,0.02965888,0.00092785,0.00015076,-0.00004842,-0.
 00010523,0.00228633,0.00082878,-0.00089762,0.00085247,0.00039311,0.010
 39856,0.01495677,-0.00877904,-0.11778351,-0.10730408,0.06191651,-0.000
 88162,-0.00031339,-0.00004585,0.00015510,0.00001944,0.00006621,-0.0001
 4317,-0.00008964,-0.00010751,0.00009058,0.00005456,-0.00002748,-0.0000
 5914,-0.00003820,-0.00014943,-0.00008504,-0.00000883,0.00004620,-0.000
 17308,-0.00013602,0.00016945,0.00028168,-0.00010984,0.00018255,0.00007
 828,-0.00029708,-0.00025867,-0.01315275,-0.03306555,0.01891332,0.12119
 663,-0.00012081,-0.00004762,-0.00004228,-0.00084160,0.00048487,-0.0026
 4178,0.00447645,-0.00187473,0.00239401,-0.01151298,-0.03056070,0.00986
 239,-0.11814334,-0.29104630,0.12400713,0.00052283,-0.00036884,-0.00025
 674,-0.00007134,0.00005397,0.00002602,0.00002947,-0.00001835,0.0000512
 3,-0.00000076,0.00000406,-0.00001306,-0.00008039,0.00012696,0.00006792
 ,0.00002990,0.00000539,-0.00005011,0.00007160,-0.00007242,-0.00004397,
 -0.00004710,-0.00026988,0.00131658,0.00037331,0.00104531,-0.00020451,0
 .00248309,0.00054436,0.00179027,0.12291255,0.32221415,0.00103463,0.000
 25646,0.00019654,-0.00156025,0.00272901,0.00006626,0.00287086,-0.00365
 629,0.00060237,-0.00489522,-0.02126024,-0.00101734,0.08431741,0.166571
 98,-0.08385105,-0.00097879,-0.00087104,-0.00014972,0.00028722,0.000135
 69,0.00015612,-0.00026414,-0.00017129,-0.00017647,0.00015864,0.0000942
 4,-0.00004241,-0.00004891,-0.00004279,-0.00016851,-0.00005955,0.000016
 01,0.00000603,-0.00018800,-0.00029249,0.00016571,-0.00006061,0.0000720
 1,-0.00043795,-0.00012800,0.00071722,0.00013376,-0.00727974,-0.0082415
 3,-0.00130554,-0.07334964,-0.13609643,0.08559006,0.00322325,0.00085876
 ,-0.00110031,-0.00182807,0.00179662,-0.02027817,-0.00105443,0.00260050
 ,0.00149312,-0.00054809,-0.00024741,0.00064550,0.00030889,-0.00064464,
 -0.00080466,-0.05213324,0.00976298,-0.00994704,-0.00543374,-0.01938237
 ,0.03364840,0.00118577,-0.00056874,0.00325102,-0.00049048,0.00006425,-
 0.00049093,-0.00038930,-0.00052294,0.00021343,0.00008307,0.00013879,-0
 .00000497,-0.00018627,-0.00045645,0.00099499,0.00011541,-0.00029810,0.
 00000992,0.00002726,0.00002935,0.00003178,-0.00004150,-0.00002716,0.00
 005927,0.00010977,0.00003669,0.00016728,0.06243535,0.00217651,0.000347
 39,-0.00051565,-0.00326093,0.00908315,-0.02252930,0.00012694,0.0052002
 7,0.00001445,-0.00056943,-0.00117302,-0.00000520,-0.00022267,0.0006260
 1,0.00082671,0.00454467,-0.11394721,0.09845838,-0.00216918,-0.00219511
 ,0.00669390,0.00052617,0.00009311,0.00202679,0.00006974,0.00010812,-0.
 00078089,-0.00045505,0.00017304,0.00011104,-0.00052312,-0.00019807,-0.
 00013720,0.00017480,-0.00024007,0.00090520,0.00001266,-0.00015359,-0.0
 0010054,0.00002811,0.00007395,-0.00020730,0.00005227,0.00001382,-0.000
 05263,-0.00007128,-0.00009799,-0.00011863,-0.00089147,0.11500683,0.003
 22570,0.00007101,-0.00115767,-0.00972804,-0.00124565,-0.02979514,-0.00
 216218,0.00444350,0.00289163,-0.00085603,-0.00094685,0.00064702,0.0004
 6900,-0.00097238,-0.00107167,-0.00167249,0.09760129,-0.20837665,0.0063
 3722,0.00773595,-0.01239398,-0.00132440,-0.00028941,-0.00097205,-0.000
 36394,-0.00039994,0.00100217,-0.00083779,-0.00050063,-0.00007320,-0.00
 030315,0.00016088,0.00001848,-0.00143999,-0.00042008,0.00039742,0.0005
 0221,-0.00011558,-0.00035660,0.00003540,0.00010349,-0.00002949,-0.0000
 2516,-0.00003226,0.00002085,0.00013903,-0.00000088,0.00020374,0.006132
 53,-0.10651490,0.24405327,0.00032200,-0.00315868,-0.00176421,0.0058856
 3,-0.01160890,-0.00320711,-0.00158101,-0.00161613,-0.00250854,0.000548
 71,-0.00050324,-0.00036884,-0.00005296,-0.00031781,0.00011421,-0.10910
 198,0.10496078,0.01295852,-0.03706656,0.02136799,0.00767725,0.00306547
 ,0.00416655,0.00494694,-0.00031095,-0.00112608,-0.00035645,0.00018393,
 -0.00052665,-0.00002531,-0.00009388,-0.00037984,-0.00042384,-0.0001026
 1,0.00029745,-0.00002107,-0.00017772,-0.00052918,-0.00011623,0.0001243
 7,0.00007442,-0.00007850,0.00000341,-0.00004310,0.00001420,0.00006615,
 -0.00010056,0.00001813,0.00100445,0.00276756,-0.00024562,0.13545903,0.
 00270669,-0.00058534,0.00070117,0.00899346,-0.02101143,-0.00696944,-0.
 00380133,-0.00063128,-0.00283116,0.00097736,0.00050985,-0.00029929,-0.
 00019576,-0.00085928,-0.00014186,0.09580987,-0.21176522,-0.01856357,-0
 .00319365,0.01175694,-0.00142110,0.00001012,0.00258563,0.00112857,0.00
 001129,0.00016148,0.00001464,-0.00027039,0.00069646,0.00018209,-0.0012
 6787,0.00096434,-0.00032146,-0.00038673,-0.00021039,0.00010861,0.00001
 337,0.00024579,0.00036637,-0.00014811,-0.00000086,-0.00020255,-0.00004
 228,0.00005110,0.00007919,0.00017287,-0.00013339,0.00012090,0.00962127
 ,-0.01356835,0.00007969,-0.11086288,0.23079393,0.00213356,-0.00135473,
 0.00041481,0.01059660,-0.02849972,-0.00868243,-0.00391775,-0.00118252,
 -0.00159458,0.00104881,-0.00090990,-0.00023714,-0.00025652,-0.00046882
 ,0.00002035,0.00774336,-0.01137457,-0.05658956,0.01056263,-0.00800331,
 0.00129548,-0.00044155,0.00052650,-0.00020744,-0.00011140,0.00002542,0
 .00020888,0.00027127,0.00019276,0.00002485,-0.00078718,0.00047135,0.00
 016897,-0.00036548,0.00023176,0.00008494,0.00029194,0.00017272,0.00003
 650,-0.00005036,-0.00001725,-0.00009938,-0.00001115,0.00003912,0.00001
 439,0.00006577,-0.00014307,-0.00003672,-0.01399960,0.02299572,0.003370
 84,-0.01334475,0.02781587,0.06073354,-0.00038400,0.00011252,-0.0000894
 1,0.00226008,0.00246557,-0.00109297,0.00054778,-0.00079983,-0.00002461
 ,0.00009470,0.00006463,-0.00006743,-0.00011276,0.00023571,0.00031185,-
 0.00530587,-0.02232999,0.03606060,-0.05045231,-0.00981500,-0.01676929,
 0.00141330,0.01488768,-0.01838224,0.00148965,0.00104606,0.00135673,-0.
 00000107,0.00007248,-0.00000482,-0.00007915,0.00001463,0.00006029,0.00
 033783,0.00016432,-0.00009291,-0.00010178,0.00010028,-0.00016894,-0.00
 002299,-0.00001857,-0.00004099,0.00001685,0.00002001,-0.00005002,-0.00
 003548,-0.00001073,-0.00004977,-0.00593593,-0.00173317,0.00153303,0.00
 132431,0.00026584,-0.00008216,0.05722680,-0.00055134,0.00022393,-0.000
 40535,0.00099821,0.00071172,-0.00052411,-0.00036278,-0.00119292,-0.000
 36912,0.00019293,-0.00006585,-0.00011503,-0.00003438,0.00015513,0.0000
 3379,0.00639853,-0.00570946,0.00408740,-0.02099545,-0.14957024,0.20216
 812,-0.00208276,0.00514715,-0.02172115,0.00150093,-0.00015181,0.000216
 79,-0.00003345,-0.00001324,0.00000211,0.00015792,-0.00012959,-0.000009
 37,0.00038085,0.00004838,-0.00004707,0.00004554,-0.00032965,0.00054089
 ,0.00003484,-0.00000385,0.00010582,-0.00000643,-0.00005629,0.00003519,
 -0.00000787,0.00001853,-0.00003693,-0.00227462,0.00084853,0.00090612,-
 0.00052249,0.00174041,-0.00095789,0.01868610,0.14706791,-0.00034408,0.
 00001157,-0.00000366,0.00007022,-0.00008781,0.00132828,-0.00009904,-0.
 00027866,-0.00019634,0.00001238,0.00000288,-0.00007823,0.00000372,-0.0
 0002782,-0.00003679,0.00145534,0.00730280,-0.00866974,0.00026754,0.162
 69100,-0.29824303,-0.00251693,0.01655752,-0.02713019,0.00113417,0.0001
 9467,0.00242253,-0.00003887,-0.00001924,-0.00001322,0.00009113,-0.0001
 0329,0.00000308,-0.00000296,-0.00003210,-0.00012175,0.00006723,0.00009
 044,0.00032098,-0.00000122,-0.00000471,-0.00001381,0.00000128,-0.00000
 792,0.00004140,0.00000363,-0.00000712,-0.00000393,0.00141383,-0.000478
 34,0.00039512,-0.00130421,-0.00042475,0.00062521,0.00052350,-0.1824965
 4,0.33024447,0.00008370,0.00000081,-0.00000266,-0.00025354,-0.00053072
 ,0.00024445,-0.00006692,0.00016529,0.00000109,-0.00004143,-0.00000290,
 -0.00000006,0.00001839,-0.00004928,-0.00005079,0.00132666,0.00113540,-
 0.00231036,0.00015015,0.00951167,-0.01856702,-0.05033798,0.00146914,0.
 00049399,-0.01262443,-0.02167196,0.03215650,-0.00000697,0.00000071,-0.
 00000382,0.00000225,0.00000116,-0.00000381,-0.00004420,-0.00001964,0.0
 0001372,0.00001064,0.00002491,0.00003287,-0.00000140,0.00000371,-0.000
 01337,-0.00000294,0.00000163,0.00001771,0.00000811,-0.00000182,0.00001
 370,-0.00023419,-0.00046859,0.00043825,-0.00001911,-0.00018418,0.00011
 966,-0.00270194,-0.00203644,-0.00236725,0.05908536,0.00017064,-0.00000
 522,0.00004407,-0.00003825,-0.00033446,-0.00049683,-0.00017583,0.00024
 354,0.00009121,-0.00001004,0.00000109,0.00001757,0.00003448,-0.0000867
 7,-0.00009647,-0.00001170,0.00040802,-0.00024510,-0.00117360,0.0104688
 4,-0.01568494,0.00436873,-0.13717584,0.10976578,-0.00644739,0.00151573
 ,0.00440945,-0.00000767,-0.00000737,-0.00001834,-0.00001674,0.00000409
 ,0.00000348,-0.00002688,0.00000428,0.00002579,0.00002493,-0.00005193,-
 0.00003205,0.00001018,0.00001714,0.00000013,-0.00000784,-0.00000863,0.
 00002093,0.00001528,0.00000100,0.00002739,0.00025840,0.00026477,-0.000
 06549,-0.00004419,-0.00029039,0.00018388,-0.00230990,0.00018007,-0.002
 85481,0.00494564,0.14211749,-0.00006033,-0.00008563,0.00005748,-0.0001
 8664,-0.00055944,0.00101004,0.00004755,0.00008067,-0.00003566,-0.00008
 343,-0.00000762,0.00002471,0.00001090,-0.00002028,0.00004211,0.0023834
 8,0.00160995,-0.00177514,-0.00467559,0.01086164,-0.03047774,-0.0021294
 6,0.10212505,-0.19168896,0.00988040,0.00703115,-0.00745326,0.00002992,
 0.00000997,0.00000834,0.00002775,-0.00001066,-0.00000891,-0.00007595,-
 0.00003679,0.00000627,0.00001401,0.00017053,-0.00002019,-0.00000594,-0
 .00001117,-0.00002432,0.00000857,0.00001320,-0.00003818,-0.00000896,-0
 .00001266,-0.00001423,-0.00088073,-0.00070970,0.00120087,-0.00045138,0
 .00003075,0.00021907,-0.00382701,-0.00129681,-0.00254349,-0.00057810,-
 0.11654631,0.22419733,-0.00001833,-0.00004456,-0.00001978,-0.00020464,
 0.00024447,0.00006246,-0.00000664,-0.00016555,-0.00004449,-0.00019748,
 0.00014548,0.00006377,0.00003712,-0.00007368,-0.00007959,0.00541149,-0
 .00123073,-0.00131133,0.00412027,-0.02302195,-0.00944962,-0.07970978,0
 .06843670,0.01642135,-0.01920994,0.03061837,0.01302421,-0.00001541,0.0
 0000087,-0.00000108,-0.00001728,0.00002294,0.00000271,-0.00002854,-0.0
 0000662,0.00000621,-0.00008344,0.00025312,0.00003969,-0.00002508,-0.00
 004504,-0.00000913,-0.00000646,0.00001451,0.00001585,0.00000677,0.0000
 0237,0.00001746,-0.00022521,-0.00007084,0.00007155,0.00004095,0.001795
 99,0.00061878,0.00040325,0.00004353,0.00120446,0.00252122,0.00150211,0
 .00005724,0.09321265,0.00027004,-0.00018914,-0.00010281,-0.00082814,-0
 .00010622,-0.00016581,0.00015184,0.00009567,-0.00001120,-0.00032477,0.
 00038079,0.00016226,0.00009286,-0.00028911,-0.00024326,0.00357378,0.00
 168093,-0.00084760,-0.00562744,-0.01621732,-0.01486707,0.07703413,-0.2
 3215144,-0.04009125,-0.00070539,0.00611059,0.00104298,-0.00006584,-0.0
 0003114,-0.00001361,-0.00001754,0.00004462,0.00002778,-0.00010989,-0.0
 0004050,0.00004502,-0.00006345,0.00038212,0.00011894,-0.00004901,-0.00
 005517,-0.00008089,-0.00000718,0.00004372,0.00005600,0.00004105,-0.000
 00043,0.00008275,0.00003703,-0.00021995,0.00036121,-0.00210924,-0.0001
 8111,0.00026252,-0.00099433,0.00142709,0.00046147,0.00789812,-0.018803
 73,-0.00206163,-0.07796045,0.25614809,0.00012029,-0.00012155,-0.000056
 86,-0.00048796,-0.00003976,-0.00000942,0.00009801,-0.00002350,-0.00009
 172,-0.00028008,0.00027246,0.00010740,0.00006044,-0.00018299,-0.000120
 06,0.00409150,0.00090130,-0.00087319,-0.00017639,-0.03047689,-0.011584
 31,0.01730482,-0.03620740,-0.06373054,0.00942929,-0.01237516,-0.004068
 56,-0.00003978,-0.00002103,-0.00000987,-0.00000246,0.00002581,0.000036
 52,-0.00006982,-0.00002254,0.00002258,-0.00007431,0.00038308,0.0000806
 4,-0.00003980,-0.00006089,-0.00005642,-0.00000031,0.00003319,0.0000190
 0,0.00002119,-0.00000861,0.00004197,-0.00047014,-0.00000485,0.00019390
 ,-0.00145345,0.00056767,0.00034252,0.00053220,-0.00052838,0.00136115,-
 0.00861611,0.02314414,0.00605852,-0.02271266,0.05509966,0.07142919,-0.
 00008151,0.00001450,0.00002632,0.00014536,-0.00001169,0.00000173,-0.00
 010791,-0.00005358,0.00001501,0.00012576,-0.00015605,-0.00006170,-0.00
 004224,0.00012951,0.00011186,-0.00063168,-0.00089377,0.00016083,0.0031
 5292,-0.00029350,-0.00085941,-0.01862881,0.03808201,0.00606387,-0.1266
 3146,0.13513085,0.02512043,0.00001693,0.00001839,0.00000748,0.00000250
 ,-0.00000184,-0.00000895,0.00002846,0.00001533,-0.00001512,-0.00004666
 ,-0.00010458,-0.00006237,0.00001927,0.00001849,0.00002323,0.00000385,-
 0.00002829,-0.00002786,-0.00001541,-0.00000351,-0.00003838,0.00001748,
 0.00004772,-0.00004903,0.00069866,-0.00006294,-0.00011035,-0.00025695,
 0.00033458,0.00012458,0.00198376,-0.00063711,0.00004730,-0.00668611,-0
 .00151675,0.00264670,0.13648615,-0.00001926,-0.00000575,0.00000581,0.0
 0004835,-0.00001768,0.00002645,-0.00003379,-0.00000322,0.00000559,0.00
 003235,-0.00004273,-0.00001213,-0.00000931,0.00003427,0.00004793,-0.00
 032648,-0.00000741,0.00010273,0.00097509,0.00081406,0.00131423,-0.0052
 3238,0.00339900,0.00472892,0.14263635,-0.34900143,-0.07329468,0.000005
 21,0.00000664,0.00000409,0.00000448,-0.00000343,-0.00000388,0.00000477
 ,0.00000280,-0.00000088,-0.00002009,-0.00000578,-0.00003179,0.00000917
 ,0.00000599,0.00000243,-0.00000291,-0.00001063,-0.00002249,-0.00000643
 ,-0.00000509,-0.00001514,-0.00002838,0.00001880,-0.00000664,0.00000234
 ,-0.00014315,-0.00008811,0.00025417,-0.00022685,-0.00012098,-0.0010084
 8,0.00163176,-0.00022206,-0.00080822,0.00196909,-0.00035287,-0.1479669
 2,0.36033249,-0.00002481,-0.00003117,-0.00001417,-0.00003736,-0.000028
 10,-0.00011524,-0.00012094,0.00003360,-0.00002843,0.00004592,-0.000014
 85,-0.00002173,0.00000259,0.00000584,-0.00005519,-0.00039956,-0.000462
 73,0.00014605,-0.00048420,0.00073631,0.00020433,0.01448869,-0.01398837
 ,-0.00676737,0.00267184,-0.02581967,-0.02362296,-0.00001411,-0.0000030
 4,-0.00000674,0.00001162,-0.00000177,0.00000190,0.00001519,0.00001451,
 -0.00001014,-0.00002972,-0.00005473,0.00006586,0.00001448,0.00000598,0
 .00002391,-0.00001452,-0.00002735,0.00004853,0.00001142,0.00000355,0.0
 0000553,0.00009878,0.00011122,-0.00024233,0.00012681,-0.00003963,-0.00
 017124,-0.00055120,0.00071263,0.00007113,-0.00136253,-0.00171814,0.000
 75961,0.00252966,0.00079385,0.00019808,-0.02867497,0.06405145,0.036650
 31,0.00005086,-0.00021049,-0.00011801,-0.00074594,-0.00020072,0.000026
 38,-0.00015409,0.00019324,0.00002145,-0.00002458,0.00001494,0.00002926
 ,0.00002891,-0.00008512,-0.00007570,0.00023088,-0.00002016,-0.00196599
 ,-0.00826208,-0.00183611,0.00466376,-0.01600072,-0.01812041,-0.0290640
 6,-0.17116913,-0.10625559,-0.12432153,-0.00006760,-0.00001576,-0.00000
 600,0.00001987,0.00000193,0.00000573,-0.00005379,-0.00001781,0.0000170
 3,0.00000813,0.00001419,0.00002252,0.00000461,0.00000809,-0.00000375,-
 0.00000511,-0.00000393,0.00001159,0.00001256,-0.00000332,0.00001566,-0
 .00001025,-0.00009142,0.00012389,-0.00022031,0.00003799,0.00002588,0.0
 0027569,0.00013403,0.00030157,0.00114482,-0.00042323,0.00045640,0.0006
 8063,0.00128056,0.00011884,0.01044762,0.01149036,0.01169692,0.18380900
 ,-0.00007250,0.00008018,0.00001448,0.00028180,0.00022030,0.00013072,0.
 00010358,-0.00013183,0.00000838,0.00001413,-0.00003134,-0.00001680,-0.
 00001636,0.00005984,0.00007281,-0.00016039,0.00125350,-0.00029350,-0.0
 0027833,0.00056367,0.00066039,-0.00483057,-0.00420003,-0.00148719,-0.0
 8786437,-0.13281339,-0.12651365,0.00002247,0.00000628,0.00001240,-0.00
 000157,-0.00002000,-0.00001074,0.00002555,0.00000054,-0.00001405,0.000
 00186,-0.00001388,-0.00002387,0.00000163,-0.00000007,-0.00000681,0.000
 00504,0.00000152,-0.00001903,-0.00001386,-0.00000283,-0.00002085,0.000
 13762,-0.00006444,0.00004753,-0.00018811,-0.00012575,0.00008227,-0.000
 37848,-0.00011909,-0.00036824,0.00081582,-0.00009345,-0.00035214,0.000
 34719,0.00000255,-0.00000087,-0.02206087,-0.01874176,-0.02427942,0.114
 10874,0.15416948,0.00010863,-0.00002761,0.00001132,0.00004814,-0.00020
 368,-0.00018369,-0.00005301,0.00009072,-0.00002481,-0.00007084,0.00010
 063,0.00004930,0.00003735,-0.00011910,-0.00010966,0.00081232,0.0004816
 4,0.00072613,-0.00034090,-0.00042612,-0.00040769,0.01562724,0.01301066
 ,0.00424442,-0.15011027,-0.16892808,-0.19520159,-0.00000644,-0.0000152
 7,-0.00001174,0.00000519,0.00000246,0.00001360,-0.00002617,-0.00000876
 ,0.00001901,0.00000396,0.00004937,0.00002620,-0.00000734,-0.00000664,-
 0.00001167,-0.00000457,0.00001220,0.00002377,0.00001780,0.00000213,0.0
 0003579,-0.00018327,0.00001171,0.00007345,-0.00018657,0.00001930,0.000
 05814,0.00091558,-0.00030111,0.00024083,0.00034393,0.00002466,0.000495
 74,-0.00050770,-0.00002932,0.00070946,-0.00444121,0.00388203,-0.007119
 70,0.13801816,0.15237819,0.19634338\\0.00000098,0.00000690,-0.00001235
 ,0.00000499,0.00001961,0.00001381,0.00001379,-0.00002804,-0.00000734,-
 0.00003134,0.00004214,0.00001552,0.00001251,-0.00001880,-0.00001514,-0
 .00001571,-0.00000483,-0.00000844,-0.00000350,-0.00001134,-0.00001223,
 0.00002732,0.00001601,0.00000845,-0.00002833,-0.00000674,0.00000471,0.
 00000129,-0.00000097,0.00000341,-0.00000122,-0.00000092,0.00000505,-0.
 00000141,-0.00000142,0.00000141,-0.00000038,0.00000443,-0.00000012,0.0
 0000836,-0.00000930,-0.00000514,0.00000608,-0.00000037,0.00000170,-0.0
 0000148,-0.00000893,0.00000549,0.00000033,0.00000274,0.00000660,0.0000
 0148,-0.00000006,-0.00000248,-0.00000102,0.00000530,-0.00000011,-0.000
 00070,0.,-0.00000271,-0.00000133,-0.00000579,-0.00000292,0.00000479,-0
 .00000068,0.00000215,0.00000451,0.00000109,0.00000067\\\@


 IF I AM NOT FOR MYSELF, WHO WILL BE?
 BUT IF I AM ONLY FOR MYSELF, WHAT AM I?
 THOUGH A SEEKER SINCE MY BIRTH,
 HERE IS ALL I'VE LEARNED ON EARTH,
 THIS IS THE GIST OF WHAT I KNOW:
 GIVE ADVICE AND BUY A FOE.

 PRESSED FOR RULES AND VERITIES,
 ALL I RECOLLECT ARE THESE:
 FEED A COLD TO STARVE A FEVER,
 ARGUE WITH NO TRUE-BELIEVER.
 THINK-TOO-LONG IS NEVER-ACT,
 SCRATCH A MYTH AND FIND A FACT.

 STITCH IN TIME SAVES TWENTY STITCHES,
 GIVE THE RICH TO PLEASE THEM, RICHES.
 GIVE TO LOVE YOU HEARTH AND HALL,
 BUT DO NOT GIVE ADVICE AT ALL.

                                  -- HILLEL
 Job cpu time:       0 days  1 hours 56 minutes 39.7 seconds.
 Elapsed time:       0 days  0 hours 29 minutes 10.0 seconds.
 File lengths (MBytes):  RWF=    181 Int=      0 D2E=      0 Chk=     10 Scr=      1
 Normal termination of Gaussian 16 at Tue Jun  1 20:36:26 2021.
### All Done ###
