### Starting Gaussian ###
 Entering Gaussian System, Link 0=g16
 Initial command:
 /cluster/software/gaussian/gaussian-16-A.03/avx2/g16/l1.exe "/local/scratch/cz9n3/Gau-10786.inp" -scrdir="/local/scratch/cz9n3/"
 Entering Link 1 = /cluster/software/gaussian/gaussian-16-A.03/avx2/g16/l1.exe PID=     10787.
  
 Copyright (c) 1988,1990,1992,1993,1995,1998,2003,2009,2016,
            Gaussian, Inc.  All Rights Reserved.
  
 This is part of the Gaussian(R) 16 program.  It is based on
 the Gaussian(R) 09 system (copyright 2009, Gaussian, Inc.),
 the Gaussian(R) 03 system (copyright 2003, Gaussian, Inc.),
 the Gaussian(R) 98 system (copyright 1998, Gaussian, Inc.),
 the Gaussian(R) 94 system (copyright 1995, Gaussian, Inc.),
 the Gaussian 92(TM) system (copyright 1992, Gaussian, Inc.),
 the Gaussian 90(TM) system (copyright 1990, Gaussian, Inc.),
 the Gaussian 88(TM) system (copyright 1988, Gaussian, Inc.),
 the Gaussian 86(TM) system (copyright 1986, Carnegie Mellon
 University), and the Gaussian 82(TM) system (copyright 1983,
 Carnegie Mellon University). Gaussian is a federally registered
 trademark of Gaussian, Inc.
  
 This software contains proprietary and confidential information,
 including trade secrets, belonging to Gaussian, Inc.
  
 This software is provided under written license and may be
 used, copied, transmitted, or stored only in accord with that
 written license.
  
 The following legend is applicable only to US Government
 contracts under FAR:
  
                    RESTRICTED RIGHTS LEGEND
  
 Use, reproduction and disclosure by the US Government is
 subject to restrictions as set forth in subparagraphs (a)
 and (c) of the Commercial Computer Software - Restricted
 Rights clause in FAR 52.227-19.
  
 Gaussian, Inc.
 340 Quinnipiac St., Bldg. 40, Wallingford CT 06492
  
  
 ---------------------------------------------------------------
 Warning -- This program may not be used in any manner that
 competes with the business of Gaussian, Inc. or will provide
 assistance to any competitor of Gaussian, Inc.  The licensee
 of this program is prohibited from giving any competitor of
 Gaussian, Inc. access to this program.  By using this program,
 the user acknowledges that Gaussian, Inc. is engaged in the
 business of creating and licensing software in the field of
 computational chemistry and represents and warrants to the
 licensee that it is not a competitor of Gaussian, Inc. and that
 it will not use this program in any manner prohibited above.
 ---------------------------------------------------------------
  

 Cite this work as:
 Gaussian 16, Revision A.03,
 M. J. Frisch, G. W. Trucks, H. B. Schlegel, G. E. Scuseria, 
 M. A. Robb, J. R. Cheeseman, G. Scalmani, V. Barone, 
 G. A. Petersson, H. Nakatsuji, X. Li, M. Caricato, A. V. Marenich, 
 J. Bloino, B. G. Janesko, R. Gomperts, B. Mennucci, H. P. Hratchian, 
 J. V. Ortiz, A. F. Izmaylov, J. L. Sonnenberg, D. Williams-Young, 
 F. Ding, F. Lipparini, F. Egidi, J. Goings, B. Peng, A. Petrone, 
 T. Henderson, D. Ranasinghe, V. G. Zakrzewski, J. Gao, N. Rega, 
 G. Zheng, W. Liang, M. Hada, M. Ehara, K. Toyota, R. Fukuda, 
 J. Hasegawa, M. Ishida, T. Nakajima, Y. Honda, O. Kitao, H. Nakai, 
 T. Vreven, K. Throssell, J. A. Montgomery, Jr., J. E. Peralta, 
 F. Ogliaro, M. J. Bearpark, J. J. Heyd, E. N. Brothers, K. N. Kudin, 
 V. N. Staroverov, T. A. Keith, R. Kobayashi, J. Normand, 
 K. Raghavachari, A. P. Rendell, J. C. Burant, S. S. Iyengar, 
 J. Tomasi, M. Cossi, J. M. Millam, M. Klene, C. Adamo, R. Cammi, 
 J. W. Ochterski, R. L. Martin, K. Morokuma, O. Farkas, 
 J. B. Foresman, and D. J. Fox, Gaussian, Inc., Wallingford CT, 2016.
 
 ******************************************
 Gaussian 16:  ES64L-G16RevA.03 25-Dec-2016
                 1-Jun-2021 
 ******************************************
 %chk=CNpOpCNpNpN.chk
 %NProcShared=20
 Will use up to   20 processors via shared memory.
 -----------------------------
 # opt freq b3lyp/6-31g(2df,p)
 -----------------------------
 1/18=20,19=15,26=3,38=1/1,3;
 2/9=110,12=2,17=6,18=5,40=1/2;
 3/5=1,6=6,7=104,11=2,25=1,30=1,71=1,74=-5/1,2,3;
 4//1;
 5/5=2,38=5/2;
 6/7=2,8=2,9=2,10=2,28=1/1;
 7//1,2,3,16;
 1/18=20,19=15,26=3/3(2);
 2/9=110/2;
 99//99;
 2/9=110/2;
 3/5=1,6=6,7=104,11=2,25=1,30=1,71=1,74=-5/1,2,3;
 4/5=5,16=3,69=1/1;
 5/5=2,38=5/2;
 7//1,2,3,16;
 1/18=20,19=15,26=3/3(-5);
 2/9=110/2;
 6/7=2,8=2,9=2,10=2,19=2,28=1/1;
 99/9=1/99;
 -------------------
 Title Card Required
 -------------------
 Symbolic Z-matrix:
 Charge =  0 Multiplicity = 1
 C                     0.89277   0.05093  -0.00026 
 N                     2.35605   0.0187   -0.0558 
 O                     2.6401    0.48941  -1.40963 
 C                     2.89512   1.02315   0.90074 
 N                     4.39053   1.02605   0.96955 
 N                     4.93714   1.48461  -0.25643 
 N                     4.85827   1.94281   1.94922 
 H                     0.48377  -0.66513  -0.72172 
 H                     0.49756   1.0433   -0.24796 
 H                     0.52747  -0.23972   0.98899 
 H                     2.63596  -0.35178  -1.90795 
 H                     2.53425   0.74623   1.90185 
 H                     2.51056   2.02794   0.67829 
 H                     4.56964   0.88561  -0.99858 
 H                     5.94519   1.32658  -0.24389 
 H                     4.50388   1.72373   2.87707 
 H                     4.5553    2.88939   1.7139 
 

 GradGradGradGradGradGradGradGradGradGradGradGradGradGradGradGradGradGrad
 Berny optimization.
 Initialization pass.
                           ----------------------------
                           !    Initial Parameters    !
                           ! (Angstroms and Degrees)  !
 --------------------------                            --------------------------
 ! Name  Definition              Value          Derivative Info.                !
 --------------------------------------------------------------------------------
 ! R1    R(1,2)                  1.4647         estimate D2E/DX2                !
 ! R2    R(1,8)                  1.0957         estimate D2E/DX2                !
 ! R3    R(1,9)                  1.0965         estimate D2E/DX2                !
 ! R4    R(1,10)                 1.0939         estimate D2E/DX2                !
 ! R5    R(2,3)                  1.4612         estimate D2E/DX2                !
 ! R6    R(2,4)                  1.4881         estimate D2E/DX2                !
 ! R7    R(3,11)                 0.9777         estimate D2E/DX2                !
 ! R8    R(4,5)                  1.497          estimate D2E/DX2                !
 ! R9    R(4,12)                 1.0996         estimate D2E/DX2                !
 ! R10   R(4,13)                 1.0986         estimate D2E/DX2                !
 ! R11   R(5,6)                  1.4185         estimate D2E/DX2                !
 ! R12   R(5,7)                  1.4209         estimate D2E/DX2                !
 ! R13   R(6,14)                 1.0221         estimate D2E/DX2                !
 ! R14   R(6,15)                 1.0204         estimate D2E/DX2                !
 ! R15   R(7,16)                 1.0171         estimate D2E/DX2                !
 ! R16   R(7,17)                 1.0214         estimate D2E/DX2                !
 ! A1    A(2,1,8)              109.4859         estimate D2E/DX2                !
 ! A2    A(2,1,9)              111.8036         estimate D2E/DX2                !
 ! A3    A(2,1,10)             111.2279         estimate D2E/DX2                !
 ! A4    A(8,1,9)              107.9492         estimate D2E/DX2                !
 ! A5    A(8,1,10)             107.288          estimate D2E/DX2                !
 ! A6    A(9,1,10)             108.9293         estimate D2E/DX2                !
 ! A7    A(1,2,3)              102.8414         estimate D2E/DX2                !
 ! A8    A(1,2,4)              108.8248         estimate D2E/DX2                !
 ! A9    A(3,2,4)              107.9204         estimate D2E/DX2                !
 ! A10   A(2,3,11)             101.2006         estimate D2E/DX2                !
 ! A11   A(2,4,5)              113.1239         estimate D2E/DX2                !
 ! A12   A(2,4,12)             107.238          estimate D2E/DX2                !
 ! A13   A(2,4,13)             111.1234         estimate D2E/DX2                !
 ! A14   A(5,4,12)             106.6469         estimate D2E/DX2                !
 ! A15   A(5,4,13)             110.9285         estimate D2E/DX2                !
 ! A16   A(12,4,13)            107.4452         estimate D2E/DX2                !
 ! A17   A(4,5,6)              110.2331         estimate D2E/DX2                !
 ! A18   A(4,5,7)              111.2093         estimate D2E/DX2                !
 ! A19   A(6,5,7)              105.0982         estimate D2E/DX2                !
 ! A20   A(5,6,14)             107.4313         estimate D2E/DX2                !
 ! A21   A(5,6,15)             108.662          estimate D2E/DX2                !
 ! A22   A(14,6,15)            105.8643         estimate D2E/DX2                !
 ! A23   A(5,7,16)             112.0426         estimate D2E/DX2                !
 ! A24   A(5,7,17)             109.9655         estimate D2E/DX2                !
 ! A25   A(16,7,17)            107.8454         estimate D2E/DX2                !
 ! D1    D(8,1,2,3)             64.1254         estimate D2E/DX2                !
 ! D2    D(8,1,2,4)            178.4016         estimate D2E/DX2                !
 ! D3    D(9,1,2,3)            -55.4544         estimate D2E/DX2                !
 ! D4    D(9,1,2,4)             58.8218         estimate D2E/DX2                !
 ! D5    D(10,1,2,3)          -177.4748         estimate D2E/DX2                !
 ! D6    D(10,1,2,4)           -63.1986         estimate D2E/DX2                !
 ! D7    D(1,2,3,11)           -89.4522         estimate D2E/DX2                !
 ! D8    D(4,2,3,11)           155.6156         estimate D2E/DX2                !
 ! D9    D(1,2,4,5)            177.2654         estimate D2E/DX2                !
 ! D10   D(1,2,4,12)            59.9655         estimate D2E/DX2                !
 ! D11   D(1,2,4,13)           -57.1881         estimate D2E/DX2                !
 ! D12   D(3,2,4,5)            -71.8167         estimate D2E/DX2                !
 ! D13   D(3,2,4,12)           170.8834         estimate D2E/DX2                !
 ! D14   D(3,2,4,13)            53.7299         estimate D2E/DX2                !
 ! D15   D(2,4,5,6)             67.2587         estimate D2E/DX2                !
 ! D16   D(2,4,5,7)           -176.5858         estimate D2E/DX2                !
 ! D17   D(12,4,5,6)          -175.0951         estimate D2E/DX2                !
 ! D18   D(12,4,5,7)           -58.9397         estimate D2E/DX2                !
 ! D19   D(13,4,5,6)           -58.3925         estimate D2E/DX2                !
 ! D20   D(13,4,5,7)            57.763          estimate D2E/DX2                !
 ! D21   D(4,5,6,14)           -56.2543         estimate D2E/DX2                !
 ! D22   D(4,5,6,15)          -170.3626         estimate D2E/DX2                !
 ! D23   D(7,5,6,14)          -176.1745         estimate D2E/DX2                !
 ! D24   D(7,5,6,15)            69.7172         estimate D2E/DX2                !
 ! D25   D(4,5,7,16)            59.2112         estimate D2E/DX2                !
 ! D26   D(4,5,7,17)           -60.7127         estimate D2E/DX2                !
 ! D27   D(6,5,7,16)           178.4812         estimate D2E/DX2                !
 ! D28   D(6,5,7,17)            58.5572         estimate D2E/DX2                !
 --------------------------------------------------------------------------------
 Trust Radius=3.00D-01 FncErr=1.00D-07 GrdErr=1.00D-06 EigMax=2.50D+02 EigMin=1.00D-04
 Number of steps in this run=     79 maximum allowed number of steps=    102.
 GradGradGradGradGradGradGradGradGradGradGradGradGradGradGradGradGradGrad

                          Input orientation:                          
 ---------------------------------------------------------------------
 Center     Atomic      Atomic             Coordinates (Angstroms)
 Number     Number       Type             X           Y           Z
 ---------------------------------------------------------------------
      1          6           0        0.892770    0.050930   -0.000260
      2          7           0        2.356050    0.018700   -0.055800
      3          8           0        2.640100    0.489410   -1.409630
      4          6           0        2.895120    1.023150    0.900740
      5          7           0        4.390530    1.026050    0.969550
      6          7           0        4.937140    1.484610   -0.256430
      7          7           0        4.858270    1.942810    1.949220
      8          1           0        0.483770   -0.665130   -0.721720
      9          1           0        0.497560    1.043300   -0.247960
     10          1           0        0.527470   -0.239720    0.988990
     11          1           0        2.635960   -0.351780   -1.907950
     12          1           0        2.534250    0.746230    1.901850
     13          1           0        2.510560    2.027940    0.678290
     14          1           0        4.569640    0.885610   -0.998580
     15          1           0        5.945190    1.326580   -0.243890
     16          1           0        4.503880    1.723730    2.877070
     17          1           0        4.555300    2.889390    1.713900
 ---------------------------------------------------------------------
                    Distance matrix (angstroms):
                    1          2          3          4          5
     1  C    0.000000
     2  N    1.464688   0.000000
     3  O    2.287302   1.461201   0.000000
     4  C    2.401337   1.488115   2.384895   0.000000
     5  N    3.758419   2.491025   3.002080   1.496995   0.000000
     6  N    4.298603   2.975092   2.756209   2.392035   1.418480
     7  N    4.806753   3.739440   4.279547   2.408120   1.420909
     8  H    1.095686   2.101548   2.540855   3.361142   4.580749
     9  H    1.096515   2.130896   2.499350   2.658611   4.078951
    10  H    1.093863   2.121809   3.278447   2.684845   4.065192
    11  H    2.615371   1.909467   0.977722   3.137887   3.641008
    12  H    2.606899   2.096056   3.323110   1.099606   2.096010
    13  H    2.643150   2.144716   2.596780   1.098623   2.150094
    14  H    3.900347   2.557410   2.012228   2.535814   1.981247
    15  H    5.216664   3.824638   3.603252   3.271876   1.994924
    16  H    4.910947   4.015224   4.834565   2.642877   2.034266
    17  H    4.940579   4.026090   4.379993   2.626838   2.013267
                    6          7          8          9         10
     6  N    0.000000
     7  N    2.254121   0.000000
     8  H    4.966929   5.750784   0.000000
     9  H    4.461468   4.965129   1.772956   0.000000
    10  H    4.895873   4.943815   1.763353   1.782437   0.000000
    11  H    3.375689   5.008150   2.477348   3.045418   3.584766
    12  H    3.313195   2.614406   3.616563   2.976246   2.415073
    13  H    2.656539   2.671002   3.649730   2.424794   3.028442
    14  H    1.022078   3.144917   4.379016   4.143686   4.642838
    15  H    1.020439   2.524057   5.832867   5.454992   5.772779
    16  H    3.172336   1.017101   5.900782   5.126343   4.819940
    17  H    2.449777   1.021362   5.928256   4.870544   5.151722
                   11         12         13         14         15
    11  H    0.000000
    12  H    3.966175   0.000000
    13  H    3.516736   1.772129   0.000000
    14  H    2.469252   3.546087   2.890782   0.000000
    15  H    4.066570   4.071304   3.624777   1.629770   0.000000
    16  H    5.540152   2.405411   2.983371   3.965783   3.460563
    17  H    5.225595   2.951797   2.448580   3.372371   2.864806
                   16         17
    16  H    0.000000
    17  H    1.647535   0.000000
 Stoichiometry    C2H10N4O
 Framework group  C1[X(C2H10N4O)]
 Deg. of freedom    45
 Full point group                 C1      NOp   1
 Largest Abelian subgroup         C1      NOp   1
 Largest concise Abelian subgroup C1      NOp   1
                         Standard orientation:                         
 ---------------------------------------------------------------------
 Center     Atomic      Atomic             Coordinates (Angstroms)
 Number     Number       Type             X           Y           Z
 ---------------------------------------------------------------------
      1          6           0       -2.377191   -0.813061    0.068172
      2          7           0       -1.212103   -0.073443   -0.422587
      3          8           0       -1.353367    1.225823    0.230912
      4          6           0        0.022030   -0.718268    0.102392
      5          7           0        1.278773   -0.074980   -0.395374
      6          7           0        1.401058    1.236015    0.132286
      7          7           0        2.429358   -0.768826    0.066921
      8          1           0       -3.293622   -0.330178   -0.288908
      9          1           0       -2.412607   -0.836790    1.163858
     10          1           0       -2.382394   -1.839700   -0.309349
     11          1           0       -1.894617    1.709879   -0.423823
     12          1           0        0.030782   -1.754035   -0.266719
     13          1           0        0.010696   -0.759912    1.200167
     14          1           0        0.556288    1.750076   -0.126072
     15          1           0        2.171133    1.708439   -0.342156
     16          1           0        2.435935   -1.740290   -0.234258
     17          1           0        2.456698   -0.757456    1.087853
 ---------------------------------------------------------------------
 Rotational constants (GHZ):           5.1035587           1.6596031           1.3214281
 Standard basis: 6-31G(2df,p) (6D, 7F)
 There are   267 symmetry adapted cartesian basis functions of A   symmetry.
 There are   246 symmetry adapted basis functions of A   symmetry.
   246 basis functions,   378 primitive gaussians,   267 cartesian basis functions
    29 alpha electrons       29 beta electrons
       nuclear repulsion energy       346.0751137076 Hartrees.
 NAtoms=   17 NActive=   17 NUniq=   17 SFac= 1.00D+00 NAtFMM=   60 NAOKFM=F Big=F
 Integral buffers will be    131072 words long.
 Raffenetti 2 integral format.
 Two-electron integral symmetry is turned on.
 One-electron integrals computed using PRISM.
 PrsmSu:  requested number of processors reduced to:  13 ShMem   1 Linda.
 NBasis=   246 RedAO= T EigKep=  2.81D-04  NBF=   246
 NBsUse=   246 1.00D-06 EigRej= -1.00D+00 NBFU=   246
 ExpMin= 1.61D-01 ExpMax= 5.48D+03 ExpMxC= 8.25D+02 IAcc=3 IRadAn=         5 AccDes= 0.00D+00
 Harris functional with IExCor=  402 and IRadAn=       5 diagonalized for initial guess.
 HarFok:  IExCor=  402 AccDes= 0.00D+00 IRadAn=         5 IDoV= 1 UseB2=F ITyADJ=14
 ICtDFT=  3500011 ScaDFX=  1.000000  1.000000  1.000000  1.000000
 FoFCou: FMM=F IPFlag=           0 FMFlag=      100000 FMFlg1=           0
         NFxFlg=           0 DoJE=T BraDBF=F KetDBF=T FulRan=T
         wScrn=  0.000000 ICntrl=       500 IOpCl=  0 I1Cent=   200000004 NGrid=           0
         NMat0=    1 NMatS0=      1 NMatT0=    0 NMatD0=    1 NMtDS0=    0 NMtDT0=    0
 Petite list used in FoFCou.
 Requested convergence on RMS density matrix=1.00D-08 within 128 cycles.
 Requested convergence on MAX density matrix=1.00D-06.
 Requested convergence on             energy=1.00D-06.
 No special actions if energy rises.
 Integral accuracy reduced to 1.0D-05 until final iterations.
 Initial convergence to 1.0D-05 achieved.  Increase integral accuracy.
 SCF Done:  E(RB3LYP) =  -376.336360076     A.U. after   13 cycles
            NFock= 13  Conv=0.43D-08     -V/T= 2.0070

 **********************************************************************

            Population analysis using the SCF density.

 **********************************************************************

 Orbital symmetries:
       Occupied  (A) (A) (A) (A) (A) (A) (A) (A) (A) (A) (A) (A)
                 (A) (A) (A) (A) (A) (A) (A) (A) (A) (A) (A) (A)
                 (A) (A) (A) (A) (A)
       Virtual   (A) (A) (A) (A) (A) (A) (A) (A) (A) (A) (A) (A)
                 (A) (A) (A) (A) (A) (A) (A) (A) (A) (A) (A) (A)
                 (A) (A) (A) (A) (A) (A) (A) (A) (A) (A) (A) (A)
                 (A) (A) (A) (A) (A) (A) (A) (A) (A) (A) (A) (A)
                 (A) (A) (A) (A) (A) (A) (A) (A) (A) (A) (A) (A)
                 (A) (A) (A) (A) (A) (A) (A) (A) (A) (A) (A) (A)
                 (A) (A) (A) (A) (A) (A) (A) (A) (A) (A) (A) (A)
                 (A) (A) (A) (A) (A) (A) (A) (A) (A) (A) (A) (A)
                 (A) (A) (A) (A) (A) (A) (A) (A) (A) (A) (A) (A)
                 (A) (A) (A) (A) (A) (A) (A) (A) (A) (A) (A) (A)
                 (A) (A) (A) (A) (A) (A) (A) (A) (A) (A) (A) (A)
                 (A) (A) (A) (A) (A) (A) (A) (A) (A) (A) (A) (A)
                 (A) (A) (A) (A) (A) (A) (A) (A) (A) (A) (A) (A)
                 (A) (A) (A) (A) (A) (A) (A) (A) (A) (A) (A) (A)
                 (A) (A) (A) (A) (A) (A) (A) (A) (A) (A) (A) (A)
                 (A) (A) (A) (A) (A) (A) (A) (A) (A) (A) (A) (A)
                 (A) (A) (A) (A) (A) (A) (A) (A) (A) (A) (A) (A)
                 (A) (A) (A) (A) (A) (A) (A) (A) (A) (A) (A) (A)
                 (A)
 The electronic state is 1-A.
 Alpha  occ. eigenvalues --  -19.17231 -14.38155 -14.36122 -14.32688 -14.31358
 Alpha  occ. eigenvalues --  -10.23438 -10.20949  -1.06133  -0.99239  -0.85861
 Alpha  occ. eigenvalues --   -0.84029  -0.73645  -0.66317  -0.60848  -0.52557
 Alpha  occ. eigenvalues --   -0.51029  -0.49410  -0.47515  -0.44427  -0.42797
 Alpha  occ. eigenvalues --   -0.41133  -0.40498  -0.38824  -0.38623  -0.32008
 Alpha  occ. eigenvalues --   -0.30363  -0.24891  -0.23590  -0.17046
 Alpha virt. eigenvalues --    0.05671   0.08579   0.09318   0.11743   0.13064
 Alpha virt. eigenvalues --    0.13820   0.15156   0.16550   0.17575   0.18463
 Alpha virt. eigenvalues --    0.19848   0.20234   0.22025   0.23118   0.24571
 Alpha virt. eigenvalues --    0.26099   0.43184   0.48085   0.49047   0.51605
 Alpha virt. eigenvalues --    0.51844   0.53709   0.55507   0.58519   0.60110
 Alpha virt. eigenvalues --    0.60714   0.61318   0.65636   0.67088   0.67941
 Alpha virt. eigenvalues --    0.68501   0.70013   0.70968   0.72367   0.73315
 Alpha virt. eigenvalues --    0.74831   0.77773   0.78827   0.79970   0.80464
 Alpha virt. eigenvalues --    0.82608   0.84712   0.85806   0.86201   0.88347
 Alpha virt. eigenvalues --    0.89264   0.90084   0.91860   0.91936   0.95731
 Alpha virt. eigenvalues --    0.98710   1.01330   1.02382   1.08791   1.12781
 Alpha virt. eigenvalues --    1.17400   1.18445   1.21245   1.26669   1.29150
 Alpha virt. eigenvalues --    1.31699   1.36967   1.38736   1.39590   1.43514
 Alpha virt. eigenvalues --    1.45758   1.47541   1.50095   1.53306   1.58421
 Alpha virt. eigenvalues --    1.60123   1.63611   1.65748   1.69084   1.70969
 Alpha virt. eigenvalues --    1.73587   1.74824   1.77498   1.80858   1.83248
 Alpha virt. eigenvalues --    1.87798   1.88889   1.91836   1.93082   1.94239
 Alpha virt. eigenvalues --    2.00252   2.00844   2.09571   2.16135   2.19801
 Alpha virt. eigenvalues --    2.21779   2.24025   2.28750   2.31672   2.37750
 Alpha virt. eigenvalues --    2.43836   2.46992   2.53588   2.57034   2.57911
 Alpha virt. eigenvalues --    2.59694   2.63053   2.68682   2.71488   2.74606
 Alpha virt. eigenvalues --    2.78556   2.82244   2.82620   2.84390   2.86591
 Alpha virt. eigenvalues --    2.89779   2.91955   2.93618   2.94429   2.97067
 Alpha virt. eigenvalues --    2.99014   2.99857   3.04840   3.09653   3.12835
 Alpha virt. eigenvalues --    3.17436   3.21288   3.27009   3.29905   3.33177
 Alpha virt. eigenvalues --    3.37765   3.40558   3.47293   3.50128   3.52145
 Alpha virt. eigenvalues --    3.55782   3.64277   3.64972   3.66375   3.68724
 Alpha virt. eigenvalues --    3.71563   3.73536   3.78824   3.80313   3.83877
 Alpha virt. eigenvalues --    3.91043   3.94083   3.98693   4.02561   4.06392
 Alpha virt. eigenvalues --    4.09603   4.13218   4.15533   4.17007   4.20505
 Alpha virt. eigenvalues --    4.22032   4.27282   4.27330   4.30136   4.31773
 Alpha virt. eigenvalues --    4.34116   4.35768   4.37595   4.40283   4.41301
 Alpha virt. eigenvalues --    4.41854   4.45452   4.46644   4.49049   4.51666
 Alpha virt. eigenvalues --    4.54998   4.55734   4.57234   4.60740   4.61239
 Alpha virt. eigenvalues --    4.62598   4.66595   4.69194   4.73612   4.75027
 Alpha virt. eigenvalues --    4.75830   4.79889   4.80660   4.81402   4.84215
 Alpha virt. eigenvalues --    4.84947   4.89166   4.95605   5.00957   5.04485
 Alpha virt. eigenvalues --    5.07193   5.13561   5.18660   5.22136   5.23239
 Alpha virt. eigenvalues --    5.26222   5.31203   5.33059   5.34354   5.42054
 Alpha virt. eigenvalues --    5.44757   5.45638   5.47669   5.50636   5.55710
 Alpha virt. eigenvalues --    5.58167   5.75759   5.87119   5.94556   6.04264
 Alpha virt. eigenvalues --    7.01806   8.04767   9.64306  11.15033  11.22983
 Alpha virt. eigenvalues --   11.40916  11.51100  11.52896  11.82102  13.13094
 Alpha virt. eigenvalues --   14.35152  16.61600
          Condensed to atoms (all electrons):
               1          2          3          4          5          6
     1  C    4.942016   0.363876  -0.051139  -0.071508   0.002174   0.000017
     2  N    0.363876   6.385918   0.181809   0.343193  -0.024466  -0.000803
     3  O   -0.051139   0.181809   7.987785  -0.037257  -0.002080  -0.021013
     4  C   -0.071508   0.343193  -0.037257   4.857813   0.407459  -0.063014
     5  N    0.002174  -0.024466  -0.002080   0.407459   6.410366   0.273844
     6  N    0.000017  -0.000803  -0.021013  -0.063014   0.273844   6.660353
     7  N   -0.000182   0.003611  -0.000050  -0.081389   0.320725  -0.063945
     8  H    0.377739  -0.025175   0.000554   0.003821  -0.000062   0.000005
     9  H    0.363243  -0.037205   0.005428  -0.006368  -0.000189  -0.000012
    10  H    0.360195  -0.022854   0.004151   0.001803   0.000021   0.000007
    11  H   -0.002356  -0.042481   0.295198   0.003478   0.000323   0.000557
    12  H   -0.001895  -0.015486   0.002379   0.353648  -0.020066   0.003592
    13  H   -0.002570  -0.048407   0.001576   0.315140  -0.063457   0.008650
    14  H    0.000665  -0.001313   0.037882  -0.007664  -0.037336   0.311451
    15  H    0.000010   0.000101   0.000510   0.005580  -0.044874   0.323613
    16  H    0.000001   0.000059   0.000005  -0.002509  -0.039981   0.005056
    17  H    0.000033  -0.000347  -0.000004  -0.009512  -0.068266   0.016978
               7          8          9         10         11         12
     1  C   -0.000182   0.377739   0.363243   0.360195  -0.002356  -0.001895
     2  N    0.003611  -0.025175  -0.037205  -0.022854  -0.042481  -0.015486
     3  O   -0.000050   0.000554   0.005428   0.004151   0.295198   0.002379
     4  C   -0.081389   0.003821  -0.006368   0.001803   0.003478   0.353648
     5  N    0.320725  -0.000062  -0.000189   0.000021   0.000323  -0.020066
     6  N   -0.063945   0.000005  -0.000012   0.000007   0.000557   0.003592
     7  N    6.612385   0.000002   0.000015   0.000002   0.000010   0.001113
     8  H    0.000002   0.592119  -0.040684  -0.028527   0.003474   0.000026
     9  H    0.000015  -0.040684   0.617288  -0.032199  -0.000492  -0.000183
    10  H    0.000002  -0.028527  -0.032199   0.594154  -0.000365   0.001068
    11  H    0.000010   0.003474  -0.000492  -0.000365   0.441491  -0.000275
    12  H    0.001113   0.000026  -0.000183   0.001068  -0.000275   0.604530
    13  H    0.006393  -0.000219   0.012873   0.000153  -0.000148  -0.044976
    14  H    0.004525  -0.000025   0.000049  -0.000044  -0.000577  -0.000112
    15  H    0.003869  -0.000001  -0.000001  -0.000000  -0.000047  -0.000276
    16  H    0.336877   0.000000   0.000001  -0.000006  -0.000000   0.004185
    17  H    0.296460   0.000000   0.000006  -0.000001  -0.000000  -0.000107
              13         14         15         16         17
     1  C   -0.002570   0.000665   0.000010   0.000001   0.000033
     2  N   -0.048407  -0.001313   0.000101   0.000059  -0.000347
     3  O    0.001576   0.037882   0.000510   0.000005  -0.000004
     4  C    0.315140  -0.007664   0.005580  -0.002509  -0.009512
     5  N   -0.063457  -0.037336  -0.044874  -0.039981  -0.068266
     6  N    0.008650   0.311451   0.323613   0.005056   0.016978
     7  N    0.006393   0.004525   0.003869   0.336877   0.296460
     8  H   -0.000219  -0.000025  -0.000001   0.000000   0.000000
     9  H    0.012873   0.000049  -0.000001   0.000001   0.000006
    10  H    0.000153  -0.000044  -0.000000  -0.000006  -0.000001
    11  H   -0.000148  -0.000577  -0.000047  -0.000000  -0.000000
    12  H   -0.044976  -0.000112  -0.000276   0.004185  -0.000107
    13  H    0.719511  -0.000578  -0.000712   0.000907   0.019076
    14  H   -0.000578   0.471703  -0.022022  -0.000381  -0.000618
    15  H   -0.000712  -0.022022   0.502444  -0.000508  -0.003115
    16  H    0.000907  -0.000381  -0.000508   0.493433  -0.030784
    17  H    0.019076  -0.000618  -0.003115  -0.030784   0.574645
 Mulliken charges:
               1
     1  C   -0.280317
     2  N   -0.060030
     3  O   -0.405733
     4  C   -0.012713
     5  N   -0.114134
     6  N   -0.455334
     7  N   -0.440420
     8  H    0.116954
     9  H    0.118430
    10  H    0.122440
    11  H    0.302210
    12  H    0.112835
    13  H    0.076789
    14  H    0.244395
    15  H    0.235428
    16  H    0.233644
    17  H    0.205557
 Sum of Mulliken charges =  -0.00000
 Mulliken charges with hydrogens summed into heavy atoms:
               1
     1  C    0.077506
     2  N   -0.060030
     3  O   -0.103523
     4  C    0.176911
     5  N   -0.114134
     6  N    0.024489
     7  N   -0.001219
 Electronic spatial extent (au):  <R**2>=            914.0279
 Charge=             -0.0000 electrons
 Dipole moment (field-independent basis, Debye):
    X=             -2.1903    Y=             -1.0001    Z=             -0.1465  Tot=              2.4122
 Quadrupole moment (field-independent basis, Debye-Ang):
   XX=            -41.8459   YY=            -35.3994   ZZ=            -46.2985
   XY=             -2.5026   XZ=              1.9547   YZ=             -3.8164
 Traceless Quadrupole moment (field-independent basis, Debye-Ang):
   XX=             -0.6646   YY=              5.7819   ZZ=             -5.1173
   XY=             -2.5026   XZ=              1.9547   YZ=             -3.8164
 Octapole moment (field-independent basis, Debye-Ang**2):
  XXX=            -22.9903  YYY=              9.1418  ZZZ=              3.0495  XYY=              3.3539
  XXY=              4.0670  XXZ=             -1.2943  XZZ=              0.7142  YZZ=              0.4633
  YYZ=             -8.3481  XYZ=             -0.4746
 Hexadecapole moment (field-independent basis, Debye-Ang**3):
 XXXX=           -810.3441 YYYY=           -231.8955 ZZZZ=            -78.0836 XXXY=            -19.8420
 XXXZ=             17.5383 YYYX=            -24.2276 YYYZ=             -4.9012 ZZZX=              1.3478
 ZZZY=             -3.0656 XXYY=           -139.4401 XXZZ=           -145.6579 YYZZ=            -58.4560
 XXYZ=            -14.5943 YYXZ=              0.4534 ZZXY=             -7.3698
 N-N= 3.460751137076D+02 E-N=-1.571978369246D+03  KE= 3.737082546542D+02
 PrsmSu:  requested number of processors reduced to:  13 ShMem   1 Linda.
 Calling FoFJK, ICntrl=      2127 FMM=F ISym2X=0 I1Cent= 0 IOpClX= 0 NMat=1 NMatS=1 NMatT=0.
 ***** Axes restored to original set *****
 -------------------------------------------------------------------
 Center     Atomic                   Forces (Hartrees/Bohr)
 Number     Number              X              Y              Z
 -------------------------------------------------------------------
      1        6          -0.004715338   -0.002872870    0.001765141
      2        7          -0.003281724    0.006597054    0.009829983
      3        8           0.000553106   -0.010293484   -0.003708957
      4        6           0.015532213   -0.004018599   -0.010881038
      5        7          -0.019899858   -0.025001808    0.022508139
      6        7           0.006627552    0.014890051   -0.025402718
      7        7           0.006078082    0.006566549    0.000218595
      8        1           0.001933887    0.000158997    0.000516876
      9        1          -0.000800386    0.001977522   -0.000120824
     10        1           0.003234046   -0.000570642    0.001648417
     11        1           0.002220495    0.010233161    0.006035462
     12        1           0.002258873   -0.002673402   -0.005578845
     13        1          -0.000965726    0.006970858   -0.005155743
     14        1          -0.001506773    0.003408542    0.006458391
     15        1          -0.002375556   -0.002793779    0.008612465
     16        1          -0.001145600   -0.007028238   -0.004907159
     17        1          -0.003747292    0.004450087   -0.001838186
 -------------------------------------------------------------------
 Cartesian Forces:  Max     0.025402718 RMS     0.008565761

 GradGradGradGradGradGradGradGradGradGradGradGradGradGradGradGradGradGrad
 Berny optimization.
 FormGI is forming the generalized inverse of G from B-inverse, IUseBI=4.
 Internal  Forces:  Max     0.015702768 RMS     0.005389764
 Search for a local minimum.
 Step number   1 out of a maximum of   79
 All quantities printed in internal units (Hartrees-Bohrs-Radians)
 Mixed Optimization -- RFO/linear search
 Second derivative matrix not updated -- first step.
 ITU=  0
     Eigenvalues ---    0.00409   0.00485   0.00526   0.00836   0.01018
     Eigenvalues ---    0.01050   0.03939   0.04649   0.04664   0.05333
     Eigenvalues ---    0.06268   0.06425   0.07137   0.07470   0.09974
     Eigenvalues ---    0.13324   0.15295   0.16000   0.16000   0.16000
     Eigenvalues ---    0.16000   0.16000   0.16000   0.16000   0.16000
     Eigenvalues ---    0.17479   0.17677   0.19253   0.22024   0.32695
     Eigenvalues ---    0.33657   0.33726   0.33835   0.34071   0.34164
     Eigenvalues ---    0.34370   0.36384   0.36814   0.42324   0.42690
     Eigenvalues ---    0.44008   0.44122   0.44268   0.44804   0.51830
 RFO step:  Lambda=-1.43747548D-02 EMin= 4.08721322D-03
 Linear search not attempted -- first point.
 Iteration  1 RMS(Cart)=  0.13967103 RMS(Int)=  0.00771767
 Iteration  2 RMS(Cart)=  0.01580759 RMS(Int)=  0.00070424
 Iteration  3 RMS(Cart)=  0.00015253 RMS(Int)=  0.00069985
 Iteration  4 RMS(Cart)=  0.00000011 RMS(Int)=  0.00069985
 Variable       Old X    -DE/DX   Delta X   Delta X   Delta X     New X
                                 (Linear)    (Quad)   (Total)
    R1        2.76786   0.00046   0.00000   0.00123   0.00123   2.76909
    R2        2.07055  -0.00117   0.00000  -0.00328  -0.00328   2.06727
    R3        2.07211   0.00211   0.00000   0.00593   0.00593   2.07804
    R4        2.06710   0.00056   0.00000   0.00157   0.00157   2.06867
    R5        2.76127  -0.00164   0.00000  -0.00428  -0.00428   2.75699
    R6        2.81213  -0.01348   0.00000  -0.03842  -0.03842   2.77371
    R7        1.84763  -0.01189   0.00000  -0.02232  -0.02232   1.82531
    R8        2.82891  -0.01570   0.00000  -0.04601  -0.04601   2.78290
    R9        2.07795  -0.00515   0.00000  -0.01464  -0.01464   2.06332
   R10        2.07610   0.00776   0.00000   0.02199   0.02199   2.09809
   R11        2.68054   0.01500   0.00000   0.03399   0.03399   2.71453
   R12        2.68513  -0.00154   0.00000  -0.00351  -0.00351   2.68162
   R13        1.93145  -0.00615   0.00000  -0.01352  -0.01352   1.91793
   R14        1.92835  -0.00181   0.00000  -0.00396  -0.00396   1.92439
   R15        1.92204  -0.00256   0.00000  -0.00554  -0.00554   1.91650
   R16        1.93009   0.00566   0.00000   0.01242   0.01242   1.94252
    A1        1.91089  -0.00149   0.00000  -0.00786  -0.00800   1.90289
    A2        1.95134   0.00166   0.00000   0.01143   0.01144   1.96278
    A3        1.94129  -0.00529   0.00000  -0.03293  -0.03304   1.90826
    A4        1.88407   0.00109   0.00000   0.01133   0.01131   1.89538
    A5        1.87253   0.00248   0.00000   0.01032   0.01006   1.88258
    A6        1.90118   0.00178   0.00000   0.00902   0.00905   1.91023
    A7        1.79492   0.00568   0.00000   0.04373   0.04372   1.83864
    A8        1.89935  -0.00078   0.00000   0.00507   0.00495   1.90430
    A9        1.88357  -0.00287   0.00000  -0.00764  -0.00805   1.87552
   A10        1.76628   0.00084   0.00000   0.00481   0.00481   1.77110
   A11        1.97438   0.00957   0.00000   0.03934   0.03815   2.01253
   A12        1.87166  -0.00742   0.00000  -0.07023  -0.06983   1.80183
   A13        1.93947  -0.00067   0.00000   0.02391   0.02241   1.96188
   A14        1.86134  -0.00397   0.00000  -0.04356  -0.04321   1.81813
   A15        1.93607  -0.00188   0.00000   0.01807   0.01644   1.95251
   A16        1.87527   0.00377   0.00000   0.02547   0.02607   1.90135
   A17        1.92393   0.00177   0.00000  -0.01173  -0.01358   1.91035
   A18        1.94097  -0.00199   0.00000  -0.03101  -0.03232   1.90865
   A19        1.83431  -0.00439   0.00000  -0.04905  -0.05022   1.78409
   A20        1.87503  -0.00385   0.00000  -0.02674  -0.02750   1.84753
   A21        1.89651  -0.01509   0.00000  -0.09104  -0.09186   1.80465
   A22        1.84768   0.00609   0.00000   0.02429   0.02206   1.86974
   A23        1.95551  -0.01280   0.00000  -0.08054  -0.08131   1.87420
   A24        1.91926  -0.00072   0.00000  -0.01149  -0.01223   1.90703
   A25        1.88226   0.00464   0.00000   0.01288   0.01123   1.89349
    D1        1.11920   0.00126   0.00000   0.00178   0.00154   1.12074
    D2        3.11370   0.00041   0.00000   0.01603   0.01607   3.12977
    D3       -0.96786  -0.00017   0.00000  -0.01442  -0.01458  -0.98245
    D4        1.02663  -0.00102   0.00000  -0.00017  -0.00005   1.02658
    D5       -3.09752   0.00015   0.00000  -0.01060  -0.01062  -3.10814
    D6       -1.10302  -0.00070   0.00000   0.00365   0.00391  -1.09911
    D7       -1.56124  -0.00162   0.00000  -0.08857  -0.08857  -1.64980
    D8        2.71600  -0.00222   0.00000  -0.11143  -0.11143   2.60457
    D9        3.09386  -0.00702   0.00000  -0.16426  -0.16466   2.92920
   D10        1.04659  -0.00285   0.00000  -0.08820  -0.08823   0.95837
   D11       -0.99812  -0.00262   0.00000  -0.09026  -0.08965  -1.08777
   D12       -1.25344  -0.00221   0.00000  -0.11490  -0.11543  -1.36886
   D13        2.98248   0.00196   0.00000  -0.03884  -0.03899   2.94349
   D14        0.93776   0.00219   0.00000  -0.04090  -0.04041   0.89735
   D15        1.17389   0.00933   0.00000   0.25167   0.25197   1.42586
   D16       -3.08200   0.00381   0.00000   0.16551   0.16594  -2.91606
   D17       -3.05599   0.00308   0.00000   0.15998   0.15996  -2.89602
   D18       -1.02869  -0.00243   0.00000   0.07383   0.07393  -0.95476
   D19       -1.01914   0.00430   0.00000   0.17471   0.17424  -0.84490
   D20        1.00815  -0.00121   0.00000   0.08855   0.08821   1.09636
   D21       -0.98182  -0.00226   0.00000  -0.01470  -0.01340  -0.99522
   D22       -2.97339   0.00008   0.00000   0.01571   0.01500  -2.95839
   D23       -3.07483   0.00172   0.00000   0.05673   0.05745  -3.01738
   D24        1.21680   0.00407   0.00000   0.08714   0.08584   1.30264
   D25        1.03343   0.00105   0.00000   0.07961   0.07965   1.11308
   D26       -1.05964   0.00403   0.00000   0.12368   0.12231  -0.93732
   D27        3.11508  -0.00050   0.00000   0.02002   0.02138   3.13647
   D28        1.02202   0.00248   0.00000   0.06408   0.06405   1.08607
         Item               Value     Threshold  Converged?
 Maximum Force            0.015703     0.000450     NO 
 RMS     Force            0.005390     0.000300     NO 
 Maximum Displacement     0.405167     0.001800     NO 
 RMS     Displacement     0.148713     0.001200     NO 
 Predicted change in Energy=-9.443579D-03
 GradGradGradGradGradGradGradGradGradGradGradGradGradGradGradGradGradGrad

                          Input orientation:                          
 ---------------------------------------------------------------------
 Center     Atomic      Atomic             Coordinates (Angstroms)
 Number     Number       Type             X           Y           Z
 ---------------------------------------------------------------------
      1          6           0        0.878463    0.061834    0.083404
      2          7           0        2.334143    0.036449   -0.082626
      3          8           0        2.570631    0.407492   -1.473632
      4          6           0        2.932023    1.079664    0.759174
      5          7           0        4.393972    0.999909    0.917419
      6          7           0        5.031901    1.594393   -0.224107
      7          7           0        4.800698    1.859739    1.970496
      8          1           0        0.433354   -0.708064   -0.553672
      9          1           0        0.441924    1.034741   -0.185150
     10          1           0        0.627955   -0.175784    1.122221
     11          1           0        2.631060   -0.459041   -1.896068
     12          1           0        2.542710    0.852145    1.753573
     13          1           0        2.602570    2.099087    0.467768
     14          1           0        4.680147    1.090675   -1.031946
     15          1           0        6.009700    1.333590   -0.110451
     16          1           0        4.383683    1.509325    2.825974
     17          1           0        4.438627    2.805657    1.795014
 ---------------------------------------------------------------------
                    Distance matrix (angstroms):
                    1          2          3          4          5
     1  C    0.000000
     2  N    1.465337   0.000000
     3  O    2.325354   1.458938   0.000000
     4  C    2.389508   1.467783   2.359628   0.000000
     5  N    3.732876   2.484198   3.064744   1.472650   0.000000
     6  N    4.437831   3.118511   3.004647   2.375137   1.436470
     7  N    4.709300   3.691015   4.352498   2.359611   1.419051
     8  H    1.093952   2.095037   2.580454   3.341090   4.557167
     9  H    1.099652   2.141866   2.566130   2.663524   4.103115
    10  H    1.094695   2.099470   3.294337   2.648902   3.950580
    11  H    2.694664   1.903220   0.965910   3.083587   3.626583
    12  H    2.486719   2.020021   3.257814   1.091860   2.036703
    13  H    2.696420   2.151619   2.575180   1.110262   2.149302
    14  H    4.093326   2.741594   2.260947   2.502833   1.972348
    15  H    5.290041   3.897829   3.813544   3.208244   1.943821
    16  H    4.680116   3.850965   4.794560   2.561950   1.975397
    17  H    4.809671   3.952581   4.463704   2.514333   2.008206
                    6          7          8          9         10
     6  N    0.000000
     7  N    2.222643   0.000000
     8  H    5.153306   5.660276   0.000000
     9  H    4.624135   4.932174   1.781362   0.000000
    10  H    4.933647   4.719609   1.769126   1.791423   0.000000
    11  H    3.574366   5.003438   2.587267   3.154512   3.633556
    12  H    3.264693   2.482098   3.493854   2.864488   2.263080
    13  H    2.575861   2.673434   3.691739   2.495501   3.082605
    14  H    1.014923   3.101717   4.636750   4.322352   4.760736
    15  H    1.018345   2.463506   5.954866   5.576292   5.723712
    16  H    3.119361   1.014167   5.651895   4.982927   4.455094
    17  H    2.428164   1.027935   5.822781   4.799045   4.884963
                   11         12         13         14         15
    11  H    0.000000
    12  H    3.879033   0.000000
    13  H    3.483182   1.792134   0.000000
    14  H    2.710551   3.519183   2.753609   0.000000
    15  H    4.221039   3.965652   3.539614   1.635810   0.000000
    16  H    5.407757   2.229599   3.013523   3.891877   3.361162
    17  H    5.248775   2.722577   2.373169   3.315298   2.875074
                   16         17
    16  H    0.000000
    17  H    1.657219   0.000000
 Stoichiometry    C2H10N4O
 Framework group  C1[X(C2H10N4O)]
 Deg. of freedom    45
 Full point group                 C1      NOp   1
 Largest Abelian subgroup         C1      NOp   1
 Largest concise Abelian subgroup C1      NOp   1
                         Standard orientation:                         
 ---------------------------------------------------------------------
 Center     Atomic      Atomic             Coordinates (Angstroms)
 Number     Number       Type             X           Y           Z
 ---------------------------------------------------------------------
      1          6           0       -2.354491   -0.864625    0.063587
      2          7           0       -1.223478   -0.055426   -0.398170
      3          8           0       -1.437072    1.269212    0.174725
      4          6           0        0.016391   -0.589627    0.177799
      5          7           0        1.260688   -0.063125   -0.408048
      6          7           0        1.566969    1.209526    0.183557
      7          7           0        2.354556   -0.862045    0.014900
      8          1           0       -3.279043   -0.458061   -0.356698
      9          1           0       -2.442919   -0.876314    1.159616
     10          1           0       -2.240810   -1.889524   -0.303856
     11          1           0       -1.894576    1.719308   -0.547139
     12          1           0        0.001195   -1.638502   -0.125166
     13          1           0        0.025855   -0.534940    1.286673
     14          1           0        0.755876    1.795938    0.015280
     15          1           0        2.321129    1.565939   -0.400600
     16          1           0        2.212876   -1.793246   -0.361031
     17          1           0        2.354452   -0.921302    1.041126
 ---------------------------------------------------------------------
 Rotational constants (GHZ):           5.0036886           1.6427200           1.3056130
 Standard basis: 6-31G(2df,p) (6D, 7F)
 There are   267 symmetry adapted cartesian basis functions of A   symmetry.
 There are   246 symmetry adapted basis functions of A   symmetry.
   246 basis functions,   378 primitive gaussians,   267 cartesian basis functions
    29 alpha electrons       29 beta electrons
       nuclear repulsion energy       345.5159043645 Hartrees.
 NAtoms=   17 NActive=   17 NUniq=   17 SFac= 1.00D+00 NAtFMM=   60 NAOKFM=F Big=F
 Integral buffers will be    131072 words long.
 Raffenetti 2 integral format.
 Two-electron integral symmetry is turned on.
 One-electron integrals computed using PRISM.
 PrsmSu:  requested number of processors reduced to:  13 ShMem   1 Linda.
 NBasis=   246 RedAO= T EigKep=  2.70D-04  NBF=   246
 NBsUse=   246 1.00D-06 EigRej= -1.00D+00 NBFU=   246
 Initial guess from the checkpoint file:  "CNpOpCNpNpN.chk"
 B after Tr=     0.000000    0.000000   -0.000000
         Rot=    0.999963    0.002751    0.000303    0.008110 Ang=   0.98 deg.
 ExpMin= 1.61D-01 ExpMax= 5.48D+03 ExpMxC= 8.25D+02 IAcc=2 IRadAn=         4 AccDes= 0.00D+00
 Harris functional with IExCor=  402 and IRadAn=       4 diagonalized for initial guess.
 HarFok:  IExCor=  402 AccDes= 0.00D+00 IRadAn=         4 IDoV= 1 UseB2=F ITyADJ=14
 ICtDFT=  3500011 ScaDFX=  1.000000  1.000000  1.000000  1.000000
 FoFCou: FMM=F IPFlag=           0 FMFlag=      100000 FMFlg1=           0
         NFxFlg=           0 DoJE=T BraDBF=F KetDBF=T FulRan=T
         wScrn=  0.000000 ICntrl=       500 IOpCl=  0 I1Cent=   200000004 NGrid=           0
         NMat0=    1 NMatS0=      1 NMatT0=    0 NMatD0=    1 NMtDS0=    0 NMtDT0=    0
 Petite list used in FoFCou.
 Requested convergence on RMS density matrix=1.00D-08 within 128 cycles.
 Requested convergence on MAX density matrix=1.00D-06.
 Requested convergence on             energy=1.00D-06.
 No special actions if energy rises.
 Integral accuracy reduced to 1.0D-05 until final iterations.
 Initial convergence to 1.0D-05 achieved.  Increase integral accuracy.
 SCF Done:  E(RB3LYP) =  -376.342816906     A.U. after   11 cycles
            NFock= 11  Conv=0.80D-08     -V/T= 2.0067
 PrsmSu:  requested number of processors reduced to:  13 ShMem   1 Linda.
 Calling FoFJK, ICntrl=      2127 FMM=F ISym2X=0 I1Cent= 0 IOpClX= 0 NMat=1 NMatS=1 NMatT=0.
 ***** Axes restored to original set *****
 -------------------------------------------------------------------
 Center     Atomic                   Forces (Hartrees/Bohr)
 Number     Number              X              Y              Z
 -------------------------------------------------------------------
      1        6          -0.000964486   -0.001746930   -0.000589562
      2        7           0.001688193    0.005981688    0.000226953
      3        8           0.000797862   -0.001123104    0.003287522
      4        6           0.000448405   -0.007099642    0.001713613
      5        7          -0.012980397   -0.007771900    0.002098307
      6        7           0.004475375    0.005364653   -0.010343765
      7        7           0.003475600    0.004264764    0.007401392
      8        1           0.000534117    0.000468699   -0.000078577
      9        1          -0.000247253    0.000279301    0.000204738
     10        1           0.000933263   -0.000024446   -0.000336764
     11        1           0.002372156    0.001715546    0.000158529
     12        1          -0.001603906    0.002864082    0.001096261
     13        1           0.001817051   -0.000092650   -0.002971974
     14        1          -0.001212752   -0.002374106   -0.002397263
     15        1           0.000660332    0.000237175   -0.002373960
     16        1           0.000717330   -0.000853784    0.002245895
     17        1          -0.000910892   -0.000089348    0.000658656
 -------------------------------------------------------------------
 Cartesian Forces:  Max     0.012980397 RMS     0.003554451

 GradGradGradGradGradGradGradGradGradGradGradGradGradGradGradGradGradGrad
 Berny optimization.
 Using GEDIIS/GDIIS optimizer.
 FormGI is forming the generalized inverse of G from B-inverse, IUseBI=4.
 Internal  Forces:  Max     0.015088738 RMS     0.003914964
 Search for a local minimum.
 Step number   2 out of a maximum of   79
 All quantities printed in internal units (Hartrees-Bohrs-Radians)
 Mixed Optimization -- RFO/linear search
 Update second derivatives using D2CorX and points    1    2
 DE= -6.46D-03 DEPred=-9.44D-03 R= 6.84D-01
 TightC=F SS=  1.41D+00  RLast= 5.63D-01 DXNew= 5.0454D-01 1.6902D+00
 Trust test= 6.84D-01 RLast= 5.63D-01 DXMaxT set to 5.05D-01
 ITU=  1  0
 Use linear search instead of GDIIS.
     Eigenvalues ---    0.00461   0.00472   0.00641   0.00836   0.01003
     Eigenvalues ---    0.01055   0.04225   0.04454   0.05548   0.06059
     Eigenvalues ---    0.06609   0.06933   0.07176   0.07624   0.10244
     Eigenvalues ---    0.12576   0.13674   0.15848   0.16000   0.16000
     Eigenvalues ---    0.16000   0.16000   0.16000   0.16000   0.16105
     Eigenvalues ---    0.16909   0.18287   0.19851   0.26610   0.29459
     Eigenvalues ---    0.33224   0.33769   0.34024   0.34082   0.34163
     Eigenvalues ---    0.34382   0.36386   0.36839   0.41277   0.43058
     Eigenvalues ---    0.44082   0.44260   0.44674   0.45992   0.51674
 RFO step:  Lambda=-5.47101229D-03 EMin= 4.60944004D-03
 Quartic linear search produced a step of -0.08117.
 Iteration  1 RMS(Cart)=  0.10700544 RMS(Int)=  0.00606465
 Iteration  2 RMS(Cart)=  0.00923998 RMS(Int)=  0.00034945
 Iteration  3 RMS(Cart)=  0.00008892 RMS(Int)=  0.00034124
 Iteration  4 RMS(Cart)=  0.00000002 RMS(Int)=  0.00034124
 Variable       Old X    -DE/DX   Delta X   Delta X   Delta X     New X
                                 (Linear)    (Quad)   (Total)
    R1        2.76909  -0.00036  -0.00010  -0.00031  -0.00041   2.76868
    R2        2.06727  -0.00050   0.00027  -0.00271  -0.00245   2.06482
    R3        2.07804   0.00030  -0.00048   0.00338   0.00289   2.08094
    R4        2.06867  -0.00053  -0.00013  -0.00062  -0.00075   2.06793
    R5        2.75699  -0.00262   0.00035  -0.00802  -0.00767   2.74932
    R6        2.77371  -0.00768   0.00312  -0.03662  -0.03350   2.74021
    R7        1.82531  -0.00146   0.00181  -0.01235  -0.01054   1.81477
    R8        2.78290  -0.00596   0.00373  -0.03604  -0.03231   2.75060
    R9        2.06332   0.00097   0.00119  -0.00402  -0.00283   2.06049
   R10        2.09809   0.00016  -0.00179   0.01015   0.00837   2.10646
   R11        2.71453   0.01509  -0.00276   0.04553   0.04277   2.75731
   R12        2.68162   0.01060   0.00029   0.02001   0.02029   2.70191
   R13        1.91793   0.00351   0.00110   0.00086   0.00196   1.91988
   R14        1.92439   0.00031   0.00032  -0.00116  -0.00084   1.92356
   R15        1.91650   0.00189   0.00045   0.00118   0.00163   1.91813
   R16        1.94252   0.00013  -0.00101   0.00576   0.00476   1.94727
    A1        1.90289  -0.00042   0.00065  -0.00554  -0.00492   1.89797
    A2        1.96278   0.00058  -0.00093   0.00827   0.00735   1.97013
    A3        1.90826  -0.00124   0.00268  -0.02156  -0.01890   1.88935
    A4        1.89538   0.00011  -0.00092   0.00632   0.00540   1.90078
    A5        1.88258   0.00068  -0.00082   0.00753   0.00665   1.88924
    A6        1.91023   0.00031  -0.00073   0.00521   0.00448   1.91471
    A7        1.83864   0.00223  -0.00355   0.03518   0.03193   1.87057
    A8        1.90430   0.00534  -0.00040   0.02710   0.02685   1.93115
    A9        1.87552  -0.00576   0.00065  -0.03131  -0.03116   1.84436
   A10        1.77110   0.00179  -0.00039   0.01155   0.01116   1.78225
   A11        2.01253  -0.01177  -0.00310  -0.03529  -0.03919   1.97335
   A12        1.80183   0.00496   0.00567   0.02076   0.02691   1.82874
   A13        1.96188   0.00244  -0.00182  -0.01110  -0.01442   1.94746
   A14        1.81813   0.00504   0.00351   0.03251   0.03650   1.85463
   A15        1.95251   0.00162  -0.00133  -0.01893  -0.02160   1.93091
   A16        1.90135  -0.00126  -0.00212   0.02413   0.02215   1.92349
   A17        1.91035  -0.00846   0.00110  -0.04076  -0.03955   1.87080
   A18        1.90865   0.00344   0.00262   0.01094   0.01391   1.92256
   A19        1.78409   0.00570   0.00408   0.01602   0.02040   1.80449
   A20        1.84753  -0.00154   0.00223  -0.02043  -0.01820   1.82933
   A21        1.80465   0.00394   0.00746  -0.02004  -0.01259   1.79207
   A22        1.86974  -0.00115  -0.00179   0.00268   0.00089   1.87063
   A23        1.87420   0.00145   0.00660  -0.02688  -0.02025   1.85395
   A24        1.90703   0.00014   0.00099  -0.00327  -0.00225   1.90478
   A25        1.89349  -0.00030  -0.00091   0.00615   0.00531   1.89879
    D1        1.12074   0.00143  -0.00012  -0.00521  -0.00561   1.11512
    D2        3.12977  -0.00160  -0.00130  -0.01081  -0.01188   3.11788
    D3       -0.98245   0.00120   0.00118  -0.01472  -0.01379  -0.99624
    D4        1.02658  -0.00183   0.00000  -0.02032  -0.02006   1.00652
    D5       -3.10814   0.00130   0.00086  -0.01170  -0.01106  -3.11920
    D6       -1.09911  -0.00174  -0.00032  -0.01730  -0.01733  -1.11644
    D7       -1.64980   0.00017   0.00719  -0.19753  -0.19060  -1.84040
    D8        2.60457  -0.00437   0.00904  -0.23123  -0.22193   2.38264
    D9        2.92920   0.00266   0.01337   0.02099   0.03414   2.96334
   D10        0.95837  -0.00105   0.00716  -0.01455  -0.00712   0.95125
   D11       -1.08777  -0.00362   0.00728  -0.04992  -0.04218  -1.12995
   D12       -1.36886   0.00494   0.00937   0.05938   0.06819  -1.30067
   D13        2.94349   0.00123   0.00316   0.02384   0.02693   2.97042
   D14        0.89735  -0.00134   0.00328  -0.01153  -0.00814   0.88921
   D15        1.42586  -0.00517  -0.02045   0.02352   0.00368   1.42954
   D16       -2.91606  -0.00103  -0.01347   0.02709   0.01410  -2.90197
   D17       -2.89602  -0.00162  -0.01298   0.05195   0.03893  -2.85709
   D18       -0.95476   0.00252  -0.00600   0.05551   0.04935  -0.90541
   D19       -0.84490   0.00063  -0.01414   0.09019   0.07567  -0.76924
   D20        1.09636   0.00477  -0.00716   0.09375   0.08609   1.18245
   D21       -0.99522   0.00174   0.00109   0.02260   0.02356  -0.97166
   D22       -2.95839   0.00199  -0.00122   0.03543   0.03408  -2.92431
   D23       -3.01738  -0.00152  -0.00466   0.01897   0.01444  -3.00294
   D24        1.30264  -0.00127  -0.00697   0.03181   0.02497   1.32760
   D25        1.11308   0.00411  -0.00646   0.10529   0.09875   1.21183
   D26       -0.93732   0.00359  -0.00993   0.11470   0.10475  -0.83257
   D27        3.13647  -0.00127  -0.00174   0.07139   0.06967  -3.07705
   D28        1.08607  -0.00180  -0.00520   0.08080   0.07567   1.16174
         Item               Value     Threshold  Converged?
 Maximum Force            0.015089     0.000450     NO 
 RMS     Force            0.003915     0.000300     NO 
 Maximum Displacement     0.558843     0.001800     NO 
 RMS     Displacement     0.111015     0.001200     NO 
 Predicted change in Energy=-3.261296D-03
 GradGradGradGradGradGradGradGradGradGradGradGradGradGradGradGradGradGrad

                          Input orientation:                          
 ---------------------------------------------------------------------
 Center     Atomic      Atomic             Coordinates (Angstroms)
 Number     Number       Type             X           Y           Z
 ---------------------------------------------------------------------
      1          6           0        0.865313    0.075802    0.069880
      2          7           0        2.326597    0.060309   -0.034936
      3          8           0        2.662553    0.405609   -1.407733
      4          6           0        2.909154    1.104464    0.785446
      5          7           0        4.355040    0.992099    0.909648
      6          7           0        4.938364    1.590318   -0.286536
      7          7           0        4.825840    1.834684    1.964490
      8          1           0        0.458548   -0.705039   -0.577212
      9          1           0        0.425607    1.043278   -0.218658
     10          1           0        0.593318   -0.159552    1.103377
     11          1           0        2.926787   -0.443506   -1.770257
     12          1           0        2.502841    0.933819    1.782782
     13          1           0        2.623801    2.118789    0.421782
     14          1           0        4.510746    1.091428   -1.061404
     15          1           0        5.909737    1.290421   -0.235324
     16          1           0        4.494064    1.418980    2.829012
     17          1           0        4.405251    2.769907    1.863033
 ---------------------------------------------------------------------
                    Distance matrix (angstroms):
                    1          2          3          4          5
     1  C    0.000000
     2  N    1.465120   0.000000
     3  O    2.349933   1.454879   0.000000
     4  C    2.397387   1.450054   2.315004   0.000000
     5  N    3.704457   2.423851   2.928948   1.455554   0.000000
     6  N    4.360107   3.037360   2.799988   2.345824   1.459105
     7  N    4.729587   3.659553   4.253699   2.365809   1.429788
     8  H    1.092657   2.090318   2.604024   3.337156   4.502630
     9  H    1.101184   2.147964   2.612365   2.679548   4.088538
    10  H    1.094299   2.085270   3.302547   2.657426   3.938830
    11  H    2.811665   1.904048   0.960333   2.987999   3.358982
    12  H    2.520263   2.024396   3.237885   1.090362   2.048512
    13  H    2.718439   2.129381   2.506714   1.114690   2.122412
    14  H    3.949744   2.624376   2.001526   2.444610   1.979686
    15  H    5.197562   3.793708   3.563936   3.174909   1.953724
    16  H    4.752344   3.840065   4.725607   2.605192   1.971171
    17  H    4.796327   3.907046   4.395999   2.484592   2.017936
                    6          7          8          9         10
     6  N    0.000000
     7  N    2.267045   0.000000
     8  H    5.042014   5.655412   0.000000
     9  H    4.546299   4.975391   1.785010   0.000000
    10  H    4.886034   4.757388   1.772032   1.795190   0.000000
    11  H    3.222470   4.769160   2.753899   3.297558   3.712611
    12  H    3.262643   2.498179   3.526268   2.886633   2.302896
    13  H    2.477538   2.703634   3.695987   2.529614   3.127023
    14  H    1.015957   3.131733   4.458929   4.171439   4.647308
    15  H    1.017903   2.512018   5.814999   5.489721   5.670877
    16  H    3.151729   1.015029   5.692030   5.097234   4.548121
    17  H    2.509240   1.030452   5.797112   4.811679   4.867200
                   11         12         13         14         15
    11  H    0.000000
    12  H    3.834168   0.000000
    13  H    3.385586   1.808620   0.000000
    14  H    2.316769   3.485099   2.610723   0.000000
    15  H    3.776309   3.975783   3.451862   1.636821   0.000000
    16  H    5.203700   2.301075   3.127679   3.904217   3.377989
    17  H    5.070767   2.645151   2.382167   3.373537   2.975812
                   16         17
    16  H    0.000000
    17  H    1.663132   0.000000
 Stoichiometry    C2H10N4O
 Framework group  C1[X(C2H10N4O)]
 Deg. of freedom    45
 Full point group                 C1      NOp   1
 Largest Abelian subgroup         C1      NOp   1
 Largest concise Abelian subgroup C1      NOp   1
                         Standard orientation:                         
 ---------------------------------------------------------------------
 Center     Atomic      Atomic             Coordinates (Angstroms)
 Number     Number       Type             X           Y           Z
 ---------------------------------------------------------------------
      1          6           0       -2.371999   -0.833490    0.076656
      2          7           0       -1.201380   -0.084934   -0.387985
      3          8           0       -1.325392    1.269890    0.127520
      4          6           0        0.012528   -0.617981    0.199336
      5          7           0        1.222417   -0.074923   -0.400576
      6          7           0        1.472325    1.218070    0.227679
      7          7           0        2.356654   -0.855259   -0.014730
      8          1           0       -3.268892   -0.391964   -0.364407
      9          1           0       -2.474818   -0.830155    1.173024
     10          1           0       -2.284952   -1.863451   -0.282639
     11          1           0       -1.578077    1.761913   -0.657530
     12          1           0       -0.001341   -1.679634   -0.048839
     13          1           0        0.027119   -0.481295    1.305518
     14          1           0        0.617743    1.747576    0.081111
     15          1           0        2.185113    1.624951   -0.374407
     16          1           0        2.257366   -1.750532   -0.482612
     17          1           0        2.330585   -1.008381    1.003948
 ---------------------------------------------------------------------
 Rotational constants (GHZ):           4.9928967           1.7053754           1.3452221
 Standard basis: 6-31G(2df,p) (6D, 7F)
 There are   267 symmetry adapted cartesian basis functions of A   symmetry.
 There are   246 symmetry adapted basis functions of A   symmetry.
   246 basis functions,   378 primitive gaussians,   267 cartesian basis functions
    29 alpha electrons       29 beta electrons
       nuclear repulsion energy       348.1508443298 Hartrees.
 NAtoms=   17 NActive=   17 NUniq=   17 SFac= 1.00D+00 NAtFMM=   60 NAOKFM=F Big=F
 Integral buffers will be    131072 words long.
 Raffenetti 2 integral format.
 Two-electron integral symmetry is turned on.
 One-electron integrals computed using PRISM.
 PrsmSu:  requested number of processors reduced to:  13 ShMem   1 Linda.
 NBasis=   246 RedAO= T EigKep=  2.70D-04  NBF=   246
 NBsUse=   246 1.00D-06 EigRej= -1.00D+00 NBFU=   246
 Initial guess from the checkpoint file:  "CNpOpCNpNpN.chk"
 B after Tr=     0.000000    0.000000   -0.000000
         Rot=    0.999996    0.000736    0.001032    0.002585 Ang=   0.33 deg.
 ExpMin= 1.61D-01 ExpMax= 5.48D+03 ExpMxC= 8.25D+02 IAcc=2 IRadAn=         4 AccDes= 0.00D+00
 Harris functional with IExCor=  402 and IRadAn=       4 diagonalized for initial guess.
 HarFok:  IExCor=  402 AccDes= 0.00D+00 IRadAn=         4 IDoV= 1 UseB2=F ITyADJ=14
 ICtDFT=  3500011 ScaDFX=  1.000000  1.000000  1.000000  1.000000
 FoFCou: FMM=F IPFlag=           0 FMFlag=      100000 FMFlg1=           0
         NFxFlg=           0 DoJE=T BraDBF=F KetDBF=T FulRan=T
         wScrn=  0.000000 ICntrl=       500 IOpCl=  0 I1Cent=   200000004 NGrid=           0
         NMat0=    1 NMatS0=      1 NMatT0=    0 NMatD0=    1 NMtDS0=    0 NMtDT0=    0
 Petite list used in FoFCou.
 Requested convergence on RMS density matrix=1.00D-08 within 128 cycles.
 Requested convergence on MAX density matrix=1.00D-06.
 Requested convergence on             energy=1.00D-06.
 No special actions if energy rises.
 Integral accuracy reduced to 1.0D-05 until final iterations.
 Initial convergence to 1.0D-05 achieved.  Increase integral accuracy.
 SCF Done:  E(RB3LYP) =  -376.344827454     A.U. after   12 cycles
            NFock= 12  Conv=0.46D-08     -V/T= 2.0066
 PrsmSu:  requested number of processors reduced to:  13 ShMem   1 Linda.
 Calling FoFJK, ICntrl=      2127 FMM=F ISym2X=0 I1Cent= 0 IOpClX= 0 NMat=1 NMatS=1 NMatT=0.
 ***** Axes restored to original set *****
 -------------------------------------------------------------------
 Center     Atomic                   Forces (Hartrees/Bohr)
 Number     Number              X              Y              Z
 -------------------------------------------------------------------
      1        6           0.002110244   -0.000401675   -0.003167429
      2        7          -0.000356944   -0.000448324   -0.002848877
      3        8          -0.008222391   -0.001027234   -0.000259342
      4        6          -0.002654269    0.000771302    0.003353564
      5        7          -0.000170200   -0.000147354   -0.001229544
      6        7           0.006465274    0.002055294    0.003023926
      7        7           0.000539725    0.002207260   -0.000854173
      8        1          -0.000241888    0.000413650   -0.000185819
      9        1           0.000067282   -0.000416181    0.000486338
     10        1           0.000067103    0.000342745   -0.000424220
     11        1           0.000898927   -0.003784261   -0.001653350
     12        1          -0.001388803    0.002845684    0.002107838
     13        1           0.000034674   -0.001678334    0.001196863
     14        1           0.000099943   -0.000159957   -0.000610885
     15        1           0.001483576    0.001034642   -0.002335209
     16        1           0.000456750    0.000574281    0.001820097
     17        1           0.000810998   -0.002181539    0.001580222
 -------------------------------------------------------------------
 Cartesian Forces:  Max     0.008222391 RMS     0.002131891

 GradGradGradGradGradGradGradGradGradGradGradGradGradGradGradGradGradGrad
 Berny optimization.
 Using GEDIIS/GDIIS optimizer.
 FormGI is forming the generalized inverse of G from B-inverse, IUseBI=4.
 Internal  Forces:  Max     0.010669226 RMS     0.003282963
 Search for a local minimum.
 Step number   3 out of a maximum of   79
 All quantities printed in internal units (Hartrees-Bohrs-Radians)
 Mixed Optimization -- RFO/linear search
 Update second derivatives using D2CorX and points    2    3
 DE= -2.01D-03 DEPred=-3.26D-03 R= 6.16D-01
 TightC=F SS=  1.41D+00  RLast= 4.03D-01 DXNew= 8.4853D-01 1.2086D+00
 Trust test= 6.16D-01 RLast= 4.03D-01 DXMaxT set to 8.49D-01
 ITU=  1  1  0
 Use linear search instead of GDIIS.
     Eigenvalues ---    0.00410   0.00527   0.00650   0.00836   0.00990
     Eigenvalues ---    0.01058   0.04075   0.04688   0.05844   0.06174
     Eigenvalues ---    0.06636   0.07134   0.07175   0.07747   0.09873
     Eigenvalues ---    0.13198   0.14951   0.15992   0.16000   0.16000
     Eigenvalues ---    0.16000   0.16000   0.16000   0.16096   0.16455
     Eigenvalues ---    0.16628   0.18952   0.20094   0.27600   0.32959
     Eigenvalues ---    0.33489   0.33738   0.34057   0.34148   0.34368
     Eigenvalues ---    0.35845   0.36550   0.37881   0.41178   0.43186
     Eigenvalues ---    0.44090   0.44264   0.44788   0.45773   0.51800
 RFO step:  Lambda=-3.58325397D-03 EMin= 4.09519884D-03
 Quartic linear search produced a step of -0.23986.
 Iteration  1 RMS(Cart)=  0.11840131 RMS(Int)=  0.00457703
 Iteration  2 RMS(Cart)=  0.00636243 RMS(Int)=  0.00015082
 Iteration  3 RMS(Cart)=  0.00001504 RMS(Int)=  0.00015043
 Iteration  4 RMS(Cart)=  0.00000000 RMS(Int)=  0.00015043
 Variable       Old X    -DE/DX   Delta X   Delta X   Delta X     New X
                                 (Linear)    (Quad)   (Total)
    R1        2.76868  -0.00223   0.00010  -0.00493  -0.00483   2.76384
    R2        2.06482  -0.00010   0.00059  -0.00094  -0.00036   2.06447
    R3        2.08094  -0.00052  -0.00069  -0.00083  -0.00153   2.07941
    R4        2.06793  -0.00049   0.00018  -0.00205  -0.00187   2.06605
    R5        2.74932  -0.00103   0.00184  -0.00623  -0.00439   2.74493
    R6        2.74021   0.01067   0.00804   0.00941   0.01745   2.75765
    R7        1.81477   0.00422   0.00253   0.00510   0.00763   1.82239
    R8        2.75060   0.00948   0.00775   0.01090   0.01865   2.76925
    R9        2.06049   0.00200   0.00068   0.00675   0.00743   2.06792
   R10        2.10646  -0.00193  -0.00201  -0.00487  -0.00688   2.09958
   R11        2.75731   0.00435  -0.01026   0.02771   0.01745   2.77475
   R12        2.70191   0.00283  -0.00487   0.02084   0.01597   2.71788
   R13        1.91988   0.00050  -0.00047   0.00667   0.00620   1.92608
   R14        1.92356   0.00099   0.00020   0.00222   0.00242   1.92598
   R15        1.91813   0.00117  -0.00039   0.00482   0.00443   1.92256
   R16        1.94727  -0.00247  -0.00114  -0.00438  -0.00552   1.94175
    A1        1.89797   0.00046   0.00118   0.00149   0.00268   1.90065
    A2        1.97013   0.00007  -0.00176   0.00169  -0.00007   1.97006
    A3        1.88935  -0.00001   0.00453  -0.00364   0.00090   1.89025
    A4        1.90078  -0.00027  -0.00130  -0.00048  -0.00177   1.89901
    A5        1.88924   0.00008  -0.00160   0.00308   0.00150   1.89074
    A6        1.91471  -0.00032  -0.00108  -0.00203  -0.00310   1.91161
    A7        1.87057  -0.00752  -0.00766  -0.01763  -0.02561   1.84496
    A8        1.93115  -0.00117  -0.00644   0.01851   0.01215   1.94330
    A9        1.84436   0.00942   0.00747   0.02415   0.03189   1.87625
   A10        1.78225  -0.00003  -0.00268   0.00666   0.00399   1.78624
   A11        1.97335   0.00725   0.00940  -0.01420  -0.00476   1.96859
   A12        1.82874  -0.00200  -0.00645   0.03001   0.02333   1.85206
   A13        1.94746  -0.00099   0.00346  -0.00981  -0.00607   1.94139
   A14        1.85463  -0.00210  -0.00875   0.02720   0.01822   1.87285
   A15        1.93091  -0.00172   0.00518  -0.01785  -0.01240   1.91851
   A16        1.92349  -0.00064  -0.00531  -0.01098  -0.01624   1.90726
   A17        1.87080   0.00616   0.00949   0.00247   0.01160   1.88240
   A18        1.92256   0.00057  -0.00334   0.02605   0.02241   1.94496
   A19        1.80449  -0.00449  -0.00489   0.01705   0.01172   1.81621
   A20        1.82933   0.00034   0.00436  -0.00232   0.00197   1.83131
   A21        1.79207   0.00498   0.00302   0.04240   0.04535   1.83742
   A22        1.87063  -0.00108  -0.00021  -0.00807  -0.00848   1.86214
   A23        1.85395   0.00240   0.00486   0.02202   0.02677   1.88072
   A24        1.90478   0.00140   0.00054   0.00889   0.00932   1.91410
   A25        1.89879  -0.00132  -0.00127  -0.00366  -0.00516   1.89363
    D1        1.11512  -0.00346   0.00135  -0.03505  -0.03355   1.08157
    D2        3.11788   0.00291   0.00285  -0.00672  -0.00401   3.11387
    D3       -0.99624  -0.00348   0.00331  -0.03658  -0.03313  -1.02937
    D4        1.00652   0.00289   0.00481  -0.00826  -0.00359   1.00293
    D5       -3.11920  -0.00311   0.00265  -0.03258  -0.02979   3.13420
    D6       -1.11644   0.00326   0.00416  -0.00425  -0.00024  -1.11668
    D7       -1.84040   0.00011   0.04572  -0.12828  -0.08268  -1.92308
    D8        2.38264   0.00038   0.05323  -0.15317  -0.09982   2.28282
    D9        2.96334   0.00052  -0.00819   0.00220  -0.00604   2.95731
   D10        0.95125   0.00064   0.00171  -0.04113  -0.03967   0.91158
   D11       -1.12995   0.00313   0.01012  -0.04089  -0.03099  -1.16094
   D12       -1.30067  -0.00370  -0.01636   0.00393  -0.01213  -1.31280
   D13        2.97042  -0.00357  -0.00646  -0.03940  -0.04576   2.92466
   D14        0.88921  -0.00108   0.00195  -0.03916  -0.03708   0.85213
   D15        1.42954   0.00375  -0.00088   0.14140   0.14029   1.56983
   D16       -2.90197   0.00197  -0.00338   0.17511   0.17169  -2.73028
   D17       -2.85709   0.00380  -0.00934   0.18649   0.17714  -2.67995
   D18       -0.90541   0.00203  -0.01184   0.22020   0.20853  -0.69688
   D19       -0.76924   0.00083  -0.01815   0.17977   0.16159  -0.60765
   D20        1.18245  -0.00095  -0.02065   0.21349   0.19298   1.37543
   D21       -0.97166   0.00091  -0.00565   0.03024   0.02473  -0.94693
   D22       -2.92431   0.00010  -0.00817   0.02395   0.01574  -2.90857
   D23       -3.00294  -0.00023  -0.00346  -0.00807  -0.01149  -3.01443
   D24        1.32760  -0.00104  -0.00599  -0.01436  -0.02048   1.30712
   D25        1.21183  -0.00178  -0.02369   0.07389   0.05023   1.26206
   D26       -0.83257  -0.00224  -0.02513   0.06182   0.03653  -0.79604
   D27       -3.07705   0.00324  -0.01671   0.09653   0.07998  -2.99707
   D28        1.16174   0.00278  -0.01815   0.08446   0.06628   1.22801
         Item               Value     Threshold  Converged?
 Maximum Force            0.010669     0.000450     NO 
 RMS     Force            0.003283     0.000300     NO 
 Maximum Displacement     0.338156     0.001800     NO 
 RMS     Displacement     0.118801     0.001200     NO 
 Predicted change in Energy=-2.337582D-03
 GradGradGradGradGradGradGradGradGradGradGradGradGradGradGradGradGradGrad

                          Input orientation:                          
 ---------------------------------------------------------------------
 Center     Atomic      Atomic             Coordinates (Angstroms)
 Number     Number       Type             X           Y           Z
 ---------------------------------------------------------------------
      1          6           0        0.840786    0.075003    0.077992
      2          7           0        2.300155    0.051205   -0.015633
      3          8           0        2.607628    0.260759   -1.419721
      4          6           0        2.898429    1.151335    0.733569
      5          7           0        4.351812    1.021727    0.869016
      6          7           0        4.972718    1.695233   -0.278538
      7          7           0        4.840657    1.750636    2.008428
      8          1           0        0.434534   -0.745488   -0.518029
      9          1           0        0.404755    1.020942   -0.276839
     10          1           0        0.561034   -0.087295    1.122367
     11          1           0        2.945921   -0.601673   -1.687635
     12          1           0        2.471896    1.100777    1.740045
     13          1           0        2.646727    2.132645    0.277378
     14          1           0        4.540184    1.270372   -1.097837
     15          1           0        5.946342    1.393986   -0.272133
     16          1           0        4.555782    1.246407    2.844878
     17          1           0        4.414200    2.685238    2.030083
 ---------------------------------------------------------------------
                    Distance matrix (angstroms):
                    1          2          3          4          5
     1  C    0.000000
     2  N    1.462563   0.000000
     3  O    2.323657   1.452555   0.000000
     4  C    2.412917   1.459288   2.348265   0.000000
     5  N    3.721467   2.435942   2.976503   1.465424   0.000000
     6  N    4.452541   3.148736   2.992267   2.371257   1.468337
     7  N    4.746925   3.665929   4.354119   2.399307   1.438240
     8  H    1.092468   2.089895   2.558890   3.351897   4.515752
     9  H    1.100377   2.145031   2.595517   2.693759   4.110018
    10  H    1.093307   2.082970   3.282057   2.673720   3.957791
    11  H    2.829650   1.907578   0.964370   2.989569   3.338926
    12  H    2.544633   2.052681   3.272335   1.094294   2.073409
    13  H    2.745008   2.130343   2.526980   1.111051   2.119314
    14  H    4.061654   2.770427   2.204019   2.462433   1.991437
    15  H    5.284791   3.894039   3.707853   3.218710   1.995827
    16  H    4.777975   3.833912   4.790992   2.685793   1.999028
    17  H    4.836660   3.948705   4.587259   2.516222   2.029590
                    6          7          8          9         10
     6  N    0.000000
     7  N    2.291445   0.000000
     8  H    5.158448   5.659288   0.000000
     9  H    4.617462   5.043027   1.783069   0.000000
    10  H    4.960130   4.741124   1.772038   1.791756   0.000000
    11  H    3.371831   4.773287   2.774116   3.328776   3.721341
    12  H    3.268358   2.470905   3.557870   2.889164   2.333331
    13  H    2.431173   2.820602   3.716197   2.563099   3.161052
    14  H    1.019237   3.157502   4.610448   4.223509   4.754597
    15  H    1.019184   2.559433   5.917588   5.554131   5.756767
    16  H    3.182924   1.017374   5.679919   5.198748   4.550145
    17  H    2.573282   1.027528   5.839564   4.916037   4.832988
                   11         12         13         14         15
    11  H    0.000000
    12  H    3.856427   0.000000
    13  H    3.380427   1.798531   0.000000
    14  H    2.528654   3.515701   2.493975   0.000000
    15  H    3.871541   4.025744   3.425645   1.635344   0.000000
    16  H    5.152740   2.363143   3.319935   3.942818   3.416313
    17  H    5.175042   2.523328   2.549765   3.435346   3.052047
                   16         17
    16  H    0.000000
    17  H    1.659570   0.000000
 Stoichiometry    C2H10N4O
 Framework group  C1[X(C2H10N4O)]
 Deg. of freedom    45
 Full point group                 C1      NOp   1
 Largest Abelian subgroup         C1      NOp   1
 Largest concise Abelian subgroup C1      NOp   1
                         Standard orientation:                         
 ---------------------------------------------------------------------
 Center     Atomic      Atomic             Coordinates (Angstroms)
 Number     Number       Type             X           Y           Z
 ---------------------------------------------------------------------
      1          6           0       -2.381344   -0.841541    0.104355
      2          7           0       -1.211005   -0.110039   -0.379693
      3          8           0       -1.416825    1.270844    0.021201
      4          6           0        0.011564   -0.576894    0.265978
      5          7           0        1.224073   -0.047109   -0.363800
      6          7           0        1.561725    1.217136    0.302300
      7          7           0        2.360540   -0.890863   -0.108739
      8          1           0       -3.274314   -0.442322   -0.382178
      9          1           0       -2.509580   -0.770001    1.194890
     10          1           0       -2.273322   -1.890908   -0.182840
     11          1           0       -1.578666    1.708590   -0.822715
     12          1           0        0.026606   -1.663603    0.138242
[...]
   yx         0.754733D+01      0.111840D+01      0.124439D+01
   yy         0.576140D+02      0.853752D+01      0.949927D+01
   zx        -0.674027D+01     -0.998805D+00     -0.111132D+01
   zy         0.300163D+01      0.444795D+00      0.494902D+00
   zz         0.639475D+02      0.947604D+01      0.105435D+02

 ----------------------------------------------------------------------
 1\1\GINC-LEWIS4-R630-HPC4-NODE225\Freq\RB3LYP\6-31G(2df,p)\C2H10N4O1\C
 Z9N3\01-Jun-2021\0\\#N Geom=AllCheck Guess=TCheck SCRF=Check GenChk RB
 3LYP/6-31G(2df,p) Freq\\Title Card Required\\0,1\C,0.8172226151,0.1287
 854903,0.0350139324\N,2.2719050424,0.0176776283,0.046029611\O,2.684606
 9122,0.1112498428,-1.3405894391\C,2.8768706902,1.1400227362,0.76095727
 65\N,4.3360606493,1.0318133588,0.8185202516\N,4.8712120427,1.793737389
 6,-0.314236182\N,4.8836412527,1.6941239772,1.9590155397\H,0.403586378,
 -0.7101950025,-0.5280152075\H,0.4625124811,1.0685164623,-0.4165810015\
 H,0.4566166868,0.0692311327,1.0664735347\H,3.1592663027,-0.7185788864,
 -1.4629836068\H,2.4963827016,1.0765726359,1.7838629348\H,2.5817831035,
 2.1166004035,0.3243584135\H,4.4574764559,1.342356821,-1.1297288561\H,5
 .8600746596,1.5469925524,-0.3246774096\H,4.6837843805,1.1089084208,2.7
 643106954\H,4.4305576457,2.6039950371,2.0956595129\\Version=ES64L-G16R
 evA.03\State=1-A\HF=-376.3466615\RMSD=4.222e-09\RMSF=1.660e-05\ZeroPoi
 nt=0.1475116\Thermal=0.1560886\Dipole=-0.5716405,-0.4083217,0.2342806\
 DipoleDeriv=0.4082029,-0.0294602,0.0632879,-0.0553715,0.2781568,-0.058
 5259,-0.0240852,-0.0888887,0.1582791,-0.2855212,0.0439899,-0.231212,-0
 .0280738,-0.4621709,0.0405139,-0.2841105,0.1248816,0.1573565,-0.523878
 9,-0.1256683,0.0372009,-0.180935,-0.2137063,-0.0835474,0.1781794,-0.22
 57961,-0.6586947,0.5720955,0.0918377,0.1580306,0.082682,0.6135951,0.02
 5617,0.2349308,0.0188879,0.2454826,-0.2590658,-0.0244602,-0.1628575,0.
 1678836,-0.4080566,0.1255395,0.0212986,0.0117978,0.1484474,-0.2443569,
 -0.0416303,0.0024198,-0.1547501,-0.2797019,0.1306901,-0.0053628,-0.038
 3116,-0.3495335,-0.4810003,-0.1029088,-0.1246302,-0.1566187,0.0462069,
 -0.0499283,-0.0089929,0.061621,-0.1719527,-0.0170597,-0.0419094,-0.025
 7664,-0.0681774,-0.054668,-0.0706267,-0.0758151,-0.0756191,0.0233336,-
 0.0687806,-0.0073932,-0.0057511,0.1251808,-0.1164723,0.0766642,-0.0560
 347,0.0729214,0.0166827,0.0073962,-0.0015526,0.0276823,0.0238761,0.067
 5599,0.005488,0.0704667,0.0139228,-0.107058,0.2569338,0.0359284,0.0119
 629,0.0364005,0.226198,0.0659934,0.0024834,0.0602335,0.2634623,0.00714
 34,-0.0192387,0.0227301,-0.0262334,0.0288207,0.0004197,0.0587874,-0.00
 12278,-0.1034332,-0.0678868,-0.0045242,-0.063684,0.0532754,-0.1746132,
 -0.0099987,-0.0987582,0.0638793,-0.0127511,0.2484985,0.0376616,0.03025
 46,0.0350266,0.1773887,-0.1091826,-0.0005642,-0.0235448,0.1016985,0.02
 70778,0.0281648,0.0204564,0.1303211,0.1945627,-0.0032403,0.010221,0.01
 85334,0.1559529,0.2450568,-0.0387202,0.1747624,-0.0410842,0.0924688,0.
 0258535,0.0353527,0.0252449,0.0677281,0.1751454,0.1998837,0.0651133,0.
 056598,-0.0155685,-0.1117295,-0.0579963,-0.0185355,0.0649994\Polar=66.
 1404427,5.6309006,50.9173217,0.4359727,5.2146314,62.8850201\Quadrupole
 =-0.8876844,-1.4989704,2.3866549,-1.4520162,-2.8458556,2.8407856\PG=C0
 1 [X(C2H10N4O1)]\NImag=0\\0.46801229,0.02851404,0.57150498,0.00339996,
 0.01933317,0.60369332,-0.20456962,0.03422997,-0.03648670,0.46948800,-0
 .01527350,-0.07058925,-0.00952761,0.04827436,0.32058117,-0.00120794,-0
 .00868556,-0.08055385,-0.00298813,0.08029695,0.38464789,-0.01519697,-0
 .00706823,0.05344944,-0.07210194,0.00243166,0.03451003,0.21423108,0.00
 679642,-0.00098943,-0.00614549,-0.00135161,-0.06829678,0.00724183,-0.2
 1979602,0.46040176,0.00719185,0.00304072,-0.02425196,0.03879320,0.0053
 7487,-0.17593893,-0.09213369,0.04525821,0.26450834,-0.02906250,-0.0350
 4553,-0.01845119,-0.09607152,-0.02053627,-0.01334113,-0.00015648,0.011
 23670,0.01334950,0.48244558,0.00153492,-0.00766058,0.00747372,-0.05606
 819,-0.15693185,-0.06784264,0.00468151,0.00369835,0.00765776,0.0035736
 4,0.50104010,-0.01249645,-0.00205301,0.00583471,-0.00361361,-0.0166238
 2,-0.09038677,-0.00450625,-0.03522013,-0.04154353,-0.05423275,-0.04796
 451,0.61854971,0.00041264,0.00064775,-0.00263445,-0.02331505,-0.014287
 02,-0.00615007,0.00035141,0.00015954,0.00066217,-0.17333072,0.05631643
 ,0.00436080,0.44776090,-0.00105336,-0.00291347,-0.00262840,-0.02864825
 ,0.00623577,0.00103011,-0.00007868,0.00062970,0.00064045,-0.01512495,-
 0.07535941,-0.00180927,0.06762636,0.29544296,-0.00118018,-0.00245656,-
 0.00249309,-0.02515354,-0.00332273,-0.00152767,0.00230920,0.00250368,0
 .00150961,0.00608643,0.00403265,-0.08712534,0.01056057,0.00270881,0.46
 107888,0.00015680,-0.00011879,0.00001752,-0.00019483,0.00056204,0.0006
 6692,-0.00372314,-0.00477859,-0.00277283,-0.02733458,-0.02582713,0.040
 94569,-0.10972452,-0.04145365,0.01413908,0.63686886,-0.00002766,0.0001
 7107,-0.00018205,-0.00202446,0.00002590,-0.00058138,-0.00362870,-0.001
 13332,-0.00136472,0.00873678,-0.00465942,0.00127814,-0.04403287,-0.099
 72415,0.06531105,0.02703241,0.24663917,0.00010838,-0.00004493,0.000026
 83,0.00085320,-0.00032215,0.00000819,-0.00099925,0.00004367,0.00089421
 ,0.00556761,0.00704842,-0.00334274,0.01744347,0.06094874,-0.13867053,0
 .08589867,0.07280470,0.52475476,0.00042387,-0.00183043,-0.00129046,-0.
 00787803,0.00219337,-0.00052796,0.00101546,-0.00002763,-0.00184098,-0.
 02268112,-0.02564345,-0.03582098,-0.08496288,-0.00025975,-0.00451998,0
 .00807919,0.00278172,0.00639307,0.23487525,-0.00010598,-0.00004713,-0.
 00091334,-0.00399858,0.00019106,-0.00007237,0.00016532,0.00030084,-0.0
 0017642,0.00397412,-0.00870538,-0.00215224,-0.05800843,-0.10957459,-0.
 05783893,0.01044594,0.00991169,0.02615874,-0.06920469,0.59815146,0.000
 21147,-0.00066789,-0.00037666,-0.00233528,0.00161130,0.00063242,-0.000
 75896,0.00005298,0.00101333,-0.01347761,-0.01224352,-0.01466347,-0.066
 75027,-0.02639495,-0.15803853,-0.01683273,-0.01808869,-0.05677301,-0.0
 1133141,-0.10369419,0.57041886,-0.07732298,-0.06891604,-0.04542981,-0.
 02332317,-0.02765979,-0.02300309,0.00301219,0.00077770,-0.00003558,-0.
 00566845,0.00186224,0.00308101,-0.00000520,-0.00139701,-0.00112661,-0.
 00007135,-0.00000671,0.00000253,-0.00091027,-0.00023747,-0.00025083,0.
 09573778,-0.07555717,-0.21252562,-0.10965195,0.00001212,0.00489365,0.0
 0203228,0.00079896,0.00069961,0.00125559,0.00018441,0.00091099,0.00024
 867,0.00042343,0.00035799,-0.00010887,0.00002825,-0.00000601,0.0000229
 5,-0.00010036,0.00000718,-0.00000539,0.08065500,0.22385655,-0.05261458
 ,-0.10877125,-0.11993036,0.00069342,0.00017177,-0.00215033,0.00018384,
 0.00117616,0.00115179,0.00031292,0.00075225,0.00015601,0.00021818,-0.0
 0030828,0.00053453,-0.00025398,-0.00002662,-0.00002327,-0.00003859,-0.
 00002563,0.00004074,0.05739357,0.11869472,0.12566966,-0.06720681,0.055
 00064,-0.02614353,-0.02997306,0.03233240,-0.01808432,0.00418255,-0.002
 19344,-0.00133985,0.00285399,0.00675466,0.00217093,-0.00038686,-0.0009
 5098,0.00000025,-0.00010046,-0.00017299,0.00002853,-0.00009509,-0.0002
 8899,0.00004718,0.00431820,-0.00893488,0.00513198,0.08174527,0.0558656
 2,-0.23044610,0.08594216,0.00964630,-0.00034389,0.00197049,-0.00025310
 ,0.00123500,-0.00173800,-0.00185580,0.00236835,-0.00174422,-0.00020587
 ,-0.00003289,-0.00012240,0.00008559,0.00001951,0.00001716,0.00018765,0
 .00005284,-0.00001113,0.00625768,-0.02074851,0.01162066,-0.06970238,0.
 24750200,-0.02862161,0.08598887,-0.09265817,-0.00202576,0.00041605,0.0
 0038165,-0.00122421,-0.00153459,0.00341017,0.00021996,0.00163188,-0.00
 012746,0.00018944,-0.00056494,0.00012146,-0.00006877,-0.00003549,-0.00
 002209,-0.00007613,0.00000132,-0.00004269,0.00501817,-0.01483948,0.007
 24117,0.03521050,-0.09658380,0.09311340,-0.07514065,-0.00466928,0.0700
 8834,-0.00941717,0.00003735,0.03302814,-0.00840580,0.00105984,0.003581
 70,0.00035820,-0.00066840,0.00088178,0.00017896,0.00028926,-0.00016710
 ,0.00012244,-0.00001746,-0.00008692,0.00008124,0.00002418,-0.00006636,
 0.00456670,0.00203099,-0.01111027,0.00375052,-0.00064152,-0.00855171,0
 .08534686,-0.00450952,-0.04861308,0.01522868,0.00026269,-0.00176320,-0
 .00289807,0.00168073,0.00180501,-0.00034627,-0.00033405,-0.00004883,0.
 00007485,0.00008601,-0.00006858,-0.00000971,0.00006371,0.00000756,-0.0
 0001072,0.00006201,0.00002283,-0.00001640,0.00902516,0.00240847,-0.022
 88592,-0.00913935,-0.00057865,0.02598086,0.00414848,0.04667810,0.07935
 786,0.01449822,-0.28417311,0.00104493,-0.00039887,-0.00129718,0.000659
 28,-0.00032793,0.00256969,-0.00104097,-0.00080249,-0.00152519,0.000270
 69,0.00002106,0.00063839,-0.00012933,0.00006362,-0.00000774,0.00007621
 ,0.00006174,0.00007928,0.00467341,0.00233767,-0.01368983,0.00330487,-0
 .00056325,-0.01100064,-0.08762110,-0.01497246,0.30742633,-0.00238577,0
 .00201582,0.00370254,-0.00635995,0.00681957,0.00150171,-0.12325457,0.2
 0927328,0.03862029,0.00218033,-0.00085597,-0.00039828,0.00008670,0.000
 40240,-0.00026740,-0.00103273,0.00027100,0.00026893,-0.00051613,0.0001
 2733,0.00016061,-0.00050014,-0.00016038,0.00020143,0.00058175,-0.00050
 159,0.00008098,-0.00089404,-0.00057049,0.00019062,0.13187363,0.0002314
 1,0.00099381,0.00163278,-0.00667682,0.00674193,0.00766042,0.22245211,-
 0.39622472,-0.05216121,0.00046826,-0.00158757,-0.00081611,0.00035306,-
 0.00008834,-0.00041055,-0.00021252,0.00048056,0.00028382,0.00004574,0.
 00012509,0.00011958,-0.00024985,-0.00032578,-0.00023027,-0.00057273,0.
 00009316,-0.00020055,-0.00088857,-0.00000265,0.00027448,-0.21454099,0.
 39048673,0.00188456,-0.00026153,-0.00465658,0.02389584,-0.03611772,-0.
 01943388,0.01470618,-0.00614073,-0.03475029,0.00383318,-0.00127218,-0.
 00604168,0.00001252,0.00017031,0.00037420,0.00005743,0.00021504,0.0000
 5165,-0.00016750,0.00035865,-0.00004153,-0.00018467,-0.00003855,0.0003
 7018,-0.00045149,0.00010716,-0.00028948,0.00094969,-0.00002564,0.00005
 530,-0.04341385,0.04362940,0.06448709,-0.00085014,-0.00041589,-0.00072
 681,0.00523852,0.00219413,-0.00960098,0.00078015,-0.00299703,-0.003149
 60,-0.07677233,-0.00457878,0.07862028,-0.01704698,-0.00415144,0.030241
 14,-0.00717767,0.00219955,-0.00124709,0.00307347,0.00012014,0.00276378
 ,0.00019978,0.00022593,-0.00007645,-0.00005142,-0.00004457,0.00000756,
 -0.00077646,-0.00065547,-0.00070335,-0.00025419,-0.00020088,-0.0007666
 6,0.09215943,-0.00017450,0.00077695,-0.00003451,0.00929041,-0.00104626
 ,-0.02625655,-0.00146821,-0.00355663,-0.00612520,-0.00634062,-0.050593
 59,0.02488171,0.00168991,-0.00065139,-0.00370284,-0.00172529,0.0001335
 6,0.00033128,-0.00116478,0.00053360,-0.00018737,0.00040984,-0.00007138
 ,0.00013099,-0.00030781,-0.00007505,0.00014826,-0.00072304,0.00014895,
 -0.00021226,-0.00018319,0.00038836,-0.00075603,0.01004579,0.05391195,0
 .00121611,0.00079258,-0.00053314,0.00643090,-0.00008506,-0.01896625,-0
 .00118797,-0.00426376,-0.00099849,0.08415962,0.01705219,-0.27793211,-0
 .00075533,0.00088675,-0.00143128,0.00016990,-0.00131906,0.00145119,-0.
 00434535,-0.00063716,0.00204497,-0.00016832,-0.00004787,0.00056517,-0.
 00013231,0.00006022,-0.00012763,-0.00072351,-0.00025106,0.00087225,-0.
 00054371,0.00001528,-0.00095995,-0.08827515,-0.01317213,0.30459584,0.0
 0376501,-0.00233479,0.00110890,0.00072708,-0.01717338,0.00264937,0.000
 16804,0.00165542,0.00013559,-0.06138850,0.04516749,-0.02197453,-0.0289
 8570,0.03362387,-0.01429711,0.00498591,0.00010238,-0.00281220,0.000131
 34,0.00183332,0.00300065,-0.00001784,0.00035339,-0.00014198,0.00030337
 ,0.00130307,-0.00029027,-0.00007398,-0.00000414,0.00003792,-0.00032395
 ,0.00009933,0.00013439,0.00394962,-0.00853526,0.00415094,0.07508668,0.
 00429624,0.00021034,0.00022993,-0.00291772,-0.03961239,0.00429743,-0.0
 0004449,0.00410653,0.00031725,0.04831720,-0.20814097,0.07838975,0.0065
 3925,-0.00546111,0.00286716,-0.00158891,0.00309572,-0.00169819,0.00052
 007,0.00162047,0.00116777,-0.00044787,0.00059427,-0.00032083,-0.001951
 92,0.00108434,-0.00053067,-0.00024632,0.00004258,0.00009904,-0.0002184
 4,0.00086275,0.00065107,0.00032379,0.00037206,0.00045277,-0.05375075,0
 .24211200,0.00274585,-0.00105001,0.00040390,-0.00070305,-0.02271715,0.
 00567111,-0.00004176,0.00130057,0.00439060,-0.02286853,0.08261914,-0.0
 9606592,-0.00334586,0.00489818,0.00121884,0.00113875,-0.00338430,0.000
 54396,0.00023356,0.00049090,0.00149766,-0.00002449,0.00010754,0.000013
 29,0.00036091,0.00106258,-0.00002374,-0.00021138,0.00012327,-0.0000630
 7,-0.00009838,0.00006375,0.00005058,-0.00773255,0.02455118,-0.00942217
 ,0.02930878,-0.08723743,0.09202690,-0.00061986,-0.00003230,-0.00060955
 ,-0.00163971,-0.00024619,0.00227846,-0.00079313,0.00010534,-0.00184970
 ,0.00174357,0.00013416,0.00260507,0.00612142,0.00545802,0.01439134,-0.
 11463314,-0.06489406,-0.10736462,-0.00068009,-0.00135114,0.00405972,-0
 .00011997,-0.00003359,0.00004873,0.00005086,-0.00003988,0.00014401,0.0
 0032898,-0.00006001,-0.00016183,0.00090147,-0.00003171,-0.00049462,-0.
 00008620,0.00010813,-0.00058249,-0.00083196,0.00084614,0.00018758,0.12
 460161,-0.00038172,0.00010786,-0.00054436,-0.00035958,-0.00044645,0.00
 196756,0.00109921,-0.00178280,-0.00187934,0.00002039,0.00386403,0.0001
 0420,0.00966914,0.00448248,0.02354518,-0.09560600,-0.10803885,-0.16572
 494,-0.00114457,-0.00170774,0.00339280,-0.00007446,-0.00006238,0.00004
 933,0.00014962,-0.00009517,0.00012258,0.00025111,-0.00006234,-0.000085
 56,-0.00181090,-0.00208076,-0.00050645,0.00004654,-0.00061458,0.000017
 72,0.00045467,-0.00094650,-0.00012308,0.07851121,0.10689238,0.00006910
 ,0.00008120,-0.00031620,0.00128586,0.00095154,-0.00029524,-0.00342961,
 -0.00272539,-0.00254896,0.00196524,-0.00032780,-0.00022529,-0.01446757
 ,-0.01648177,-0.02740952,-0.10965562,-0.11152106,-0.27116349,0.0012545
 9,0.00470376,-0.00805474,-0.00004204,-0.00002251,0.00000152,-0.0000512
 7,0.00004631,0.00003535,0.00008536,0.00001398,0.00001270,0.00001635,0.
 00014409,0.00053851,-0.00046037,-0.00021040,-0.00000401,0.00022209,0.0
 0004188,0.00009916,0.11958790,0.12766143,0.30869627,0.00008380,-0.0001
 1947,-0.00003067,-0.00003942,0.00010351,0.00038575,0.00005122,-0.00031
 129,-0.00032145,-0.00115950,-0.00101588,0.00313578,-0.01618399,0.00314
 254,0.00024497,-0.38504618,0.07289336,-0.00620685,0.00146887,0.0011493
 1,-0.00006967,-0.00003002,-0.00000728,-0.00004045,0.00002104,0.0000051
 3,0.00000619,0.00003903,0.00000902,-0.00000254,-0.00030377,-0.00014826
 ,-0.00001879,-0.00075774,-0.00032747,0.00019280,0.00070536,-0.00074471
 ,0.00038321,-0.01500578,0.00923541,0.00283568,0.41634429,-0.00014741,-
 0.00005559,-0.00005657,0.00011098,0.00052145,-0.00012994,-0.00064650,-
 0.00075412,-0.00010343,-0.00061557,-0.00183927,0.00360599,-0.02838926,
 0.00104606,0.00363827,0.13380085,-0.05151201,0.00539304,0.00047807,0.0
 0009821,-0.00039738,-0.00000471,0.00001440,-0.00002008,0.00000610,-0.0
 0002247,-0.00001780,0.00004909,0.00000788,-0.00002684,-0.00021888,-0.0
 0002520,-0.00012958,-0.00123507,0.00051137,-0.00027546,-0.00074526,0.0
 0034439,0.00011143,-0.01918080,-0.00036614,-0.00144562,-0.08351078,0.0
 5284087,0.00007461,0.00013534,0.00007721,0.00024455,-0.00030228,-0.000
 95494,-0.00122775,-0.00113854,0.00011832,0.00291071,0.00232303,-0.0064
 6211,0.03873496,-0.00168156,-0.00509705,-0.00767618,0.00181154,-0.0555
 0959,0.00011631,-0.00089114,0.00195039,0.00006003,0.00000900,0.0000508
 7,-0.00000257,-0.00001402,-0.00000858,-0.00005813,-0.00000368,0.000089
 70,-0.00020190,-0.00009173,0.00012413,0.00205639,0.00026772,-0.0001286
 9,-0.00033692,-0.00003429,-0.00003678,-0.03369077,0.01010095,0.0025756
 6,-0.00044768,-0.01023235,0.06328964,-0.00012432,0.00005616,0.00004824
 ,0.00016963,-0.00018508,0.00021534,0.00021652,0.00037342,0.00050244,-0
 .00001013,0.00133109,-0.00310416,-0.00536575,0.00293662,-0.02339450,-0
 .00008488,-0.00047588,0.00077089,-0.02801972,-0.06377357,0.09281702,0.
 00007232,0.00000549,0.00005693,0.00005426,-0.00004528,0.00002247,-0.00
 004560,-0.00003139,0.00001214,0.00005386,-0.00011308,0.00000346,-0.001
 11178,-0.00015008,0.00025084,-0.00001668,0.00018608,0.00052734,0.00046
 306,0.00044353,0.00052816,0.00037163,-0.00043831,-0.00043288,0.0364924
 6,-0.00000095,-0.00007509,-0.00002214,0.00005917,0.00008500,-0.0001624
 4,-0.00002832,-0.00016997,-0.00011035,-0.00007404,-0.00001551,-0.00066
 966,0.00213801,0.00924947,-0.02039614,-0.00167224,-0.00002371,-0.00329
 338,-0.03363248,-0.19148961,0.17300454,-0.00003526,-0.00001259,-0.0000
 1908,0.00001958,-0.00001201,0.00001623,-0.00000175,0.00003141,-0.00000
 318,-0.00002748,0.00006375,-0.00005473,0.00031982,0.00024610,-0.000009
 93,-0.00017649,0.00009372,0.00005418,0.00018145,0.00129619,-0.00125865
 ,-0.00027953,-0.00023571,0.00013530,0.04450324,0.19836456,-0.00007289,
 0.00004765,0.00008610,0.00037715,-0.00001592,0.00020808,-0.00026783,-0
 .00004626,0.00046414,0.00052695,0.00109572,-0.00058148,0.01198114,0.01
 814751,-0.02866307,-0.00541661,-0.00481173,-0.00671863,0.04248681,0.16
 481497,-0.27503803,0.00005588,0.00000984,0.00001862,0.00004968,-0.0000
 3679,0.00000572,-0.00003675,-0.00001234,0.00000975,0.00007123,0.000023
 76,-0.00003242,-0.00072036,0.00005086,0.00074369,-0.00004400,0.0001128
 1,0.00013137,0.00170829,0.00108158,-0.00186834,-0.00007518,-0.00001575
 ,0.00018303,-0.05334104,-0.17581984,0.30592333,-0.00037478,0.00008637,
 -0.00001177,-0.00073977,0.00041285,-0.00033210,-0.00037659,0.00001795,
 0.00060694,0.00405416,-0.00669835,0.00034565,0.00439560,-0.02036100,-0
 .00786655,-0.00108972,0.00126360,0.00138164,-0.10340535,0.17912918,0.0
 0881269,0.00006242,0.00007569,0.00003528,-0.00004810,-0.00006104,-0.00
 004081,-0.00001922,-0.00003340,0.00003120,0.00014750,-0.00001450,0.000
 02032,-0.00051604,-0.00044384,0.00014301,0.00181620,0.00088236,0.00014
 001,0.00019887,-0.00050358,0.00025616,-0.00055886,0.00068745,-0.000122
 78,-0.00311490,-0.01129273,0.00271755,0.09956859,-0.00000687,0.0001503
 1,-0.00013403,0.00015922,-0.00024584,0.00013188,-0.00029724,0.00003097
 ,0.00046008,0.00341533,0.00366055,0.00046967,-0.00072544,-0.02357052,-
 0.01623806,0.00096434,0.00461271,-0.00195821,0.12673949,-0.29949082,-0
 .01764206,0.00004153,0.00000916,0.00001211,-0.00004755,-0.00000046,0.0
 0000128,-0.00003394,-0.00001546,0.00003700,0.00017890,0.00009889,0.000
 17154,-0.00119658,-0.00041403,0.00078399,-0.00187287,-0.00037822,-0.00
 087074,0.00052521,-0.00043924,0.00034900,-0.00007359,-0.00057412,-0.00
 039330,0.01537704,-0.01739600,-0.00462606,-0.14314700,0.33396211,-0.00
 006610,0.00007301,-0.00017895,-0.00031297,0.00061085,-0.00004427,-0.00
 004071,-0.00003428,0.00000194,0.00448006,-0.00123362,0.00148269,0.0096
 6960,-0.03958274,-0.01501984,-0.00022790,-0.00016897,0.00450032,0.0093
 9879,-0.03018864,-0.06464899,-0.00001916,-0.00000364,-0.00001976,-0.00
 009949,-0.00001313,-0.00000843,0.00001819,0.00001063,0.00000337,0.0001
 0882,0.00006306,0.00015417,-0.00022977,0.00029527,0.00023061,-0.000851
 61,0.00119455,-0.00043567,-0.00025753,0.00082043,-0.00007336,0.0000289
 1,0.00010206,-0.00026120,-0.01548269,0.02860927,0.00512814,-0.00611645
 ,0.03944590,0.06918921\\-0.00000951,-0.00000007,-0.00002341,-0.0000094
 2,-0.00000134,0.00001880,-0.00000172,0.00000258,-0.00001192,0.00005161
 ,-0.00002619,0.00001167,-0.00002435,0.00005534,0.00000401,-0.00000238,
 -0.00002872,0.00000313,-0.00001288,-0.00005712,-0.00000656,0.00000203,
 -0.00000117,0.00000278,0.00000121,0.00000124,0.00000107,0.00000998,-0.
 00000228,-0.00000117,-0.00000169,0.00000356,0.00000597,-0.00000247,-0.
 00000196,0.00000637,-0.00000450,0.00001314,-0.00001032,-0.00000457,0.0
 0000380,0.00000421,0.00000210,0.00000902,-0.00000510,0.00000839,0.0000
 0996,0.00000643,-0.00000184,0.00002021,-0.00000595\\\@


 NATURE REVEALS EVERY SECRET ONCE.
                    - RALPH WALDO EMERSON
 Job cpu time:       0 days  1 hours  2 minutes 56.6 seconds.
 Elapsed time:       0 days  0 hours 15 minutes 46.1 seconds.
 File lengths (MBytes):  RWF=     89 Int=      0 D2E=      0 Chk=      6 Scr=      1
 Normal termination of Gaussian 16 at Tue Jun  1 16:19:40 2021.
### All Done ###
