### Starting Gaussian ###
 Entering Gaussian System, Link 0=g16
 Initial command:
 /cluster/software/gaussian/gaussian-16-A.03/avx2/g16/l1.exe "/local/scratch/yxie/Gau-9543.inp" -scrdir="/local/scratch/yxie/"
 Entering Link 1 = /cluster/software/gaussian/gaussian-16-A.03/avx2/g16/l1.exe PID=      9546.
  
 Copyright (c) 1988,1990,1992,1993,1995,1998,2003,2009,2016,
            Gaussian, Inc.  All Rights Reserved.
  
 This is part of the Gaussian(R) 16 program.  It is based on
 the Gaussian(R) 09 system (copyright 2009, Gaussian, Inc.),
 the Gaussian(R) 03 system (copyright 2003, Gaussian, Inc.),
 the Gaussian(R) 98 system (copyright 1998, Gaussian, Inc.),
 the Gaussian(R) 94 system (copyright 1995, Gaussian, Inc.),
 the Gaussian 92(TM) system (copyright 1992, Gaussian, Inc.),
 the Gaussian 90(TM) system (copyright 1990, Gaussian, Inc.),
 the Gaussian 88(TM) system (copyright 1988, Gaussian, Inc.),
 the Gaussian 86(TM) system (copyright 1986, Carnegie Mellon
 University), and the Gaussian 82(TM) system (copyright 1983,
 Carnegie Mellon University). Gaussian is a federally registered
 trademark of Gaussian, Inc.
  
 This software contains proprietary and confidential information,
 including trade secrets, belonging to Gaussian, Inc.
  
 This software is provided under written license and may be
 used, copied, transmitted, or stored only in accord with that
 written license.
  
 The following legend is applicable only to US Government
 contracts under FAR:
  
                    RESTRICTED RIGHTS LEGEND
  
 Use, reproduction and disclosure by the US Government is
 subject to restrictions as set forth in subparagraphs (a)
 and (c) of the Commercial Computer Software - Restricted
 Rights clause in FAR 52.227-19.
  
 Gaussian, Inc.
 340 Quinnipiac St., Bldg. 40, Wallingford CT 06492
  
  
 ---------------------------------------------------------------
 Warning -- This program may not be used in any manner that
 competes with the business of Gaussian, Inc. or will provide
 assistance to any competitor of Gaussian, Inc.  The licensee
 of this program is prohibited from giving any competitor of
 Gaussian, Inc. access to this program.  By using this program,
 the user acknowledges that Gaussian, Inc. is engaged in the
 business of creating and licensing software in the field of
 computational chemistry and represents and warrants to the
 licensee that it is not a competitor of Gaussian, Inc. and that
 it will not use this program in any manner prohibited above.
 ---------------------------------------------------------------
  

 Cite this work as:
 Gaussian 16, Revision A.03,
 M. J. Frisch, G. W. Trucks, H. B. Schlegel, G. E. Scuseria, 
 M. A. Robb, J. R. Cheeseman, G. Scalmani, V. Barone, 
 G. A. Petersson, H. Nakatsuji, X. Li, M. Caricato, A. V. Marenich, 
 J. Bloino, B. G. Janesko, R. Gomperts, B. Mennucci, H. P. Hratchian, 
 J. V. Ortiz, A. F. Izmaylov, J. L. Sonnenberg, D. Williams-Young, 
 F. Ding, F. Lipparini, F. Egidi, J. Goings, B. Peng, A. Petrone, 
 T. Henderson, D. Ranasinghe, V. G. Zakrzewski, J. Gao, N. Rega, 
 G. Zheng, W. Liang, M. Hada, M. Ehara, K. Toyota, R. Fukuda, 
 J. Hasegawa, M. Ishida, T. Nakajima, Y. Honda, O. Kitao, H. Nakai, 
 T. Vreven, K. Throssell, J. A. Montgomery, Jr., J. E. Peralta, 
 F. Ogliaro, M. J. Bearpark, J. J. Heyd, E. N. Brothers, K. N. Kudin, 
 V. N. Staroverov, T. A. Keith, R. Kobayashi, J. Normand, 
 K. Raghavachari, A. P. Rendell, J. C. Burant, S. S. Iyengar, 
 J. Tomasi, M. Cossi, J. M. Millam, M. Klene, C. Adamo, R. Cammi, 
 J. W. Ochterski, R. L. Martin, K. Morokuma, O. Farkas, 
 J. B. Foresman, and D. J. Fox, Gaussian, Inc., Wallingford CT, 2016.
 
 ******************************************
 Gaussian 16:  ES64L-G16RevA.03 25-Dec-2016
                31-May-2021 
 ******************************************
 %chk=CtCCCCpCpCpNpN.chk
 %NProcShared=20
 Will use up to   20 processors via shared memory.
 -----------------------------
 # opt freq b3lyp/6-31g(2df,p)
 -----------------------------
 1/18=20,19=15,26=3,38=1/1,3;
 2/9=110,12=2,17=6,18=5,40=1/2;
 3/5=1,6=6,7=104,11=2,25=1,30=1,71=1,74=-5/1,2,3;
 4//1;
 5/5=2,38=5/2;
 6/7=2,8=2,9=2,10=2,28=1/1;
 7//1,2,3,16;
 1/18=20,19=15,26=3/3(2);
 2/9=110/2;
 99//99;
 2/9=110/2;
 3/5=1,6=6,7=104,11=2,25=1,30=1,71=1,74=-5/1,2,3;
 4/5=5,16=3,69=1/1;
 5/5=2,38=5/2;
 7//1,2,3,16;
 1/18=20,19=15,26=3/3(-5);
 2/9=110/2;
 6/7=2,8=2,9=2,10=2,19=2,28=1/1;
 99/9=1/99;
 -------------------
 Title Card Required
 -------------------
 Symbolic Z-matrix:
 Charge =  0 Multiplicity = 1
 C                     0.90383   0.0049    0.02698 
 C                     2.20769   0.0049    0.02698 
 C                     3.72769   0.0049    0.02698 
 C                     4.25268  -1.31578  -0.49146 
 C                     5.79066  -1.34651  -0.48732 
 C                     6.33454  -1.13659   0.93698 
 C                     6.30344  -2.6796   -1.06699 
 N                     5.93665  -2.89289  -2.44166 
 N                     7.73754  -2.71026  -1.11962 
 H                    -0.16192   0.0056    0.02841 
 H                     4.0286    0.19252   1.06145 
 H                     4.08363   0.83935  -0.58733 
 H                     3.86445  -1.45856  -1.50776 
 H                     3.85469  -2.14344   0.11024 
 H                     6.14881  -0.51403  -1.11016 
 H                     5.96178  -1.91387   1.61251 
 H                     6.0463   -0.164     1.34563 
 H                     7.42746  -1.15576   0.95724 
 H                     5.94088  -3.51199  -0.45529 
 H                     6.14846  -2.06186  -2.98534 
 H                     4.92305  -2.99872  -2.50219 
 H                     8.06404  -1.97183  -1.73131 
 H                     7.99512  -3.58269  -1.57743 
 

 GradGradGradGradGradGradGradGradGradGradGradGradGradGradGradGradGradGrad
 Berny optimization.
 Initialization pass.
                           ----------------------------
                           !    Initial Parameters    !
                           ! (Angstroms and Degrees)  !
 --------------------------                            --------------------------
 ! Name  Definition              Value          Derivative Info.                !
 --------------------------------------------------------------------------------
 ! R1    R(1,2)                  1.3039         estimate D2E/DX2                !
 ! R2    R(1,10)                 1.0658         estimate D2E/DX2                !
 ! R3    R(2,3)                  1.52           estimate D2E/DX2                !
 ! R4    R(3,4)                  1.5128         estimate D2E/DX2                !
 ! R5    R(3,11)                 1.0936         estimate D2E/DX2                !
 ! R6    R(3,12)                 1.0956         estimate D2E/DX2                !
 ! R7    R(4,5)                  1.5383         estimate D2E/DX2                !
 ! R8    R(4,13)                 1.0973         estimate D2E/DX2                !
 ! R9    R(4,14)                 1.0979         estimate D2E/DX2                !
 ! R10   R(5,6)                  1.539          estimate D2E/DX2                !
 ! R11   R(5,7)                  1.5415         estimate D2E/DX2                !
 ! R12   R(5,15)                 1.0996         estimate D2E/DX2                !
 ! R13   R(6,16)                 1.0952         estimate D2E/DX2                !
 ! R14   R(6,17)                 1.0936         estimate D2E/DX2                !
 ! R15   R(6,18)                 1.0933         estimate D2E/DX2                !
 ! R16   R(7,8)                  1.4387         estimate D2E/DX2                !
 ! R17   R(7,9)                  1.4354         estimate D2E/DX2                !
 ! R18   R(7,19)                 1.0948         estimate D2E/DX2                !
 ! R19   R(8,20)                 1.0154         estimate D2E/DX2                !
 ! R20   R(8,21)                 1.0209         estimate D2E/DX2                !
 ! R21   R(9,22)                 1.0129         estimate D2E/DX2                !
 ! R22   R(9,23)                 1.0184         estimate D2E/DX2                !
 ! A1    A(2,3,4)              110.3058         estimate D2E/DX2                !
 ! A2    A(2,3,11)             105.9719         estimate D2E/DX2                !
 ! A3    A(2,3,12)             108.9581         estimate D2E/DX2                !
 ! A4    A(4,3,11)             112.239          estimate D2E/DX2                !
 ! A5    A(4,3,12)             111.1005         estimate D2E/DX2                !
 ! A6    A(11,3,12)            108.0794         estimate D2E/DX2                !
 ! A7    A(3,4,5)              111.3139         estimate D2E/DX2                !
 ! A8    A(3,4,13)             107.9525         estimate D2E/DX2                !
 ! A9    A(3,4,14)             110.1507         estimate D2E/DX2                !
 ! A10   A(5,4,13)             110.7101         estimate D2E/DX2                !
 ! A11   A(5,4,14)             110.2357         estimate D2E/DX2                !
 ! A12   A(13,4,14)            106.3346         estimate D2E/DX2                !
 ! A13   A(4,5,6)              110.6767         estimate D2E/DX2                !
 ! A14   A(4,5,7)              110.4174         estimate D2E/DX2                !
 ! A15   A(4,5,15)             107.9979         estimate D2E/DX2                !
 ! A16   A(6,5,7)              110.3913         estimate D2E/DX2                !
 ! A17   A(6,5,15)             107.8079         estimate D2E/DX2                !
 ! A18   A(7,5,15)             109.4733         estimate D2E/DX2                !
 ! A19   A(5,6,16)             110.7172         estimate D2E/DX2                !
 ! A20   A(5,6,17)             111.9613         estimate D2E/DX2                !
 ! A21   A(5,6,18)             111.595          estimate D2E/DX2                !
 ! A22   A(16,6,17)            108.1185         estimate D2E/DX2                !
 ! A23   A(16,6,18)            108.4437         estimate D2E/DX2                !
 ! A24   A(17,6,18)            105.7921         estimate D2E/DX2                !
 ! A25   A(5,7,8)              113.7489         estimate D2E/DX2                !
 ! A26   A(5,7,9)              111.3842         estimate D2E/DX2                !
 ! A27   A(5,7,19)             109.7107         estimate D2E/DX2                !
 ! A28   A(8,7,9)              102.5048         estimate D2E/DX2                !
 ! A29   A(8,7,19)             109.6784         estimate D2E/DX2                !
 ! A30   A(9,7,19)             109.5802         estimate D2E/DX2                !
 ! A31   A(7,8,20)             109.7            estimate D2E/DX2                !
 ! A32   A(7,8,21)             108.9746         estimate D2E/DX2                !
 ! A33   A(20,8,21)            105.0817         estimate D2E/DX2                !
 ! A34   A(7,9,22)             109.1844         estimate D2E/DX2                !
 ! A35   A(7,9,23)             106.7077         estimate D2E/DX2                !
 ! A36   A(22,9,23)            105.7551         estimate D2E/DX2                !
 ! A37   L(2,1,10,21,-1)       180.0783         estimate D2E/DX2                !
 ! A38   L(1,2,3,21,-1)        180.0            estimate D2E/DX2                !
 ! A39   L(2,1,10,21,-2)       179.9505         estimate D2E/DX2                !
 ! A40   L(1,2,3,21,-2)        180.0            estimate D2E/DX2                !
 ! D1    D(2,3,4,5)           -179.397          estimate D2E/DX2                !
 ! D2    D(2,3,4,13)            58.9048         estimate D2E/DX2                !
 ! D3    D(2,3,4,14)           -56.8048         estimate D2E/DX2                !
 ! D4    D(11,3,4,5)           -61.4745         estimate D2E/DX2                !
 ! D5    D(11,3,4,13)          176.8273         estimate D2E/DX2                !
 ! D6    D(11,3,4,14)           61.1176         estimate D2E/DX2                !
 ! D7    D(12,3,4,5)            59.6668         estimate D2E/DX2                !
 ! D8    D(12,3,4,13)          -62.0314         estimate D2E/DX2                !
 ! D9    D(12,3,4,14)         -177.7411         estimate D2E/DX2                !
 ! D10   D(3,4,5,6)             59.5328         estimate D2E/DX2                !
 ! D11   D(3,4,5,7)           -177.9287         estimate D2E/DX2                !
 ! D12   D(3,4,5,15)           -58.2623         estimate D2E/DX2                !
 ! D13   D(13,4,5,6)           179.6137         estimate D2E/DX2                !
 ! D14   D(13,4,5,7)           -57.8477         estimate D2E/DX2                !
 ! D15   D(13,4,5,15)           61.8187         estimate D2E/DX2                !
 ! D16   D(14,4,5,6)           -63.0105         estimate D2E/DX2                !
 ! D17   D(14,4,5,7)            59.5281         estimate D2E/DX2                !
 ! D18   D(14,4,5,15)          179.1945         estimate D2E/DX2                !
 ! D19   D(4,5,6,16)            59.1026         estimate D2E/DX2                !
 ! D20   D(4,5,6,17)           -61.6283         estimate D2E/DX2                !
 ! D21   D(4,5,6,18)           179.9989         estimate D2E/DX2                !
 ! D22   D(7,5,6,16)           -63.4511         estimate D2E/DX2                !
 ! D23   D(7,5,6,17)           175.8179         estimate D2E/DX2                !
 ! D24   D(7,5,6,18)            57.4451         estimate D2E/DX2                !
 ! D25   D(15,5,6,16)          177.0138         estimate D2E/DX2                !
 ! D26   D(15,5,6,17)           56.2829         estimate D2E/DX2                !
 ! D27   D(15,5,6,18)          -62.0899         estimate D2E/DX2                !
 ! D28   D(4,5,7,8)             62.582          estimate D2E/DX2                !
 ! D29   D(4,5,7,9)            177.817          estimate D2E/DX2                !
 ! D30   D(4,5,7,19)           -60.6768         estimate D2E/DX2                !
 ! D31   D(6,5,7,8)           -174.7124         estimate D2E/DX2                !
 ! D32   D(6,5,7,9)            -59.4774         estimate D2E/DX2                !
 ! D33   D(6,5,7,19)            62.0288         estimate D2E/DX2                !
 ! D34   D(15,5,7,8)           -56.1896         estimate D2E/DX2                !
 ! D35   D(15,5,7,9)            59.0454         estimate D2E/DX2                !
 ! D36   D(15,5,7,19)         -179.4485         estimate D2E/DX2                !
 ! D37   D(5,7,8,20)            48.3405         estimate D2E/DX2                !
 ! D38   D(5,7,8,21)           -66.2016         estimate D2E/DX2                !
 ! D39   D(9,7,8,20)           -72.0317         estimate D2E/DX2                !
 ! D40   D(9,7,8,21)           173.4262         estimate D2E/DX2                !
 ! D41   D(19,7,8,20)          171.617          estimate D2E/DX2                !
 ! D42   D(19,7,8,21)           57.0749         estimate D2E/DX2                !
 ! D43   D(5,7,9,22)           -61.7723         estimate D2E/DX2                !
 ! D44   D(5,7,9,23)          -175.6383         estimate D2E/DX2                !
 ! D45   D(8,7,9,22)            60.2236         estimate D2E/DX2                !
 ! D46   D(8,7,9,23)           -53.6423         estimate D2E/DX2                !
 ! D47   D(19,7,9,22)          176.6456         estimate D2E/DX2                !
 ! D48   D(19,7,9,23)           62.7797         estimate D2E/DX2                !
 --------------------------------------------------------------------------------
 Trust Radius=3.00D-01 FncErr=1.00D-07 GrdErr=1.00D-06 EigMax=2.50D+02 EigMin=1.00D-04
 Number of steps in this run=    120 maximum allowed number of steps=    138.
 GradGradGradGradGradGradGradGradGradGradGradGradGradGradGradGradGradGrad

                          Input orientation:                          
 ---------------------------------------------------------------------
 Center     Atomic      Atomic             Coordinates (Angstroms)
 Number     Number       Type             X           Y           Z
 ---------------------------------------------------------------------
      1          6           0        0.903830    0.004900    0.026980
      2          6           0        2.207690    0.004900    0.026980
      3          6           0        3.727690    0.004900    0.026980
      4          6           0        4.252680   -1.315780   -0.491460
      5          6           0        5.790660   -1.346510   -0.487320
      6          6           0        6.334540   -1.136590    0.936980
      7          6           0        6.303440   -2.679600   -1.066990
      8          7           0        5.936650   -2.892890   -2.441660
      9          7           0        7.737540   -2.710260   -1.119620
     10          1           0       -0.161920    0.005600    0.028410
     11          1           0        4.028600    0.192520    1.061450
     12          1           0        4.083630    0.839350   -0.587330
     13          1           0        3.864450   -1.458560   -1.507760
     14          1           0        3.854690   -2.143440    0.110240
     15          1           0        6.148810   -0.514030   -1.110160
     16          1           0        5.961780   -1.913870    1.612510
     17          1           0        6.046300   -0.164000    1.345630
     18          1           0        7.427460   -1.155760    0.957240
     19          1           0        5.940880   -3.511990   -0.455290
     20          1           0        6.148460   -2.061860   -2.985340
     21          1           0        4.923050   -2.998720   -2.502190
     22          1           0        8.064040   -1.971830   -1.731310
     23          1           0        7.995120   -3.582690   -1.577430
 ---------------------------------------------------------------------
                    Distance matrix (angstroms):
                    1          2          3          4          5
     1  C    0.000000
     2  C    1.303860   0.000000
     3  C    2.823860   1.520000   0.000000
     4  C    3.637000   2.488968   1.512809   0.000000
     5  C    5.096265   3.863740   2.519258   1.538293   0.000000
     6  C    5.623496   4.377441   2.987769   2.531144   1.538994
     7  C    6.128548   5.017816   3.877860   2.529201   1.541457
     8  N    6.310360   5.328838   4.401236   3.020978   2.496407
     9  N    7.442202   6.266261   4.976513   3.805707   2.459666
    10  H    1.065751   2.369611   3.889610   4.637349   6.125960
    11  H    3.296895   2.102628   1.093561   2.176398   2.805736
    12  H    3.344370   2.143090   1.095617   2.163875   2.775236
    13  H    3.641760   2.691096   2.125052   1.097258   2.182691
    14  H    3.651010   2.708303   2.153701   1.097934   2.177190
    15  H    5.391863   4.134586   2.724738   2.149628   1.099647
    16  H    5.637237   4.504306   3.344659   2.775865   2.181849
    17  H    5.311531   4.062301   2.672699   2.813995   2.196221
    18  H    6.691058   5.427570   3.987582   3.493360   2.191404
    19  H    6.162221   5.151486   4.183218   2.770319   2.170920
    20  H    6.391534   5.373568   4.382430   3.220257   2.622947
    21  H    5.618947   4.774056   4.104549   2.706422   2.746315
    22  H    7.633325   6.426187   5.079663   4.061292   2.665857
    23  H    8.107486   6.995661   5.801370   4.508222   3.323926
                    6          7          8          9         10
     6  C    0.000000
     7  C    2.529376   0.000000
     8  N    3.828592   1.438661   0.000000
     9  N    2.945242   1.435393   2.241506   0.000000
    10  H    6.658385   7.085978   7.189927   8.431805   0.000000
    11  H    2.664467   4.237243   5.043034   5.190321   4.320020
    12  H    3.360722   4.188155   4.560903   5.121926   4.370237
    13  H    3.490238   2.762949   2.687654   4.088793   4.551400
    14  H    2.801232   2.769425   3.377636   4.112221   4.556120
    15  H    2.147757   2.171513   2.734388   2.710642   6.433636
    16  H    1.095196   2.807631   4.170780   3.354414   6.610101
    17  H    1.093622   3.495011   4.669307   3.926982   6.348687
    18  H    1.093276   2.771825   4.097884   2.612655   7.733704
    19  H    2.781350   1.094760   2.080617   2.076558   7.060565
    20  H    4.034271   2.021309   1.015412   2.535056   7.292323
    21  H    4.157851   2.016708   1.020906   3.148978   6.425480
    22  H    3.287639   2.010466   2.424611   1.012939   8.641369
    23  H    3.881132   1.984415   2.336668   1.018367   9.054935
                   11         12         13         14         15
    11  H    0.000000
    12  H    1.771974   0.000000
    13  H    3.058407   2.485080   0.000000
    14  H    2.528192   3.071816   1.757009   0.000000
    15  H    3.116150   2.523877   2.503702   3.067139   0.000000
    16  H    2.911654   3.993365   3.787108   2.597950   3.067159
    17  H    2.068569   2.931743   3.818140   3.201176   2.482727
    18  H    3.658001   4.188957   4.343150   3.802316   2.514141
    19  H    4.436295   4.732967   3.104163   2.558308   3.075688
    20  H    5.094364   4.293133   2.786380   3.853654   2.431476
    21  H    4.866578   4.370594   2.116983   2.949184   3.100632
    22  H    5.363646   5.005506   4.236741   4.597759   2.485782
    23  H    6.078584   5.986192   4.645344   4.697109   3.611631
                   16         17         18         19         20
    16  H    0.000000
    17  H    1.772121   0.000000
    18  H    1.775479   1.744144   0.000000
    19  H    2.613469   3.803086   3.123617   0.000000
    20  H    4.604017   4.729652   4.242734   2.923546   0.000000
    21  H    4.380253   4.909485   4.651476   2.342909   1.616407
    22  H    3.950188   4.099644   2.880886   2.916870   2.291319
    23  H    4.134628   4.902002   3.554825   2.341815   2.775840
                   21         22         23
    21  H    0.000000
    22  H    3.393314   0.000000
    23  H    3.260953   1.619660   0.000000
 Stoichiometry    C7H14N2
 Framework group  C1[X(C7H14N2)]
 Deg. of freedom    63
 Full point group                 C1      NOp   1
 Largest Abelian subgroup         C1      NOp   1
 Largest concise Abelian subgroup C1      NOp   1
                         Standard orientation:                         
 ---------------------------------------------------------------------
 Center     Atomic      Atomic             Coordinates (Angstroms)
 Number     Number       Type             X           Y           Z
 ---------------------------------------------------------------------
      1          6           0        4.275853   -0.647696   -0.264280
      2          6           0        3.143134   -0.101807    0.080689
      3          6           0        1.822644    0.534574    0.482842
      4          6           0        0.666989   -0.211833   -0.146387
      5          6           0       -0.681777    0.422687    0.233819
      6          6           0       -0.743227    1.888340   -0.231573
      7          6           0       -1.845992   -0.383453   -0.375141
      8          7           0       -1.928788   -1.736253    0.107373
      9          7           0       -3.117168    0.161730    0.008579
     10          1           0        5.202345   -1.092449   -0.546473
     11          1           0        1.875309    1.574244    0.147897
     12          1           0        1.744976    0.532957    1.575702
     13          1           0        0.714062   -1.254798    0.191226
     14          1           0        0.781372   -0.235197   -1.238097
     15          1           0       -0.764143    0.414286    1.330345
     16          1           0       -0.611998    1.956076   -1.316766
     17          1           0        0.028368    2.500906    0.243203
     18          1           0       -1.696640    2.354343    0.031293
     19          1           0       -1.762245   -0.385862   -1.466690
     20          1           0       -1.866974   -1.742556    1.120883
     21          1           0       -1.108531   -2.253386   -0.212004
     22          1           0       -3.211115    0.110116    1.015830
     23          1           0       -3.828842   -0.461895   -0.367830
 ---------------------------------------------------------------------
 Rotational constants (GHZ):           3.4091198           0.7058779           0.6128289
 Standard basis: 6-31G(2df,p) (6D, 7F)
 There are   349 symmetry adapted cartesian basis functions of A   symmetry.
 There are   322 symmetry adapted basis functions of A   symmetry.
   322 basis functions,   494 primitive gaussians,   349 cartesian basis functions
    35 alpha electrons       35 beta electrons
       nuclear repulsion energy       443.2912861342 Hartrees.
 NAtoms=   23 NActive=   23 NUniq=   23 SFac= 1.00D+00 NAtFMM=   60 NAOKFM=F Big=F
 Integral buffers will be    131072 words long.
 Raffenetti 2 integral format.
 Two-electron integral symmetry is turned on.
 One-electron integrals computed using PRISM.
 PrsmSu:  requested number of processors reduced to:  13 ShMem   1 Linda.
 NBasis=   322 RedAO= T EigKep=  2.37D-04  NBF=   322
 NBsUse=   322 1.00D-06 EigRej= -1.00D+00 NBFU=   322
 ExpMin= 1.61D-01 ExpMax= 4.17D+03 ExpMxC= 6.27D+02 IAcc=3 IRadAn=         5 AccDes= 0.00D+00
 Harris functional with IExCor=  402 and IRadAn=       5 diagonalized for initial guess.
 HarFok:  IExCor=  402 AccDes= 0.00D+00 IRadAn=         5 IDoV= 1 UseB2=F ITyADJ=14
 ICtDFT=  3500011 ScaDFX=  1.000000  1.000000  1.000000  1.000000
 FoFCou: FMM=F IPFlag=           0 FMFlag=      100000 FMFlg1=           0
         NFxFlg=           0 DoJE=T BraDBF=F KetDBF=T FulRan=T
         wScrn=  0.000000 ICntrl=       500 IOpCl=  0 I1Cent=   200000004 NGrid=           0
         NMat0=    1 NMatS0=      1 NMatT0=    0 NMatD0=    1 NMtDS0=    0 NMtDT0=    0
 Petite list used in FoFCou.
 Requested convergence on RMS density matrix=1.00D-08 within 128 cycles.
 Requested convergence on MAX density matrix=1.00D-06.
 Requested convergence on             energy=1.00D-06.
 No special actions if energy rises.
 Integral accuracy reduced to 1.0D-05 until final iterations.
 Initial convergence to 1.0D-05 achieved.  Increase integral accuracy.
 SCF Done:  E(RB3LYP) =  -384.605383040     A.U. after   13 cycles
            NFock= 13  Conv=0.73D-08     -V/T= 2.0089

 **********************************************************************

            Population analysis using the SCF density.

 **********************************************************************

 Orbital symmetries:
       Occupied  (A) (A) (A) (A) (A) (A) (A) (A) (A) (A) (A) (A)
                 (A) (A) (A) (A) (A) (A) (A) (A) (A) (A) (A) (A)
                 (A) (A) (A) (A) (A) (A) (A) (A) (A) (A) (A)
       Virtual   (A) (A) (A) (A) (A) (A) (A) (A) (A) (A) (A) (A)
                 (A) (A) (A) (A) (A) (A) (A) (A) (A) (A) (A) (A)
                 (A) (A) (A) (A) (A) (A) (A) (A) (A) (A) (A) (A)
                 (A) (A) (A) (A) (A) (A) (A) (A) (A) (A) (A) (A)
                 (A) (A) (A) (A) (A) (A) (A) (A) (A) (A) (A) (A)
                 (A) (A) (A) (A) (A) (A) (A) (A) (A) (A) (A) (A)
                 (A) (A) (A) (A) (A) (A) (A) (A) (A) (A) (A) (A)
                 (A) (A) (A) (A) (A) (A) (A) (A) (A) (A) (A) (A)
                 (A) (A) (A) (A) (A) (A) (A) (A) (A) (A) (A) (A)
                 (A) (A) (A) (A) (A) (A) (A) (A) (A) (A) (A) (A)
                 (A) (A) (A) (A) (A) (A) (A) (A) (A) (A) (A) (A)
                 (A) (A) (A) (A) (A) (A) (A) (A) (A) (A) (A) (A)
                 (A) (A) (A) (A) (A) (A) (A) (A) (A) (A) (A) (A)
                 (A) (A) (A) (A) (A) (A) (A) (A) (A) (A) (A) (A)
                 (A) (A) (A) (A) (A) (A) (A) (A) (A) (A) (A) (A)
                 (A) (A) (A) (A) (A) (A) (A) (A) (A) (A) (A) (A)
                 (A) (A) (A) (A) (A) (A) (A) (A) (A) (A) (A) (A)
                 (A) (A) (A) (A) (A) (A) (A) (A) (A) (A) (A) (A)
                 (A) (A) (A) (A) (A) (A) (A) (A) (A) (A) (A) (A)
                 (A) (A) (A) (A) (A) (A) (A) (A) (A) (A) (A) (A)
                 (A) (A) (A) (A) (A) (A) (A) (A) (A) (A) (A) (A)
                 (A) (A) (A) (A) (A) (A) (A) (A) (A) (A) (A) (A)
                 (A) (A) (A) (A) (A) (A) (A) (A) (A) (A) (A) (A)
                 (A) (A) (A) (A) (A) (A) (A) (A) (A) (A) (A)
 The electronic state is 1-A.
 Alpha  occ. eigenvalues --  -14.30575 -14.29766 -10.22873 -10.21594 -10.20338
 Alpha  occ. eigenvalues --  -10.19007 -10.18985 -10.18985 -10.16955  -0.93211
 Alpha  occ. eigenvalues --   -0.82808  -0.81797  -0.75531  -0.69634  -0.65922
 Alpha  occ. eigenvalues --   -0.62403  -0.57757  -0.52848  -0.49849  -0.48103
 Alpha  occ. eigenvalues --   -0.47626  -0.45525  -0.44101  -0.43457  -0.40741
 Alpha  occ. eigenvalues --   -0.38399  -0.37941  -0.37717  -0.34296  -0.33567
 Alpha  occ. eigenvalues --   -0.33250  -0.25376  -0.24753  -0.24625  -0.22550
 Alpha virt. eigenvalues --    0.03588   0.03858   0.06954   0.09116   0.09712
 Alpha virt. eigenvalues --    0.11084   0.11856   0.13780   0.14728   0.15858
 Alpha virt. eigenvalues --    0.16034   0.17074   0.17995   0.18312   0.20012
 Alpha virt. eigenvalues --    0.20481   0.22831   0.23287   0.24715   0.25624
 Alpha virt. eigenvalues --    0.27969   0.30304   0.31287   0.39070   0.42238
 Alpha virt. eigenvalues --    0.45279   0.46805   0.48019   0.50034   0.51392
 Alpha virt. eigenvalues --    0.53224   0.54824   0.55287   0.56630   0.58231
 Alpha virt. eigenvalues --    0.58971   0.60689   0.61693   0.62828   0.64301
 Alpha virt. eigenvalues --    0.65262   0.65749   0.67933   0.69353   0.69895
 Alpha virt. eigenvalues --    0.69988   0.71512   0.73022   0.73538   0.74443
 Alpha virt. eigenvalues --    0.74762   0.75479   0.76672   0.77527   0.78635
 Alpha virt. eigenvalues --    0.79233   0.80119   0.80745   0.81142   0.82660
 Alpha virt. eigenvalues --    0.84067   0.84512   0.84926   0.87087   0.88278
 Alpha virt. eigenvalues --    0.89408   0.91265   0.92663   0.93598   1.00661
 Alpha virt. eigenvalues --    1.01415   1.03509   1.05118   1.06244   1.06936
 Alpha virt. eigenvalues --    1.07772   1.11778   1.12712   1.16722   1.18805
 Alpha virt. eigenvalues --    1.21984   1.23618   1.24438   1.28824   1.30345
 Alpha virt. eigenvalues --    1.31666   1.33671   1.36077   1.38723   1.43378
 Alpha virt. eigenvalues --    1.44191   1.45621   1.52012   1.53154   1.55364
 Alpha virt. eigenvalues --    1.56813   1.57127   1.59174   1.61249   1.64772
 Alpha virt. eigenvalues --    1.66877   1.67951   1.68844   1.72495   1.75654
 Alpha virt. eigenvalues --    1.77759   1.80523   1.81283   1.85065   1.87012
 Alpha virt. eigenvalues --    1.88068   1.89353   1.90258   1.95145   1.97301
 Alpha virt. eigenvalues --    2.00589   2.02381   2.11138   2.12918   2.15767
 Alpha virt. eigenvalues --    2.20882   2.22899   2.24323   2.25112   2.27134
 Alpha virt. eigenvalues --    2.28675   2.30439   2.34825   2.38864   2.42708
 Alpha virt. eigenvalues --    2.44023   2.44925   2.47127   2.53030   2.53195
 Alpha virt. eigenvalues --    2.55510   2.58104   2.60716   2.61696   2.66696
 Alpha virt. eigenvalues --    2.68232   2.69827   2.70747   2.71567   2.72789
 Alpha virt. eigenvalues --    2.74738   2.77311   2.79119   2.80254   2.81695
 Alpha virt. eigenvalues --    2.84015   2.85331   2.86132   2.87153   2.88902
 Alpha virt. eigenvalues --    2.89365   2.90351   2.93127   2.93338   2.94851
 Alpha virt. eigenvalues --    2.96118   2.99549   3.00718   3.01773   3.03978
 Alpha virt. eigenvalues --    3.04617   3.06260   3.09465   3.12501   3.13388
 Alpha virt. eigenvalues --    3.17203   3.19267   3.21046   3.22133   3.28124
 Alpha virt. eigenvalues --    3.28899   3.33108   3.33831   3.37906   3.39585
 Alpha virt. eigenvalues --    3.41760   3.43542   3.47080   3.47543   3.50226
 Alpha virt. eigenvalues --    3.52205   3.53008   3.53271   3.58804   3.62478
 Alpha virt. eigenvalues --    3.62841   3.65927   3.68349   3.70037   3.71622
 Alpha virt. eigenvalues --    3.72558   3.74666   3.78449   3.81937   3.84880
 Alpha virt. eigenvalues --    3.87307   3.89040   3.92199   3.95290   3.96764
 Alpha virt. eigenvalues --    3.98804   4.07584   4.08544   4.11868   4.15739
 Alpha virt. eigenvalues --    4.20081   4.21303   4.22074   4.23329   4.23786
 Alpha virt. eigenvalues --    4.26478   4.27161   4.29634   4.31126   4.34720
 Alpha virt. eigenvalues --    4.35485   4.37988   4.41292   4.43246   4.44667
 Alpha virt. eigenvalues --    4.45367   4.47230   4.48602   4.52663   4.54010
 Alpha virt. eigenvalues --    4.56367   4.56659   4.57808   4.60454   4.61036
 Alpha virt. eigenvalues --    4.63339   4.65244   4.67542   4.68364   4.69996
 Alpha virt. eigenvalues --    4.71422   4.71950   4.73902   4.75055   4.77783
 Alpha virt. eigenvalues --    4.79093   4.81290   4.83071   4.84960   4.86140
 Alpha virt. eigenvalues --    4.87477   4.89140   4.90958   4.94442   4.95989
 Alpha virt. eigenvalues --    4.97851   5.00401   5.03394   5.06977   5.09178
 Alpha virt. eigenvalues --    5.09971   5.16058   5.18362   5.24033   5.26254
 Alpha virt. eigenvalues --    5.34502   5.36303   5.39139   5.45564   5.47716
 Alpha virt. eigenvalues --    5.52134   5.65123   5.67263   5.73433   5.98774
 Alpha virt. eigenvalues --    6.61380   9.59123   9.84265  10.93152  11.16713
 Alpha virt. eigenvalues --   11.39396  11.63106  11.80994  12.31155  12.43161
 Alpha virt. eigenvalues --   12.86769  13.44364
          Condensed to atoms (all electrons):
               1          2          3          4          5          6
     1  C    5.089356   0.931078  -0.030091  -0.002732   0.000027   0.000023
     2  C    0.931078   4.586450   0.412214  -0.045943   0.002780   0.001212
     3  C   -0.030091   0.412214   4.942685   0.411949  -0.032253  -0.004395
     4  C   -0.002732  -0.045943   0.411949   4.896298   0.379370  -0.031345
     5  C    0.000027   0.002780  -0.032253   0.379370   4.752761   0.373993
     6  C    0.000023   0.001212  -0.004395  -0.031345   0.373993   5.037351
     7  C   -0.000003  -0.000169   0.001282  -0.030508   0.428955  -0.031360
     8  N    0.000000   0.000017   0.000600  -0.000734  -0.068103   0.004948
     9  N    0.000000   0.000001  -0.000044   0.001650  -0.028886  -0.010334
    10  H    0.371640  -0.005855   0.000633   0.000002   0.000000   0.000000
    11  H   -0.000556  -0.018332   0.357849  -0.027873  -0.005745   0.001428
    12  H   -0.001081  -0.020444   0.357774  -0.031856  -0.001723  -0.000917
    13  H    0.001847   0.003922  -0.034569   0.348069  -0.030044   0.006054
    14  H    0.001172   0.001297  -0.035099   0.360843  -0.027040  -0.007446
    15  H    0.000009   0.000341  -0.004063  -0.042590   0.338172  -0.044808
    16  H   -0.000001  -0.000067  -0.000364  -0.004998  -0.028035   0.373615
    17  H    0.000006   0.000286  -0.001487  -0.005240  -0.018794   0.363057
    18  H   -0.000000  -0.000018   0.000086   0.003889  -0.020478   0.369516
    19  H    0.000000   0.000013   0.000035  -0.006907  -0.040270  -0.004828
    20  H    0.000000   0.000003  -0.000016  -0.000858  -0.006753   0.000003
    21  H    0.000001   0.000009  -0.000096  -0.001219   0.001058  -0.000194
    22  H    0.000000   0.000000  -0.000000  -0.000155  -0.005340   0.000070
    23  H   -0.000000  -0.000000   0.000000  -0.000288   0.006588   0.000132
               7          8          9         10         11         12
     1  C   -0.000003   0.000000   0.000000   0.371640  -0.000556  -0.001081
     2  C   -0.000169   0.000017   0.000001  -0.005855  -0.018332  -0.020444
     3  C    0.001282   0.000600  -0.000044   0.000633   0.357849   0.357774
     4  C   -0.030508  -0.000734   0.001650   0.000002  -0.027873  -0.031856
     5  C    0.428955  -0.068103  -0.028886   0.000000  -0.005745  -0.001723
     6  C   -0.031360   0.004948  -0.010334   0.000000   0.001428  -0.000917
     7  C    4.746393   0.428164   0.380458  -0.000000  -0.000039   0.000152
     8  N    0.428164   6.604102  -0.103490   0.000000  -0.000015  -0.000000
     9  N    0.380458  -0.103490   6.546818   0.000000   0.000001   0.000002
    10  H   -0.000000   0.000000   0.000000   0.431665  -0.000041  -0.000041
    11  H   -0.000039  -0.000015   0.000001  -0.000041   0.582688  -0.039253
    12  H    0.000152  -0.000000   0.000002  -0.000041  -0.039253   0.598098
    13  H   -0.006803   0.007005   0.000211   0.000004   0.005794  -0.006015
    14  H   -0.003689  -0.000033   0.000100  -0.000000  -0.005153   0.005933
    15  H   -0.030793  -0.004691  -0.004445   0.000000  -0.000188   0.005872
    16  H   -0.004862   0.000062   0.000107  -0.000000   0.000943   0.000110
    17  H    0.002797  -0.000124   0.000366  -0.000000   0.003912   0.000666
    18  H   -0.003172   0.000242   0.012214  -0.000000  -0.000202  -0.000041
    19  H    0.340911  -0.031632  -0.020244   0.000000  -0.000007   0.000010
    20  H   -0.060420   0.327482   0.005882   0.000000  -0.000000  -0.000002
    21  H   -0.055047   0.321289   0.011476   0.000000   0.000002   0.000012
    22  H   -0.062978  -0.003013   0.345616   0.000000   0.000000  -0.000001
    23  H   -0.051057   0.008510   0.343030  -0.000000   0.000000  -0.000000
              13         14         15         16         17         18
     1  C    0.001847   0.001172   0.000009  -0.000001   0.000006  -0.000000
     2  C    0.003922   0.001297   0.000341  -0.000067   0.000286  -0.000018
     3  C   -0.034569  -0.035099  -0.004063  -0.000364  -0.001487   0.000086
     4  C    0.348069   0.360843  -0.042590  -0.004998  -0.005240   0.003889
     5  C   -0.030044  -0.027040   0.338172  -0.028035  -0.018794  -0.020478
     6  C    0.006054  -0.007446  -0.044808   0.373615   0.363057   0.369516
     7  C   -0.006803  -0.003689  -0.030793  -0.004862   0.002797  -0.003172
     8  N    0.007005  -0.000033  -0.004691   0.000062  -0.000124   0.000242
     9  N    0.000211   0.000100  -0.004445   0.000107   0.000366   0.012214
    10  H    0.000004  -0.000000   0.000000  -0.000000  -0.000000  -0.000000
    11  H    0.005794  -0.005153  -0.000188   0.000943   0.003912  -0.000202
    12  H   -0.006015   0.005933   0.005872   0.000110   0.000666  -0.000041
    13  H    0.642691  -0.040527  -0.003542  -0.000015  -0.000173  -0.000165
    14  H   -0.040527   0.621103   0.006723   0.004998  -0.000017  -0.000063
    15  H   -0.003542   0.006723   0.707522   0.006060  -0.004022  -0.002143
    16  H   -0.000015   0.004998   0.006060   0.597860  -0.034231  -0.028168
    17  H   -0.000173  -0.000017  -0.004022  -0.034231   0.615085  -0.030524
    18  H   -0.000165  -0.000063  -0.002143  -0.028168  -0.030524   0.564737
    19  H    0.000235   0.005467   0.006913   0.004527  -0.000235  -0.000083
    20  H    0.002071   0.000109   0.007183   0.000020  -0.000013  -0.000022
    21  H    0.007083   0.000735   0.000429  -0.000001  -0.000010  -0.000028
    22  H    0.000008   0.000018   0.005568   0.000053  -0.000070  -0.000328
    23  H   -0.000013  -0.000003  -0.000239  -0.000047   0.000010  -0.000319
              19         20         21         22         23
     1  C    0.000000   0.000000   0.000001   0.000000  -0.000000
     2  C    0.000013   0.000003   0.000009   0.000000  -0.000000
     3  C    0.000035  -0.000016  -0.000096  -0.000000   0.000000
     4  C   -0.006907  -0.000858  -0.001219  -0.000155  -0.000288
     5  C   -0.040270  -0.006753   0.001058  -0.005340   0.006588
     6  C   -0.004828   0.000003  -0.000194   0.000070   0.000132
     7  C    0.340911  -0.060420  -0.055047  -0.062978  -0.051057
     8  N   -0.031632   0.327482   0.321289  -0.003013   0.008510
     9  N   -0.020244   0.005882   0.011476   0.345616   0.343030
    10  H    0.000000   0.000000   0.000000   0.000000  -0.000000
    11  H   -0.000007  -0.000000   0.000002   0.000000   0.000000
    12  H    0.000010  -0.000002   0.000012  -0.000001  -0.000000
    13  H    0.000235   0.002071   0.007083   0.000008  -0.000013
    14  H    0.005467   0.000109   0.000735   0.000018  -0.000003
    15  H    0.006913   0.007183   0.000429   0.005568  -0.000239
    16  H    0.004527   0.000020  -0.000001   0.000053  -0.000047
    17  H   -0.000235  -0.000013  -0.000010  -0.000070   0.000010
    18  H   -0.000083  -0.000022  -0.000028  -0.000328  -0.000319
    19  H    0.652838   0.007588  -0.002437   0.007434  -0.005277
    20  H    0.007588   0.528422  -0.027278   0.006706  -0.000602
    21  H   -0.002437  -0.027278   0.532515  -0.000028  -0.000153
    22  H    0.007434   0.006706  -0.000028   0.527229  -0.031802
    23  H   -0.005277  -0.000602  -0.000153  -0.031802   0.504587
 Mulliken charges:
               1
     1  C   -0.360694
     2  C    0.151206
     3  C   -0.342629
     4  C   -0.168824
     5  C    0.029761
     6  C   -0.395775
     7  C    0.011787
     8  N   -0.490586
     9  N   -0.480492
    10  H    0.201993
    11  H    0.144786
    12  H    0.132744
    13  H    0.096872
    14  H    0.110575
    15  H    0.056731
    16  H    0.112434
    17  H    0.108755
    18  H    0.135072
    19  H    0.085948
    20  H    0.210496
    21  H    0.211881
    22  H    0.211016
    23  H    0.226944
 Sum of Mulliken charges =  -0.00000
 Mulliken charges with hydrogens summed into heavy atoms:
               1
     1  C   -0.158701
     2  C    0.151206
     3  C   -0.065100
     4  C    0.038623
     5  C    0.086492
     6  C   -0.039514
     7  C    0.097735
     8  N   -0.068209
     9  N   -0.042532
 Electronic spatial extent (au):  <R**2>=           1838.5097
 Charge=             -0.0000 electrons
 Dipole moment (field-independent basis, Debye):
    X=              0.0231    Y=             -0.4205    Z=              0.9660  Tot=              1.0538
 Quadrupole moment (field-independent basis, Debye-Ang):
   XX=            -60.8885   YY=            -58.6701   ZZ=            -53.8018
   XY=             -0.3076   XZ=             -3.5311   YZ=              0.3329
 Traceless Quadrupole moment (field-independent basis, Debye-Ang):
   XX=             -3.1017   YY=             -0.8833   ZZ=              3.9850
   XY=             -0.3076   XZ=             -3.5311   YZ=              0.3329
 Octapole moment (field-independent basis, Debye-Ang**2):
  XXX=              3.8464  YYY=             -0.4240  ZZZ=              3.5709  XYY=              7.4745
  XXY=            -19.1847  XXZ=             -2.2096  XZZ=            -14.4173  YZZ=             -2.8185
  YYZ=              2.1995  XYZ=              3.4341
 Hexadecapole moment (field-independent basis, Debye-Ang**3):
 XXXX=          -1701.4495 YYYY=           -440.0617 ZZZZ=           -120.8851 XXXY=            -68.5350
 XXXZ=            -82.2187 YYYX=             -7.8554 YYYZ=             -1.5502 ZZZX=             -3.3812
 ZZZY=             -2.7401 XXYY=           -417.5035 XXZZ=           -335.0029 YYZZ=            -90.9003
 XXYZ=             19.6153 YYXZ=             -8.7658 ZZXY=              8.0846
 N-N= 4.432912861342D+02 E-N=-1.778369844653D+03  KE= 3.812043404337D+02
 PrsmSu:  requested number of processors reduced to:  13 ShMem   1 Linda.
 Calling FoFJK, ICntrl=      2127 FMM=F ISym2X=0 I1Cent= 0 IOpClX= 0 NMat=1 NMatS=1 NMatT=0.
 ***** Axes restored to original set *****
 -------------------------------------------------------------------
 Center     Atomic                   Forces (Hartrees/Bohr)
 Number     Number              X              Y              Z
 -------------------------------------------------------------------
      1        6           0.158551854   -0.000444678   -0.000332282
      2        6          -0.132155776    0.004936503   -0.001275467
      3        6          -0.046142046    0.005096638    0.005793088
      4        6           0.007502814   -0.004757983   -0.005329878
      5        6          -0.000184867   -0.005628086    0.014989736
      6        6           0.004620402    0.004520161    0.000595709
      7        6           0.011873336    0.016340377   -0.013348110
      8        7          -0.039570255   -0.014684109   -0.017346002
      9        7           0.026618648   -0.005165410    0.026327151
     10        1           0.001677740   -0.000253089    0.000136084
     11        1           0.002330812    0.000420426   -0.001011940
     12        1           0.000285210    0.000557858    0.000405263
     13        1           0.001113883   -0.000170906    0.001226493
     14        1           0.000779954    0.001226885    0.000729276
     15        1           0.001818043   -0.002173715   -0.003613372
     16        1           0.000359528   -0.000240824    0.000800991
     17        1          -0.001710805   -0.000686539    0.000613699
     18        1          -0.001103339   -0.003979058   -0.001834666
     19        1          -0.000946220   -0.001310978    0.000137034
     20        1           0.001870050    0.002136218   -0.000535816
     21        1          -0.000152169   -0.001754842   -0.006544059
     22        1           0.001314662    0.002764165   -0.001222064
     23        1           0.001248541    0.003250985    0.000639132
 -------------------------------------------------------------------
 Cartesian Forces:  Max     0.158551854 RMS     0.026774253

 GradGradGradGradGradGradGradGradGradGradGradGradGradGradGradGradGradGrad
 Berny optimization.
 FormGI is forming the generalized inverse of G from B-inverse, IUseBI=4.
 Internal  Forces:  Max     0.160229413 RMS     0.016932340
 Search for a local minimum.
 Step number   1 out of a maximum of  120
 All quantities printed in internal units (Hartrees-Bohrs-Radians)
 Mixed Optimization -- RFO/linear search
 Second derivative matrix not updated -- first step.
 ITU=  0
     Eigenvalues ---    0.00230   0.00250   0.00259   0.00501   0.00501
     Eigenvalues ---    0.00556   0.00556   0.00597   0.01180   0.01224
     Eigenvalues ---    0.03598   0.03683   0.04628   0.04639   0.04756
     Eigenvalues ---    0.04861   0.04881   0.05007   0.05139   0.05355
     Eigenvalues ---    0.05379   0.05729   0.05819   0.07380   0.08177
     Eigenvalues ---    0.12069   0.16000   0.16000   0.16000   0.16000
     Eigenvalues ---    0.16000   0.16000   0.16000   0.16000   0.16000
     Eigenvalues ---    0.16506   0.16559   0.17116   0.17909   0.21863
     Eigenvalues ---    0.22244   0.28390   0.28608   0.28671   0.30367
     Eigenvalues ---    0.31070   0.33721   0.33912   0.33987   0.34171
     Eigenvalues ---    0.34219   0.34268   0.34397   0.34404   0.34437
     Eigenvalues ---    0.37772   0.39770   0.40224   0.44194   0.44600
     Eigenvalues ---    0.45078   0.45484   0.66132
 RFO step:  Lambda=-5.83083316D-02 EMin= 2.30000000D-03
 Linear search not attempted -- first point.
 Maximum step size (   0.300) exceeded in Quadratic search.
    -- Step size scaled by   0.906
 Iteration  1 RMS(Cart)=  0.07105141 RMS(Int)=  0.00164889
 Iteration  2 RMS(Cart)=  0.00272528 RMS(Int)=  0.00053695
 Iteration  3 RMS(Cart)=  0.00000802 RMS(Int)=  0.00053693
 Iteration  4 RMS(Cart)=  0.00000001 RMS(Int)=  0.00053693
 Variable       Old X    -DE/DX   Delta X   Delta X   Delta X     New X
                                 (Linear)    (Quad)   (Total)
    R1        2.46394  -0.16023   0.00000  -0.20181  -0.20181   2.26213
    R2        2.01398  -0.00168   0.00000  -0.00349  -0.00349   2.01049
    R3        2.87238  -0.02807   0.00000  -0.07030  -0.07030   2.80209
    R4        2.85879   0.01564   0.00000   0.03841   0.03841   2.89721
    R5        2.06653  -0.00024   0.00000  -0.00055  -0.00055   2.06598
    R6        2.07042   0.00029   0.00000   0.00066   0.00066   2.07107
    R7        2.90695   0.00619   0.00000   0.01625   0.01625   2.92320
    R8        2.07352  -0.00151   0.00000  -0.00343  -0.00343   2.07008
    R9        2.07480  -0.00081   0.00000  -0.00184  -0.00184   2.07295
   R10        2.90828   0.00088   0.00000   0.00230   0.00230   2.91058
   R11        2.91293   0.00386   0.00000   0.01022   0.01022   2.92315
   R12        2.07803   0.00099   0.00000   0.00228   0.00228   2.08031
   R13        2.06962   0.00054   0.00000   0.00123   0.00123   2.07085
   R14        2.06665   0.00007   0.00000   0.00016   0.00016   2.06680
   R15        2.06599  -0.00107   0.00000  -0.00240  -0.00240   2.06359
   R16        2.71868   0.03511   0.00000   0.06979   0.06979   2.78846
   R17        2.71250   0.02819   0.00000   0.05549   0.05549   2.76799
   R18        2.06880   0.00139   0.00000   0.00313   0.00313   2.07193
   R19        1.91885   0.00243   0.00000   0.00432   0.00432   1.92317
   R20        1.92923   0.00072   0.00000   0.00131   0.00131   1.93054
   R21        1.91418   0.00318   0.00000   0.00561   0.00561   1.91979
   R22        1.92443  -0.00276   0.00000  -0.00495  -0.00495   1.91948
    A1        1.92520   0.00602   0.00000   0.02134   0.02131   1.94651
    A2        1.84956   0.00010   0.00000   0.00937   0.00928   1.85884
    A3        1.90168  -0.00313   0.00000  -0.01219  -0.01215   1.88953
    A4        1.95894  -0.00174   0.00000  -0.00544  -0.00552   1.95342
    A5        1.93907  -0.00095   0.00000  -0.00632  -0.00634   1.93273
    A6        1.88634  -0.00044   0.00000  -0.00687  -0.00695   1.87939
    A7        1.94279   0.01451   0.00000   0.04928   0.04935   1.99215
    A8        1.88413  -0.00417   0.00000  -0.01234  -0.01222   1.87190
    A9        1.92249  -0.00468   0.00000  -0.01325  -0.01332   1.90918
   A10        1.93226  -0.00492   0.00000  -0.01783  -0.01784   1.91442
   A11        1.92398  -0.00406   0.00000  -0.01123  -0.01131   1.91267
   A12        1.85589   0.00266   0.00000   0.00289   0.00263   1.85851
   A13        1.93167   0.00306   0.00000   0.01908   0.01904   1.95071
   A14        1.92715   0.00056   0.00000   0.00396   0.00393   1.93108
   A15        1.88492  -0.00058   0.00000  -0.00137  -0.00149   1.88343
   A16        1.92669  -0.00172   0.00000  -0.00484  -0.00496   1.92173
   A17        1.88160   0.00085   0.00000   0.00579   0.00564   1.88725
   A18        1.91067  -0.00218   0.00000  -0.02306  -0.02305   1.88762
   A19        1.93238   0.00091   0.00000   0.00144   0.00140   1.93378
   A20        1.95409   0.00074   0.00000   0.00551   0.00552   1.95962
   A21        1.94770  -0.00350   0.00000  -0.01463  -0.01465   1.93305
   A22        1.88702  -0.00082   0.00000  -0.00319  -0.00319   1.88383
   A23        1.89270  -0.00012   0.00000  -0.00507  -0.00513   1.88757
   A24        1.84642   0.00290   0.00000   0.01644   0.01647   1.86289
   A25        1.98529  -0.00218   0.00000   0.00878   0.00838   1.99367
   A26        1.94402  -0.01647   0.00000  -0.04655  -0.04978   1.89424
   A27        1.91481   0.00459   0.00000  -0.01384  -0.01564   1.89918
   A28        1.78905   0.02788   0.00000   0.13630   0.13700   1.92605
   A29        1.91425  -0.00947   0.00000  -0.04895  -0.04834   1.86591
   A30        1.91253  -0.00369   0.00000  -0.03066  -0.03100   1.88154
   A31        1.91463  -0.00319   0.00000  -0.01053  -0.01059   1.90403
   A32        1.90197   0.01192   0.00000   0.05226   0.05220   1.95417
   A33        1.83402  -0.00209   0.00000  -0.00271  -0.00283   1.83119
   A34        1.90563   0.00008   0.00000   0.00092   0.00090   1.90653
   A35        1.86240   0.00344   0.00000   0.01493   0.01492   1.87732
   A36        1.84577  -0.00107   0.00000  -0.00297  -0.00301   1.84277
   A37        3.14296  -0.00021   0.00000  -0.00298  -0.00298   3.13998
   A38        3.14159  -0.00184   0.00000  -0.02631  -0.02631   3.11528
   A39        3.14073  -0.00038   0.00000  -0.00535  -0.00535   3.13538
   A40        3.14159   0.00105   0.00000   0.01503   0.01503   3.15662
    D1       -3.13107  -0.00202   0.00000  -0.01809  -0.01811   3.13401
    D2        1.02808  -0.00219   0.00000  -0.01848  -0.01849   1.00959
    D3       -0.99143  -0.00051   0.00000  -0.00787  -0.00794  -0.99937
    D4       -1.07293   0.00098   0.00000   0.00425   0.00427  -1.06867
    D5        3.08622   0.00080   0.00000   0.00386   0.00389   3.09010
    D6        1.06670   0.00248   0.00000   0.01447   0.01443   1.08114
    D7        1.04138  -0.00149   0.00000  -0.01287  -0.01283   1.02856
    D8       -1.08265  -0.00166   0.00000  -0.01326  -0.01321  -1.09586
    D9       -3.10217   0.00002   0.00000  -0.00266  -0.00266  -3.10483
   D10        1.03904   0.00115   0.00000   0.00982   0.00983   1.04887
   D11       -3.10544   0.00143   0.00000   0.01941   0.01950  -3.08594
   D12       -1.01687  -0.00126   0.00000  -0.00717  -0.00711  -1.02398
   D13        3.13485   0.00221   0.00000   0.01498   0.01484  -3.13349
   D14       -1.00963   0.00249   0.00000   0.02457   0.02451  -0.98512
   D15        1.07894  -0.00020   0.00000  -0.00202  -0.00210   1.07684
   D16       -1.09974  -0.00002   0.00000   0.00071   0.00071  -1.09904
   D17        1.03896   0.00026   0.00000   0.01031   0.01038   1.04934
   D18        3.12753  -0.00242   0.00000  -0.01628  -0.01624   3.11129
   D19        1.03154   0.00037   0.00000   0.00132   0.00127   1.03280
   D20       -1.07562   0.00029   0.00000   0.00064   0.00059  -1.07502
   D21        3.14157  -0.00153   0.00000  -0.01405  -0.01406   3.12752
   D22       -1.10743  -0.00124   0.00000  -0.01340  -0.01344  -1.12087
   D23        3.06860  -0.00132   0.00000  -0.01408  -0.01411   3.05449
   D24        1.00261  -0.00314   0.00000  -0.02877  -0.02876   0.97385
   D25        3.08947   0.00190   0.00000   0.01388   0.01391   3.10339
   D26        0.98232   0.00181   0.00000   0.01320   0.01324   0.99556
   D27       -1.08367  -0.00000   0.00000  -0.00149  -0.00141  -1.08508
   D28        1.09226  -0.01279   0.00000  -0.08542  -0.08492   1.00734
   D29        3.10349   0.01006   0.00000   0.06156   0.06077  -3.11892
   D30       -1.05901  -0.00234   0.00000  -0.01721  -0.01685  -1.07586
   D31       -3.04931  -0.00971   0.00000  -0.06187  -0.06146  -3.11076
   D32       -1.03808   0.01314   0.00000   0.08511   0.08424  -0.95384
   D33        1.08261   0.00073   0.00000   0.00634   0.00662   1.08922
   D34       -0.98069  -0.01106   0.00000  -0.07188  -0.07137  -1.05206
   D35        1.03054   0.01179   0.00000   0.07510   0.07433   1.10486
   D36       -3.13197  -0.00061   0.00000  -0.00367  -0.00329  -3.13526
   D37        0.84370   0.00108   0.00000   0.03873   0.04008   0.88378
   D38       -1.15544  -0.00125   0.00000   0.01889   0.02018  -1.13526
   D39       -1.25719   0.00426   0.00000   0.00320   0.00128  -1.25591
   D40        3.02686   0.00192   0.00000  -0.01663  -0.01862   3.00824
   D41        2.99528  -0.00169   0.00000  -0.01032  -0.00965   2.98563
   D42        0.99614  -0.00403   0.00000  -0.03015  -0.02955   0.96659
   D43       -1.07813  -0.00365   0.00000  -0.03675  -0.03601  -1.11414
   D44       -3.06547  -0.00421   0.00000  -0.04140  -0.04069  -3.10615
   D45        1.05110   0.00216   0.00000   0.03193   0.03168   1.08278
   D46       -0.93623   0.00160   0.00000   0.02728   0.02701  -0.90923
   D47        3.08305   0.00391   0.00000   0.03212   0.03166   3.11471
   D48        1.09571   0.00335   0.00000   0.02747   0.02699   1.12270
         Item               Value     Threshold  Converged?
 Maximum Force            0.160229     0.000450     NO 
 RMS     Force            0.016932     0.000300     NO 
 Maximum Displacement     0.255831     0.001800     NO 
 RMS     Displacement     0.071150     0.001200     NO 
 Predicted change in Energy=-3.283247D-02
 GradGradGradGradGradGradGradGradGradGradGradGradGradGradGradGradGradGrad

                          Input orientation:                          
 ---------------------------------------------------------------------
 Center     Atomic      Atomic             Coordinates (Angstroms)
 Number     Number       Type             X           Y           Z
 ---------------------------------------------------------------------
      1          6           0        0.992767   -0.018212   -0.017347
      2          6           0        2.188702    0.022444    0.015110
      3          6           0        3.671180    0.030715    0.044892
      4          6           0        4.251749   -1.288014   -0.478938
      5          6           0        5.797732   -1.340798   -0.484307
      6          6           0        6.380286   -1.161219    0.930133
      7          6           0        6.295873   -2.669630   -1.099818
      8          7           0        5.823392   -2.914143   -2.476169
      9          7           0        7.759826   -2.684192   -1.053565
     10          1           0       -0.070043   -0.058803   -0.043477
     11          1           0        3.959923    0.220347    1.082152
     12          1           0        4.022091    0.875904   -0.558147
     13          1           0        3.874185   -1.427229   -1.497788
     14          1           0        3.857396   -2.121191    0.115724
     15          1           0        6.162571   -0.513759   -1.112616
     16          1           0        6.012524   -1.942774    1.604521
     17          1           0        6.121360   -0.191743    1.365177
     18          1           0        7.470748   -1.215375    0.909288
     19          1           0        5.932751   -3.501968   -0.485416
     20          1           0        6.013080   -2.091401   -3.044343
     21          1           0        4.809618   -3.033676   -2.516600
     22          1           0        8.120616   -1.935393   -1.637689
     23          1           0        8.071745   -3.546101   -1.491239
 ---------------------------------------------------------------------
                    Distance matrix (angstroms):
                    1          2          3          4          5
     1  C    0.000000
     2  C    1.197066   0.000000
     3  C    2.679583   1.482801   0.000000
     4  C    3.527950   2.493501   1.533136   0.000000
     5  C    5.005494   3.890108   2.585212   1.546892   0.000000
     6  C    5.588340   4.450584   3.089273   2.555822   1.540213
     7  C    6.026998   5.035791   3.935891   2.544169   1.546866
     8  N    6.145499   5.295374   4.433954   3.017165   2.538423
     9  N    7.346720   6.285330   5.029349   3.819177   2.445113
    10  H    1.063906   2.260965   3.743337   4.514253   6.022344
    11  H    3.173298   2.077250   1.093271   2.190278   2.875501
    12  H    3.204484   2.101984   1.095965   2.177512   2.841147
    13  H    3.532649   2.689102   2.132293   1.095441   2.175924
    14  H    3.556168   2.718425   2.161109   1.096959   2.175765
    15  H    5.307736   4.165443   2.800590   2.156910   1.100852
    16  H    5.615368   4.583659   3.436422   2.805323   2.184425
    17  H    5.314504   4.163455   2.792136   2.845702   2.201285
    18  H    6.652525   5.498341   4.091043   3.506337   2.181013
    19  H    6.062928   5.166228   4.227976   2.779820   2.165384
    20  H    6.218068   5.334272   4.419417   3.213879   2.676484
    21  H    5.468788   4.755904   4.153044   2.740551   2.823548
    22  H    7.556939   6.461616   5.147246   4.090224   2.660757
    23  H    8.045513   7.043706   5.875226   4.551491   3.323915
                    6          7          8          9         10
     6  C    0.000000
     7  C    2.530441   0.000000
     8  N    3.871145   1.475591   0.000000
     9  N    2.856157   1.464755   2.413806   0.000000
    10  H    6.615889   6.961119   6.985953   8.319844   0.000000
    11  H    2.791056   4.309249   5.095017   5.238025   4.193518
    12  H    3.453393   4.246682   4.613886   5.185594   4.228963
    13  H    3.499443   2.750730   2.639611   4.107979   4.420922
    14  H    2.819536   2.779298   3.348405   4.112562   4.438870
    15  H    2.153932   2.160027   2.781396   2.695457   6.339994
    16  H    1.095846   2.814615   4.198972   3.266219   6.577452
    17  H    1.093705   3.499512   4.717647   3.840207   6.351020
    18  H    1.092005   2.744393   4.130486   2.468558   7.688234
    19  H    2.771854   1.096419   2.078604   2.080807   6.934280
    20  H    4.098358   2.048292   1.017697   2.713986   7.081034
    21  H    4.225288   2.085368   1.021597   3.311546   6.227142
    22  H    3.197156   2.039141   2.634054   1.015909   8.552778
    23  H    3.796279   2.018695   2.534669   1.015745   8.974741
                   11         12         13         14         15
    11  H    0.000000
    12  H    1.767541   0.000000
    13  H    3.062344   2.491831   0.000000
    14  H    2.535212   3.076330   1.756498   0.000000
    15  H    3.194930   2.611561   2.493892   3.067000   0.000000
    16  H    3.027398   4.072334   3.802973   2.625438   3.073668
    17  H    2.218498   3.040719   3.843539   3.226366   2.498970
    18  H    3.796982   4.291858   4.332915   3.808747   2.508323
    19  H    4.494992   4.777204   3.093078   2.564178   3.061959
    20  H    5.156316   4.353172   2.721732   3.825426   2.498574
    21  H    4.925613   4.443034   2.119830   2.944228   3.186163
    22  H    5.418129   5.085932   4.279016   4.613461   2.476022
    23  H    6.141299   6.068317   4.702038   4.730056   3.603248
                   16         17         18         19         20
    16  H    0.000000
    17  H    1.770662   0.000000
    18  H    1.771687   1.753997   0.000000
    19  H    2.608695   3.797086   3.088550   0.000000
    20  H    4.651240   4.802530   4.303883   2.923057   0.000000
    21  H    4.429525   4.986527   4.703673   2.367791   1.617009
    22  H    3.867304   4.006813   2.725408   2.927225   2.538646
    23  H    4.049047   4.818177   3.399413   2.364090   2.960808
                   21         22         23
    21  H    0.000000
    22  H    3.597418   0.000000
    23  H    3.457661   1.618090   0.000000
 Stoichiometry    C7H14N2
 Framework group  C1[X(C7H14N2)]
 Deg. of freedom    63
 Full point group                 C1      NOp   1
 Largest Abelian subgroup         C1      NOp   1
 Largest concise Abelian subgroup C1      NOp   1
                         Standard orientation:                         
 ---------------------------------------------------------------------
 Center     Atomic      Atomic             Coordinates (Angstroms)
 Number     Number       Type             X           Y           Z
 ---------------------------------------------------------------------
      1          6           0        4.178549   -0.616400   -0.261960
      2          6           0        3.161926   -0.081069    0.073995
      3          6           0        1.880835    0.556357    0.462829
      4          6           0        0.679518   -0.183080   -0.137651
      5          6           0       -0.691404    0.426366    0.239210
      6          6           0       -0.818513    1.885268   -0.237974
      7          6           0       -1.844901   -0.425363   -0.341134
      8          7           0       -1.834330   -1.835499    0.093347
      9          7           0       -3.116474    0.208155    0.015607
     10          1           0        5.080606   -1.091824   -0.565539
     11          1           0        1.933886    1.593633    0.121529
     12          1           0        1.821560    0.568617    1.557121
     13          1           0        0.730076   -1.220802    0.209580
     14          1           0        0.780169   -0.214932   -1.229518
     15          1           0       -0.776223    0.416287    1.336743
     16          1           0       -0.701199    1.950536   -1.325566
     17          1           0       -0.070947    2.538323    0.221215
     18          1           0       -1.796622    2.294229    0.023805
     19          1           0       -1.766881   -0.428053   -1.434770
     20          1           0       -1.755732   -1.870814    1.107390
     21          1           0       -1.012999   -2.335520   -0.251695
     22          1           0       -3.223044    0.199228    1.025871
     23          1           0       -3.863085   -0.379979   -0.342734
 ---------------------------------------------------------------------
 Rotational constants (GHZ):           3.2937366           0.7162409           0.6156756
 Standard basis: 6-31G(2df,p) (6D, 7F)
 There are   349 symmetry adapted cartesian basis functions of A   symmetry.
 There are   322 symmetry adapted basis functions of A   symmetry.
   322 basis functions,   494 primitive gaussians,   349 cartesian basis functions
    35 alpha electrons       35 beta electrons
       nuclear repulsion energy       442.5573946462 Hartrees.
 NAtoms=   23 NActive=   23 NUniq=   23 SFac= 1.00D+00 NAtFMM=   60 NAOKFM=F Big=F
 Integral buffers will be    131072 words long.
 Raffenetti 2 integral format.
 Two-electron integral symmetry is turned on.
 One-electron integrals computed using PRISM.
 PrsmSu:  requested number of processors reduced to:  13 ShMem   1 Linda.
 NBasis=   322 RedAO= T EigKep=  1.50D-04  NBF=   322
 NBsUse=   322 1.00D-06 EigRej= -1.00D+00 NBFU=   322
 Initial guess from the checkpoint file:  "CtCCCCpCpCpNpN.chk"
 B after Tr=    -0.000000   -0.000000   -0.000000
         Rot=    0.999984    0.000905   -0.002162   -0.005079 Ang=   0.64 deg.
 ExpMin= 1.61D-01 ExpMax= 4.17D+03 ExpMxC= 6.27D+02 IAcc=2 IRadAn=         4 AccDes= 0.00D+00
 Harris functional with IExCor=  402 and IRadAn=       4 diagonalized for initial guess.
 HarFok:  IExCor=  402 AccDes= 0.00D+00 IRadAn=         4 IDoV= 1 UseB2=F ITyADJ=14
 ICtDFT=  3500011 ScaDFX=  1.000000  1.000000  1.000000  1.000000
 FoFCou: FMM=F IPFlag=           0 FMFlag=      100000 FMFlg1=           0
         NFxFlg=           0 DoJE=T BraDBF=F KetDBF=T FulRan=T
         wScrn=  0.000000 ICntrl=       500 IOpCl=  0 I1Cent=   200000004 NGrid=           0
         NMat0=    1 NMatS0=      1 NMatT0=    0 NMatD0=    1 NMtDS0=    0 NMtDT0=    0
 Petite list used in FoFCou.
 Requested convergence on RMS density matrix=1.00D-08 within 128 cycles.
 Requested convergence on MAX density matrix=1.00D-06.
 Requested convergence on             energy=1.00D-06.
 No special actions if energy rises.
 Integral accuracy reduced to 1.0D-05 until final iterations.
 Initial convergence to 1.0D-05 achieved.  Increase integral accuracy.
 SCF Done:  E(RB3LYP) =  -384.632673644     A.U. after   12 cycles
            NFock= 12  Conv=0.59D-08     -V/T= 2.0084
 PrsmSu:  requested number of processors reduced to:  13 ShMem   1 Linda.
 Calling FoFJK, ICntrl=      2127 FMM=F ISym2X=0 I1Cent= 0 IOpClX= 0 NMat=1 NMatS=1 NMatT=0.
 ***** Axes restored to original set *****
 -------------------------------------------------------------------
 Center     Atomic                   Forces (Hartrees/Bohr)
 Number     Number              X              Y              Z
 -------------------------------------------------------------------
      1        6          -0.012843486   -0.000970527   -0.000473857
      2        6           0.022221957    0.000307927   -0.001306467
      3        6          -0.021840471    0.001443538    0.002263350
      4        6           0.006006422   -0.000149055   -0.002508665
      5        6          -0.004764788   -0.001659131    0.009515314
      6        6           0.001758341    0.003828634   -0.000232736
      7        6           0.003980019    0.008640985   -0.008138390
      8        7          -0.004170956   -0.003256669   -0.000943967
      9        7          -0.003709883   -0.005867720    0.000948649
     10        1           0.001849742    0.000567518    0.000210349
     11        1           0.004301472    0.000254761    0.000010173
     12        1           0.002642599    0.000172374    0.000539487
     13        1           0.000181423   -0.000511038    0.000609021
     14        1           0.000051415    0.000377727    0.000834045
     15        1           0.000876840   -0.000745900   -0.001961743
     16        1           0.000146604   -0.000263140    0.000243810
     17        1          -0.002333642    0.000051983   -0.000013839
     18        1          -0.001304908   -0.002371245   -0.000369874
     19        1           0.000102890   -0.000533798    0.000446084
     20        1           0.001522913    0.000588180   -0.000548266
     21        1           0.004156915   -0.001330212    0.002466754
     22        1           0.000185557    0.001835547   -0.000792874
     23        1           0.000983027   -0.000410741   -0.000796357
 -------------------------------------------------------------------
 Cartesian Forces:  Max     0.022221957 RMS     0.004876251

 GradGradGradGradGradGradGradGradGradGradGradGradGradGradGradGradGradGrad
 Berny optimization.
 Using GEDIIS/GDIIS optimizer.
 FormGI is forming the generalized inverse of G from B-inverse, IUseBI=4.
 Internal  Forces:  Max     0.011192234 RMS     0.002078408
 Search for a local minimum.
 Step number   2 out of a maximum of  120
 All quantities printed in internal units (Hartrees-Bohrs-Radians)
 Mixed Optimization -- RFO/linear search
 Update second derivatives using D2CorX and points    1    2
 DE= -2.73D-02 DEPred=-3.28D-02 R= 8.31D-01
 TightC=F SS=  1.41D+00  RLast= 3.71D-01 DXNew= 5.0454D-01 1.1118D+00
 Trust test= 8.31D-01 RLast= 3.71D-01 DXMaxT set to 5.05D-01
 ITU=  1  0
 Use linear search instead of GDIIS.
     Eigenvalues ---    0.00230   0.00250   0.00260   0.00501   0.00503
     Eigenvalues ---    0.00556   0.00556   0.00597   0.01180   0.01224
     Eigenvalues ---    0.03444   0.03487   0.04610   0.04633   0.04728
     Eigenvalues ---    0.04790   0.04850   0.05058   0.05229   0.05320
     Eigenvalues ---    0.05465   0.05600   0.05867   0.06995   0.08619
     Eigenvalues ---    0.12397   0.15951   0.16000   0.16000   0.16000
     Eigenvalues ---    0.16000   0.16000   0.16000   0.16000   0.16112
     Eigenvalues ---    0.16550   0.16844   0.18151   0.19509   0.22042
     Eigenvalues ---    0.22281   0.28305   0.28609   0.28720   0.29696
     Eigenvalues ---    0.31048   0.33719   0.33912   0.33986   0.34171
     Eigenvalues ---    0.34219   0.34266   0.34397   0.34404   0.34434
     Eigenvalues ---    0.37760   0.39923   0.40830   0.44200   0.44610
     Eigenvalues ---    0.45071   0.45467   0.77329
 RFO step:  Lambda=-3.05521462D-03 EMin= 2.29966109D-03
 Quartic linear search produced a step of -0.01721.
 Iteration  1 RMS(Cart)=  0.08114083 RMS(Int)=  0.00439156
 Iteration  2 RMS(Cart)=  0.00609126 RMS(Int)=  0.00018869
 Iteration  3 RMS(Cart)=  0.00002367 RMS(Int)=  0.00018821
 Iteration  4 RMS(Cart)=  0.00000000 RMS(Int)=  0.00018821
 Variable       Old X    -DE/DX   Delta X   Delta X   Delta X     New X
                                 (Linear)    (Quad)   (Total)
    R1        2.26213   0.01101   0.00347   0.00661   0.01009   2.27222
    R2        2.01049  -0.00187   0.00006  -0.00501  -0.00495   2.00554
    R3        2.80209  -0.01119   0.00121  -0.03943  -0.03822   2.76386
    R4        2.89721   0.00334  -0.00066   0.01242   0.01176   2.90896
    R5        2.06598   0.00119   0.00001   0.00333   0.00334   2.06933
    R6        2.07107   0.00068  -0.00001   0.00198   0.00196   2.07304
    R7        2.92320  -0.00252  -0.00028  -0.00768  -0.00796   2.91525
    R8        2.07008  -0.00056   0.00006  -0.00179  -0.00173   2.06836
    R9        2.07295   0.00015   0.00003   0.00033   0.00036   2.07331
   R10        2.91058  -0.00085  -0.00004  -0.00277  -0.00281   2.90777
   R11        2.92315   0.00420  -0.00018   0.01489   0.01471   2.93786
   R12        2.08031   0.00085  -0.00004   0.00257   0.00253   2.08284
   R13        2.07085   0.00029  -0.00002   0.00088   0.00086   2.07171
   R14        2.06680   0.00059  -0.00000   0.00169   0.00168   2.06849
   R15        2.06359  -0.00118   0.00004  -0.00345  -0.00341   2.06018
   R16        2.78846  -0.00073  -0.00120   0.00169   0.00049   2.78895
   R17        2.76799  -0.00251  -0.00096  -0.00332  -0.00428   2.76371
   R18        2.07193   0.00062  -0.00005   0.00192   0.00187   2.07380
   R19        1.92317   0.00107  -0.00007   0.00252   0.00244   1.92561
   R20        1.93054  -0.00407  -0.00002  -0.00891  -0.00893   1.92161
   R21        1.91979   0.00187  -0.00010   0.00429   0.00420   1.92399
   R22        1.91948   0.00099   0.00009   0.00193   0.00201   1.92149
    A1        1.94651   0.00071  -0.00037   0.01109   0.01077   1.95728
    A2        1.85884   0.00289  -0.00016   0.03487   0.03472   1.89356
    A3        1.88953   0.00085   0.00021   0.00846   0.00874   1.89827
    A4        1.95342  -0.00260   0.00010  -0.01658  -0.01679   1.93662
    A5        1.93273  -0.00158   0.00011  -0.01749  -0.01767   1.91507
    A6        1.87939  -0.00004   0.00012  -0.01879  -0.01931   1.86007
    A7        1.99215   0.00126  -0.00085   0.00846   0.00761   1.99975
    A8        1.87190   0.00003   0.00021   0.00315   0.00335   1.87525
    A9        1.90918  -0.00088   0.00023  -0.00799  -0.00775   1.90143
   A10        1.91442  -0.00059   0.00031  -0.00226  -0.00198   1.91244
   A11        1.91267  -0.00015   0.00019  -0.00223  -0.00202   1.91065
   A12        1.85851   0.00027  -0.00005   0.00047   0.00043   1.85894
   A13        1.95071  -0.00209  -0.00033  -0.00144  -0.00201   1.94870
   A14        1.93108   0.00043  -0.00007   0.00699   0.00673   1.93781
   A15        1.88343   0.00053   0.00003  -0.00675  -0.00677   1.87667
   A16        1.92173   0.00268   0.00009   0.02300   0.02305   1.94478
   A17        1.88725   0.00052  -0.00010   0.00616   0.00625   1.89350
   A18        1.88762  -0.00214   0.00040  -0.02978  -0.02938   1.85823
   A19        1.93378   0.00015  -0.00002  -0.00463  -0.00469   1.92909
   A20        1.95962  -0.00130  -0.00010  -0.00452  -0.00464   1.95498
   A21        1.93305  -0.00058   0.00025  -0.00174  -0.00152   1.93153
   A22        1.88383   0.00009   0.00005  -0.00430  -0.00429   1.87955
   A23        1.88757  -0.00043   0.00009  -0.00870  -0.00865   1.87891
   A24        1.86289   0.00217  -0.00028   0.02457   0.02427   1.88716
   A25        1.99367   0.00327  -0.00014   0.03068   0.03004   2.02371
   A26        1.89424   0.00234   0.00086   0.02368   0.02394   1.91818
   A27        1.89918  -0.00171   0.00027  -0.01855  -0.01782   1.88136
   A28        1.92605  -0.00263  -0.00236   0.00766   0.00414   1.93019
   A29        1.86591  -0.00102   0.00083  -0.02664  -0.02565   1.84025
   A30        1.88154  -0.00051   0.00053  -0.02114  -0.02050   1.86104
   A31        1.90403   0.00017   0.00018   0.00413   0.00433   1.90836
   A32        1.95417  -0.00296  -0.00090  -0.01136  -0.01224   1.94193
   A33        1.83119   0.00206   0.00005   0.01958   0.01966   1.85085
   A34        1.90653  -0.00101  -0.00002  -0.00588  -0.00589   1.90064
   A35        1.87732   0.00129  -0.00026   0.00876   0.00851   1.88583
   A36        1.84277  -0.00011   0.00005  -0.00045  -0.00039   1.84238
   A37        3.13998   0.00098   0.00005   0.11066   0.11071   3.25069
   A38        3.11528   0.00097   0.00045   0.11007   0.11052   3.22580
   A39        3.13538   0.00028   0.00009   0.03064   0.03074   3.16612
   A40        3.15662  -0.00024  -0.00026  -0.02450  -0.02475   3.13187
    D1        3.13401  -0.00083   0.00031  -0.03353  -0.03322   3.10079
    D2        1.00959  -0.00092   0.00032  -0.03835  -0.03806   0.97153
    D3       -0.99937  -0.00081   0.00014  -0.03652  -0.03640  -1.03578
    D4       -1.06867   0.00157  -0.00007   0.00720   0.00696  -1.06170
    D5        3.09010   0.00148  -0.00007   0.00238   0.00212   3.09223
    D6        1.08114   0.00160  -0.00025   0.00421   0.00378   1.08492
    D7        1.02856  -0.00131   0.00022  -0.03979  -0.03936   0.98919
    D8       -1.09586  -0.00140   0.00023  -0.04461  -0.04420  -1.14006
    D9       -3.10483  -0.00129   0.00005  -0.04278  -0.04255   3.13581
   D10        1.04887  -0.00102  -0.00017   0.00527   0.00514   1.05402
   D11       -3.08594   0.00126  -0.00034   0.03895   0.03860  -3.04734
   D12       -1.02398  -0.00077   0.00012   0.00283   0.00293  -1.02105
   D13       -3.13349  -0.00055  -0.00026   0.01341   0.01319  -3.12030
   D14       -0.98512   0.00173  -0.00042   0.04709   0.04665  -0.93847
   D15        1.07684  -0.00030   0.00004   0.01097   0.01098   1.08782
   D16       -1.09904  -0.00065  -0.00001   0.01138   0.01141  -1.08763
   D17        1.04934   0.00163  -0.00018   0.04506   0.04487   1.09420
   D18        3.11129  -0.00040   0.00028   0.00894   0.00919   3.12049
   D19        1.03280   0.00042  -0.00002  -0.00052  -0.00050   1.03230
   D20       -1.07502   0.00109  -0.00001   0.01133   0.01135  -1.06368
   D21        3.12752  -0.00041   0.00024  -0.01564  -0.01535   3.11217
   D22       -1.12087  -0.00059   0.00023  -0.02504  -0.02479  -1.14565
   D23        3.05449   0.00008   0.00024  -0.01319  -0.01293   3.04156
   D24        0.97385  -0.00142   0.00050  -0.04015  -0.03963   0.93422
   D25        3.10339   0.00016  -0.00024  -0.00576  -0.00606   3.09733
   D26        0.99556   0.00084  -0.00023   0.00609   0.00580   1.00136
   D27       -1.08508  -0.00066   0.00002  -0.02088  -0.02090  -1.10598
   D28        1.00734  -0.00067   0.00146  -0.10389  -0.10276   0.90458
   D29       -3.11892  -0.00002  -0.00105  -0.05434  -0.05512   3.10915
   D30       -1.07586  -0.00027   0.00029  -0.07663  -0.07639  -1.15225
   D31       -3.11076  -0.00116   0.00106  -0.08472  -0.08381   3.08861
   D32       -0.95384  -0.00051  -0.00145  -0.03517  -0.03617  -0.99000
   D33        1.08922  -0.00076  -0.00011  -0.05746  -0.05744   1.03179
   D34       -1.05206  -0.00027   0.00123  -0.08181  -0.08098  -1.13305
   D35        1.10486   0.00038  -0.00128  -0.03226  -0.03334   1.07152
   D36       -3.13526   0.00013   0.00006  -0.05455  -0.05461   3.09332
   D37        0.88378   0.00164  -0.00069   0.02159   0.02098   0.90476
   D38       -1.13526   0.00073  -0.00035   0.00166   0.00141  -1.13385
   D39       -1.25591  -0.00179  -0.00002  -0.03783  -0.03783  -1.29374
   D40        3.00824  -0.00270   0.00032  -0.05775  -0.05740   2.95084
   D41        2.98563   0.00079   0.00017  -0.00149  -0.00145   2.98419
   D42        0.96659  -0.00012   0.00051  -0.02142  -0.02102   0.94558
   D43       -1.11414  -0.00134   0.00062  -0.00466  -0.00410  -1.11824
   D44       -3.10615  -0.00137   0.00070  -0.00576  -0.00510  -3.11126
   D45        1.08278   0.00265  -0.00055   0.05599   0.05542   1.13821
   D46       -0.90923   0.00261  -0.00046   0.05489   0.05441  -0.85481
   D47        3.11471  -0.00029  -0.00055   0.01613   0.01566   3.13037
   D48        1.12270  -0.00033  -0.00046   0.01503   0.01465   1.13735
         Item               Value     Threshold  Converged?
 Maximum Force            0.011192     0.000450     NO 
 RMS     Force            0.002078     0.000300     NO 
 Maximum Displacement     0.515625     0.001800     NO 
 RMS     Displacement     0.082470     0.001200     NO 
 Predicted change in Energy=-1.681736D-03
 GradGradGradGradGradGradGradGradGradGradGradGradGradGradGradGradGradGrad

                          Input orientation:                          
 ---------------------------------------------------------------------
 Center     Atomic      Atomic             Coordinates (Angstroms)
 Number     Number       Type             X           Y           Z
 ---------------------------------------------------------------------
      1          6           0        0.975854    0.048993   -0.063882
      2          6           0        2.175792   -0.025948   -0.046294
      3          6           0        3.635547   -0.014164    0.043678
      4          6           0        4.259258   -1.323598   -0.472059
      5          6           0        5.801629   -1.349768   -0.455473
      6          6           0        6.357268   -1.167873    0.967852
      7          6           0        6.344658   -2.648388   -1.115507
      8          7           0        5.819968   -2.957664   -2.459820
      9          7           0        7.806958   -2.627439   -1.126365
     10          1           0       -0.071521    0.214054   -0.018126
     11          1           0        3.917849    0.170479    1.085468
     12          1           0        4.018160    0.832860   -0.539054
     13          1           0        3.900874   -1.477212   -1.494777
     14          1           0        3.872854   -2.160639    0.122745
     15          1           0        6.154507   -0.511623   -1.078219
[...]
 000317,-0.00808204,-0.02485342,0.01502643,-0.06554536,-0.19002443,0.10
 457777,-0.00031769,-0.00028234,0.00030658,0.00022711,-0.00001132,0.000
 04302,0.00011770,0.00050137,-0.00056858,-0.00013671,0.00024618,0.00020
 102,0.00014688,0.00035560,-0.00011959,-0.00000767,-0.00004392,0.000004
 60,-0.00052185,0.00134932,0.00000081,0.00268719,-0.00425518,-0.0024116
 3,0.00156343,0.00306655,-0.00215168,0.07126962,0.21153478,-0.00006578,
 -0.00003406,-0.00006268,-0.00066121,0.00023994,0.00025958,-0.00358822,
 -0.01158446,0.00639584,0.04689010,0.10637007,-0.12591457,0.00073707,0.
 00000975,-0.00117369,-0.00033421,-0.00113260,0.00084061,0.00018766,0.0
 0114952,0.00017399,0.00038831,-0.00067932,-0.00009159,-0.00013344,-0.0
 0043298,-0.00004364,0.00000968,0.00000387,-0.00001014,-0.00060864,0.00
 047807,0.00108022,0.00101092,-0.00296928,0.00016452,0.01055587,0.02348
 571,-0.01646694,-0.05445779,-0.11437504,0.13324481,0.00008896,0.000115
 43,0.00001281,0.00024223,0.00010716,-0.00043090,0.00137699,-0.00163633
 ,0.00005748,-0.01511523,-0.02611677,0.01958591,-0.07032387,-0.05629766
 ,0.04230263,0.00369288,0.00925811,-0.00786324,0.00182062,0.00929997,-0
 .00510463,-0.00029595,-0.00052259,-0.00043478,0.00135714,0.00078905,-0
 .00078539,0.00001447,-0.00002584,0.00003027,-0.00005614,0.00008557,0.0
 0001650,0.00005290,0.00117568,-0.00013866,0.00125268,0.00013061,-0.000
 54989,-0.00664785,0.00020170,0.00006093,0.08213273,-0.00006215,-0.0000
 2606,-0.00001717,0.00006301,0.00021787,-0.00005020,0.00034447,0.000964
 66,-0.00061760,-0.00032258,-0.00122993,0.00016968,-0.05694367,-0.18275
 538,0.10053216,0.00106881,0.00262581,-0.00281926,-0.00873635,-0.027955
 90,0.01781853,0.00086517,0.00214719,0.00008950,-0.00178736,0.00183927,
 0.00025803,0.00000440,-0.00002129,0.00001022,0.00008274,0.00000424,-0.
 00005759,-0.00033559,0.00044408,0.00029205,-0.00043124,0.00017659,-0.0
 0008924,0.00014925,0.00079165,-0.00047931,0.06225112,0.20376606,-0.000
 03254,-0.00002490,-0.00000308,-0.00005002,-0.00029714,0.00013043,-0.00
 000726,0.00050103,-0.00018364,0.00015449,0.00088252,-0.00072847,0.0422
 3438,0.09921656,-0.12021127,0.00929817,0.02340797,-0.02041098,-0.00279
 042,-0.01100731,0.00475751,0.00000924,0.00037318,0.00230382,-0.0011020
 6,-0.00016250,0.00048836,0.00000060,0.00003316,-0.00001566,-0.00003251
 ,0.00005320,0.00004955,0.00029687,-0.00053573,0.00001646,0.00045160,-0
 .00033393,0.00070558,0.00003361,-0.00018165,0.00109652,-0.04625662,-0.
 10965107,0.13512395,0.00004435,-0.00000897,0.00000359,-0.00006256,-0.0
 0002923,0.00005121,0.00004680,0.00007009,0.00002511,0.00136239,0.00130
 696,-0.00045394,0.00369014,0.00954936,-0.00815747,-0.08313158,-0.06814
 902,0.05842594,0.00001317,-0.00014617,0.00053629,-0.00003960,0.0001947
 9,0.00003337,-0.00008335,0.00076895,0.00009352,-0.00001110,0.00000200,
 -0.00000505,0.00000796,0.00006868,0.00005679,0.00004715,-0.00013092,0.
 00002950,0.00017455,-0.00010939,0.00019039,0.00008902,-0.00035221,0.00
 018608,-0.00024669,-0.00014649,-0.00294515,0.08603670,0.00004965,0.000
 01544,-0.00001509,0.00004283,0.00003154,-0.00003100,0.00010650,-0.0000
 3190,0.00016000,-0.00018650,0.00036472,-0.00006199,0.00184459,0.001783
 19,-0.00147691,-0.06759782,-0.17394373,0.10803604,0.00020400,0.0008140
 5,-0.00061025,-0.00004545,0.00022920,0.00003679,0.00006440,-0.00005053
 ,0.00025957,0.00000093,-0.00000768,0.00001155,-0.00004200,-0.00033528,
 0.00002869,-0.00007018,0.00011145,-0.00020210,0.00019465,0.00014554,-0
 .00010064,0.00052157,0.00013065,0.00019804,-0.00006559,0.00107267,-0.0
 0071704,0.07549479,0.18719193,-0.00004123,-0.00001272,0.00000160,-0.00
 003079,0.00006045,0.00004728,-0.00024992,-0.00000923,0.00003265,0.0017
 8460,0.00050611,0.00124193,0.01143041,0.02259629,-0.02091480,0.0577798
 1,0.10782415,-0.13879595,0.00026334,0.00264241,0.00072240,-0.00027162,
 -0.00071244,0.00015785,0.00012831,-0.00068524,0.00007244,0.00000261,0.
 00000211,-0.00000609,-0.00006859,0.00014334,-0.00003497,0.00010897,-0.
 00017717,-0.00001868,0.00012168,-0.00044782,0.00037329,-0.00102688,-0.
 00052516,0.00035700,-0.00261610,-0.00123863,-0.00554943,-0.06196963,-0
 .12048773,0.15477759,0.00014344,0.00000243,-0.00000040,-0.00000677,0.0
 0000857,0.00012488,-0.00121279,0.00017751,-0.00068839,0.00055325,-0.00
 057520,0.00052976,0.00249986,-0.01268539,-0.00420649,-0.05990181,0.054
 09220,0.02264786,-0.00234355,0.00041373,-0.00199510,0.00050795,-0.0006
 2805,-0.00078466,0.00005204,0.00082605,0.00118799,-0.00002029,-0.00000
 051,-0.00000062,-0.00193467,0.00040420,-0.00028831,0.00006435,0.000060
 11,0.00005171,0.00017304,0.00019184,-0.00000254,-0.00006988,0.00002428
 ,-0.00009525,0.00038380,0.00036902,0.00064308,0.00217143,-0.01188337,-
 0.00537163,0.06355315,0.00023158,0.00000690,0.00001226,-0.00013403,0.0
 0022364,0.00056078,0.00107302,-0.00009994,-0.00071122,0.00035279,-0.00
 048237,-0.00049145,0.00007598,-0.00180047,0.00039272,0.05301838,-0.258
 03566,-0.08976742,-0.00017064,0.00128084,0.00000959,0.00018514,-0.0000
 6925,-0.00030271,0.00001505,-0.00004314,-0.00021850,-0.00001824,-0.000
 02288,-0.00004303,0.00023852,0.00034952,0.00103557,-0.00009963,-0.0000
 4916,-0.00000486,-0.00016789,0.00009023,0.00002021,0.00002916,0.000062
 22,-0.00003611,-0.00020717,0.00089812,-0.00046625,0.00596093,-0.019912
 10,-0.00873256,-0.06052880,0.27957702,0.00020905,0.00000263,0.00001416
 ,-0.00002887,0.00024570,0.00023118,-0.00022751,-0.00009740,0.00006147,
 0.00095534,-0.00018725,0.00058934,0.00832622,-0.02853493,-0.01178028,0
 .02226517,-0.08858484,-0.08374979,-0.00374456,0.00271400,-0.00388532,0
 .00043499,-0.00225544,-0.00193775,0.00017687,-0.00031457,0.00020269,-0
 .00001619,-0.00002070,-0.00002026,-0.00038007,0.00011417,0.00065054,-0
 .00005612,0.00019013,-0.00025810,0.00014497,0.00009259,-0.00003519,-0.
 00010650,0.00005235,0.00001689,0.00070215,0.00046880,0.00122201,-0.005
 37867,0.01781209,0.00780336,-0.02351564,0.09889243,0.09184862,-0.00008
 542,0.00001564,-0.00000599,0.00001998,0.00006991,0.00002882,0.00027707
 ,-0.00030732,0.00007022,0.00066687,0.00018914,-0.00273423,-0.01166856,
 -0.00007566,-0.00017601,-0.31696695,0.02547322,0.00577360,-0.00133469,
 0.00069332,0.00007598,0.00027002,-0.00022680,-0.00001459,-0.00032997,0
 .00174875,0.00272017,0.00002411,-0.00000672,0.00000358,-0.00001454,-0.
 00005881,-0.00006093,-0.00003492,0.00004526,-0.00004144,-0.00077371,0.
 00014056,-0.00000450,0.00030188,0.00005348,0.00007678,0.00051005,0.000
 24364,-0.00024813,-0.01033172,0.00149402,0.00024591,-0.00480327,0.0002
 1602,0.00040368,0.34403401,0.00010998,0.00000351,0.00000677,-0.0000245
 1,0.00010148,0.00023229,0.00033403,-0.00000602,-0.00034679,-0.00037976
 ,-0.00013223,-0.00140296,-0.00350835,-0.00078449,0.00045058,0.02807562
 ,-0.04945858,0.00129660,-0.00166829,0.00025503,-0.00002214,0.00038308,
 0.00004135,0.00008355,0.00076004,-0.00068146,-0.00098838,-0.00000662,-
 0.00000999,-0.00001872,-0.00016922,-0.00002490,0.00045040,-0.00007435,
 0.00004421,-0.00006171,-0.00042423,0.00042431,-0.00021857,0.00044845,0
 .00021487,0.00000740,0.00030387,0.00006160,-0.00012736,-0.02435524,0.0
 0235119,0.00031186,0.02956720,-0.00246648,-0.00052324,-0.02964322,0.05
 007760,-0.00004517,0.00003334,0.00002018,0.00003147,0.00005199,0.00017
 002,0.00045772,-0.00049071,-0.00040970,-0.00086910,-0.00103903,-0.0065
 6708,-0.03174752,0.00238438,0.00102262,0.00926719,0.00102829,-0.045120
 50,-0.00171838,0.00017657,0.00109896,0.00065466,0.00026870,0.00024967,
 0.00067768,-0.00000090,-0.00144756,0.00001486,-0.00000682,-0.00001064,
 -0.00002327,0.00018807,0.00031051,0.00000578,0.00004146,0.00004240,-0.
 00219954,-0.00000518,-0.00001291,-0.00003675,-0.00021171,0.00003655,0.
 00061337,0.00047779,0.00101659,0.01917163,-0.00297309,-0.00078437,0.01
 154143,-0.00019809,-0.00113930,-0.00649497,0.00031448,0.05151859,-0.00
 000917,-0.00000172,-0.00000084,-0.00002724,-0.00004610,0.00002212,0.00
 010141,0.00005679,0.00004047,0.00114663,0.00037144,-0.00074062,0.00318
 966,0.00975613,-0.00559544,-0.00000815,-0.00051007,-0.00033000,-0.0598
 1049,-0.03969629,0.03235763,0.00374442,0.00889405,-0.01007028,-0.01965
 444,-0.03137964,0.01731104,0.00000124,0.00000482,-0.00000065,-0.000004
 53,-0.00000265,-0.00000054,-0.00008455,-0.00009325,0.00005702,-0.00003
 793,0.00001959,-0.00005675,-0.00007155,-0.00023451,0.00018562,-0.00042
 070,0.00222879,0.00078372,0.00017376,-0.00016602,-0.00000917,-0.000102
 09,-0.00002403,-0.00009489,-0.00002210,0.00003783,0.00024321,0.0767567
 2,0.00007502,0.00001954,0.00000994,0.00005143,-0.00002277,-0.00011161,
 0.00027849,0.00017178,-0.00024888,-0.00173618,0.00044072,0.00058988,-0
 .00609116,-0.02500995,0.01448038,-0.00016126,0.00078602,0.00149010,-0.
 04431893,-0.19797988,0.11294903,0.00168936,0.00604626,-0.00506484,-0.0
 0349916,0.00015493,-0.00020203,-0.00000534,-0.00000833,0.00000888,0.00
 000429,-0.00001805,-0.00001159,-0.00009208,0.00032901,0.00003330,0.000
 06880,0.00001068,0.00002718,0.00103906,0.00040573,-0.00049281,0.001941
 06,-0.00416368,-0.00228099,0.00012668,0.00030069,-0.00120454,0.0002730
 3,0.00047107,-0.00027119,-0.00005893,-0.00006540,-0.00010926,0.0503698
 2,0.21417836,0.00000984,-0.00000769,0.00001690,-0.00000008,0.00005815,
 -0.00002556,-0.00016088,-0.00018661,0.00012640,-0.00061251,0.00025252,
 0.00008543,-0.00225196,-0.00934062,0.00632974,-0.00018845,-0.00026982,
 0.00118454,0.03361471,0.10628527,-0.12906361,0.00414129,0.02400555,-0.
 02988612,0.00242429,0.00108511,0.00178025,-0.00000078,-0.00000068,-0.0
 0000420,0.00000392,0.00002061,0.00000447,0.00008416,0.00001515,-0.0000
 7554,0.00017659,-0.00003881,0.00005283,-0.00022306,0.00018678,0.000167
 73,0.00060263,-0.00268514,-0.00023783,0.00025676,0.00014036,0.00004977
 ,0.00000078,0.00019151,0.00017571,-0.00008561,-0.00006657,0.00001374,-
 0.03435557,-0.11814547,0.15352630,0.00009797,-0.00000598,-0.00002008,-
 0.00006189,-0.00002130,-0.00002083,-0.00008345,0.00012401,-0.00020370,
 0.00015699,-0.00006240,0.00070445,0.00015455,-0.00016621,-0.00000837,0
 .00004193,-0.00008380,-0.00001503,0.00232759,0.01405113,-0.00493381,-0
 .04750290,-0.01361252,-0.01700252,0.00067153,0.00003019,0.00176408,-0.
 00002536,0.00000247,0.00000745,0.00005528,-0.00010460,-0.00005780,0.00
 002228,0.00003123,0.00003323,-0.00069634,0.00003469,0.00001397,-0.0000
 4389,0.00004300,-0.00027977,0.00005955,-0.00039576,0.00031021,-0.00002
 166,-0.00001461,0.00003427,-0.00004783,0.00000284,-0.00007328,-0.00007
 925,-0.00005713,-0.00012907,0.00004631,-0.00030609,-0.00326209,0.04884
 818,-0.00009952,0.00000083,-0.00002163,0.00004501,0.00002599,0.0000371
 8,-0.00001995,-0.00004293,-0.00004700,0.00025181,-0.00003593,-0.000056
 70,0.00078477,0.00269137,-0.00157766,-0.00009511,-0.00021634,-0.000236
 72,0.00038757,0.00356343,-0.01016820,-0.04341989,-0.28142140,0.2001104
 0,0.00208542,0.00079161,-0.00022590,0.00001629,-0.00000087,0.00000616,
 -0.00000686,-0.00001082,0.00000520,0.00000446,-0.00004018,-0.00000613,
 0.00015272,-0.00004071,-0.00022386,-0.00010815,-0.00002895,0.00003086,
 -0.00053135,0.00022382,0.00075850,0.00000163,-0.00016348,0.00007474,-0
 .00001259,-0.00003766,0.00004617,0.00003163,0.00002607,0.00003936,-0.0
 0023721,0.00156185,-0.00136232,0.03413309,0.28479372,-0.00016510,0.000
 01221,-0.00001516,0.00011364,0.00002000,0.00002819,0.00016371,-0.00016
 432,0.00018108,0.00016829,-0.00023444,-0.00042169,0.00068019,0.0018065
 3,0.00191616,-0.00046373,-0.00005987,0.00021972,0.00339191,0.03241222,
 -0.02641554,0.00204556,0.16144827,-0.15954738,-0.00003242,-0.00146839,
 0.00160517,0.00003129,-0.00000318,0.00000640,-0.00005880,0.00011747,0.
 00006531,0.00000376,-0.00003166,-0.00002734,0.00092909,-0.00015940,-0.
 00010268,-0.00021021,0.00000074,0.00032104,-0.00017280,-0.00138945,-0.
 00007876,0.00004539,-0.00003126,0.00039724,0.00000209,-0.00006535,0.00
 018828,0.00009298,0.00003794,0.00004299,-0.00341708,-0.00212261,-0.005
 59712,-0.00133380,-0.19211308,0.18825441,-0.00004444,-0.00001875,-0.00
 001765,0.00008434,-0.00001849,0.00000542,0.00021633,-0.00000330,0.0002
 9884,-0.00050956,0.00119046,0.00038585,0.00020377,-0.00008880,0.000553
 54,-0.00023910,0.00002590,0.00010542,-0.01341778,0.00217653,0.00940431
 ,-0.39250928,-0.12181138,0.01577817,-0.00435590,-0.00072396,-0.0070479
 4,0.00000083,0.00000732,0.00000455,-0.00004313,0.00011734,0.00008242,-
 0.00000885,-0.00000120,-0.00000993,0.00014092,0.00102234,0.00121740,0.
 00001694,-0.00009042,-0.00001391,0.00000565,0.00000356,-0.00003564,0.0
 0003862,0.00002228,-0.00000562,0.00009946,-0.00000385,0.00005435,0.000
 03968,0.00014214,0.00020730,0.00085826,0.00047327,-0.00026416,-0.00306
 028,0.00636457,-0.00071063,0.41103071,-0.00026771,0.00000060,0.0000020
 6,0.00024662,0.00001155,0.00002890,0.00045898,-0.00025221,0.00069262,-
 0.00068644,0.00031828,-0.00189191,-0.00081036,-0.00045828,0.00019050,0
 .00032601,0.00036027,-0.00019667,-0.00807399,-0.00611106,-0.00322048,-
 0.07305123,-0.04429919,0.02129874,0.00168331,0.00180711,0.00038707,0.0
 0005380,0.00000771,0.00000123,-0.00015736,0.00034386,0.00016403,-0.000
 03257,0.00004968,-0.00003426,0.00166687,-0.00161387,0.00010981,0.00001
 072,-0.00007768,0.00019124,0.00005253,0.00016624,-0.00011684,-0.000081
 65,-0.00003277,-0.00001210,-0.00001276,0.00005431,0.00014447,0.0000478
 5,0.00004914,0.00011737,0.00037760,0.00026230,0.00045614,-0.03306636,-
 0.01129684,0.00232680,0.11147053,0.06017491,-0.00016742,0.00001647,-0.
 00004405,0.00015968,-0.00000664,0.00001813,0.00036857,-0.00001585,0.00
 001378,0.00000544,-0.00070814,-0.00018558,-0.00045832,-0.00012226,-0.0
 0036281,0.00013784,0.00003005,-0.00010874,-0.03299555,-0.01009014,0.00
 560839,0.03167444,0.02853544,-0.05690443,-0.00533344,-0.00139327,-0.00
 517963,0.00002904,-0.00000198,0.00001743,-0.00006716,0.00011733,0.0000
 7623,-0.00004403,0.00014505,0.00002776,0.00084332,-0.00112298,-0.00014
 905,0.00017262,0.00014745,-0.00042376,0.00006736,0.00015403,0.00006673
 ,-0.00000893,0.00000326,-0.00006073,0.00002059,0.00004491,0.00001972,0
 .00001580,0.00011419,0.00018593,0.00037626,0.00084996,0.00073067,0.025
 24761,0.00405901,-0.00156211,-0.02025611,-0.02056690,0.05875981,0.0000
 7765,-0.00000849,0.00000008,-0.00002016,-0.00005702,-0.00003551,0.0000
 4936,0.00014337,-0.00001595,-0.00015755,0.00014251,-0.00049075,0.00157
 350,-0.00222248,0.00022378,0.00021752,0.00015649,0.00026924,-0.0166602
 4,-0.03568414,0.02468947,0.00182583,0.00061758,0.00023831,-0.07120627,
 -0.05824476,0.05620981,-0.00001572,0.00000577,0.00000418,0.00000903,-0
 .00001500,-0.00002216,-0.00002853,0.00004464,0.00002020,-0.00006072,0.
 00003178,0.00001960,0.00033928,0.00011748,-0.00009812,-0.00005303,0.00
 158888,-0.00036188,-0.00010608,0.00000682,-0.00023877,0.00002317,-0.00
 001213,-0.00003422,-0.00002574,0.00007585,-0.00009091,-0.00665348,0.00
 031442,0.00003402,-0.00078791,0.00023610,-0.00095709,0.00059875,0.0004
 3161,-0.00015057,0.08736834,-0.00003436,-0.00000488,-0.00000984,0.0000
 0914,-0.00000008,0.00000496,-0.00001624,0.00001914,-0.00001321,0.00026
 074,-0.00012552,-0.00015619,0.00127657,0.00233219,-0.00158915,-0.00004
 056,-0.00016192,0.00004352,-0.00165658,-0.00223742,0.00349999,0.001099
 02,0.00084532,-0.00083434,-0.07241740,-0.28135407,0.14190625,0.0000045
 5,0.00000282,0.00000326,0.00000561,-0.00002132,-0.00002112,0.00000482,
 -0.00003673,0.00000872,-0.00010191,0.00005473,-0.00001490,0.00002934,-
 0.00017700,0.00005454,-0.00013867,0.00020981,0.00069855,-0.00007016,-0
 .00003330,0.00008178,-0.00001705,-0.00003428,-0.00005406,-0.00009492,0
 .00010758,-0.00004423,0.00012681,0.00178506,-0.00083147,-0.00102591,-0
 .00008391,-0.00014669,0.00059885,0.00015109,-0.00006317,0.08150717,0.3
 0573307,-0.00003812,-0.00001180,-0.00001504,0.00000953,-0.00000843,-0.
 00001550,-0.00001071,-0.00004345,0.00000945,-0.00000365,-0.00046796,0.
 00017787,0.00020433,0.00102141,-0.00022217,0.00037646,-0.00053738,-0.0
 0018521,-0.00583774,0.00177336,-0.00643129,-0.00053013,-0.00117643,0.0
 0135594,0.08125300,0.18442555,-0.13282522,0.00000286,0.00000788,0.0000
 0690,0.00002910,-0.00003217,-0.00004508,0.00002730,-0.00004097,0.00001
 406,-0.00016269,0.00006645,-0.00005773,-0.00028855,-0.00001373,0.00008
 104,0.00043099,-0.00085349,0.00028340,-0.00042811,0.00000160,0.0002737
 3,-0.00002844,-0.00009074,-0.00009642,-0.00002608,0.00023258,-0.000844
 67,0.00302849,-0.00006654,0.00102255,-0.00051712,0.00051308,0.00053447
 ,0.00008509,0.00020136,-0.00050617,-0.07089661,-0.16460093,0.13111602,
 -0.00010255,-0.00002299,-0.00003329,-0.00001965,0.00024274,0.00012631,
 -0.00072753,-0.00020067,-0.00019846,0.00020909,0.00198306,0.00117944,-
 0.00767649,-0.00251887,-0.00026527,-0.00010916,-0.00040519,-0.00087462
 ,-0.01987043,0.03651641,0.02288182,0.00405723,0.00024966,0.00011747,-0
 .07825442,0.07145274,0.06192191,0.00000552,-0.00000884,-0.00000114,0.0
 0001966,-0.00004234,0.00000744,0.00001916,-0.00000640,-0.00002111,-0.0
 0012488,0.00006024,-0.00017289,0.00000655,-0.00005032,0.00004731,0.000
 16882,-0.00010167,-0.00035373,0.00013830,0.00002451,0.00000003,0.00021
 799,-0.00003301,-0.00001626,0.00032716,0.00007283,0.00046837,0.0008880
 0,-0.00043560,0.00005615,-0.00007140,0.00003554,-0.00014624,0.00085405
 ,-0.00058601,0.00036294,0.00369300,-0.00930887,-0.00667921,0.09635198,
 -0.00002649,-0.00000859,-0.00000022,0.00002689,0.00000587,0.00002144,-
 0.00004926,0.00006778,0.00008233,-0.00039088,0.00037384,-0.00028298,0.
 00043045,0.00074915,-0.00047428,-0.00009621,0.00024335,0.00019730,-0.0
 0005064,0.00157348,-0.00148045,-0.00246272,-0.00072543,0.00075313,0.08
 894031,-0.28831340,-0.13564462,0.00000359,-0.00000048,-0.00000394,-0.0
 0000623,0.00002023,0.00001646,-0.00000338,-0.00001110,-0.00000774,0.00
 009606,-0.00001425,0.00008177,0.00011087,-0.00001008,-0.00000304,-0.00
 016989,0.00054254,-0.00002196,0.00003458,-0.00003148,0.00000210,-0.000
 06647,0.00003953,0.00006809,0.00000992,-0.00012837,-0.00004280,0.00014
 782,0.00034407,0.00023809,0.00047001,-0.00025867,-0.00019248,-0.000854
 97,0.00038487,-0.00012583,0.01082356,-0.02697036,-0.02029925,-0.096916
 94,0.31212752,0.00011537,-0.00000085,0.00000070,-0.00001219,-0.0000972
 2,-0.00002604,0.00021331,0.00007690,0.00003606,-0.00026734,-0.00074643
 ,0.00023178,0.00062821,0.00109037,-0.00019667,0.00017091,-0.00039788,-
 0.00001718,-0.00678657,-0.00160409,-0.00473768,0.00022003,0.00139542,0
 .00125044,0.09161395,-0.17890411,-0.12877119,-0.00002037,0.00000608,0.
 00000399,-0.00001235,0.00000230,0.00001429,-0.00000182,0.00000594,0.00
 000442,0.00000043,0.00007015,-0.00000394,-0.00004924,0.00002510,-0.000
 04932,-0.00013002,-0.00032266,0.00015822,0.00024140,0.00001912,-0.0001
 4309,0.00022726,-0.00003168,-0.00012155,0.00038497,0.00023779,0.000607
 97,0.00026625,-0.00010626,-0.00037705,-0.00025800,0.00035854,0.0000073
 4,0.00017893,-0.00027318,-0.00003753,-0.00831614,0.02207775,0.00636908
 ,-0.07840699,0.15711889,0.12579696\\0.00004137,-0.00000206,0.00000123,
 -0.00003879,0.00000281,-0.00000345,-0.00000458,-0.00001011,-0.00000460
 ,-0.00000720,0.00000413,-0.00000508,0.00001767,-0.00000750,0.00000341,
 0.00000319,0.00000743,-0.00000130,-0.00000922,0.00001040,0.00002047,-0
 .00000283,-0.00000442,-0.00001243,0.00000184,-0.00000035,0.00000011,-0
 .00000040,0.00000029,0.00000043,-0.00000106,-0.00000040,0.00000057,0.0
 0000177,0.00000380,0.00000122,0.00000039,-0.00000164,-0.00000005,0.000
 00324,-0.00000142,0.00000333,0.00000014,0.00000213,-0.00000189,0.00000
 297,-0.00000176,0.00000121,-0.00000518,-0.00000065,-0.00000469,-0.0000
 0378,-0.00000347,0.00000234,-0.00000077,-0.00000508,0.00000303,0.00000
 161,0.00000248,-0.00000151,-0.00000135,0.00000254,0.00000316,0.0000026
 2,0.00000289,-0.00000293,-0.00000165,-0.00000003,-0.00000260\\\@


 IF GOD HAD MEANT MAN TO SEE THE SUN RISE, HE
 WOULD HAVE SCHEDULED IT FOR A LATER HOUR.
 Job cpu time:       0 days  2 hours 10 minutes 26.3 seconds.
 Elapsed time:       0 days  0 hours 32 minutes 38.5 seconds.
 File lengths (MBytes):  RWF=    178 Int=      0 D2E=      0 Chk=     10 Scr=      1
 Normal termination of Gaussian 16 at Mon May 31 15:42:13 2021.
### All Done ###
