### Starting Gaussian ###
 Entering Gaussian System, Link 0=g16
 Initial command:
 /cluster/software/gaussian/gaussian-16-A.03/avx2/g16/l1.exe "/local/scratch/linjian/Gau-7385.inp" -scrdir="/local/scratch/linjian/"
 Entering Link 1 = /cluster/software/gaussian/gaussian-16-A.03/avx2/g16/l1.exe PID=      7386.
  
 Copyright (c) 1988,1990,1992,1993,1995,1998,2003,2009,2016,
            Gaussian, Inc.  All Rights Reserved.
  
 This is part of the Gaussian(R) 16 program.  It is based on
 the Gaussian(R) 09 system (copyright 2009, Gaussian, Inc.),
 the Gaussian(R) 03 system (copyright 2003, Gaussian, Inc.),
 the Gaussian(R) 98 system (copyright 1998, Gaussian, Inc.),
 the Gaussian(R) 94 system (copyright 1995, Gaussian, Inc.),
 the Gaussian 92(TM) system (copyright 1992, Gaussian, Inc.),
 the Gaussian 90(TM) system (copyright 1990, Gaussian, Inc.),
 the Gaussian 88(TM) system (copyright 1988, Gaussian, Inc.),
 the Gaussian 86(TM) system (copyright 1986, Carnegie Mellon
 University), and the Gaussian 82(TM) system (copyright 1983,
 Carnegie Mellon University). Gaussian is a federally registered
 trademark of Gaussian, Inc.
  
 This software contains proprietary and confidential information,
 including trade secrets, belonging to Gaussian, Inc.
  
 This software is provided under written license and may be
 used, copied, transmitted, or stored only in accord with that
 written license.
  
 The following legend is applicable only to US Government
 contracts under FAR:
  
                    RESTRICTED RIGHTS LEGEND
  
 Use, reproduction and disclosure by the US Government is
 subject to restrictions as set forth in subparagraphs (a)
 and (c) of the Commercial Computer Software - Restricted
 Rights clause in FAR 52.227-19.
  
 Gaussian, Inc.
 340 Quinnipiac St., Bldg. 40, Wallingford CT 06492
  
  
 ---------------------------------------------------------------
 Warning -- This program may not be used in any manner that
 competes with the business of Gaussian, Inc. or will provide
 assistance to any competitor of Gaussian, Inc.  The licensee
 of this program is prohibited from giving any competitor of
 Gaussian, Inc. access to this program.  By using this program,
 the user acknowledges that Gaussian, Inc. is engaged in the
 business of creating and licensing software in the field of
 computational chemistry and represents and warrants to the
 licensee that it is not a competitor of Gaussian, Inc. and that
 it will not use this program in any manner prohibited above.
 ---------------------------------------------------------------
  

 Cite this work as:
 Gaussian 16, Revision A.03,
 M. J. Frisch, G. W. Trucks, H. B. Schlegel, G. E. Scuseria, 
 M. A. Robb, J. R. Cheeseman, G. Scalmani, V. Barone, 
 G. A. Petersson, H. Nakatsuji, X. Li, M. Caricato, A. V. Marenich, 
 J. Bloino, B. G. Janesko, R. Gomperts, B. Mennucci, H. P. Hratchian, 
 J. V. Ortiz, A. F. Izmaylov, J. L. Sonnenberg, D. Williams-Young, 
 F. Ding, F. Lipparini, F. Egidi, J. Goings, B. Peng, A. Petrone, 
 T. Henderson, D. Ranasinghe, V. G. Zakrzewski, J. Gao, N. Rega, 
 G. Zheng, W. Liang, M. Hada, M. Ehara, K. Toyota, R. Fukuda, 
 J. Hasegawa, M. Ishida, T. Nakajima, Y. Honda, O. Kitao, H. Nakai, 
 T. Vreven, K. Throssell, J. A. Montgomery, Jr., J. E. Peralta, 
 F. Ogliaro, M. J. Bearpark, J. J. Heyd, E. N. Brothers, K. N. Kudin, 
 V. N. Staroverov, T. A. Keith, R. Kobayashi, J. Normand, 
 K. Raghavachari, A. P. Rendell, J. C. Burant, S. S. Iyengar, 
 J. Tomasi, M. Cossi, J. M. Millam, M. Klene, C. Adamo, R. Cammi, 
 J. W. Ochterski, R. L. Martin, K. Morokuma, O. Farkas, 
 J. B. Foresman, and D. J. Fox, Gaussian, Inc., Wallingford CT, 2016.
 
 ******************************************
 Gaussian 16:  ES64L-G16RevA.03 25-Dec-2016
                31-May-2021 
 ******************************************
 %chk=NC1pNpCNN1.chk
 %NProcShared=20
 Will use up to   20 processors via shared memory.
 -----------------------------
 # opt freq b3lyp/6-31g(2df,p)
 -----------------------------
 1/18=20,19=15,26=3,38=1/1,3;
 2/9=110,12=2,17=6,18=5,40=1/2;
 3/5=1,6=6,7=104,11=2,25=1,30=1,71=1,74=-5/1,2,3;
 4//1;
 5/5=2,38=5/2;
 6/7=2,8=2,9=2,10=2,28=1/1;
 7//1,2,3,16;
 1/18=20,19=15,26=3/3(2);
 2/9=110/2;
 99//99;
 2/9=110/2;
 3/5=1,6=6,7=104,11=2,25=1,30=1,71=1,74=-5/1,2,3;
 4/5=5,16=3,69=1/1;
 5/5=2,38=5/2;
 7//1,2,3,16;
 1/18=20,19=15,26=3/3(-5);
 2/9=110/2;
 6/7=2,8=2,9=2,10=2,19=2,28=1/1;
 99/9=1/99;
 -------------------
 Title Card Required
 -------------------
 Symbolic Z-matrix:
 Charge =  0 Multiplicity = 1
 N                     1.04638   0.14833   0.27847 
 C                     2.41644   0.05883   0.09595 
 N                     2.66278  -0.006    -1.27228 
 C                     3.21083   1.09452   0.91988 
 N                     4.08849  -0.03823   1.23507 
 N                     3.06005  -0.93049   0.85896 
 H                     0.45261   0.43519  -0.48965 
 H                     0.59154   0.05012   1.17808 
 H                     2.57192   0.77914  -1.89986 
 H                     2.77088  -0.91815  -1.70518 
 H                     2.66102   1.46348   1.79587 
 H                     3.66545   1.93096   0.38966 
 H                     4.37987  -0.16657   2.21171 
 H                     2.72281  -1.55244   1.59291 
 

 GradGradGradGradGradGradGradGradGradGradGradGradGradGradGradGradGradGrad
 Berny optimization.
 Initialization pass.
                           ----------------------------
                           !    Initial Parameters    !
                           ! (Angstroms and Degrees)  !
 --------------------------                            --------------------------
 ! Name  Definition              Value          Derivative Info.                !
 --------------------------------------------------------------------------------
 ! R1    R(1,2)                  1.3851         estimate D2E/DX2                !
 ! R2    R(1,7)                  1.0124         estimate D2E/DX2                !
 ! R3    R(1,8)                  1.0128         estimate D2E/DX2                !
 ! R4    R(2,3)                  1.3917         estimate D2E/DX2                !
 ! R5    R(2,4)                  1.5436         estimate D2E/DX2                !
 ! R6    R(2,6)                  1.4054         estimate D2E/DX2                !
 ! R7    R(3,9)                  1.0092         estimate D2E/DX2                !
 ! R8    R(3,10)                 1.0154         estimate D2E/DX2                !
 ! R9    R(4,5)                  1.4672         estimate D2E/DX2                !
 ! R10   R(4,11)                 1.0981         estimate D2E/DX2                !
 ! R11   R(4,12)                 1.0897         estimate D2E/DX2                !
 ! R12   R(5,6)                  1.4125         estimate D2E/DX2                !
 ! R13   R(5,13)                 1.0272         estimate D2E/DX2                !
 ! R14   R(6,14)                 1.0194         estimate D2E/DX2                !
 ! A1    A(2,1,7)              119.9006         estimate D2E/DX2                !
 ! A2    A(2,1,8)              123.7105         estimate D2E/DX2                !
 ! A3    A(7,1,8)              115.977          estimate D2E/DX2                !
 ! A4    A(1,2,3)              107.9175         estimate D2E/DX2                !
 ! A5    A(1,2,4)              113.2895         estimate D2E/DX2                !
 ! A6    A(1,2,6)              115.2733         estimate D2E/DX2                !
 ! A7    A(3,2,4)              117.7058         estimate D2E/DX2                !
 ! A8    A(3,2,6)              114.8276         estimate D2E/DX2                !
 ! A9    A(4,2,6)               86.9529         estimate D2E/DX2                !
 ! A10   A(2,3,9)              123.9976         estimate D2E/DX2                !
 ! A11   A(2,3,10)             118.6727         estimate D2E/DX2                !
 ! A12   A(9,3,10)             116.3152         estimate D2E/DX2                !
 ! A13   A(2,4,5)               84.52           estimate D2E/DX2                !
 ! A14   A(2,4,11)             113.1782         estimate D2E/DX2                !
 ! A15   A(2,4,12)             118.0354         estimate D2E/DX2                !
 ! A16   A(5,4,11)             112.8017         estimate D2E/DX2                !
 ! A17   A(5,4,12)             116.5881         estimate D2E/DX2                !
 ! A18   A(11,4,12)            109.8246         estimate D2E/DX2                !
 ! A19   A(4,5,6)               89.7108         estimate D2E/DX2                !
 ! A20   A(4,5,13)             118.0586         estimate D2E/DX2                !
 ! A21   A(6,5,13)             112.3805         estimate D2E/DX2                !
 ! A22   A(2,6,5)               91.9098         estimate D2E/DX2                !
 ! A23   A(2,6,14)             131.9782         estimate D2E/DX2                !
 ! A24   A(5,6,14)             115.7558         estimate D2E/DX2                !
 ! D1    D(7,1,2,3)            -18.4884         estimate D2E/DX2                !
 ! D2    D(7,1,2,4)            113.6676         estimate D2E/DX2                !
 ! D3    D(7,1,2,6)           -148.3291         estimate D2E/DX2                !
 ! D4    D(8,1,2,3)            169.1809         estimate D2E/DX2                !
 ! D5    D(8,1,2,4)            -58.6631         estimate D2E/DX2                !
 ! D6    D(8,1,2,6)             39.3402         estimate D2E/DX2                !
 ! D7    D(1,2,3,9)             73.0938         estimate D2E/DX2                !
 ! D8    D(1,2,3,10)           -94.9421         estimate D2E/DX2                !
 ! D9    D(4,2,3,9)            -56.6335         estimate D2E/DX2                !
 ! D10   D(4,2,3,10)           135.3307         estimate D2E/DX2                !
 ! D11   D(6,2,3,9)           -156.8169         estimate D2E/DX2                !
 ! D12   D(6,2,3,10)            35.1472         estimate D2E/DX2                !
 ! D13   D(1,2,4,5)            135.4013         estimate D2E/DX2                !
 ! D14   D(1,2,4,11)            22.9171         estimate D2E/DX2                !
 ! D15   D(1,2,4,12)          -107.3202         estimate D2E/DX2                !
 ! D16   D(3,2,4,5)            -97.4159         estimate D2E/DX2                !
 ! D17   D(3,2,4,11)           150.0998         estimate D2E/DX2                !
 ! D18   D(3,2,4,12)            19.8626         estimate D2E/DX2                !
 ! D19   D(6,2,4,5)             19.1344         estimate D2E/DX2                !
 ! D20   D(6,2,4,11)           -93.3499         estimate D2E/DX2                !
 ! D21   D(6,2,4,12)           136.4129         estimate D2E/DX2                !
 ! D22   D(1,2,6,5)           -134.1979         estimate D2E/DX2                !
 ! D23   D(1,2,6,14)            -6.2567         estimate D2E/DX2                !
 ! D24   D(3,2,6,5)             99.4114         estimate D2E/DX2                !
 ! D25   D(3,2,6,14)          -132.6474         estimate D2E/DX2                !
 ! D26   D(4,2,6,5)            -19.8224         estimate D2E/DX2                !
 ! D27   D(4,2,6,14)           108.1187         estimate D2E/DX2                !
 ! D28   D(2,4,5,6)            -19.0063         estimate D2E/DX2                !
 ! D29   D(2,4,5,13)          -134.3966         estimate D2E/DX2                !
 ! D30   D(11,4,5,6)            93.8603         estimate D2E/DX2                !
 ! D31   D(11,4,5,13)          -21.53           estimate D2E/DX2                !
 ! D32   D(12,4,5,6)          -137.6915         estimate D2E/DX2                !
 ! D33   D(12,4,5,13)          106.9182         estimate D2E/DX2                !
 ! D34   D(4,5,6,2)             20.87           estimate D2E/DX2                !
 ! D35   D(4,5,6,14)          -118.5172         estimate D2E/DX2                !
 ! D36   D(13,5,6,2)           141.3088         estimate D2E/DX2                !
 ! D37   D(13,5,6,14)            1.9217         estimate D2E/DX2                !
 --------------------------------------------------------------------------------
 Trust Radius=3.00D-01 FncErr=1.00D-07 GrdErr=1.00D-06 EigMax=2.50D+02 EigMin=1.00D-04
 Number of steps in this run=     85 maximum allowed number of steps=    100.
 GradGradGradGradGradGradGradGradGradGradGradGradGradGradGradGradGradGrad

                          Input orientation:                          
 ---------------------------------------------------------------------
 Center     Atomic      Atomic             Coordinates (Angstroms)
 Number     Number       Type             X           Y           Z
 ---------------------------------------------------------------------
      1          7           0        1.046380    0.148330    0.278470
      2          6           0        2.416440    0.058830    0.095950
      3          7           0        2.662780   -0.006000   -1.272280
      4          6           0        3.210830    1.094520    0.919880
      5          7           0        4.088490   -0.038230    1.235070
      6          7           0        3.060050   -0.930490    0.858960
      7          1           0        0.452610    0.435190   -0.489650
      8          1           0        0.591540    0.050120    1.178080
      9          1           0        2.571920    0.779140   -1.899860
     10          1           0        2.770880   -0.918150   -1.705180
     11          1           0        2.661020    1.463480    1.795870
     12          1           0        3.665450    1.930960    0.389660
     13          1           0        4.379870   -0.166570    2.211710
     14          1           0        2.722810   -1.552440    1.592910
 ---------------------------------------------------------------------
                    Distance matrix (angstroms):
                    1          2          3          4          5
     1  N    0.000000
     2  C    1.385059   0.000000
     3  N    2.245304   1.391740   0.000000
     4  C    2.447759   1.543558   2.513378   0.000000
     5  N    3.194420   2.025529   2.884526   1.467227   0.000000
     6  N    2.357051   1.405408   2.356839   2.031529   1.412542
     7  H    1.012354   2.083555   2.385793   3.166902   4.051964
     8  H    1.012829   2.121636   3.208964   2.831628   3.498530
     9  H    2.733188   2.127505   1.009236   2.908368   3.577131
    10  H    2.836573   2.079468   1.015434   3.336965   3.339974
    11  H    2.576662   2.218691   3.401899   1.098081   2.146462
    12  H    3.170120   2.269617   2.742117   1.089699   2.184351
    13  H    3.866359   2.895221   3.887463   2.150774   1.027229
    14  H    2.725947   2.220573   3.256439   2.774442   2.070257
                    6          7          8          9         10
     6  N    0.000000
     7  H    3.237680   0.000000
     8  H    2.675252   1.717237   0.000000
     9  H    3.282102   2.568748   3.731902   0.000000
    10  H    2.580424   2.946764   3.741692   1.719965   0.000000
    11  H    2.601561   3.340368   2.581085   3.759612   4.235750
    12  H    2.962203   3.651418   3.688914   2.786467   3.647744
    13  H    2.038487   4.804460   3.932784   4.589995   4.300668
    14  H    1.019429   3.666270   2.698628   4.202199   3.358874
                   11         12         13         14
    11  H    0.000000
    12  H    1.790208   0.000000
    13  H    2.405084   2.868779   0.000000
    14  H    3.023373   3.804005   2.247086   0.000000
 Stoichiometry    C2H8N4
 Framework group  C1[X(C2H8N4)]
 Deg. of freedom    36
 Full point group                 C1      NOp   1
 Largest Abelian subgroup         C1      NOp   1
 Largest concise Abelian subgroup C1      NOp   1
                         Standard orientation:                         
 ---------------------------------------------------------------------
 Center     Atomic      Atomic             Coordinates (Angstroms)
 Number     Number       Type             X           Y           Z
 ---------------------------------------------------------------------
      1          7           0        1.271119    1.062766   -0.016089
      2          6           0        0.381231    0.001406   -0.014401
      3          7           0        1.120895   -1.177502   -0.011131
      4          6           0       -0.740888    0.147492    1.035398
      5          7           0       -1.623023   -0.288869   -0.052803
      6          7           0       -0.627404    0.062516   -0.991178
      7          1           0        2.232921    0.915363    0.263321
      8          1           0        0.998258    2.024843   -0.176641
      9          1           0        1.626281   -1.524393    0.790623
     10          1           0        1.315534   -1.633010   -0.897547
     11          1           0       -0.918748    1.188575    1.335886
     12          1           0       -0.702803   -0.490532    1.917963
     13          1           0       -2.499207    0.226526   -0.200682
     14          1           0       -0.885405    0.786868   -1.660496
 ---------------------------------------------------------------------
 Rotational constants (GHZ):           5.9143800           3.4519232           3.1811298
 Standard basis: 6-31G(2df,p) (6D, 7F)
 There are   226 symmetry adapted cartesian basis functions of A   symmetry.
 There are   208 symmetry adapted basis functions of A   symmetry.
   208 basis functions,   320 primitive gaussians,   226 cartesian basis functions
    24 alpha electrons       24 beta electrons
       nuclear repulsion energy       268.6613311256 Hartrees.
 NAtoms=   14 NActive=   14 NUniq=   14 SFac= 1.00D+00 NAtFMM=   60 NAOKFM=F Big=F
 Integral buffers will be    131072 words long.
 Raffenetti 2 integral format.
 Two-electron integral symmetry is turned on.
 One-electron integrals computed using PRISM.
 PrsmSu:  requested number of processors reduced to:  13 ShMem   1 Linda.
 NBasis=   208 RedAO= T EigKep=  2.04D-04  NBF=   208
 NBsUse=   208 1.00D-06 EigRej= -1.00D+00 NBFU=   208
 ExpMin= 1.61D-01 ExpMax= 4.17D+03 ExpMxC= 6.27D+02 IAcc=3 IRadAn=         5 AccDes= 0.00D+00
 Harris functional with IExCor=  402 and IRadAn=       5 diagonalized for initial guess.
 HarFok:  IExCor=  402 AccDes= 0.00D+00 IRadAn=         5 IDoV= 1 UseB2=F ITyADJ=14
 ICtDFT=  3500011 ScaDFX=  1.000000  1.000000  1.000000  1.000000
 FoFCou: FMM=F IPFlag=           0 FMFlag=      100000 FMFlg1=           0
         NFxFlg=           0 DoJE=T BraDBF=F KetDBF=T FulRan=T
         wScrn=  0.000000 ICntrl=       500 IOpCl=  0 I1Cent=   200000004 NGrid=           0
         NMat0=    1 NMatS0=      1 NMatT0=    0 NMatD0=    1 NMtDS0=    0 NMtDT0=    0
 Petite list used in FoFCou.
 Requested convergence on RMS density matrix=1.00D-08 within 128 cycles.
 Requested convergence on MAX density matrix=1.00D-06.
 Requested convergence on             energy=1.00D-06.
 No special actions if energy rises.
 Integral accuracy reduced to 1.0D-05 until final iterations.
 Initial convergence to 1.0D-05 achieved.  Increase integral accuracy.
 SCF Done:  E(RB3LYP) =  -299.924660709     A.U. after   12 cycles
            NFock= 12  Conv=0.46D-08     -V/T= 2.0057

 **********************************************************************

            Population analysis using the SCF density.

 **********************************************************************

 Orbital symmetries:
       Occupied  (A) (A) (A) (A) (A) (A) (A) (A) (A) (A) (A) (A)
                 (A) (A) (A) (A) (A) (A) (A) (A) (A) (A) (A) (A)
       Virtual   (A) (A) (A) (A) (A) (A) (A) (A) (A) (A) (A) (A)
                 (A) (A) (A) (A) (A) (A) (A) (A) (A) (A) (A) (A)
                 (A) (A) (A) (A) (A) (A) (A) (A) (A) (A) (A) (A)
                 (A) (A) (A) (A) (A) (A) (A) (A) (A) (A) (A) (A)
                 (A) (A) (A) (A) (A) (A) (A) (A) (A) (A) (A) (A)
                 (A) (A) (A) (A) (A) (A) (A) (A) (A) (A) (A) (A)
                 (A) (A) (A) (A) (A) (A) (A) (A) (A) (A) (A) (A)
                 (A) (A) (A) (A) (A) (A) (A) (A) (A) (A) (A) (A)
                 (A) (A) (A) (A) (A) (A) (A) (A) (A) (A) (A) (A)
                 (A) (A) (A) (A) (A) (A) (A) (A) (A) (A) (A) (A)
                 (A) (A) (A) (A) (A) (A) (A) (A) (A) (A) (A) (A)
                 (A) (A) (A) (A) (A) (A) (A) (A) (A) (A) (A) (A)
                 (A) (A) (A) (A) (A) (A) (A) (A) (A) (A) (A) (A)
                 (A) (A) (A) (A) (A) (A) (A) (A) (A) (A) (A) (A)
                 (A) (A) (A) (A) (A) (A) (A) (A) (A) (A) (A) (A)
                 (A) (A) (A) (A)
 The electronic state is 1-A.
 Alpha  occ. eigenvalues --  -14.31728 -14.31037 -14.28757 -14.28487 -10.25543
 Alpha  occ. eigenvalues --  -10.18149  -1.01100  -0.89653  -0.81882  -0.73936
 Alpha  occ. eigenvalues --   -0.68090  -0.57251  -0.54330  -0.50542  -0.49267
 Alpha  occ. eigenvalues --   -0.45036  -0.41764  -0.40342  -0.38602  -0.36014
 Alpha  occ. eigenvalues --   -0.28679  -0.21246  -0.20679  -0.15775
 Alpha virt. eigenvalues --    0.07423   0.08987   0.12600   0.12891   0.14010
 Alpha virt. eigenvalues --    0.15700   0.17545   0.18283   0.20125   0.20751
 Alpha virt. eigenvalues --    0.27144   0.30710   0.34482   0.37816   0.46061
 Alpha virt. eigenvalues --    0.50315   0.52251   0.53210   0.54433   0.58126
 Alpha virt. eigenvalues --    0.59713   0.60851   0.61855   0.62301   0.65189
 Alpha virt. eigenvalues --    0.69052   0.69998   0.72346   0.73702   0.75268
 Alpha virt. eigenvalues --    0.77188   0.77569   0.78626   0.80009   0.81544
 Alpha virt. eigenvalues --    0.82147   0.83221   0.86544   0.89169   0.90640
 Alpha virt. eigenvalues --    0.91480   0.97551   1.03474   1.08023   1.11037
 Alpha virt. eigenvalues --    1.17294   1.21255   1.26219   1.29147   1.30606
 Alpha virt. eigenvalues --    1.35035   1.38064   1.42348   1.44092   1.47266
 Alpha virt. eigenvalues --    1.50039   1.52045   1.53740   1.57652   1.59373
 Alpha virt. eigenvalues --    1.61381   1.64177   1.71779   1.72997   1.76879
 Alpha virt. eigenvalues --    1.80399   1.83690   1.89623   1.92101   1.95451
 Alpha virt. eigenvalues --    1.98346   2.01636   2.06173   2.07580   2.13921
 Alpha virt. eigenvalues --    2.27567   2.33841   2.37777   2.39654   2.41389
 Alpha virt. eigenvalues --    2.44060   2.45560   2.50541   2.54911   2.61026
 Alpha virt. eigenvalues --    2.63267   2.65636   2.76318   2.79774   2.83388
 Alpha virt. eigenvalues --    2.86112   2.90983   2.94412   2.95913   2.96794
 Alpha virt. eigenvalues --    2.99124   3.01150   3.05642   3.06227   3.09488
 Alpha virt. eigenvalues --    3.17308   3.18236   3.22979   3.28682   3.29849
 Alpha virt. eigenvalues --    3.33175   3.36638   3.39768   3.48095   3.53720
 Alpha virt. eigenvalues --    3.56250   3.60093   3.66199   3.71112   3.77495
 Alpha virt. eigenvalues --    3.83895   3.86906   3.90556   3.98842   4.01694
 Alpha virt. eigenvalues --    4.03157   4.07745   4.09913   4.12727   4.13479
 Alpha virt. eigenvalues --    4.15916   4.18473   4.20573   4.23035   4.25267
 Alpha virt. eigenvalues --    4.26548   4.28320   4.33255   4.35718   4.38319
 Alpha virt. eigenvalues --    4.42683   4.43753   4.46773   4.50987   4.54383
 Alpha virt. eigenvalues --    4.56374   4.58432   4.62032   4.64518   4.67584
 Alpha virt. eigenvalues --    4.68634   4.71104   4.71838   4.78985   4.79272
 Alpha virt. eigenvalues --    4.82862   4.85940   4.87464   4.89974   4.93360
 Alpha virt. eigenvalues --    4.95811   4.96857   5.01161   5.03724   5.08302
 Alpha virt. eigenvalues --    5.11141   5.16563   5.21693   5.27011   5.34152
 Alpha virt. eigenvalues --    5.40413   5.42245   5.48814   5.53617   5.61428
 Alpha virt. eigenvalues --    5.64282   5.74564   5.85435   5.90955   8.36467
 Alpha virt. eigenvalues --    9.98197  11.22221  11.29903  11.46985  11.50709
 Alpha virt. eigenvalues --   11.98406  12.71421  14.13092  19.71813
          Condensed to atoms (all electrons):
               1          2          3          4          5          6
     1  N    6.639003   0.448685  -0.082021  -0.099236   0.001617  -0.035263
     2  C    0.448685   4.370408   0.336454   0.362218  -0.049898   0.279922
     3  N   -0.082021   0.336454   6.686162  -0.041297  -0.005875  -0.025474
     4  C   -0.099236   0.362218  -0.041297   5.180022   0.357339  -0.216418
     5  N    0.001617  -0.049898  -0.005875   0.357339   6.540854   0.222273
     6  N   -0.035263   0.279922  -0.025474  -0.216418   0.222273   6.777059
     7  H    0.334033  -0.044257   0.011657   0.005299  -0.000675   0.005835
     8  H    0.324416  -0.037288   0.009764   0.000949  -0.001281   0.005706
     9  H   -0.000305  -0.025338   0.346620  -0.002551  -0.000005   0.003749
    10  H    0.001383  -0.022653   0.332840   0.007212  -0.000017   0.002897
    11  H    0.002850  -0.021367   0.004287   0.334928  -0.046333   0.020990
    12  H    0.004877  -0.010652   0.000212   0.319083  -0.015757   0.012310
    13  H   -0.000774   0.015181  -0.000506  -0.040583   0.336109  -0.060672
    14  H    0.004078  -0.051823   0.003652   0.020451  -0.053206   0.342663
               7          8          9         10         11         12
     1  N    0.334033   0.324416  -0.000305   0.001383   0.002850   0.004877
     2  C   -0.044257  -0.037288  -0.025338  -0.022653  -0.021367  -0.010652
     3  N    0.011657   0.009764   0.346620   0.332840   0.004287   0.000212
     4  C    0.005299   0.000949  -0.002551   0.007212   0.334928   0.319083
     5  N   -0.000675  -0.001281  -0.000005  -0.000017  -0.046333  -0.015757
     6  N    0.005835   0.005706   0.003749   0.002897   0.020990   0.012310
     7  H    0.494287  -0.023678   0.000823  -0.000110   0.000591  -0.000150
     8  H   -0.023678   0.507954  -0.000226  -0.000353   0.003123  -0.000139
     9  H    0.000823  -0.000226   0.472315  -0.027600  -0.000249   0.000913
    10  H   -0.000110  -0.000353  -0.027600   0.473171  -0.000232  -0.000438
    11  H    0.000591   0.003123  -0.000249  -0.000232   0.687408  -0.045087
    12  H   -0.000150  -0.000139   0.000913  -0.000438  -0.045087   0.649553
    13  H    0.000004  -0.000126   0.000042   0.000120  -0.013536   0.001781
    14  H    0.000249   0.002567  -0.000194  -0.000139   0.001594  -0.000566
              13         14
     1  N   -0.000774   0.004078
     2  C    0.015181  -0.051823
     3  N   -0.000506   0.003652
     4  C   -0.040583   0.020451
     5  N    0.336109  -0.053206
     6  N   -0.060672   0.342663
     7  H    0.000004   0.000249
     8  H   -0.000126   0.002567
     9  H    0.000042  -0.000194
    10  H    0.000120  -0.000139
    11  H   -0.013536   0.001594
    12  H    0.001781  -0.000566
    13  H    0.565854  -0.012148
    14  H   -0.012148   0.520251
 Mulliken charges:
               1
     1  N   -0.543342
     2  C    0.450407
     3  N   -0.576477
     4  C   -0.187415
     5  N   -0.285146
     6  N   -0.335578
     7  H    0.216093
     8  H    0.208612
     9  H    0.232006
    10  H    0.233919
    11  H    0.071033
    12  H    0.084060
    13  H    0.209255
    14  H    0.222571
 Sum of Mulliken charges =  -0.00000
 Mulliken charges with hydrogens summed into heavy atoms:
               1
     1  N   -0.118637
     2  C    0.450407
     3  N   -0.110551
     4  C   -0.032321
     5  N   -0.075891
     6  N   -0.113006
 Electronic spatial extent (au):  <R**2>=            496.9187
 Charge=             -0.0000 electrons
 Dipole moment (field-independent basis, Debye):
    X=              0.9039    Y=              1.9884    Z=              0.3286  Tot=              2.2088
 Quadrupole moment (field-independent basis, Debye-Ang):
   XX=            -32.1329   YY=            -34.5365   ZZ=            -35.2994
   XY=             -5.1124   XZ=              1.9040   YZ=             -1.9491
 Traceless Quadrupole moment (field-independent basis, Debye-Ang):
   XX=              1.8567   YY=             -0.5469   ZZ=             -1.3098
   XY=             -5.1124   XZ=              1.9040   YZ=             -1.9491
 Octapole moment (field-independent basis, Debye-Ang**2):
  XXX=              3.0473  YYY=              5.6836  ZZZ=             -3.4986  XYY=              8.4707
  XXY=              4.1743  XXZ=              0.3745  XZZ=              0.2076  YZZ=             -0.8630
  YYZ=             -3.0834  XYZ=              2.2122
 Hexadecapole moment (field-independent basis, Debye-Ang**3):
 XXXX=           -272.0272 YYYY=           -149.0775 ZZZZ=           -136.6529 XXXY=            -13.3095
 XXXZ=             15.5920 YYYX=             -7.4829 YYYZ=             -2.0075 ZZZX=              5.8763
 ZZZY=             -8.2249 XXYY=            -72.9725 XXZZ=            -71.4084 YYZZ=            -46.0320
 XXYZ=             -2.0013 YYXZ=              0.9041 ZZXY=             -9.3504
 N-N= 2.686613311256D+02 E-N=-1.237612976560D+03  KE= 2.982186676712D+02
 PrsmSu:  requested number of processors reduced to:  13 ShMem   1 Linda.
 Calling FoFJK, ICntrl=      2127 FMM=F ISym2X=0 I1Cent= 0 IOpClX= 0 NMat=1 NMatS=1 NMatT=0.
 ***** Axes restored to original set *****
 -------------------------------------------------------------------
 Center     Atomic                   Forces (Hartrees/Bohr)
 Number     Number              X              Y              Z
 -------------------------------------------------------------------
      1        7          -0.064239694   -0.007704176    0.006537437
      2        6          -0.042753717    0.035247938    0.015276673
      3        7           0.027681330   -0.010019286   -0.041307959
      4        6           0.020797196    0.014114260    0.000827905
      5        7           0.045503273    0.015053277    0.020832573
      6        7           0.025093888   -0.076169476   -0.000088444
      7        1           0.007011706   -0.004916141    0.005830120
      8        1           0.006733346    0.005059381   -0.003997544
      9        1          -0.000499965   -0.002367449    0.008527217
     10        1          -0.001958169    0.009060904    0.007083217
     11        1          -0.005676033   -0.000340205   -0.003628315
     12        1           0.005142875    0.002611692   -0.000478076
     13        1          -0.006399293    0.006238796   -0.005938996
     14        1          -0.016436742    0.014130485   -0.009475810
 -------------------------------------------------------------------
 Cartesian Forces:  Max     0.076169476 RMS     0.022394325

 GradGradGradGradGradGradGradGradGradGradGradGradGradGradGradGradGradGrad
 Berny optimization.
 FormGI is forming the generalized inverse of G from B-inverse, IUseBI=4.
 Internal  Forces:  Max     0.050562155 RMS     0.011710340
 Search for a local minimum.
 Step number   1 out of a maximum of   85
 All quantities printed in internal units (Hartrees-Bohrs-Radians)
 Mixed Optimization -- RFO/linear search
 Second derivative matrix not updated -- first step.
 ITU=  0
     Eigenvalues ---    0.00936   0.01801   0.01889   0.01892   0.01926
     Eigenvalues ---    0.02549   0.03070   0.04642   0.04917   0.05430
     Eigenvalues ---    0.05482   0.07093   0.07722   0.09108   0.09269
     Eigenvalues ---    0.09631   0.11506   0.16000   0.16000   0.16000
     Eigenvalues ---    0.16000   0.20236   0.26299   0.32397   0.33895
     Eigenvalues ---    0.34847   0.39298   0.41591   0.43204   0.44429
     Eigenvalues ---    0.45075   0.45502   0.45581   0.46101   0.47017
     Eigenvalues ---    0.48189
 RFO step:  Lambda=-3.50610647D-02 EMin= 9.36027133D-03
 Linear search not attempted -- first point.
 Maximum step size (   0.300) exceeded in Quadratic search.
    -- Step size scaled by   0.976
 Iteration  1 RMS(Cart)=  0.05865196 RMS(Int)=  0.00285575
 Iteration  2 RMS(Cart)=  0.00298458 RMS(Int)=  0.00137208
 Iteration  3 RMS(Cart)=  0.00000645 RMS(Int)=  0.00137207
 Iteration  4 RMS(Cart)=  0.00000001 RMS(Int)=  0.00137207
 Variable       Old X    -DE/DX   Delta X   Delta X   Delta X     New X
                                 (Linear)    (Quad)   (Total)
    R1        2.61738   0.05056   0.00000   0.09542   0.09542   2.71280
    R2        1.91307  -0.00993   0.00000  -0.01973  -0.01973   1.89334
    R3        1.91397  -0.00707   0.00000  -0.01406  -0.01406   1.89991
    R4        2.63001   0.02988   0.00000   0.05770   0.05770   2.68771
    R5        2.91690   0.02164   0.00000   0.06123   0.06140   2.97830
    R6        2.65584   0.03796   0.00000   0.08605   0.08728   2.74312
    R7        1.90718  -0.00710   0.00000  -0.01396  -0.01396   1.89322
    R8        1.91889  -0.01137   0.00000  -0.02283  -0.02283   1.89606
    R9        2.77266   0.01630   0.00000   0.03015   0.02924   2.80189
   R10        2.07507  -0.00017   0.00000  -0.00043  -0.00043   2.07464
   R11        2.05923   0.00438   0.00000   0.01115   0.01115   2.07038
   R12        2.66932   0.04222   0.00000   0.09063   0.09016   2.75948
   R13        1.94118  -0.00824   0.00000  -0.01721  -0.01721   1.92397
   R14        1.92644  -0.01001   0.00000  -0.02036  -0.02036   1.90608
    A1        2.09266  -0.00008   0.00000  -0.00111  -0.00124   2.09142
    A2        2.15916  -0.00345   0.00000  -0.01800  -0.01812   2.14103
    A3        2.02418   0.00334   0.00000   0.01596   0.01583   2.04001
    A4        1.88351   0.00818   0.00000   0.05742   0.05893   1.94244
    A5        1.97727   0.00863   0.00000   0.06459   0.06559   2.04286
    A6        2.01190  -0.00021   0.00000   0.00112   0.00146   2.01335
    A7        2.05435  -0.01228   0.00000  -0.07268  -0.07614   1.97821
    A8        2.00412  -0.00728   0.00000  -0.06762  -0.06974   1.93438
    A9        1.51761   0.00075   0.00000   0.00143  -0.00113   1.51648
   A10        2.16417  -0.00518   0.00000  -0.02637  -0.02641   2.13776
   A11        2.07123  -0.00005   0.00000  -0.00070  -0.00074   2.07049
   A12        2.03008   0.00502   0.00000   0.02467   0.02463   2.05472
   A13        1.47515   0.01005   0.00000   0.03723   0.03637   1.51152
   A14        1.97533  -0.00902   0.00000  -0.06162  -0.06182   1.91351
   A15        2.06011   0.00229   0.00000   0.03062   0.03117   2.09128
   A16        1.96876  -0.00165   0.00000   0.00661   0.00767   1.97643
   A17        2.03485  -0.00382   0.00000  -0.01127  -0.01204   2.02280
   A18        1.91680   0.00258   0.00000   0.00212   0.00209   1.91889
   A19        1.56575   0.00050   0.00000   0.00977   0.00780   1.57355
   A20        2.06051  -0.00486   0.00000  -0.04304  -0.04342   2.01709
   A21        1.96141   0.00208   0.00000   0.01697   0.01809   1.97950
   A22        1.60413  -0.00588   0.00000   0.00723   0.00583   1.60996
   A23        2.30345  -0.01839   0.00000  -0.15628  -0.15459   2.14886
   A24        2.02032   0.01264   0.00000   0.04349   0.03748   2.05780
    D1       -0.32268   0.00105   0.00000   0.00647   0.00486  -0.31782
    D2        1.98387  -0.00146   0.00000   0.01065   0.01210   1.99597
    D3       -2.58883   0.00398   0.00000   0.04765   0.04782  -2.54101
    D4        2.95276   0.00260   0.00000   0.03445   0.03283   2.98560
    D5       -1.02386   0.00009   0.00000   0.03863   0.04006  -0.98380
    D6        0.68662   0.00554   0.00000   0.07563   0.07579   0.76240
    D7        1.27573   0.00273   0.00000   0.02708   0.02702   1.30275
    D8       -1.65705   0.00334   0.00000   0.03801   0.03794  -1.61911
    D9       -0.98844  -0.00677   0.00000  -0.05686  -0.05468  -1.04312
   D10        2.36197  -0.00616   0.00000  -0.04593  -0.04375   2.31821
   D11       -2.73697   0.00371   0.00000   0.02405   0.02194  -2.71503
   D12        0.61343   0.00431   0.00000   0.03498   0.03286   0.64630
   D13        2.36320  -0.00432   0.00000  -0.06101  -0.06070   2.30250
   D14        0.39998  -0.00612   0.00000  -0.07947  -0.07819   0.32179
   D15       -1.87309  -0.00279   0.00000  -0.04835  -0.04716  -1.92025
   D16       -1.70023   0.00467   0.00000   0.01877   0.01709  -1.68314
   D17        2.61974   0.00287   0.00000   0.00031  -0.00041   2.61933
   D18        0.34667   0.00620   0.00000   0.03143   0.03063   0.37729
   D19        0.33396  -0.00575   0.00000  -0.07278  -0.07327   0.26069
   D20       -1.62926  -0.00755   0.00000  -0.09124  -0.09076  -1.72002
   D21        2.38085  -0.00422   0.00000  -0.06011  -0.05973   2.32112
   D22       -2.34220  -0.00070   0.00000   0.00954   0.00829  -2.33391
   D23       -0.10920  -0.00181   0.00000  -0.03141  -0.02933  -0.13853
   D24        1.73506  -0.00553   0.00000  -0.01147  -0.01302   1.72204
   D25       -2.31513  -0.00665   0.00000  -0.05243  -0.05063  -2.36577
   D26       -0.34597   0.00928   0.00000   0.08256   0.08144  -0.26452
   D27        1.88703   0.00817   0.00000   0.04160   0.04383   1.93086
   D28       -0.33172   0.00622   0.00000   0.07278   0.07300  -0.25872
   D29       -2.34566   0.00471   0.00000   0.05801   0.05845  -2.28722
   D30        1.63817   0.00047   0.00000   0.02175   0.02176   1.65993
   D31       -0.37577  -0.00104   0.00000   0.00697   0.00720  -0.36857
   D32       -2.40317  -0.00094   0.00000   0.02074   0.02097  -2.38220
   D33        1.86607  -0.00245   0.00000   0.00597   0.00641   1.87248
   D34        0.36425  -0.00922   0.00000  -0.08345  -0.08306   0.28119
   D35       -2.06851   0.01095   0.00000   0.08249   0.08505  -1.98346
   D36        2.46630  -0.01386   0.00000  -0.12246  -0.12325   2.34305
   D37        0.03354   0.00630   0.00000   0.04349   0.04486   0.07840
         Item               Value     Threshold  Converged?
 Maximum Force            0.050562     0.000450     NO 
 RMS     Force            0.011710     0.000300     NO 
 Maximum Displacement     0.183568     0.001800     NO 
 RMS     Displacement     0.058795     0.001200     NO 
 Predicted change in Energy=-2.078474D-02
 GradGradGradGradGradGradGradGradGradGradGradGradGradGradGradGradGradGrad

                          Input orientation:                          
 ---------------------------------------------------------------------
 Center     Atomic      Atomic             Coordinates (Angstroms)
 Number     Number       Type             X           Y           Z
 ---------------------------------------------------------------------
      1          7           0        0.963322    0.112940    0.312294
      2          6           0        2.382335    0.065881    0.100170
      3          7           0        2.695759    0.009097   -1.285977
      4          6           0        3.260907    1.103653    0.897079
      5          7           0        4.127850   -0.042905    1.260686
      6          7           0        3.086141   -0.971874    0.831507
      7          1           0        0.355470    0.375791   -0.439538
      8          1           0        0.547524    0.024517    1.223390
      9          1           0        2.618881    0.806118   -1.888097
     10          1           0        2.818583   -0.889705   -1.714682
     11          1           0        2.686697    1.498701    1.745310
     12          1           0        3.752253    1.924802    0.363573
     13          1           0        4.359186   -0.122866    2.248947
     14          1           0        2.646163   -1.545461    1.534927
 ---------------------------------------------------------------------
                    Distance matrix (angstroms):
                    1          2          3          4          5
     1  N    0.000000
     2  C    1.435551   0.000000
     3  N    2.359363   1.422274   0.000000
     4  C    2.569510   1.576047   2.506627   0.000000
     5  N    3.307260   2.098918   2.922171   1.482699   0.000000
     6  N    2.439829   1.451597   2.366103   2.083904   1.460251
     7  H    1.001911   2.120261   2.515528   3.279922   4.158956
     8  H    1.005387   2.151712   3.303343   2.938275   3.581155
     9  H    2.839558   2.134738   1.001848   2.873662   3.593419
    10  H    2.925051   2.096937   1.003354   3.315181   3.359176
    11  H    2.635126   2.202748   3.377530   1.097851   2.165256
    12  H    3.326200   2.324144   2.739912   1.095598   2.194939
    13  H    3.916391   2.925887   3.908976   2.130285   1.018121
    14  H    2.660278   2.173604   3.221274   2.793307   2.127975
                    6          7          8          9         10
     6  N    0.000000
     7  H    3.299746   0.000000
     8  H    2.755167   1.710441   0.000000
     9  H    3.282656   2.721495   3.818739   0.000000
    10  H    2.561526   3.048672   3.824366   1.716324   0.000000
    11  H    2.664269   3.386607   2.649846   3.699449   4.206355
    12  H    3.008887   3.818711   3.823697   2.757899   3.621096
    13  H    2.085808   4.848335   3.949970   4.583318   4.321094
    14  H    1.008653   3.582875   2.639351   4.153042   3.319593
                   11         12         13         14
    11  H    0.000000
    12  H    1.796154   0.000000
    13  H    2.383348   2.848850   0.000000
    14  H    3.051692   3.825994   2.338386   0.000000
 Stoichiometry    C2H8N4
 Framework group  C1[X(C2H8N4)]
 Deg. of freedom    36
 Full point group                 C1      NOp   1
 Largest Abelian subgroup         C1      NOp   1
 Largest concise Abelian subgroup C1      NOp   1
                         Standard orientation:                         
 ---------------------------------------------------------------------
 Center     Atomic      Atomic             Coordinates (Angstroms)
 Number     Number       Type             X           Y           Z
 ---------------------------------------------------------------------
      1          7           0        1.378580    1.061187    0.071957
      2          6           0        0.407798    0.005821    0.004195
      3          7           0        1.034709   -1.267401   -0.089354
      4          6           0       -0.769589    0.046776    1.051097
      5          7           0       -1.679950   -0.185889   -0.095858
      6          7           0       -0.606042    0.158789   -1.023357
      7          1           0        2.325585    0.851847    0.323326
      8          1           0        1.128881    2.033103    0.010052
      9          1           0        1.478114   -1.707666    0.693754
     10          1           0        1.202686   -1.654868   -0.999503
     11          1           0       -0.853396    1.056965    1.472726
     12          1           0       -0.811136   -0.697808    1.853721
     13          1           0       -2.481459    0.439176   -0.154571
     14          1           0       -0.709606    0.996860   -1.574984
 ---------------------------------------------------------------------
 Rotational constants (GHZ):           5.5906542           3.3270236           3.0371387
 Standard basis: 6-31G(2df,p) (6D, 7F)
 There are   226 symmetry adapted cartesian basis functions of A   symmetry.
 There are   208 symmetry adapted basis functions of A   symmetry.
   208 basis functions,   320 primitive gaussians,   226 cartesian basis functions
    24 alpha electrons       24 beta electrons
       nuclear repulsion energy       263.3174216811 Hartrees.
 NAtoms=   14 NActive=   14 NUniq=   14 SFac= 1.00D+00 NAtFMM=   60 NAOKFM=F Big=F
 Integral buffers will be    131072 words long.
 Raffenetti 2 integral format.
 Two-electron integral symmetry is turned on.
 One-electron integrals computed using PRISM.
 PrsmSu:  requested number of processors reduced to:  13 ShMem   1 Linda.
 NBasis=   208 RedAO= T EigKep=  2.23D-04  NBF=   208
 NBsUse=   208 1.00D-06 EigRej= -1.00D+00 NBFU=   208
 Initial guess from the checkpoint file:  "NC1pNpCNN1.chk"
 B after Tr=     0.000000    0.000000   -0.000000
         Rot=    0.998616   -0.043943    0.007210    0.027975 Ang=  -6.03 deg.
 ExpMin= 1.61D-01 ExpMax= 4.17D+03 ExpMxC= 6.27D+02 IAcc=2 IRadAn=         4 AccDes= 0.00D+00
 Harris functional with IExCor=  402 and IRadAn=       4 diagonalized for initial guess.
 HarFok:  IExCor=  402 AccDes= 0.00D+00 IRadAn=         4 IDoV= 1 UseB2=F ITyADJ=14
 ICtDFT=  3500011 ScaDFX=  1.000000  1.000000  1.000000  1.000000
 FoFCou: FMM=F IPFlag=           0 FMFlag=      100000 FMFlg1=           0
         NFxFlg=           0 DoJE=T BraDBF=F KetDBF=T FulRan=T
         wScrn=  0.000000 ICntrl=       500 IOpCl=  0 I1Cent=   200000004 NGrid=           0
         NMat0=    1 NMatS0=      1 NMatT0=    0 NMatD0=    1 NMtDS0=    0 NMtDT0=    0
 Petite list used in FoFCou.
 Requested convergence on RMS density matrix=1.00D-08 within 128 cycles.
 Requested convergence on MAX density matrix=1.00D-06.
 Requested convergence on             energy=1.00D-06.
 No special actions if energy rises.
 Integral accuracy reduced to 1.0D-05 until final iterations.
 Initial convergence to 1.0D-05 achieved.  Increase integral accuracy.
 SCF Done:  E(RB3LYP) =  -299.945298520     A.U. after   11 cycles
            NFock= 11  Conv=0.76D-08     -V/T= 2.0071
 PrsmSu:  requested number of processors reduced to:  13 ShMem   1 Linda.
 Calling FoFJK, ICntrl=      2127 FMM=F ISym2X=0 I1Cent= 0 IOpClX= 0 NMat=1 NMatS=1 NMatT=0.
 ***** Axes restored to original set *****
 -------------------------------------------------------------------
 Center     Atomic                   Forces (Hartrees/Bohr)
 Number     Number              X              Y              Z
 -------------------------------------------------------------------
      1        7          -0.002160037   -0.009730677    0.000239123
      2        6          -0.017748851    0.021248242    0.006758015
      3        7           0.006837746   -0.002061747   -0.004082945
      4        6          -0.000619711   -0.000631047    0.002722414
      5        7           0.010405510    0.006367558   -0.000094952
      6        7           0.018292057   -0.029210208   -0.013862486
      7        1           0.002240929   -0.000591254   -0.001822378
      8        1           0.003628591    0.004096788    0.000621414
      9        1          -0.001990519    0.001537179    0.002385049
     10        1          -0.002232956   -0.000396803    0.001843785
     11        1          -0.000781568    0.001808980   -0.000138587
     12        1           0.000843396   -0.002415249   -0.000747939
     13        1          -0.006295930    0.000859969    0.000591779
     14        1          -0.010418656    0.009118268    0.005587709
 -------------------------------------------------------------------
 Cartesian Forces:  Max     0.029210208 RMS     0.008238306

 GradGradGradGradGradGradGradGradGradGradGradGradGradGradGradGradGradGrad
 Berny optimization.
 Using GEDIIS/GDIIS optimizer.
 FormGI is forming the generalized inverse of G from B-inverse, IUseBI=4.
 Internal  Forces:  Max     0.010442624 RMS     0.002944274
 Search for a local minimum.
 Step number   2 out of a maximum of   85
 All quantities printed in internal units (Hartrees-Bohrs-Radians)
 Mixed Optimization -- RFO/linear search
 Update second derivatives using D2CorX and points    1    2
 DE= -2.06D-02 DEPred=-2.08D-02 R= 9.93D-01
 TightC=F SS=  1.41D+00  RLast= 4.39D-01 DXNew= 5.0454D-01 1.3161D+00
 Trust test= 9.93D-01 RLast= 4.39D-01 DXMaxT set to 5.05D-01
 ITU=  1  0
 Use linear search instead of GDIIS.
     Eigenvalues ---    0.00895   0.01801   0.01872   0.01909   0.01939
     Eigenvalues ---    0.02688   0.03144   0.04660   0.04843   0.05359
     Eigenvalues ---    0.05527   0.06923   0.07685   0.08668   0.08953
     Eigenvalues ---    0.10565   0.12117   0.15831   0.16000   0.16000
     Eigenvalues ---    0.16022   0.20138   0.26731   0.32885   0.33891
     Eigenvalues ---    0.34879   0.38931   0.40517   0.43205   0.44580
     Eigenvalues ---    0.45101   0.45488   0.45609   0.46113   0.47131
     Eigenvalues ---    0.52846
 RFO step:  Lambda=-9.21420516D-03 EMin= 8.94697445D-03
 Quartic linear search produced a step of  0.32789.
 Iteration  1 RMS(Cart)=  0.05558957 RMS(Int)=  0.00560927
 Iteration  2 RMS(Cart)=  0.00476855 RMS(Int)=  0.00307083
 Iteration  3 RMS(Cart)=  0.00002717 RMS(Int)=  0.00307060
 Iteration  4 RMS(Cart)=  0.00000023 RMS(Int)=  0.00307060
 Variable       Old X    -DE/DX   Delta X   Delta X   Delta X     New X
                                 (Linear)    (Quad)   (Total)
    R1        2.71280  -0.00401   0.03129  -0.02795   0.00333   2.71613
    R2        1.89334  -0.00015  -0.00647   0.00320  -0.00327   1.89007
    R3        1.89991  -0.00130  -0.00461  -0.00104  -0.00565   1.89426
    R4        2.68771   0.00047   0.01892  -0.00927   0.00965   2.69736
    R5        2.97830  -0.00035   0.02013  -0.02092  -0.00226   2.97604
    R6        2.74312   0.01044   0.02862   0.01789   0.04818   2.79130
    R7        1.89322  -0.00006  -0.00458   0.00239  -0.00218   1.89104
    R8        1.89606  -0.00071  -0.00749   0.00220  -0.00529   1.89078
    R9        2.80189   0.00156   0.00959  -0.00454   0.00399   2.80588
   R10        2.07464   0.00095  -0.00014   0.00361   0.00347   2.07811
   R11        2.07038  -0.00107   0.00366  -0.00592  -0.00227   2.06811
   R12        2.75948   0.00689   0.02956   0.00848   0.03902   2.79849
   R13        1.92397  -0.00092  -0.00564   0.00046  -0.00519   1.91878
   R14        1.90608   0.00326  -0.00668   0.01300   0.00632   1.91240
    A1        2.09142  -0.00166  -0.00041  -0.01575  -0.01766   2.07376
    A2        2.14103  -0.00236  -0.00594  -0.01772  -0.02517   2.11586
    A3        2.04001   0.00369   0.00519   0.02160   0.02523   2.06524
    A4        1.94244   0.00059   0.01932  -0.00815   0.01119   1.95363
    A5        2.04286   0.00138   0.02151   0.00919   0.03251   2.07537
    A6        2.01335  -0.00048   0.00048  -0.01780  -0.01839   1.99496
    A7        1.97821  -0.00080  -0.02497   0.01137  -0.01639   1.96183
    A8        1.93438  -0.00180  -0.02287  -0.01027  -0.03334   1.90104
    A9        1.51648   0.00088  -0.00037   0.01952   0.01846   1.53494
   A10        2.13776  -0.00296  -0.00866  -0.02176  -0.03177   2.10599
   A11        2.07049  -0.00087  -0.00024  -0.01090  -0.01250   2.05799
   A12        2.05472   0.00339   0.00808   0.01638   0.02304   2.07775
   A13        1.51152   0.00247   0.01193   0.00380   0.01313   1.52465
   A14        1.91351  -0.00173  -0.02027   0.00366  -0.01576   1.89775
   A15        2.09128   0.00012   0.01022  -0.00672   0.00399   2.09527
   A16        1.97643  -0.00061   0.00252   0.00726   0.01149   1.98792
   A17        2.02280  -0.00088  -0.00395  -0.00978  -0.01383   2.00898
   A18        1.91889   0.00071   0.00068   0.00253   0.00278   1.92166
   A19        1.57355   0.00125   0.00256   0.01752   0.01941   1.59296
   A20        2.01709  -0.00479  -0.01424  -0.05316  -0.06839   1.94871
   A21        1.97950  -0.00084   0.00593  -0.03638  -0.03105   1.94845
   A22        1.60996  -0.00342   0.00191  -0.01512  -0.01762   1.59234
   A23        2.14886  -0.00876  -0.05069  -0.13169  -0.18741   1.96145
   A24        2.05780   0.00233   0.01229  -0.05029  -0.05904   1.99876
    D1       -0.31782  -0.00073   0.00159  -0.00907  -0.00785  -0.32567
    D2        1.99597   0.00006   0.00397   0.00862   0.01311   2.00907
    D3       -2.54101   0.00167   0.01568   0.02774   0.04360  -2.49741
    D4        2.98560   0.00140   0.01077   0.07785   0.08802   3.07362
    D5       -0.98380   0.00220   0.01314   0.09554   0.10897  -0.87483
    D6        0.76240   0.00380   0.02485   0.11466   0.13947   0.90188
    D7        1.30275   0.00041   0.00886  -0.01466  -0.00531   1.29744
    D8       -1.61911   0.00235   0.01244   0.07048   0.08316  -1.53595
    D9       -1.04312  -0.00141  -0.01793  -0.03103  -0.04818  -1.09129
   D10        2.31821   0.00054  -0.01435   0.05411   0.04029   2.35851
   D11       -2.71503  -0.00125   0.00719  -0.05385  -0.04756  -2.76259
   D12        0.64630   0.00070   0.01078   0.03129   0.04091   0.68721
   D13        2.30250  -0.00170  -0.01990  -0.05335  -0.07205   2.23045
   D14        0.32179  -0.00179  -0.02564  -0.06279  -0.08744   0.23435
   D15       -1.92025  -0.00118  -0.01546  -0.06411  -0.07920  -1.99945
   D16       -1.68314  -0.00023   0.00560  -0.04416  -0.03835  -1.72150
   D17        2.61933  -0.00032  -0.00013  -0.05361  -0.05374   2.56559
   D18        0.37729   0.00028   0.01004  -0.05492  -0.04550   0.33179
   D19        0.26069  -0.00190  -0.02402  -0.04552  -0.06852   0.19217
   D20       -1.72002  -0.00199  -0.02976  -0.05497  -0.08390  -1.80393
   D21        2.32112  -0.00139  -0.01958  -0.05628  -0.07567   2.24545
   D22       -2.33391   0.00055   0.00272   0.03080   0.03007  -2.30384
   D23       -0.13853  -0.00381  -0.00962  -0.11555  -0.11898  -0.25751
   D24        1.72204   0.00174  -0.00427   0.06635   0.05782   1.77986
   D25       -2.36577  -0.00262  -0.01660  -0.08000  -0.09123  -2.45700
   D26       -0.26452   0.00245   0.02670   0.04759   0.07201  -0.19252
   D27        1.93086  -0.00191   0.01437  -0.09876  -0.07705   1.85381
   D28       -0.25872   0.00153   0.02394   0.04395   0.06713  -0.19159
   D29       -2.28722   0.00295   0.01916   0.08853   0.10717  -2.18005
   D30        1.65993   0.00066   0.00714   0.05028   0.05685   1.71678
   D31       -0.36857   0.00208   0.00236   0.09486   0.09688  -0.27168
   D32       -2.38220   0.00028   0.00688   0.05180   0.05891  -2.32329
   D33        1.87248   0.00171   0.00210   0.09638   0.09895   1.97143
   D34        0.28119  -0.00280  -0.02723  -0.05199  -0.07692   0.20427
   D35       -1.98346   0.00934   0.02789   0.14610   0.17415  -1.80932
   D36        2.34305  -0.00771  -0.04041  -0.11116  -0.15008   2.19297
   D37        0.07840   0.00442   0.01471   0.08693   0.10098   0.17938
         Item               Value     Threshold  Converged?
 Maximum Force            0.010443     0.000450     NO 
 RMS     Force            0.002944     0.000300     NO 
 Maximum Displacement     0.234727     0.001800     NO 
 RMS     Displacement     0.055782     0.001200     NO 
 Predicted change in Energy=-5.876162D-03
 GradGradGradGradGradGradGradGradGradGradGradGradGradGradGradGradGradGrad

                          Input orientation:                          
 ---------------------------------------------------------------------
 Center     Atomic      Atomic             Coordinates (Angstroms)
 Number     Number       Type             X           Y           Z
 ---------------------------------------------------------------------
      1          7           0        0.977607    0.056535    0.331715
      2          6           0        2.395723    0.068052    0.097857
      3          7           0        2.706796    0.030669   -1.294711
      4          6           0        3.288792    1.099130    0.884916
      5          7           0        4.137789   -0.049798    1.289666
      6          7           0        3.133570   -1.012888    0.782652
      7          1           0        0.363470    0.306774   -0.417004
      8          1           0        0.604451    0.021087    1.261393
      9          1           0        2.580453    0.841213   -1.867808
     10          1           0        2.790325   -0.865330   -1.732116
     11          1           0        2.695133    1.525639    1.706482
     12          1           0        3.811254    1.895307    0.345618
     13          1           0        4.234974   -0.106670    2.298780
     14          1           0        2.580732   -1.461029    1.502150
 ---------------------------------------------------------------------
                    Distance matrix (angstroms):
                    1          2          3          4          5
     1  N    0.000000
     2  C    1.437315   0.000000
     3  N    2.374032   1.427379   0.000000
     4  C    2.595113   1.574851   2.496218   0.000000
     5  N    3.303895   2.114023   2.955203   1.484808   0.000000
     6  N    2.448507   1.477090   2.363596   2.120182   1.480898
     7  H    1.000182   2.110005   2.517495   3.298535   4.157565
     8  H    1.002398   2.136510   3.309625   2.917122   3.534162
     9  H    2.832444   2.120317   1.000693   2.854077   3.631645
    10  H    2.897444   2.091821   1.000556   3.310049   3.407626
    11  H    2.645400   2.191319   3.352944   1.099687   2.176463
    12  H    3.377992   2.324645   2.717974   1.094398   2.186615
    13  H    3.808729   2.873575   3.907348   2.085240   1.015376
    14  H    2.498586   2.084313   3.172300   2.727039   2.112143
                    6          7          8          9         10
     6  N    0.000000
     7  H    3.294562   0.000000
     8  H    2.773940   1.719507   0.000000
     9  H    3.281550   2.702863   3.790658   0.000000
    10  H    2.542370   2.998828   3.811151   1.724746   0.000000
    11  H    2.736751   3.381047   2.613949   3.641036   4.189242
    12  H    3.017922   3.871982   3.825563   2.743217   3.602831
    13  H    2.081577   4.747100   3.777988   4.582181   4.348643
    14  H    1.011997   3.424110   2.481999   4.081292   3.295340
                   11         12         13         14
    11  H    0.000000
    12  H    1.798425   0.000000
    13  H    2.320853   2.828832   0.000000
    14  H    2.995834   3.757226   2.281540   0.000000
 Stoichiometry    C2H8N4
 Framework group  C1[X(C2H8N4)]
 Deg. of freedom    36
 Full point group                 C1      NOp   1
 Largest Abelian subgroup         C1      NOp   1
 Largest concise Abelian subgroup C1      NOp   1
                         Standard orientation:                         
 ---------------------------------------------------------------------
 Center     Atomic      Atomic             Coordinates (Angstroms)
 Number     Number       Type             X           Y           Z
 ---------------------------------------------------------------------
      1          7           0        1.357936    1.083645    0.103146
      2          6           0        0.408364    0.007709    0.022233
      3          7           0        1.049550   -1.260111   -0.115336
      4          6           0       -0.786408   -0.031999    1.047464
      5          7           0       -1.694008   -0.161892   -0.120459
      6          7           0       -0.590874    0.158514   -1.055068
      7          1           0        2.306086    0.872935    0.341842
      8          1           0        1.058265    2.039332    0.143934
      9          1           0        1.506133   -1.688493    0.665310
     10          1           0        1.266377   -1.577577   -1.039086
     11          1           0       -0.849287    0.941834    1.554422
     12          1           0       -0.853316   -0.842393    1.779921
     13          1           0       -2.407903    0.560147   -0.122298
     14          1           0       -0.616311    1.098864   -1.428209
 ---------------------------------------------------------------------
 Rotational constants (GHZ):           5.5298863           3.3137946           3.0316603
 Standard basis: 6-31G(2df,p) (6D, 7F)
 There are   226 symmetry adapted cartesian basis functions of A   symmetry.
 There are   208 symmetry adapted basis functions of A   symmetry.
   208 basis functions,   320 primitive gaussians,   226 cartesian basis functions
    24 alpha electrons       24 beta electrons
       nuclear repulsion energy       262.6132395299 Hartrees.
 NAtoms=   14 NActive=   14 NUniq=   14 SFac= 1.00D+00 NAtFMM=   60 NAOKFM=F Big=F
 Integral buffers will be    131072 words long.
 Raffenetti 2 integral format.
 Two-electron integral symmetry is turned on.
 One-electron integrals computed using PRISM.
 PrsmSu:  requested number of processors reduced to:  13 ShMem   1 Linda.
 NBasis=   208 RedAO= T EigKep=  2.19D-04  NBF=   208
 NBsUse=   208 1.00D-06 EigRej= -1.00D+00 NBFU=   208
 Initial guess from the checkpoint file:  "NC1pNpCNN1.chk"
 B after Tr=     0.000000    0.000000   -0.000000
         Rot=    0.999764   -0.020576    0.005654   -0.003976 Ang=  -2.49 deg.
 ExpMin= 1.61D-01 ExpMax= 4.17D+03 ExpMxC= 6.27D+02 IAcc=2 IRadAn=         4 AccDes= 0.00D+00
 Harris functional with IExCor=  402 and IRadAn=       4 diagonalized for initial guess.
 HarFok:  IExCor=  402 AccDes= 0.00D+00 IRadAn=         4 IDoV= 1 UseB2=F ITyADJ=14
 ICtDFT=  3500011 ScaDFX=  1.000000  1.000000  1.000000  1.000000
 FoFCou: FMM=F IPFlag=           0 FMFlag=      100000 FMFlg1=           0
         NFxFlg=           0 DoJE=T BraDBF=F KetDBF=T FulRan=T
         wScrn=  0.000000 ICntrl=       500 IOpCl=  0 I1Cent=   200000004 NGrid=           0
         NMat0=    1 NMatS0=      1 NMatT0=    0 NMatD0=    1 NMtDS0=    0 NMtDT0=    0
 Petite list used in FoFCou.
 Requested convergence on RMS density matrix=1.00D-08 within 128 cycles.
 Requested convergence on MAX density matrix=1.00D-06.
 Requested convergence on             energy=1.00D-06.
 No special actions if energy rises.
 Integral accuracy reduced to 1.0D-05 until final iterations.
 Initial convergence to 1.0D-05 achieved.  Increase integral accuracy.
 SCF Done:  E(RB3LYP) =  -299.953351352     A.U. after   11 cycles
            NFock= 11  Conv=0.71D-08     -V/T= 2.0071
 PrsmSu:  requested number of processors reduced to:  13 ShMem   1 Linda.
 Calling FoFJK, ICntrl=      2127 FMM=F ISym2X=0 I1Cent= 0 IOpClX= 0 NMat=1 NMatS=1 NMatT=0.
 ***** Axes restored to original set *****
 -------------------------------------------------------------------
 Center     Atomic                   Forces (Hartrees/Bohr)
 Number     Number              X              Y              Z
 -------------------------------------------------------------------
      1        7           0.007802597   -0.009665230   -0.001478606
      2        6          -0.004660594    0.011504621   -0.005763895
      3        7           0.005162350    0.002569345    0.004308254
      4        6          -0.009330084   -0.004089712    0.004622754
      5        7           0.003914981    0.004104567   -0.000019393
      6        7           0.007799434   -0.011718754   -0.008917427
      7        1          -0.000577931    0.001326807   -0.001269939
      8        1          -0.000535939    0.005080358    0.001945584
      9        1          -0.002642615    0.000730352   -0.001120417
     10        1          -0.002967266   -0.002156748   -0.001164256
     11        1           0.002531425    0.002262672    0.000695272
     12        1          -0.000735756   -0.002086270   -0.001610855
     13        1          -0.001451705   -0.002390793    0.001885772
     14        1          -0.004308898    0.004528786    0.007887152
 -------------------------------------------------------------------
 Cartesian Forces:  Max     0.011718754 RMS     0.004927895

 GradGradGradGradGradGradGradGradGradGradGradGradGradGradGradGradGradGrad
 Berny optimization.
 Using GEDIIS/GDIIS optimizer.
 FormGI is forming the generalized inverse of G from B-inverse, IUseBI=4.
 Internal  Forces:  Max     0.006704016 RMS     0.002011653
 Search for a local minimum.
 Step number   3 out of a maximum of   85
 All quantities printed in internal units (Hartrees-Bohrs-Radians)
 Mixed Optimization -- RFO/linear search
 Update second derivatives using D2CorX and points    2    3
 DE= -8.05D-03 DEPred=-5.88D-03 R= 1.37D+00
 TightC=F SS=  1.41D+00  RLast= 5.51D-01 DXNew= 8.4853D-01 1.6543D+00
 Trust test= 1.37D+00 RLast= 5.51D-01 DXMaxT set to 8.49D-01
 ITU=  1  1  0
 Use linear search instead of GDIIS.
     Eigenvalues ---    0.00908   0.01113   0.01802   0.01952   0.02037
     Eigenvalues ---    0.02687   0.03211   0.04605   0.04934   0.05177
     Eigenvalues ---    0.05746   0.06881   0.07858   0.08510   0.09367
     Eigenvalues ---    0.10773   0.13328   0.15937   0.16000   0.16017
     Eigenvalues ---    0.16053   0.20353   0.26970   0.33241   0.33897
     Eigenvalues ---    0.34856   0.38255   0.40747   0.43277   0.44639
     Eigenvalues ---    0.45193   0.45564   0.45758   0.46182   0.47168
     Eigenvalues ---    0.53304
 RFO step:  Lambda=-4.08713415D-03 EMin= 9.07913103D-03
 Quartic linear search produced a step of  0.51516.
 Iteration  1 RMS(Cart)=  0.04584855 RMS(Int)=  0.00599466
 Iteration  2 RMS(Cart)=  0.00478755 RMS(Int)=  0.00378427
 Iteration  3 RMS(Cart)=  0.00002548 RMS(Int)=  0.00378410
 Iteration  4 RMS(Cart)=  0.00000027 RMS(Int)=  0.00378410
 Variable       Old X    -DE/DX   Delta X   Delta X   Delta X     New X
                                 (Linear)    (Quad)   (Total)
    R1        2.71613  -0.00670   0.00172  -0.00606  -0.00434   2.71179
    R2        1.89007   0.00164  -0.00168   0.00261   0.00092   1.89099
    R3        1.89426   0.00182  -0.00291   0.00436   0.00145   1.89570
    R4        2.69736  -0.00210   0.00497   0.00090   0.00587   2.70322
    R5        2.97604  -0.00322  -0.00116  -0.00992  -0.01221   2.96382
    R6        2.79130   0.00583   0.02482   0.02750   0.05326   2.84456
    R7        1.89104   0.00157  -0.00113   0.00304   0.00191   1.89295
    R8        1.89078   0.00219  -0.00272   0.00422   0.00149   1.89227
    R9        2.80588   0.00187   0.00205   0.00761   0.00904   2.81492
   R10        2.07811   0.00003   0.00179  -0.00043   0.00136   2.07946
   R11        2.06811  -0.00108  -0.00117  -0.00235  -0.00352   2.06459
   R12        2.79849   0.00121   0.02010   0.01507   0.03602   2.83452
   R13        1.91878   0.00187  -0.00267   0.00427   0.00160   1.92038
   R14        1.91240   0.00596   0.00326   0.01509   0.01834   1.93074
    A1        2.07376  -0.00077  -0.00910  -0.01412  -0.03041   2.04335
    A2        2.11586  -0.00014  -0.01297  -0.01013  -0.03025   2.08562
    A3        2.06524   0.00017   0.01300  -0.01061  -0.00562   2.05962
    A4        1.95363  -0.00110   0.00576   0.00050   0.00586   1.95949
    A5        2.07537  -0.00114   0.01675  -0.00797   0.01015   2.08552
    A6        1.99496  -0.00016  -0.00948  -0.00708  -0.01787   1.97709
    A7        1.96183   0.00243  -0.00844   0.01506   0.00486   1.96668
    A8        1.90104   0.00089  -0.01718   0.00497  -0.01154   1.88950
    A9        1.53494  -0.00057   0.00951  -0.00619   0.00377   1.53871
   A10        2.10599  -0.00040  -0.01637  -0.01414  -0.03705   2.06894
   A11        2.05799  -0.00076  -0.00644  -0.01641  -0.02943   2.02856
   A12        2.07775   0.00028   0.01187  -0.00969  -0.00532   2.07243
   A13        1.52465   0.00211   0.00677   0.00980   0.01473   1.53939
   A14        1.89775   0.00176  -0.00812   0.03841   0.03156   1.92931
   A15        2.09527  -0.00229   0.00205  -0.03069  -0.02904   2.06623
   A16        1.98792  -0.00062   0.00592  -0.00207   0.00477   1.99269
   A17        2.00898  -0.00069  -0.00712  -0.00722  -0.01469   1.99429
   A18        1.92166   0.00004   0.00143  -0.00442  -0.00311   1.91855
   A19        1.59296  -0.00092   0.01000  -0.00905   0.00144   1.59440
   A20        1.94871  -0.00044  -0.03523   0.00207  -0.03348   1.91523
   A21        1.94845  -0.00040  -0.01600  -0.01810  -0.03591   1.91254
   A22        1.59234  -0.00085  -0.00908  -0.00611  -0.01795   1.57439
   A23        1.96145  -0.00212  -0.09655  -0.05198  -0.15849   1.80296
   A24        1.99876  -0.00243  -0.03041  -0.05119  -0.10161   1.89715
    D1       -0.32567  -0.00089  -0.00404  -0.03206  -0.03486  -0.36053
    D2        2.00907   0.00044   0.00675  -0.01639  -0.00879   2.00028
    D3       -2.49741  -0.00105   0.02246  -0.03357  -0.01006  -2.50747
    D4        3.07362   0.00240   0.04535   0.12510   0.16959  -3.03997
    D5       -0.87483   0.00374   0.05614   0.14077   0.19566  -0.67916
    D6        0.90188   0.00224   0.07185   0.12358   0.19439   1.09627
    D7        1.29744  -0.00137  -0.00274  -0.06220  -0.06340   1.23403
    D8       -1.53595   0.00177   0.04284   0.08496   0.12718  -1.40877
    D9       -1.09129  -0.00104  -0.02482  -0.06632  -0.09012  -1.18141
   D10        2.35851   0.00210   0.02076   0.08084   0.10047   2.45897
   D11       -2.76259  -0.00172  -0.02450  -0.06726  -0.09109  -2.85368
   D12        0.68721   0.00142   0.02108   0.07990   0.09950   0.78671
   D13        2.23045  -0.00028  -0.03712   0.01526  -0.02034   2.21011
   D14        0.23435  -0.00054  -0.04504   0.01006  -0.03481   0.19954
   D15       -1.99945  -0.00034  -0.04080   0.00519  -0.03566  -2.03511
   D16       -1.72150  -0.00046  -0.01976   0.02472   0.00627  -1.71522
   D17        2.56559  -0.00072  -0.02768   0.01953  -0.00820   2.55739
   D18        0.33179  -0.00052  -0.02344   0.01465  -0.00905   0.32274
   D19        0.19217   0.00053  -0.03530   0.02914  -0.00414   0.18803
   D20       -1.80393   0.00026  -0.04322   0.02394  -0.01861  -1.82254
   D21        2.24545   0.00046  -0.03898   0.01907  -0.01946   2.22600
   D22       -2.30384   0.00101   0.01549  -0.01505  -0.00324  -2.30708
   D23       -0.25751  -0.00258  -0.06130  -0.08690  -0.14216  -0.39968
   D24        1.77986   0.00189   0.02979  -0.01442   0.01114   1.79100
   D25       -2.45700  -0.00170  -0.04700  -0.08626  -0.12779  -2.58479
   D26       -0.19252  -0.00059   0.03709  -0.02874   0.00589  -0.18662
   D27        1.85381  -0.00418  -0.03969  -0.10058  -0.13303   1.72078
   D28       -0.19159  -0.00084   0.03458  -0.02983   0.00293  -0.18866
   D29       -2.18005   0.00009   0.05521  -0.00642   0.04738  -2.13267
   D30        1.71678   0.00199   0.02928   0.01660   0.04511   1.76189
   D31       -0.27168   0.00292   0.04991   0.04002   0.08957  -0.18211
   D32       -2.32329   0.00080   0.03035   0.00144   0.03147  -2.29182
   D33        1.97143   0.00173   0.05097   0.02486   0.07592   2.04735
   D34        0.20427   0.00025  -0.03963   0.02920  -0.00770   0.19657
   D35       -1.80932   0.00366   0.08971   0.10312   0.18848  -1.62084
   D36        2.19297  -0.00071  -0.07732   0.02382  -0.04994   2.14303
   D37        0.17938   0.00270   0.05202   0.09773   0.14623   0.32561
         Item               Value     Threshold  Converged?
 Maximum Force            0.006704     0.000450     NO 
 RMS     Force            0.002012     0.000300     NO 
 Maximum Displacement     0.230299     0.001800     NO 
 RMS     Displacement     0.047362     0.001200     NO 
 Predicted change in Energy=-4.267016D-03
 GradGradGradGradGradGradGradGradGradGradGradGradGradGradGradGradGradGrad

                          Input orientation:                          
 ---------------------------------------------------------------------
 Center     Atomic      Atomic             Coordinates (Angstroms)
 Number     Number       Type             X           Y           Z
 ---------------------------------------------------------------------
      1          7           0        0.997288   -0.005579    0.319351
      2          6           0        2.412142    0.058617    0.088402
      3          7           0        2.735178    0.044448   -1.305059
      4          6           0        3.281423    1.080790    0.900406
      5          7           0        4.159016   -0.054625    1.299842
      6          7           0        3.175617   -1.050776    0.760868
      7          1           0        0.399695    0.263718   -0.436759
      8          1           0        0.644731    0.085984    1.254047
      9          1           0        2.519812    0.853833   -1.854539
     10          1           0        2.737399   -0.852753   -1.749719
     11          1           0        2.698042    1.512106    1.727766
     12          1           0        3.795494    1.874837    0.353735
     13          1           0        4.192065   -0.122749    2.313239
     14          1           0        2.553166   -1.339160    1.518011
 ---------------------------------------------------------------------
                    Distance matrix (angstroms):
                    1          2          3          4          5
     1  N    0.000000
     2  C    1.435016   0.000000
     3  N    2.379385   1.430485   0.000000
     4  C    2.595206   1.568387   2.497292   0.000000
     5  N    3.310634   2.128845   2.970293   1.489593   0.000000
     6  N    2.456113   1.505276   2.379402   2.138747   1.499961
     7  H    1.000670   2.089929   2.501301   3.280240   4.153267
     8  H    1.003164   2.117361   3.304651   2.840219   3.517395
     9  H    2.789707   2.102137   1.001706   2.867278   3.669115
    10  H    2.833150   2.077276   1.001347   3.325314   3.458009
    11  H    2.679471   2.209498   3.369485   1.100405   2.184539
    12  H    3.371514   2.298417   2.688158   1.092534   2.179471
    13  H    3.767748   2.854982   3.904172   2.067335   1.016222
    14  H    2.374023   2.004358   3.149163   2.601529   2.067942
                    6          7          8          9         10
     6  N    0.000000
     7  H    3.296657   0.000000
     8  H    2.817948   1.717689   0.000000
     9  H    3.301207   2.617868   3.710637   0.000000
    10  H    2.556226   2.904347   3.779298   1.723591   0.000000
    11  H    2.780527   3.395003   2.544468   3.646642   4.205592
    12  H    3.018148   3.840839   3.733345   2.747051   3.603308
    13  H    2.074671   4.700417   3.707969   4.595707   4.376824
    14  H    1.021704   3.320811   2.396422   4.022988   3.308866
                   11         12         13         14
    11  H    0.000000
    12  H    1.795533   0.000000
    13  H    2.290772   2.826178   0.000000
    14  H    2.862639   3.637128   2.190442   0.000000
 Stoichiometry    C2H8N4
 Framework group  C1[X(C2H8N4)]
 Deg. of freedom    36
 Full point group                 C1      NOp   1
 Largest Abelian subgroup         C1      NOp   1
 Largest concise Abelian subgroup C1      NOp   1
                         Standard orientation:                         
 ---------------------------------------------------------------------
 Center     Atomic      Atomic             Coordinates (Angstroms)
 Number     Number       Type             X           Y           Z
 ---------------------------------------------------------------------
      1          7           0        1.342416    1.099218    0.060874
      2          6           0        0.410606    0.008374    0.028323
      3          7           0        1.063685   -1.259285   -0.084887
      4          6           0       -0.785473   -0.015910    1.042544
      5          7           0       -1.704580   -0.183053   -0.117711
      6          7           0       -0.597836    0.120386   -1.083592
      7          1           0        2.284792    0.885636    0.320971
      8          1           0        1.007458    2.030174    0.226588
      9          1           0        1.576536   -1.605504    0.702851
     10          1           0        1.356121   -1.525860   -1.004732
     11          1           0       -0.877540    0.953908    1.554274
     12          1           0       -0.831327   -0.827747    1.772234
     13          1           0       -2.383550    0.572971   -0.129311
     14          1           0       -0.609080    1.120782   -1.290860
 ---------------------------------------------------------------------
 Rotational constants (GHZ):           5.5237289           3.2976687           3.0213318
 Standard basis: 6-31G(2df,p) (6D, 7F)
 There are   226 symmetry adapted cartesian basis functions of A   symmetry.
 There are   208 symmetry adapted basis functions of A   symmetry.
   208 basis functions,   320 primitive gaussians,   226 cartesian basis functions
    24 alpha electrons       24 beta electrons
       nuclear repulsion energy       262.0986735652 Hartrees.
 NAtoms=   14 NActive=   14 NUniq=   14 SFac= 1.00D+00 NAtFMM=   60 NAOKFM=F Big=F
 Integral buffers will be    131072 words long.
 Raffenetti 2 integral format.
 Two-electron integral symmetry is turned on.
 One-electron integrals computed using PRISM.
 PrsmSu:  requested number of processors reduced to:  13 ShMem   1 Linda.
 NBasis=   208 RedAO= T EigKep=  2.21D-04  NBF=   208
 NBsUse=   208 1.00D-06 EigRej= -1.00D+00 NBFU=   208
 Initial guess from the checkpoint file:  "NC1pNpCNN1.chk"
 B after Tr=     0.000000    0.000000    0.000000
         Rot=    0.999950    0.007605    0.000328   -0.006447 Ang=   1.14 deg.
 ExpMin= 1.61D-01 ExpMax= 4.17D+03 ExpMxC= 6.27D+02 IAcc=2 IRadAn=         4 AccDes= 0.00D+00
 Harris functional with IExCor=  402 and IRadAn=       4 diagonalized for initial guess.
 HarFok:  IExCor=  402 AccDes= 0.00D+00 IRadAn=         4 IDoV= 1 UseB2=F ITyADJ=14
 ICtDFT=  3500011 ScaDFX=  1.000000  1.000000  1.000000  1.000000
 FoFCou: FMM=F IPFlag=           0 FMFlag=      100000 FMFlg1=           0
         NFxFlg=           0 DoJE=T BraDBF=F KetDBF=T FulRan=T
         wScrn=  0.000000 ICntrl=       500 IOpCl=  0 I1Cent=   200000004 NGrid=           0
         NMat0=    1 NMatS0=      1 NMatT0=    0 NMatD0=    1 NMtDS0=    0 NMtDT0=    0
 Petite list used in FoFCou.
 Requested convergence on RMS density matrix=1.00D-08 within 128 cycles.
 Requested convergence on MAX density matrix=1.00D-06.
 Requested convergence on             energy=1.00D-06.
 No special actions if energy rises.
 Integral accuracy reduced to 1.0D-05 until final iterations.
 Initial convergence to 1.0D-05 achieved.  Increase integral accuracy.
 SCF Done:  E(RB3LYP) =  -299.958018859     A.U. after   11 cycles
            NFock= 11  Conv=0.87D-08     -V/T= 2.0072
 PrsmSu:  requested number of processors reduced to:  13 ShMem   1 Linda.
 Calling FoFJK, ICntrl=      2127 FMM=F ISym2X=0 I1Cent= 0 IOpClX= 0 NMat=1 NMatS=1 NMatT=0.
 ***** Axes restored to original set *****
 -------------------------------------------------------------------
 Center     Atomic                   Forces (Hartrees/Bohr)
 Number     Number              X              Y              Z
 -------------------------------------------------------------------
      1        7           0.008335712   -0.011986686   -0.001468196
      2        6           0.003718266    0.005286150   -0.007749224
      3        7           0.009113371    0.004242653    0.009845567
      4        6          -0.005973338   -0.004322627    0.002007800
      5        7          -0.002279963    0.003872818   -0.002108010
      6        7          -0.004820758    0.000967451    0.002169847
      7        1          -0.002299982    0.003216274   -0.000312428
      8        1          -0.002395566    0.006297770    0.001256567
      9        1          -0.004134418   -0.000143817   -0.003054916
     10        1          -0.004293932   -0.002050317   -0.002811792
     11        1           0.001836151    0.000973378   -0.000170612
     12        1          -0.000449268   -0.000129835   -0.001393434
     13        1           0.001766467   -0.003164199    0.000929694
     14        1           0.001877259   -0.003059013    0.002859137
 -------------------------------------------------------------------
 Cartesian Forces:  Max     0.011986686 RMS     0.004332375

 GradGradGradGradGradGradGradGradGradGradGradGradGradGradGradGradGradGrad
 Berny optimization.
 Using GEDIIS/GDIIS optimizer.
 FormGI is forming the generalized inverse of G from B-inverse, IUseBI=4.
 Internal  Forces:  Max     0.004580887 RMS     0.001781008
 Search for a local minimum.
 Step number   4 out of a maximum of   85
 All quantities printed in internal units (Hartrees-Bohrs-Radians)
 Mixed Optimization -- RFO/linear search
 Update second derivatives using D2CorX and points    3    4
 DE= -4.67D-03 DEPred=-4.27D-03 R= 1.09D+00
 TightC=F SS=  1.41D+00  RLast= 5.91D-01 DXNew= 1.4270D+00 1.7739D+00
 Trust test= 1.09D+00 RLast= 5.91D-01 DXMaxT set to 1.43D+00
 ITU=  1  1  1  0
 Use linear search instead of GDIIS.
     Eigenvalues ---    0.00701   0.00931   0.01803   0.01994   0.02443
     Eigenvalues ---    0.03293   0.03918   0.04544   0.04925   0.05092
     Eigenvalues ---    0.06478   0.07298   0.07838   0.09135   0.09826
     Eigenvalues ---    0.10927   0.12885   0.15987   0.16001   0.16019
     Eigenvalues ---    0.16213   0.20541   0.26726   0.33418   0.33915
     Eigenvalues ---    0.34898   0.38290   0.40636   0.43239   0.44638
     Eigenvalues ---    0.45133   0.45542   0.45654   0.46152   0.47293
     Eigenvalues ---    0.51735
 RFO step:  Lambda=-3.75277298D-03 EMin= 7.00764305D-03
 Quartic linear search produced a step of  0.29757.
 Iteration  1 RMS(Cart)=  0.04326824 RMS(Int)=  0.00579960
 Iteration  2 RMS(Cart)=  0.00471261 RMS(Int)=  0.00379749
 Iteration  3 RMS(Cart)=  0.00004566 RMS(Int)=  0.00379718
[...]
 ! D9    D(4,2,3,9)            -79.0264         -DE/DX =    0.0                 !
 ! D10   D(4,2,3,10)           161.6134         -DE/DX =    0.0                 !
 ! D11   D(6,2,3,9)           -175.1027         -DE/DX =    0.0                 !
 ! D12   D(6,2,3,10)            65.5371         -DE/DX =    0.0                 !
 ! D13   D(1,2,4,5)            128.7324         -DE/DX =    0.0                 !
 ! D14   D(1,2,4,11)            12.9883         -DE/DX =    0.0                 !
 ! D15   D(1,2,4,12)          -115.2547         -DE/DX =    0.0                 !
 ! D16   D(3,2,4,5)            -95.2064         -DE/DX =    0.0                 !
 ! D17   D(3,2,4,11)           149.0495         -DE/DX =    0.0                 !
 ! D18   D(3,2,4,12)            20.8065         -DE/DX =    0.0                 !
 ! D19   D(6,2,4,5)             14.3019         -DE/DX =    0.0                 !
 ! D20   D(6,2,4,11)          -101.4422         -DE/DX =    0.0                 !
 ! D21   D(6,2,4,12)           130.3148         -DE/DX =    0.0                 !
 ! D22   D(1,2,6,5)           -136.636          -DE/DX =    0.0                 !
 ! D23   D(1,2,6,14)           -27.6098         -DE/DX =    0.0                 !
 ! D24   D(3,2,6,5)             98.4473         -DE/DX =    0.0                 !
 ! D25   D(3,2,6,14)          -152.5266         -DE/DX =    0.0                 !
 ! D26   D(4,2,6,5)            -14.1462         -DE/DX =    0.0                 !
 ! D27   D(4,2,6,14)            94.8799         -DE/DX =    0.0                 !
 ! D28   D(2,4,5,6)            -14.3215         -DE/DX =    0.0                 !
 ! D29   D(2,4,5,13)          -126.6306         -DE/DX =    0.0                 !
 ! D30   D(11,4,5,6)            98.7616         -DE/DX =    0.0                 !
 ! D31   D(11,4,5,13)          -13.5474         -DE/DX =    0.0                 !
 ! D32   D(12,4,5,6)          -133.3785         -DE/DX =    0.0                 !
 ! D33   D(12,4,5,13)          114.3125         -DE/DX =    0.0                 !
 ! D34   D(4,5,6,2)             14.8465         -DE/DX =    0.0                 !
 ! D35   D(4,5,6,14)           -91.0082         -DE/DX =    0.0                 !
 ! D36   D(13,5,6,2)           129.8792         -DE/DX =    0.0                 !
 ! D37   D(13,5,6,14)           24.0245         -DE/DX =    0.0                 !
 --------------------------------------------------------------------------------
 GradGradGradGradGradGradGradGradGradGradGradGradGradGradGradGradGradGrad


 ----------------------------------------------------------------------

 Electric dipole moment (input orientation):
 (Debye = 10**-18 statcoulomb cm , SI units = C m)
                  (au)            (Debye)         (10**-30 SI)
   Tot        0.153955D+01      0.391315D+01      0.130529D+02
   x         -0.119377D+01     -0.303427D+01     -0.101212D+02
   y          0.855919D+00      0.217553D+01      0.725679D+01
   z          0.461007D+00      0.117176D+01      0.390858D+01

 Dipole polarizability, Alpha (input orientation).
 (esu units = cm**3 , SI units = C**2 m**2 J**-1)
 Alpha(0;0):
               (au)            (10**-24 esu)      (10**-40 SI)
   iso        0.499638D+02      0.740387D+01      0.823792D+01
   aniso      0.877674D+01      0.130058D+01      0.144709D+01
   xx         0.499180D+02      0.739709D+01      0.823037D+01
   yx         0.318052D+00      0.471304D-01      0.524397D-01
   yy         0.466758D+02      0.691665D+01      0.769581D+01
   zx         0.370912D+01      0.549634D+00      0.611551D+00
   zy        -0.924565D+00     -0.137006D+00     -0.152440D+00
   zz         0.532976D+02      0.789789D+01      0.878759D+01

 ----------------------------------------------------------------------

 Dipole orientation:
     7          1.30221029          0.19941459         -1.47735059
     6          2.61582336          1.47864575         -3.51578448
     7          1.00731543          3.19945778         -4.88848903
     6          5.30177730          2.59205243         -3.09521739
     7          6.10253984          1.20331566         -5.39369888
     7          3.74580736         -0.36253815         -5.34964482
     1          0.10116704          1.39726678         -0.58515035
     1          2.51659656         -0.49229026         -0.16143513
     1          0.32403634          4.57097269         -3.73145334
     1         -0.47791434          2.22467623         -5.61675750
     1          6.15702217          1.91401676         -1.32594576
     1          5.51372972          4.64410889         -3.23036761
     1          7.63664416          0.08448377         -5.09596193
     1          4.08839588         -1.96545777         -4.32052178

 Electric dipole moment (dipole orientation):
 (Debye = 10**-18 statcoulomb cm , SI units = C m)
                  (au)            (Debye)         (10**-30 SI)
   Tot        0.153955D+01      0.391315D+01      0.130529D+02
   x          0.000000D+00      0.000000D+00      0.000000D+00
   y          0.000000D+00      0.000000D+00      0.000000D+00
   z          0.153955D+01      0.391315D+01      0.130529D+02

 Dipole polarizability, Alpha (dipole orientation).
 (esu units = cm**3 , SI units = C**2 m**2 J**-1)
 Alpha(0;0):
               (au)            (10**-24 esu)      (10**-40 SI)
   iso        0.499638D+02      0.740387D+01      0.823792D+01
   aniso      0.877674D+01      0.130058D+01      0.144709D+01
   xx         0.543215D+02      0.804962D+01      0.895641D+01
   yx        -0.264111D+01     -0.391372D+00     -0.435460D+00
   yy         0.486555D+02      0.721000D+01      0.802221D+01
   zx        -0.192383D+01     -0.285082D+00     -0.317197D+00
   zy        -0.234873D-01     -0.348047D-02     -0.387254D-02
   zz         0.469145D+02      0.695201D+01      0.773515D+01

 ----------------------------------------------------------------------
 1\1\GINC-LEWIS4-R630-HPC4RC-NODE353\Freq\RB3LYP\6-31G(2df,p)\C2H8N4\LI
 NJIAN\31-May-2021\0\\#N Geom=AllCheck Guess=TCheck SCRF=Check GenChk R
 B3LYP/6-31G(2df,p) Freq\\Title Card Required\\0,1\N,1.011457401,-0.125
 6004264,0.241564325\C,2.4459495401,0.0212293924,0.0812192877\N,2.85395
 63597,0.0290191189,-1.3025684262\C,3.232534709,1.0655338712,0.92241486
 44\N,4.1595415266,-0.0301859927,1.2953385164\N,3.1964885486,-1.0624790
 669,0.7959630105\H,0.5141621175,0.409138257,-0.4622836611\H,0.69535638
 1,0.1957596778,1.1518738296\H,2.4256943186,0.8026067806,-1.8030904634\
 H,2.5593645496,-0.8391103546,-1.7406173375\H,2.6306958267,1.4627347531
 ,1.753176069\H,3.7085004594,1.8905916443,0.3842576284\H,4.2771461437,-
 0.1245078594,2.3011576709\H,2.5902221184,-1.3460397954,1.5711846865\\V
 ersion=ES64L-G16RevA.03\State=1-A\HF=-299.9659509\RMSD=1.314e-09\RMSF=
 1.743e-05\ZeroPoint=0.1213615\Thermal=0.1278075\Dipole=-1.1937726,0.85
 59195,0.4610074\DipoleDeriv=-0.859872,-0.10149,-0.014487,-0.3008882,-0
 .436996,-0.0550161,0.0097394,-0.0193904,-0.2995344,1.084787,0.0496582,
 0.0764161,0.0012685,0.3928257,-0.031971,0.0653878,0.0044918,0.9510794,
 -0.5523308,-0.0315035,0.2556912,-0.0614178,-0.1719563,-0.0353731,0.160
 6888,-0.0114926,-0.6516488,0.1042314,-0.1462134,-0.1211575,-0.0960717,
 0.3050838,-0.1218907,-0.1456677,-0.1529521,0.1422713,-0.4331914,0.1166
 306,0.0317672,0.023768,-0.2683656,0.0254291,-0.0851934,-0.0157864,-0.0
 930718,-0.2046093,0.1607938,-0.2067283,0.1680183,-0.4501835,0.2076243,
 -0.0905578,0.0714337,-0.2202886,0.1485719,0.0271221,-0.0081651,0.16160
 12,0.1330354,0.1248913,-0.0222721,0.0703945,0.1003799,0.1505324,0.0278
 613,0.0180909,0.1209009,0.1955702,-0.0869158,0.0526908,-0.0514579,0.00
 48087,0.1752738,0.1280866,-0.1453989,0.088212,0.075546,0.0238072,-0.03
 58957,0.0095313,0.1087548,0.2148416,-0.1093047,-0.1215904,-0.0585383,0
 .090217,-0.0309742,-0.0332956,0.0013441,0.118086,-0.0859805,0.1118586,
 0.0880485,0.045624,-0.0489131,-0.0251168,0.0985255,-0.0808047,-0.11651
 77,0.0047109,-0.0740403,0.025983,-0.0403453,-0.1219362,0.0581677,0.039
 3419,0.0969364,0.0040469,0.2388136,-0.0334164,0.0399727,-0.0160283,0.1
 0085,0.0077333,-0.1013545,0.0202982,-0.0300111,0.0142215,-0.126043,0.0
 815576,-0.0361031,0.2052225,-0.0603952,0.0878626,0.057454,-0.0183544\P
 olar=49.9180076,0.318052,46.67585,3.709117,-0.9245654,53.2976173\Quadr
 upole=-3.2795022,-1.449264,4.7287662,-0.8147857,2.0677294,-0.9404341\P
 G=C01 [X(C2H8N4)]\NImag=0\\0.50437426,-0.15099470,0.23451303,0.0152721
 3,-0.04461442,0.69782711,-0.20336112,0.01373126,0.00164537,0.52791719,
 -0.03725771,-0.07170360,0.00821804,0.01421332,0.43808742,-0.00173113,-
 0.00124154,-0.09992541,0.02903073,0.01009928,0.56507917,-0.02016352,0.
 00141262,0.05044705,-0.07571915,0.00220250,0.00446032,0.21889103,-0.00
 073386,0.00515544,0.00453386,0.00319411,-0.10357613,-0.01398739,-0.033
 99065,0.69944718,0.01830527,0.00293771,-0.02504067,0.06710626,-0.00578
 988,-0.20412278,0.07720970,-0.00188805,0.54849659,-0.02605236,-0.01916
 747,-0.01057889,-0.07677186,-0.05397522,-0.00987689,0.00431620,0.01010
 123,0.00515805,0.43561853,-0.00348542,0.00408185,0.00000377,-0.0319352
 7,-0.08633475,-0.03156507,0.00006420,-0.00373250,-0.00674770,0.0346591
 5,0.57817172,0.00083637,0.00454761,0.00374500,-0.01139842,-0.05037581,
 -0.08976651,-0.00683362,-0.02955094,-0.02601552,-0.11178038,-0.0182627
 2,0.51761189,-0.00451249,-0.00086104,-0.00470313,-0.06358133,-0.005659
 12,-0.04941131,0.00017270,0.00000583,-0.00071689,-0.09631313,0.0349384
 1,0.00349616,0.28507278,-0.00151176,0.00155167,0.00060304,0.00801003,-
 0.01578613,0.00651633,0.00019116,0.00073694,-0.00046454,0.09213804,-0.
 12231899,0.01506856,-0.01008646,0.33985023,-0.00349228,-0.00039187,-0.
 00249503,-0.05669601,-0.00900465,-0.03021857,-0.00059627,0.00097653,-0
 .00065220,-0.03244028,0.03382664,-0.08716296,0.13133676,-0.05788810,0.
 59825204,-0.02877791,0.01953200,-0.02058695,-0.08351959,0.04136333,0.0
 1832736,0.00649408,-0.00882687,-0.00005292,-0.00415639,0.00924920,-0.0
 1369877,-0.07230937,-0.09969027,-0.05324888,0.35535340,0.00652272,0.00
 687285,0.00082535,0.01876467,-0.11658860,0.00639071,0.00114558,-0.0066
 2520,0.01645660,-0.01641530,-0.10546239,0.00994581,-0.02066888,-0.1021
 2756,-0.01554245,0.08031336,0.37012448,-0.00533602,-0.00336753,0.00089
 155,-0.02210540,0.07123566,-0.07725715,-0.01178787,0.03612269,-0.02447
 788,-0.00877922,-0.00651412,0.00429750,0.00628503,-0.00009734,-0.08807
 798,-0.09386051,-0.11100797,0.45852367,-0.13484294,0.09618339,-0.11216
 408,-0.01962572,0.02415343,-0.02908193,0.00553492,-0.00052875,-0.00141
 686,-0.00076464,0.00009442,-0.00016048,-0.00069485,0.00030191,-0.00059
 841,-0.00519372,-0.00139117,0.00125020,0.15149380,0.12693011,-0.125111
 90,0.17041871,-0.01135527,-0.00526763,-0.00223221,-0.00174056,0.000169
 22,-0.00202715,-0.00103862,-0.00104503,0.00108991,0.00138694,0.0003204
 9,0.00031864,0.00249404,0.00087262,0.00010046,-0.10971380,0.12618348,-
 0.11700385,0.13397171,-0.23475392,0.00094297,-0.00089360,0.00255347,0.
 00068311,-0.00123934,0.00009427,0.00037763,-0.00013125,-0.00024331,-0.
 00015502,-0.00041836,0.00015272,0.00292892,-0.00091940,0.00122450,0.12
 980709,-0.15200457,0.25363105,-0.08928188,0.04135572,0.08433089,-0.007
 02849,0.01378916,0.03578217,-0.00842183,-0.00105998,0.00453998,0.00060
 272,0.00075203,0.00104531,0.00092706,-0.00011651,-0.00004058,-0.000208
 78,-0.00098884,-0.00031506,0.00656679,-0.00744241,-0.01841372,0.096511
 16,0.06214707,-0.05949898,-0.13813749,-0.01003920,-0.00416554,0.005099
 11,-0.00183254,0.00253690,0.00140699,0.00088196,0.00141434,0.00084990,
 0.00015669,-0.00006985,0.00030494,0.00075206,-0.00015877,0.00031309,-0
 .00666265,0.00256805,0.02168650,-0.04599192,0.05806785,0.09452071,-0.0
 9066709,-0.34909077,-0.00074088,-0.00333628,-0.00553341,0.00397663,0.0
 0037359,0.00110340,-0.00202961,0.00000439,0.00097113,-0.00072513,-0.00
 000165,-0.00017962,0.00027574,0.00001660,0.00011540,0.00977402,-0.0142
 5559,-0.02339402,-0.10381354,0.10769419,0.37448639,0.00158904,-0.00007
 540,-0.00003125,-0.00340933,-0.01069004,0.01367113,-0.08290946,0.15312
 309,-0.09956592,0.00014130,0.00120098,-0.00001416,-0.00016817,0.000033
 62,0.00032824,0.00145033,0.00068196,-0.00012316,-0.00143331,0.00011350
 ,0.00080677,0.00013368,0.00049488,-0.00026195,0.08520518,0.00043004,0.
 00029428,-0.00172780,0.00202786,-0.00110115,-0.00008217,0.11096724,-0.
 26709380,0.12561306,0.00028887,0.00085133,0.00078316,0.00007369,0.0001
 9268,0.00043327,-0.00032150,0.00151492,-0.00017259,-0.00130939,0.00052
 496,0.00054444,0.00024366,0.00033462,-0.00045790,-0.13052002,0.2872952
 2,-0.00099944,-0.00051774,0.00212252,-0.02021237,0.03097125,-0.0161404
 8,-0.07028087,0.12779081,-0.14381185,-0.00000670,0.00032780,0.00031417
 ,0.00031685,-0.00014866,0.00029030,0.00349506,0.00150633,-0.00605663,0
 .00191635,0.00010355,0.00022651,-0.00022806,-0.00033758,0.00036108,0.0
 8030936,-0.14440229,0.15516811,0.00106957,-0.00043540,-0.00066386,-0.0
 0173366,0.01095511,0.01163462,-0.04759481,-0.12326054,-0.06732100,0.00
 111585,-0.00142481,-0.00093003,-0.00039948,0.00000323,0.00009656,-0.00
 047009,-0.00018705,0.00056363,-0.00026703,0.00112968,0.00055696,-0.000
 05536,-0.00079727,-0.00030160,-0.00039217,0.01839302,0.00757260,0.0485
 6861,-0.00017656,0.00004897,0.00212619,-0.00346547,-0.00047424,-0.0026
 0366,-0.07950713,-0.32615906,-0.12821871,0.00130648,0.00131506,0.00128
 525,0.00023667,0.00047734,-0.00002816,-0.00077333,0.00139443,-0.001344
 45,0.00049764,-0.00055015,-0.00046384,-0.00033485,0.00024410,0.0004062
 8,-0.01286033,-0.02308572,-0.01444025,0.09492349,0.34650777,-0.0006170
 0,0.00066126,0.00256409,-0.01476881,-0.03843477,-0.02265567,-0.0430491
 0,-0.12573140,-0.12224248,0.00459698,0.00022474,-0.00529927,-0.0000541
 8,0.00036448,0.00090978,0.00034678,0.00070989,0.00288122,0.00043180,-0
 .00021910,-0.00003038,-0.00031923,0.00056331,0.00027784,0.00573238,0.0
 1903638,0.00932029,0.04885648,0.14307921,0.13490934,0.00246400,0.00066
 466,0.00016545,0.00886262,-0.00398740,-0.01435447,-0.00028352,-0.00349
 796,-0.00262432,-0.11648232,0.04038477,0.10249401,-0.01914991,0.015049
 57,0.01262779,-0.00030101,-0.00058861,0.00109490,0.00023029,-0.0000870
 8,-0.00028379,0.00000387,-0.00025490,0.00010655,-0.00005229,-0.0001270
 2,0.00004319,-0.00027266,0.00027011,-0.00135857,0.12659239,0.00058677,
 0.00182060,-0.00021252,0.01003423,-0.00375728,-0.01050290,-0.00052192,
 -0.00194346,-0.00069614,0.04011564,-0.07934138,-0.06099111,0.01793798,
 -0.01278040,-0.01548687,-0.00073213,0.00107940,0.00182293,-0.00037360,
 0.00014405,-0.00006767,-0.00097921,-0.00032739,0.00032153,-0.00026579,
 -0.00008434,-0.00017112,0.00013639,0.00005912,-0.00085075,-0.05213044,
 0.08462086,0.00080660,0.00158843,0.00163190,0.01422549,-0.00104826,-0.
 01446111,-0.00168243,-0.00498999,-0.00217071,0.10084472,-0.06174000,-0
 .19719225,-0.00629858,0.00657616,0.01314400,-0.00197957,-0.00145942,-0
 .00001272,0.00001731,0.00009515,0.00008058,-0.00150804,-0.00054026,0.0
 0084166,0.00024535,0.00010204,0.00007392,-0.00074300,-0.00002939,-0.00
 143656,-0.11158620,0.06927177,0.20712979,-0.00235107,-0.00139697,-0.00
 164593,-0.00547594,-0.00493077,0.01317560,0.00067978,0.00189118,0.0013
 5117,-0.10810408,-0.09308426,0.05971127,0.01046308,0.01451325,-0.01156
 413,0.00364118,0.00053782,-0.00098821,-0.00026016,-0.00043577,-0.00004
 525,0.00054331,0.00023737,-0.00050307,-0.00040732,-0.00023593,-0.00040
 592,0.00033485,0.00008997,0.00014757,-0.00559082,-0.01208113,0.0074658
 6,0.10678133,-0.00124273,-0.00151036,-0.00066537,-0.00309000,-0.007819
 63,0.01071537,0.00074170,0.00229563,0.00078752,-0.08698167,-0.18560683
 ,0.09461486,-0.00424116,-0.01475681,0.00894817,0.00008243,-0.00772177,
 -0.00051657,-0.00028692,0.00009913,0.00012016,-0.00003697,0.00008976,-
 0.00029687,-0.00078327,-0.00025544,-0.00071827,0.00041487,0.00013607,0
 .00013706,0.00507364,0.00947920,-0.00643842,0.09127760,0.20859546,-0.0
 0175152,-0.00096036,-0.00078201,-0.00632583,-0.00894703,0.01125527,0.0
 0023400,0.00096087,0.00171910,0.05781586,0.09468829,-0.11664069,0.0007
 0816,0.00525862,-0.00214258,0.00210895,-0.00386786,0.00027928,-0.00021
 482,-0.00019294,0.00010956,-0.00027007,0.00016935,-0.00027162,-0.00036
 243,0.00013128,-0.00003741,0.00019669,0.00016677,0.00022678,0.01291024
 ,0.01761151,-0.01098164,-0.06516049,-0.10655055,0.11778440,-0.00093615
 ,0.00003607,-0.00108685,-0.00728958,-0.00113629,-0.00376922,0.00029366
 ,0.00011743,0.00036836,-0.01122441,0.00709733,-0.02227258,-0.01485892,
 -0.00545742,0.00081012,-0.01190753,0.00100419,-0.02562923,-0.00049586,
 0.00002178,0.00011915,-0.00027432,0.00013965,-0.00012907,0.00013645,0.
 00027819,-0.00001325,0.00013409,-0.00023772,0.00011908,0.00367422,-0.0
 0142088,-0.00017768,-0.00067673,-0.00081715,-0.00010129,0.04029585,0.0
 0026667,0.00161123,-0.00002468,0.00113857,-0.00777627,-0.00002956,-0.0
 0003832,0.00096230,-0.00038363,-0.00053706,-0.00040654,0.03105532,0.00
 157181,-0.06060744,0.03786065,-0.00446725,-0.00019059,-0.03192311,-0.0
 0027532,0.00015574,0.00006594,-0.00010413,-0.00009204,-0.00003978,-0.0
 0001892,0.00018837,-0.00040006,-0.00001537,0.00013102,0.00040395,-0.00
 079815,0.00165820,-0.00099160,0.00273540,-0.00222907,0.00169204,0.0001
 7181,0.06326417,0.00073294,-0.00000653,-0.00007952,-0.00088487,0.00046
 584,-0.00028395,-0.00002347,0.00002987,0.00041065,0.00989518,-0.004693
 59,-0.00394262,-0.06664043,0.03964132,-0.41634864,0.00581037,0.0010040
 7,-0.00878813,0.00011460,-0.00013133,0.00003714,-0.00001220,-0.0000589
 0,0.00005113,0.00000610,0.00003331,0.00013652,0.00000932,-0.00000707,0
 .00017816,0.00037075,-0.00034183,0.00361038,-0.00184651,0.00019022,-0.
 00058998,0.05294892,-0.03729484,0.42099352,0.00078257,0.00001525,-0.00
 039995,0.01073596,0.01095969,-0.01785697,-0.00129006,0.00346575,-0.002
 34088,-0.00192540,0.00148928,-0.00049469,-0.02464797,-0.01337839,0.013
 47738,-0.16009459,-0.06873045,0.15973093,-0.00024759,-0.00026255,-0.00
 032095,-0.00001793,0.00076880,-0.00014878,0.00011607,-0.00018873,-0.00
 150681,-0.00003773,0.00003103,-0.00006418,0.00030513,-0.00030591,0.000
 37015,0.00042259,-0.00011036,0.00021255,0.00312923,0.00037025,-0.00048
 069,0.17276973,-0.00148062,0.00187492,-0.00134668,-0.01122883,-0.01373
 646,0.02342370,0.00090611,-0.00217348,-0.00098609,-0.00137605,-0.00158
 589,-0.00005980,-0.01479136,-0.01468218,0.01567324,-0.03897507,-0.0429
 8384,0.04534884,-0.00068920,0.00093695,-0.00025070,0.00091426,-0.00094
 306,0.00023858,-0.00043427,0.00042406,0.00043622,0.00016464,-0.0000447
 1,0.00005574,0.00002881,-0.00062718,-0.00039621,0.00088223,-0.00079534
 ,-0.00015997,0.00020300,0.00333091,0.00116944,0.06587636,0.07100529,0.
 00045722,-0.00193965,0.00338516,0.02018177,-0.00315978,-0.01852288,-0.
 00275718,0.00659889,-0.00328994,-0.00319646,0.00057883,-0.00067658,-0.
 01343830,-0.01500987,0.01452873,0.15013442,0.09594173,-0.26354265,0.00
 032521,-0.00106353,0.00031182,-0.00077784,0.00098685,0.00026142,-0.000
 74045,0.00016579,-0.00196705,0.00047263,0.00007182,0.00039685,0.000394
 48,0.00029316,-0.00025722,0.00030805,-0.00032731,0.00007154,-0.0011864
 7,0.00000937,0.00461535,-0.15017710,-0.08314632,0.26468545\\-0.0000101
 1,-0.00001363,0.00000558,0.00005561,-0.00001485,-0.00000747,-0.0000117
 8,0.00000227,0.00000610,-0.00005568,0.00004006,0.00001102,0.00001696,-
 0.00004707,-0.00000777,0.00000964,0.00002978,0.00000202,-0.00000526,0.
 00000648,-0.00000044,-0.00000382,0.00000626,0.00000085,0.00000049,-0.0
 0000204,-0.00000107,0.00000227,-0.00000091,0.00000092,0.00001091,-0.00
 000101,-0.00000489,0.00000335,-0.00000706,-0.00000636,-0.00000952,0.00
 000351,0.00000433,-0.00000305,-0.00000178,-0.00000281\\\@


 MYSTERY IS THE WISDOM OF BLOCKHEADS... HORACE WALPOLE 
 Job cpu time:       0 days  0 hours 49 minutes 37.0 seconds.
 Elapsed time:       0 days  0 hours 12 minutes 25.0 seconds.
 File lengths (MBytes):  RWF=     55 Int=      0 D2E=      0 Chk=      5 Scr=      1
 Normal termination of Gaussian 16 at Mon May 31 17:08:59 2021.
### All Done ###
