### Starting Gaussian ###
 Entering Gaussian System, Link 0=g16
 Initial command:
 /cluster/software/gaussian/gaussian-16-A.03/avx2/g16/l1.exe "/local/scratch/linjian/Gau-17187.inp" -scrdir="/local/scratch/linjian/"
 Entering Link 1 = /cluster/software/gaussian/gaussian-16-A.03/avx2/g16/l1.exe PID=     17188.
  
 Copyright (c) 1988,1990,1992,1993,1995,1998,2003,2009,2016,
            Gaussian, Inc.  All Rights Reserved.
  
 This is part of the Gaussian(R) 16 program.  It is based on
 the Gaussian(R) 09 system (copyright 2009, Gaussian, Inc.),
 the Gaussian(R) 03 system (copyright 2003, Gaussian, Inc.),
 the Gaussian(R) 98 system (copyright 1998, Gaussian, Inc.),
 the Gaussian(R) 94 system (copyright 1995, Gaussian, Inc.),
 the Gaussian 92(TM) system (copyright 1992, Gaussian, Inc.),
 the Gaussian 90(TM) system (copyright 1990, Gaussian, Inc.),
 the Gaussian 88(TM) system (copyright 1988, Gaussian, Inc.),
 the Gaussian 86(TM) system (copyright 1986, Carnegie Mellon
 University), and the Gaussian 82(TM) system (copyright 1983,
 Carnegie Mellon University). Gaussian is a federally registered
 trademark of Gaussian, Inc.
  
 This software contains proprietary and confidential information,
 including trade secrets, belonging to Gaussian, Inc.
  
 This software is provided under written license and may be
 used, copied, transmitted, or stored only in accord with that
 written license.
  
 The following legend is applicable only to US Government
 contracts under FAR:
  
                    RESTRICTED RIGHTS LEGEND
  
 Use, reproduction and disclosure by the US Government is
 subject to restrictions as set forth in subparagraphs (a)
 and (c) of the Commercial Computer Software - Restricted
 Rights clause in FAR 52.227-19.
  
 Gaussian, Inc.
 340 Quinnipiac St., Bldg. 40, Wallingford CT 06492
  
  
 ---------------------------------------------------------------
 Warning -- This program may not be used in any manner that
 competes with the business of Gaussian, Inc. or will provide
 assistance to any competitor of Gaussian, Inc.  The licensee
 of this program is prohibited from giving any competitor of
 Gaussian, Inc. access to this program.  By using this program,
 the user acknowledges that Gaussian, Inc. is engaged in the
 business of creating and licensing software in the field of
 computational chemistry and represents and warrants to the
 licensee that it is not a competitor of Gaussian, Inc. and that
 it will not use this program in any manner prohibited above.
 ---------------------------------------------------------------
  

 Cite this work as:
 Gaussian 16, Revision A.03,
 M. J. Frisch, G. W. Trucks, H. B. Schlegel, G. E. Scuseria, 
 M. A. Robb, J. R. Cheeseman, G. Scalmani, V. Barone, 
 G. A. Petersson, H. Nakatsuji, X. Li, M. Caricato, A. V. Marenich, 
 J. Bloino, B. G. Janesko, R. Gomperts, B. Mennucci, H. P. Hratchian, 
 J. V. Ortiz, A. F. Izmaylov, J. L. Sonnenberg, D. Williams-Young, 
 F. Ding, F. Lipparini, F. Egidi, J. Goings, B. Peng, A. Petrone, 
 T. Henderson, D. Ranasinghe, V. G. Zakrzewski, J. Gao, N. Rega, 
 G. Zheng, W. Liang, M. Hada, M. Ehara, K. Toyota, R. Fukuda, 
 J. Hasegawa, M. Ishida, T. Nakajima, Y. Honda, O. Kitao, H. Nakai, 
 T. Vreven, K. Throssell, J. A. Montgomery, Jr., J. E. Peralta, 
 F. Ogliaro, M. J. Bearpark, J. J. Heyd, E. N. Brothers, K. N. Kudin, 
 V. N. Staroverov, T. A. Keith, R. Kobayashi, J. Normand, 
 K. Raghavachari, A. P. Rendell, J. C. Burant, S. S. Iyengar, 
 J. Tomasi, M. Cossi, J. M. Millam, M. Klene, C. Adamo, R. Cammi, 
 J. W. Ochterski, R. L. Martin, K. Morokuma, O. Farkas, 
 J. B. Foresman, and D. J. Fox, Gaussian, Inc., Wallingford CT, 2016.
 
 ******************************************
 Gaussian 16:  ES64L-G16RevA.03 25-Dec-2016
                 1-Jun-2021 
 ******************************************
 %chk=NCCCCpNpCNNdNN.chk
 %NProcShared=20
 Will use up to   20 processors via shared memory.
 -----------------------------
 # opt freq b3lyp/6-31g(2df,p)
 -----------------------------
 1/18=20,19=15,26=3,38=1/1,3;
 2/9=110,12=2,17=6,18=5,40=1/2;
 3/5=1,6=6,7=104,11=2,25=1,30=1,71=1,74=-5/1,2,3;
 4//1;
 5/5=2,38=5/2;
 6/7=2,8=2,9=2,10=2,28=1/1;
 7//1,2,3,16;
 1/18=20,19=15,26=3/3(2);
 2/9=110/2;
 99//99;
 2/9=110/2;
 3/5=1,6=6,7=104,11=2,25=1,30=1,71=1,74=-5/1,2,3;
 4/5=5,16=3,69=1/1;
 5/5=2,38=5/2;
 7//1,2,3,16;
 1/18=20,19=15,26=3/3(-5);
 2/9=110/2;
 6/7=2,8=2,9=2,10=2,19=2,28=1/1;
 99/9=1/99;
 -------------------
 Title Card Required
 -------------------
 Symbolic Z-matrix:
 Charge =  0 Multiplicity = 1
 N                     0.93092  -0.03708  -0.05368 
 C                     2.38876  -0.05565  -0.05982 
 C                     2.9026    0.87238  -1.15681 
 C                     4.43683   0.92915  -1.18874 
 C                     4.98419   1.86315  -2.2893 
 N                     4.50581   3.24449  -2.10242 
 C                     6.53581   1.83729  -2.31922 
 N                     7.07848   2.62612  -3.40597 
 N                     8.41495   2.80244  -3.51051 
 N                     8.64683   3.61654  -4.42153 
 N                     9.96949   3.7785   -4.55916 
 H                     0.58248  -0.67775   0.65778 
 H                     0.57651  -0.37861  -0.94649 
 H                     2.74582  -1.078    -0.22055 
 H                     2.75296   0.28098   0.91673 
 H                     2.4907    1.87171  -0.97635 
 H                     2.53135   0.54048  -2.13477 
 H                     4.82237  -0.08518  -1.35665 
 H                     4.81013   1.24748  -0.20687 
 H                     4.61361   1.51551  -3.26185 
 H                     4.782     3.57343  -1.17636 
 H                     3.48631   3.2643   -2.10737 
 H                     6.88985   0.81145  -2.46644 
 H                     6.94183   2.21452  -1.37285 
 H                     6.50885   3.33474  -3.86308 
 H                     10.31447   4.35864  -5.30846 
 H                     10.5829   3.22434  -3.96966 
 

 GradGradGradGradGradGradGradGradGradGradGradGradGradGradGradGradGradGrad
 Berny optimization.
 Initialization pass.
                           ----------------------------
                           !    Initial Parameters    !
                           ! (Angstroms and Degrees)  !
 --------------------------                            --------------------------
 ! Name  Definition              Value          Derivative Info.                !
 --------------------------------------------------------------------------------
 ! R1    R(1,2)                  1.458          estimate D2E/DX2                !
 ! R2    R(1,12)                 1.0188         estimate D2E/DX2                !
 ! R3    R(1,13)                 1.0195         estimate D2E/DX2                !
 ! R4    R(2,3)                  1.526          estimate D2E/DX2                !
 ! R5    R(2,14)                 1.0948         estimate D2E/DX2                !
 ! R6    R(2,15)                 1.0953         estimate D2E/DX2                !
 ! R7    R(3,4)                  1.5356         estimate D2E/DX2                !
 ! R8    R(3,16)                 1.0959         estimate D2E/DX2                !
 ! R9    R(3,17)                 1.0974         estimate D2E/DX2                !
 ! R10   R(4,5)                  1.5438         estimate D2E/DX2                !
 ! R11   R(4,18)                 1.098          estimate D2E/DX2                !
 ! R12   R(4,19)                 1.0976         estimate D2E/DX2                !
 ! R13   R(5,6)                  1.4737         estimate D2E/DX2                !
 ! R14   R(5,7)                  1.5521         estimate D2E/DX2                !
 ! R15   R(5,20)                 1.0973         estimate D2E/DX2                !
 ! R16   R(6,21)                 1.0208         estimate D2E/DX2                !
 ! R17   R(6,22)                 1.0197         estimate D2E/DX2                !
 ! R18   R(7,8)                  1.4484         estimate D2E/DX2                !
 ! R19   R(7,23)                 1.0952         estimate D2E/DX2                !
 ! R20   R(7,24)                 1.0967         estimate D2E/DX2                !
 ! R21   R(8,9)                  1.3521         estimate D2E/DX2                !
 ! R22   R(8,25)                 1.0176         estimate D2E/DX2                !
 ! R23   R(9,10)                 1.2436         estimate D2E/DX2                !
 ! R24   R(10,11)                1.3396         estimate D2E/DX2                !
 ! R25   R(11,26)                1.0085         estimate D2E/DX2                !
 ! R26   R(11,27)                1.0153         estimate D2E/DX2                !
 ! A1    A(2,1,12)             109.6879         estimate D2E/DX2                !
 ! A2    A(2,1,13)             109.8555         estimate D2E/DX2                !
 ! A3    A(12,1,13)            106.3788         estimate D2E/DX2                !
 ! A4    A(1,2,3)              109.3888         estimate D2E/DX2                !
 ! A5    A(1,2,14)             109.7936         estimate D2E/DX2                !
 ! A6    A(1,2,15)             108.9548         estimate D2E/DX2                !
 ! A7    A(3,2,14)             110.6435         estimate D2E/DX2                !
 ! A8    A(3,2,15)             110.0029         estimate D2E/DX2                !
 ! A9    A(14,2,15)            108.0272         estimate D2E/DX2                !
 ! A10   A(2,3,4)              111.9534         estimate D2E/DX2                !
 ! A11   A(2,3,16)             108.0374         estimate D2E/DX2                !
 ! A12   A(2,3,17)             110.0457         estimate D2E/DX2                !
 ! A13   A(4,3,16)             110.1968         estimate D2E/DX2                !
 ! A14   A(4,3,17)             109.3071         estimate D2E/DX2                !
 ! A15   A(16,3,17)            107.1807         estimate D2E/DX2                !
 ! A16   A(3,4,5)              113.0438         estimate D2E/DX2                !
 ! A17   A(3,4,18)             108.6526         estimate D2E/DX2                !
 ! A18   A(3,4,19)             109.3852         estimate D2E/DX2                !
 ! A19   A(5,4,18)             108.9887         estimate D2E/DX2                !
 ! A20   A(5,4,19)             109.9792         estimate D2E/DX2                !
 ! A21   A(18,4,19)            106.576          estimate D2E/DX2                !
 ! A22   A(4,5,6)              111.1981         estimate D2E/DX2                !
 ! A23   A(4,5,7)              110.9842         estimate D2E/DX2                !
 ! A24   A(4,5,20)             108.6897         estimate D2E/DX2                !
 ! A25   A(6,5,7)              110.033          estimate D2E/DX2                !
 ! A26   A(6,5,20)             107.4409         estimate D2E/DX2                !
 ! A27   A(7,5,20)             108.3759         estimate D2E/DX2                !
 ! A28   A(5,6,21)             109.2229         estimate D2E/DX2                !
 ! A29   A(5,6,22)             110.007          estimate D2E/DX2                !
 ! A30   A(21,6,22)            105.5838         estimate D2E/DX2                !
 ! A31   A(5,7,8)              112.3303         estimate D2E/DX2                !
 ! A32   A(5,7,23)             109.9604         estimate D2E/DX2                !
 ! A33   A(5,7,24)             110.3486         estimate D2E/DX2                !
 ! A34   A(8,7,23)             106.7486         estimate D2E/DX2                !
 ! A35   A(8,7,24)             108.7491         estimate D2E/DX2                !
 ! A36   A(23,7,24)            108.573          estimate D2E/DX2                !
 ! A37   A(7,8,9)              119.9591         estimate D2E/DX2                !
 ! A38   A(7,8,25)             120.4351         estimate D2E/DX2                !
 ! A39   A(9,8,25)             115.3252         estimate D2E/DX2                !
 ! A40   A(8,9,10)             109.0453         estimate D2E/DX2                !
 ! A41   A(9,10,11)            109.7861         estimate D2E/DX2                !
 ! A42   A(10,11,26)           118.9228         estimate D2E/DX2                !
 ! A43   A(10,11,27)           118.0905         estimate D2E/DX2                !
 ! A44   A(26,11,27)           122.5951         estimate D2E/DX2                !
 ! D1    D(12,1,2,3)           178.2265         estimate D2E/DX2                !
 ! D2    D(12,1,2,14)           56.6337         estimate D2E/DX2                !
 ! D3    D(12,1,2,15)          -61.489          estimate D2E/DX2                !
 ! D4    D(13,1,2,3)            61.6343         estimate D2E/DX2                !
 ! D5    D(13,1,2,14)          -59.9584         estimate D2E/DX2                !
 ! D6    D(13,1,2,15)         -178.0811         estimate D2E/DX2                !
 ! D7    D(1,2,3,4)            178.3301         estimate D2E/DX2                !
 ! D8    D(1,2,3,16)            56.8142         estimate D2E/DX2                !
 ! D9    D(1,2,3,17)           -59.8977         estimate D2E/DX2                !
 ! D10   D(14,2,3,4)           -60.5913         estimate D2E/DX2                !
 ! D11   D(14,2,3,16)          177.8928         estimate D2E/DX2                !
 ! D12   D(14,2,3,17)           61.1809         estimate D2E/DX2                !
 ! D13   D(15,2,3,4)            58.6887         estimate D2E/DX2                !
 ! D14   D(15,2,3,16)          -62.8273         estimate D2E/DX2                !
 ! D15   D(15,2,3,17)         -179.5392         estimate D2E/DX2                !
 ! D16   D(2,3,4,5)           -179.9281         estimate D2E/DX2                !
 ! D17   D(2,3,4,18)            58.9548         estimate D2E/DX2                !
 ! D18   D(2,3,4,19)           -57.0197         estimate D2E/DX2                !
 ! D19   D(16,3,4,5)           -59.6633         estimate D2E/DX2                !
 ! D20   D(16,3,4,18)          179.2196         estimate D2E/DX2                !
 ! D21   D(16,3,4,19)           63.245          estimate D2E/DX2                !
 ! D22   D(17,3,4,5)            57.8768         estimate D2E/DX2                !
 ! D23   D(17,3,4,18)          -63.2403         estimate D2E/DX2                !
 ! D24   D(17,3,4,19)         -179.2148         estimate D2E/DX2                !
 ! D25   D(3,4,5,6)             59.6239         estimate D2E/DX2                !
 ! D26   D(3,4,5,7)           -177.5375         estimate D2E/DX2                !
 ! D27   D(3,4,5,20)           -58.4473         estimate D2E/DX2                !
 ! D28   D(18,4,5,6)          -179.4495         estimate D2E/DX2                !
 ! D29   D(18,4,5,7)           -56.6109         estimate D2E/DX2                !
 ! D30   D(18,4,5,20)           62.4793         estimate D2E/DX2                !
 ! D31   D(19,4,5,6)           -62.954          estimate D2E/DX2                !
 ! D32   D(19,4,5,7)            59.8846         estimate D2E/DX2                !
 ! D33   D(19,4,5,20)          178.9748         estimate D2E/DX2                !
 ! D34   D(4,5,6,21)            57.3543         estimate D2E/DX2                !
 ! D35   D(4,5,6,22)           -58.0968         estimate D2E/DX2                !
 ! D36   D(7,5,6,21)           -66.0298         estimate D2E/DX2                !
 ! D37   D(7,5,6,22)           178.519          estimate D2E/DX2                !
 ! D38   D(20,5,6,21)          176.1774         estimate D2E/DX2                !
 ! D39   D(20,5,6,22)           60.7263         estimate D2E/DX2                !
 ! D40   D(4,5,7,8)            175.6838         estimate D2E/DX2                !
 ! D41   D(4,5,7,23)            56.9577         estimate D2E/DX2                !
 ! D42   D(4,5,7,24)           -62.7861         estimate D2E/DX2                !
 ! D43   D(6,5,7,8)            -60.8071         estimate D2E/DX2                !
 ! D44   D(6,5,7,23)          -179.5333         estimate D2E/DX2                !
 ! D45   D(6,5,7,24)            60.723          estimate D2E/DX2                !
 ! D46   D(20,5,7,8)            56.4052         estimate D2E/DX2                !
 ! D47   D(20,5,7,23)          -62.3209         estimate D2E/DX2                !
 ! D48   D(20,5,7,24)          177.9354         estimate D2E/DX2                !
 ! D49   D(5,7,8,9)            174.4844         estimate D2E/DX2                !
 ! D50   D(5,7,8,25)            18.8016         estimate D2E/DX2                !
 ! D51   D(23,7,8,9)           -64.918          estimate D2E/DX2                !
 ! D52   D(23,7,8,25)          139.3992         estimate D2E/DX2                !
 ! D53   D(24,7,8,9)            52.0448         estimate D2E/DX2                !
 ! D54   D(24,7,8,25)         -103.638          estimate D2E/DX2                !
 ! D55   D(7,8,9,10)          -173.1569         estimate D2E/DX2                !
 ! D56   D(25,8,9,10)          -16.2853         estimate D2E/DX2                !
 ! D57   D(8,9,10,11)         -178.5487         estimate D2E/DX2                !
 ! D58   D(9,10,11,26)         175.4237         estimate D2E/DX2                !
 ! D59   D(9,10,11,27)           2.4171         estimate D2E/DX2                !
 ! D60   D(10,11,26,27)       -172.6751         estimate D2E/DX2                !
 --------------------------------------------------------------------------------
 Trust Radius=3.00D-01 FncErr=1.00D-07 GrdErr=1.00D-06 EigMax=2.50D+02 EigMin=1.00D-04
 Number of steps in this run=    140 maximum allowed number of steps=    162.
 GradGradGradGradGradGradGradGradGradGradGradGradGradGradGradGradGradGrad

                          Input orientation:                          
 ---------------------------------------------------------------------
 Center     Atomic      Atomic             Coordinates (Angstroms)
 Number     Number       Type             X           Y           Z
 ---------------------------------------------------------------------
      1          7           0        0.930920   -0.037080   -0.053680
      2          6           0        2.388760   -0.055650   -0.059820
      3          6           0        2.902600    0.872380   -1.156810
      4          6           0        4.436830    0.929150   -1.188740
      5          6           0        4.984190    1.863150   -2.289300
      6          7           0        4.505810    3.244490   -2.102420
      7          6           0        6.535810    1.837290   -2.319220
      8          7           0        7.078480    2.626120   -3.405970
      9          7           0        8.414950    2.802440   -3.510510
     10          7           0        8.646830    3.616540   -4.421530
     11          7           0        9.969490    3.778500   -4.559160
     12          1           0        0.582480   -0.677750    0.657780
     13          1           0        0.576510   -0.378610   -0.946490
     14          1           0        2.745820   -1.078000   -0.220550
     15          1           0        2.752960    0.280980    0.916730
     16          1           0        2.490700    1.871710   -0.976350
     17          1           0        2.531350    0.540480   -2.134770
     18          1           0        4.822370   -0.085180   -1.356650
     19          1           0        4.810130    1.247480   -0.206870
     20          1           0        4.613610    1.515510   -3.261850
     21          1           0        4.782000    3.573430   -1.176360
     22          1           0        3.486310    3.264300   -2.107370
     23          1           0        6.889850    0.811450   -2.466440
     24          1           0        6.941830    2.214520   -1.372850
     25          1           0        6.508850    3.334740   -3.863080
     26          1           0       10.314470    4.358640   -5.308460
     27          1           0       10.582900    3.224340   -3.969660
 ---------------------------------------------------------------------
                    Distance matrix (angstroms):
                    1          2          3          4          5
     1  N    0.000000
     2  C    1.457971   0.000000
     3  C    2.435474   1.525994   0.000000
     4  C    3.809641   2.537495   1.535612   0.000000
     5  C    5.003785   3.922835   2.568497   1.543759   0.000000
     6  N    5.267435   4.420977   3.015189   2.490054   1.473727
     7  C    6.329354   5.087842   3.934776   2.551161   1.552124
     8  N    7.491527   6.354690   5.056906   3.843713   2.493015
     9  N    8.719131   7.509388   6.296907   4.972451   3.760816
    10  N    9.589699   8.465987   7.154369   5.949546   4.586471
    11  N   10.796006   9.613128   8.364356   7.077348   5.802934
    12  H    1.018844   2.040737   3.328453   4.565937   5.875075
    13  H    1.019490   2.043217   2.649510   4.083013   5.124087
    14  H    2.098862   1.094772   2.169135   2.797420   4.235610
    15  H    2.088705   1.095268   2.161415   2.772823   4.214294
    16  H    2.632055   2.136618   1.095850   2.172775   2.818050
    17  H    2.688101   2.163590   1.097447   2.162612   2.791014
    18  H    4.104075   2.757734   2.154617   1.098044   2.166105
    19  H    4.089234   2.753689   2.163737   1.097614   2.178500
    20  H    5.124948   4.203748   2.787896   2.161679   1.097286
    21  H    5.396945   4.488260   3.290623   2.666742   2.050506
    22  H    4.652609   4.052054   2.639235   2.683337   2.059117
    23  H    6.484617   5.177209   4.197262   2.768335   2.183802
    24  H    6.552935   5.254347   4.261853   2.821542   2.189908
    25  H    7.549437   6.552455   5.137329   4.151171   2.639498
    26  H   11.618351  10.480986   9.182920   7.954882   6.614732
    27  H   10.914783   9.653451   8.510632   7.125699   6.001833
                    6          7          8          9         10
     6  N    0.000000
     7  C    2.479539   0.000000
     8  N    2.949619   1.448368   0.000000
     9  N    4.178457   2.425253   1.352098   0.000000
    10  N    4.760750   3.470136   2.114714   1.243577   0.000000
    11  N    6.014361   4.536054   3.319001   2.113990   1.339628
    12  H    6.196385   7.115483   8.344318   9.530685  10.453423
    13  H    5.468311   6.504449   7.573180   8.839368   9.652315
    14  H    5.032188   5.221815   6.529881   7.617131   8.631851
    15  H    4.579317   5.215690   6.549469   7.616846   8.623264
    16  H    2.685745   4.262323   5.245943   6.510374   7.267161
    17  H    3.348314   4.213246   5.161612   6.451812   7.217376
    18  H    3.426819   2.749238   4.079325   5.087641   6.141882
    19  H    2.770157   2.790676   4.156958   5.130952   6.172201
    20  H    2.084531   2.164936   2.707362   4.020971   4.693192
    21  H    1.020818   2.719588   3.338020   4.386457   5.046771
    22  H    1.019704   3.373528   3.872637   5.145251   5.666602
    23  H    3.425761   1.095156   2.052151   2.716625   3.844202
    24  H    2.743593   1.096709   2.078861   2.661827   3.763925
    25  H    2.668377   2.150950   1.017630   2.010191   2.227608
    26  H    6.727596   5.437925   4.134335   3.043445   2.029379
    27  H    6.357516   4.585499   3.599524   2.255843   2.026419
                   11         12         13         14         15
    11  N    0.000000
    12  H   11.627149   0.000000
    13  H   10.888573   1.631932   0.000000
    14  H    9.725767   2.368903   2.392079   0.000000
    15  H    9.710629   2.386881   2.939997   1.772084   0.000000
    16  H    8.509094   3.579306   2.954481   3.055668   2.486555
    17  H    8.466898   3.616699   2.465387   2.515892   3.070522
    18  H    7.188667   4.731357   4.275706   2.566802   3.095931
    19  H    7.208848   4.725162   4.595078   3.109569   2.535458
    20  H    5.957314   6.035221   5.024615   4.411852   4.737786
    21  H    6.196406   6.250805   5.775604   5.166759   4.397528
    22  H    6.950345   5.622992   4.804724   4.792075   4.310821
    23  H    4.760992   7.194538   6.601875   5.078093   5.370391
    24  H    4.665333   7.275302   6.886465   5.456646   5.150474
    25  H    3.557735   8.465230   7.582092   6.848408   6.802848
    26  H    1.008476  12.476894  11.674596  10.617361  10.609276
    27  H    1.015320  11.689650  11.056611   9.694626   9.687525
                   16         17         18         19         20
    16  H    0.000000
    17  H    1.765152   0.000000
    18  H    3.067692   2.499139   0.000000
    19  H    2.522205   3.067489   1.760150   0.000000
    20  H    3.139608   2.560625   2.497114   3.073006   0.000000
    21  H    2.861103   3.896506   3.663272   2.520069   2.934733
    22  H    2.051768   2.886502   3.683430   3.071150   2.379474
    23  H    4.764141   4.379492   2.511982   3.101776   2.511901
    24  H    4.481885   4.778626   3.127458   2.615114   3.078562
    25  H    5.159379   5.159016   4.563141   4.539843   2.694997
    26  H    9.282423   9.231880   8.094906   8.124241   6.691174
    27  H    8.733454   8.683167   7.138939   7.168782   6.249281
                   21         22         23         24         25
    21  H    0.000000
    22  H    1.625163   0.000000
    23  H    3.706194   4.210640   0.000000
    24  H    2.559318   3.685400   1.779676   0.000000
    25  H    3.202725   3.496173   2.909082   2.764708   0.000000
    26  H    6.949750   7.620258   5.691015   5.609009   4.197647
    27  H    6.447855   7.336982   4.660507   4.584817   4.076939
                   26         27
    26  H    0.000000
    27  H    1.775127   0.000000
 Stoichiometry    C5H16N6
 Framework group  C1[X(C5H16N6)]
 Deg. of freedom    75
 Full point group                 C1      NOp   1
 Largest Abelian subgroup         C1      NOp   1
 Largest concise Abelian subgroup C1      NOp   1
                         Standard orientation:                         
 ---------------------------------------------------------------------
 Center     Atomic      Atomic             Coordinates (Angstroms)
 Number     Number       Type             X           Y           Z
 ---------------------------------------------------------------------
      1          7           0       -5.379571    0.151015   -0.198673
      2          6           0       -4.193991   -0.609453    0.177850
      3          6           0       -2.944267    0.170903   -0.219505
      4          6           0       -1.656993   -0.560331    0.188328
      5          6           0       -0.376118    0.208664   -0.200509
      6          7           0       -0.337609    1.536732    0.437162
      7          6           0        0.893841   -0.599671    0.177495
      8          7           0        2.110977    0.049265   -0.264353
      9          7           0        3.313358   -0.463979    0.080655
     10          7           0        4.208283    0.319448   -0.282440
     11          7           0        5.408749   -0.189929    0.024185
     12          1           0       -6.216853   -0.379079    0.037976
     13          1           0       -5.399362    0.283643   -1.209305
     14          1           0       -4.210098   -1.588120   -0.312535
     15          1           0       -4.205167   -0.772754    1.260818
     16          1           0       -2.990194    1.153711    0.263057
     17          1           0       -2.936467    0.342054   -1.303496
     18          1           0       -1.643702   -1.545164   -0.297087
     19          1           0       -1.669882   -0.744657    1.270277
     20          1           0       -0.376002    0.365183   -1.286575
     21          1           0       -0.401065    1.425271    1.449891
     22          1           0       -1.160083    2.076522    0.168908
     23          1           0        0.867984   -1.583141   -0.303632
     24          1           0        0.945223   -0.743345    1.263538
     25          1           0        2.111393    1.039590   -0.498507
     26          1           0        6.237563    0.302145   -0.272385
     27          1           0        5.442573   -1.110401    0.451342
 ---------------------------------------------------------------------
 Rotational constants (GHZ):           5.4950021           0.2712794           0.2640148
 Standard basis: 6-31G(2df,p) (6D, 7F)
 There are   421 symmetry adapted cartesian basis functions of A   symmetry.
 There are   388 symmetry adapted basis functions of A   symmetry.
   388 basis functions,   596 primitive gaussians,   421 cartesian basis functions
    44 alpha electrons       44 beta electrons
       nuclear repulsion energy       618.1773802004 Hartrees.
 NAtoms=   27 NActive=   27 NUniq=   27 SFac= 1.00D+00 NAtFMM=   60 NAOKFM=F Big=F
 Integral buffers will be    131072 words long.
 Raffenetti 2 integral format.
 Two-electron integral symmetry is turned on.
 One-electron integrals computed using PRISM.
 PrsmSu:  requested number of processors reduced to:  13 ShMem   1 Linda.
 NBasis=   388 RedAO= T EigKep=  2.16D-04  NBF=   388
 NBsUse=   388 1.00D-06 EigRej= -1.00D+00 NBFU=   388
 ExpMin= 1.61D-01 ExpMax= 4.17D+03 ExpMxC= 6.27D+02 IAcc=3 IRadAn=         5 AccDes= 0.00D+00
 Harris functional with IExCor=  402 and IRadAn=       5 diagonalized for initial guess.
 HarFok:  IExCor=  402 AccDes= 0.00D+00 IRadAn=         5 IDoV= 1 UseB2=F ITyADJ=14
 ICtDFT=  3500011 ScaDFX=  1.000000  1.000000  1.000000  1.000000
 FoFCou: FMM=F IPFlag=           0 FMFlag=      100000 FMFlg1=           0
         NFxFlg=           0 DoJE=T BraDBF=F KetDBF=T FulRan=T
         wScrn=  0.000000 ICntrl=       500 IOpCl=  0 I1Cent=   200000004 NGrid=           0
         NMat0=    1 NMatS0=      1 NMatT0=    0 NMatD0=    1 NMtDS0=    0 NMtDT0=    0
 Petite list used in FoFCou.
 Requested convergence on RMS density matrix=1.00D-08 within 128 cycles.
 Requested convergence on MAX density matrix=1.00D-06.
 Requested convergence on             energy=1.00D-06.
 No special actions if energy rises.
 Integral accuracy reduced to 1.0D-05 until final iterations.
 Initial convergence to 1.0D-05 achieved.  Increase integral accuracy.
 SCF Done:  E(RB3LYP) =  -528.609949674     A.U. after   13 cycles
            NFock= 13  Conv=0.81D-08     -V/T= 2.0076

 **********************************************************************

            Population analysis using the SCF density.

 **********************************************************************

 Orbital symmetries:
       Occupied  (A) (A) (A) (A) (A) (A) (A) (A) (A) (A) (A) (A)
                 (A) (A) (A) (A) (A) (A) (A) (A) (A) (A) (A) (A)
                 (A) (A) (A) (A) (A) (A) (A) (A) (A) (A) (A) (A)
                 (A) (A) (A) (A) (A) (A) (A) (A)
       Virtual   (A) (A) (A) (A) (A) (A) (A) (A) (A) (A) (A) (A)
                 (A) (A) (A) (A) (A) (A) (A) (A) (A) (A) (A) (A)
                 (A) (A) (A) (A) (A) (A) (A) (A) (A) (A) (A) (A)
                 (A) (A) (A) (A) (A) (A) (A) (A) (A) (A) (A) (A)
                 (A) (A) (A) (A) (A) (A) (A) (A) (A) (A) (A) (A)
                 (A) (A) (A) (A) (A) (A) (A) (A) (A) (A) (A) (A)
                 (A) (A) (A) (A) (A) (A) (A) (A) (A) (A) (A) (A)
                 (A) (A) (A) (A) (A) (A) (A) (A) (A) (A) (A) (A)
                 (A) (A) (A) (A) (A) (A) (A) (A) (A) (A) (A) (A)
                 (A) (A) (A) (A) (A) (A) (A) (A) (A) (A) (A) (A)
                 (A) (A) (A) (A) (A) (A) (A) (A) (A) (A) (A) (A)
                 (A) (A) (A) (A) (A) (A) (A) (A) (A) (A) (A) (A)
                 (A) (A) (A) (A) (A) (A) (A) (A) (A) (A) (A) (A)
                 (A) (A) (A) (A) (A) (A) (A) (A) (A) (A) (A) (A)
                 (A) (A) (A) (A) (A) (A) (A) (A) (A) (A) (A) (A)
                 (A) (A) (A) (A) (A) (A) (A) (A) (A) (A) (A) (A)
                 (A) (A) (A) (A) (A) (A) (A) (A) (A) (A) (A) (A)
                 (A) (A) (A) (A) (A) (A) (A) (A) (A) (A) (A) (A)
                 (A) (A) (A) (A) (A) (A) (A) (A) (A) (A) (A) (A)
                 (A) (A) (A) (A) (A) (A) (A) (A) (A) (A) (A) (A)
                 (A) (A) (A) (A) (A) (A) (A) (A) (A) (A) (A) (A)
                 (A) (A) (A) (A) (A) (A) (A) (A) (A) (A) (A) (A)
                 (A) (A) (A) (A) (A) (A) (A) (A) (A) (A) (A) (A)
                 (A) (A) (A) (A) (A) (A) (A) (A) (A) (A) (A) (A)
                 (A) (A) (A) (A) (A) (A) (A) (A) (A) (A) (A) (A)
                 (A) (A) (A) (A) (A) (A) (A) (A) (A) (A) (A) (A)
                 (A) (A) (A) (A) (A) (A) (A) (A) (A) (A) (A) (A)
                 (A) (A) (A) (A) (A) (A) (A) (A) (A) (A) (A) (A)
                 (A) (A) (A) (A) (A) (A) (A) (A)
 The electronic state is 1-A.
 Alpha  occ. eigenvalues --  -14.36476 -14.36097 -14.33661 -14.32799 -14.30973
 Alpha  occ. eigenvalues --  -14.30483 -10.21640 -10.20627 -10.20373 -10.18186
 Alpha  occ. eigenvalues --  -10.18097  -1.06502  -0.93241  -0.88724  -0.87828
 Alpha  occ. eigenvalues --   -0.81020  -0.77306  -0.71366  -0.65890  -0.60737
 Alpha  occ. eigenvalues --   -0.59539  -0.58135  -0.53816  -0.51403  -0.48935
 Alpha  occ. eigenvalues --   -0.48628  -0.46328  -0.45245  -0.44458  -0.42793
 Alpha  occ. eigenvalues --   -0.41802  -0.40821  -0.38677  -0.38401  -0.36176
 Alpha  occ. eigenvalues --   -0.35551  -0.34224  -0.33555  -0.32778  -0.28114
 Alpha  occ. eigenvalues --   -0.24521  -0.23792  -0.23197  -0.16405
 Alpha virt. eigenvalues --    0.02419   0.07449   0.08079   0.09475   0.10513
 Alpha virt. eigenvalues --    0.10983   0.12427   0.14032   0.14419   0.15425
 Alpha virt. eigenvalues --    0.15971   0.16500   0.17979   0.18505   0.18899
 Alpha virt. eigenvalues --    0.20221   0.20674   0.21273   0.22442   0.24041
 Alpha virt. eigenvalues --    0.24827   0.26085   0.26582   0.27593   0.31256
 Alpha virt. eigenvalues --    0.32611   0.36893   0.44106   0.47879   0.48539
 Alpha virt. eigenvalues --    0.49664   0.50807   0.51927   0.52610   0.53827
 Alpha virt. eigenvalues --    0.54943   0.56103   0.57463   0.58319   0.58976
 Alpha virt. eigenvalues --    0.59719   0.60237   0.61385   0.63021   0.63854
 Alpha virt. eigenvalues --    0.64066   0.64719   0.64885   0.66821   0.68340
 Alpha virt. eigenvalues --    0.70226   0.71256   0.71790   0.71795   0.73384
 Alpha virt. eigenvalues --    0.73927   0.75130   0.75309   0.76014   0.76477
 Alpha virt. eigenvalues --    0.76584   0.78778   0.79259   0.79639   0.81133
 Alpha virt. eigenvalues --    0.82414   0.82880   0.83468   0.84052   0.84664
 Alpha virt. eigenvalues --    0.85027   0.85869   0.87388   0.87951   0.88348
 Alpha virt. eigenvalues --    0.89332   0.89589   0.92472   0.94364   0.98546
 Alpha virt. eigenvalues --    1.00470   1.03306   1.04482   1.05854   1.07944
 Alpha virt. eigenvalues --    1.08621   1.10828   1.11693   1.13389   1.15614
 Alpha virt. eigenvalues --    1.19756   1.22058   1.22739   1.24936   1.26391
 Alpha virt. eigenvalues --    1.30018   1.30237   1.31309   1.33171   1.34575
 Alpha virt. eigenvalues --    1.36335   1.40044   1.42073   1.42802   1.44793
 Alpha virt. eigenvalues --    1.46797   1.48888   1.49883   1.52285   1.54469
 Alpha virt. eigenvalues --    1.56111   1.56214   1.56864   1.58491   1.60571
 Alpha virt. eigenvalues --    1.62460   1.64947   1.67390   1.68012   1.70355
 Alpha virt. eigenvalues --    1.71335   1.73902   1.74678   1.78031   1.78291
 Alpha virt. eigenvalues --    1.79970   1.81766   1.83752   1.85216   1.87254
 Alpha virt. eigenvalues --    1.88959   1.90214   1.92825   1.94739   1.96149
 Alpha virt. eigenvalues --    1.98566   2.00110   2.05484   2.10400   2.10858
 Alpha virt. eigenvalues --    2.12556   2.15407   2.19020   2.20075   2.22312
 Alpha virt. eigenvalues --    2.23197   2.27533   2.28813   2.30477   2.33138
 Alpha virt. eigenvalues --    2.34371   2.35596   2.42283   2.44053   2.44626
 Alpha virt. eigenvalues --    2.47687   2.52331   2.54244   2.54738   2.59121
 Alpha virt. eigenvalues --    2.62001   2.66276   2.68904   2.69335   2.72525
 Alpha virt. eigenvalues --    2.74695   2.75205   2.77339   2.78105   2.79877
 Alpha virt. eigenvalues --    2.80861   2.82346   2.82952   2.83152   2.84723
 Alpha virt. eigenvalues --    2.85158   2.87534   2.88280   2.89636   2.90713
 Alpha virt. eigenvalues --    2.91802   2.95596   2.97474   2.99790   3.00727
 Alpha virt. eigenvalues --    3.02939   3.04877   3.06034   3.06758   3.10090
 Alpha virt. eigenvalues --    3.11900   3.12463   3.13178   3.17216   3.20928
 Alpha virt. eigenvalues --    3.21773   3.23017   3.25849   3.26986   3.31166
 Alpha virt. eigenvalues --    3.33744   3.35248   3.36113   3.39403   3.40611
 Alpha virt. eigenvalues --    3.41497   3.43024   3.44786   3.47679   3.48155
 Alpha virt. eigenvalues --    3.48930   3.50845   3.53251   3.56333   3.56601
 Alpha virt. eigenvalues --    3.60834   3.62432   3.64837   3.65254   3.70979
 Alpha virt. eigenvalues --    3.71232   3.73267   3.73546   3.78530   3.78914
 Alpha virt. eigenvalues --    3.81019   3.83006   3.86574   3.88133   3.90300
 Alpha virt. eigenvalues --    3.93120   3.94359   3.96155   4.01254   4.02600
 Alpha virt. eigenvalues --    4.07114   4.07576   4.08163   4.09288   4.10576
 Alpha virt. eigenvalues --    4.13905   4.14445   4.15990   4.16454   4.21903
 Alpha virt. eigenvalues --    4.23449   4.24687   4.25804   4.26465   4.29577
 Alpha virt. eigenvalues --    4.31648   4.32945   4.33726   4.34778   4.35252
 Alpha virt. eigenvalues --    4.36745   4.37592   4.38024   4.38257   4.41595
 Alpha virt. eigenvalues --    4.43414   4.44407   4.46458   4.47388   4.49017
 Alpha virt. eigenvalues --    4.50186   4.51119   4.51445   4.54059   4.55225
 Alpha virt. eigenvalues --    4.57314   4.58356   4.58790   4.60662   4.63480
 Alpha virt. eigenvalues --    4.64191   4.64763   4.66531   4.67559   4.68443
 Alpha virt. eigenvalues --    4.69378   4.70372   4.71462   4.73416   4.73783
 Alpha virt. eigenvalues --    4.75719   4.77015   4.77671   4.79069   4.81119
 Alpha virt. eigenvalues --    4.81385   4.83237   4.84690   4.86235   4.87998
 Alpha virt. eigenvalues --    4.88452   4.90147   4.91438   4.92287   4.93971
 Alpha virt. eigenvalues --    4.94336   4.99875   5.02150   5.03379   5.05543
 Alpha virt. eigenvalues --    5.08685   5.09874   5.14172   5.14773   5.18953
 Alpha virt. eigenvalues --    5.24456   5.24948   5.30351   5.33423   5.36173
 Alpha virt. eigenvalues --    5.40504   5.43557   5.44061   5.49311   5.54007
 Alpha virt. eigenvalues --    5.54675   5.63756   5.66633   5.83897   5.84520
 Alpha virt. eigenvalues --    5.89257   5.95797   6.28120   7.51715   9.61018
 Alpha virt. eigenvalues --    9.96527  10.62665  11.31227  11.34173  11.37757
 Alpha virt. eigenvalues --   11.43727  11.45090  11.57258  11.65059  12.19390
 Alpha virt. eigenvalues --   12.35385  12.65737  12.94194  16.05162
          Condensed to atoms (all electrons):
               1          2          3          4          5          6
     1  N    6.550975   0.388059  -0.042920   0.002367  -0.000038   0.000002
     2  C    0.388059   4.805134   0.416491  -0.034628   0.001231   0.000651
     3  C   -0.042920   0.416491   4.857392   0.391790  -0.026615  -0.006066
     4  C    0.002367  -0.034628   0.391790   4.956519   0.411502  -0.062154
     5  C   -0.000038   0.001231  -0.026615   0.411502   4.722274   0.377932
     6  N    0.000002   0.000651  -0.006066  -0.062154   0.377932   6.560991
     7  C    0.000000  -0.000102   0.001230  -0.043873   0.392461  -0.024457
     8  N   -0.000000   0.000000  -0.000049   0.001685  -0.031476  -0.005157
     9  N    0.000000  -0.000000   0.000000  -0.000061   0.001181   0.000158
    10  N   -0.000000   0.000000   0.000000   0.000000   0.000015  -0.000078
    11  N    0.000000   0.000000   0.000000  -0.000000   0.000002  -0.000001
    12  H    0.337103  -0.043581   0.005425  -0.000297   0.000001   0.000000
    13  H    0.341199  -0.053462  -0.003038  -0.000270   0.000001   0.000000
    14  H   -0.046917   0.377334  -0.046522   0.003155   0.000053  -0.000012
    15  H   -0.021835   0.355612  -0.018743  -0.005566   0.000081   0.000014
    16  H    0.006032  -0.027184   0.346256  -0.032767  -0.005811   0.006670
    17  H   -0.001968  -0.037738   0.364829  -0.034236  -0.001032  -0.000195
    18  H    0.000043  -0.002113  -0.031165   0.336241  -0.021521   0.005531
    19  H    0.000085  -0.003384  -0.036625   0.352546  -0.024177  -0.004383
    20  H    0.000002   0.000101  -0.003904  -0.047920   0.355956  -0.036227
    21  H    0.000001  -0.000011  -0.000292  -0.005172  -0.052185   0.338248
    22  H   -0.000006  -0.000223   0.002971  -0.004903  -0.049067   0.350807
    23  H   -0.000000   0.000001  -0.000003  -0.003453  -0.019595   0.003663
    24  H   -0.000000   0.000006   0.000049  -0.004018  -0.011801  -0.009454
    25  H   -0.000000  -0.000000   0.000008   0.000434   0.003232   0.013526
    26  H   -0.000000   0.000000   0.000000   0.000000   0.000000  -0.000000
    27  H    0.000000   0.000000   0.000000   0.000000   0.000002  -0.000000
               7          8          9         10         11         12
     1  N    0.000000  -0.000000   0.000000  -0.000000   0.000000   0.337103
     2  C   -0.000102   0.000000  -0.000000   0.000000   0.000000  -0.043581
     3  C    0.001230  -0.000049   0.000000   0.000000   0.000000   0.005425
     4  C   -0.043873   0.001685  -0.000061   0.000000  -0.000000  -0.000297
     5  C    0.392461  -0.031476   0.001181   0.000015   0.000002   0.000001
     6  N   -0.024457  -0.005157   0.000158  -0.000078  -0.000001   0.000000
     7  C    4.834932   0.388852  -0.049306   0.003624  -0.000336  -0.000000
     8  N    0.388852   6.375152   0.349604  -0.111141   0.005656   0.000000
     9  N   -0.049306   0.349604   6.453285   0.491481  -0.127461  -0.000000
    10  N    0.003624  -0.111141   0.491481   6.392213   0.355753   0.000000
    11  N   -0.000336   0.005656  -0.127461   0.355753   6.498330  -0.000000
    12  H   -0.000000   0.000000  -0.000000   0.000000  -0.000000   0.517280
    13  H    0.000000   0.000000  -0.000000   0.000000  -0.000000  -0.031451
    14  H    0.000007   0.000000   0.000000   0.000000   0.000000  -0.004386
    15  H    0.000006  -0.000000   0.000000   0.000000   0.000000  -0.002221
    16  H    0.000116   0.000003   0.000000   0.000000   0.000000  -0.000148
    17  H    0.000173   0.000002   0.000000   0.000000   0.000000  -0.000007
    18  H   -0.001433   0.000044   0.000003   0.000000   0.000000   0.000001
    19  H   -0.004121   0.000053   0.000004   0.000000   0.000000   0.000005
    20  H   -0.039406   0.002573   0.000120   0.000004   0.000000   0.000000
    21  H   -0.003891  -0.000162  -0.000019   0.000002   0.000000  -0.000000
    22  H    0.005058   0.000205   0.000002  -0.000000   0.000000  -0.000000
    23  H    0.355616  -0.035082   0.000634   0.000250  -0.000016   0.000000
    24  H    0.331438  -0.044695   0.003786   0.000625  -0.000010   0.000000
    25  H   -0.051746   0.339887  -0.048021   0.022250  -0.000225   0.000000
    26  H    0.000007  -0.000223   0.005041  -0.028777   0.357816   0.000000
    27  H    0.000167  -0.000439   0.029339  -0.048357   0.331204   0.000000
              13         14         15         16         17         18
     1  N    0.341199  -0.046917  -0.021835   0.006032  -0.001968   0.000043
     2  C   -0.053462   0.377334   0.355612  -0.027184  -0.037738  -0.002113
     3  C   -0.003038  -0.046522  -0.018743   0.346256   0.364829  -0.031165
     4  C   -0.000270   0.003155  -0.005566  -0.032767  -0.034236   0.336241
     5  C    0.000001   0.000053   0.000081  -0.005811  -0.001032  -0.021521
     6  N    0.000000  -0.000012   0.000014   0.006670  -0.000195   0.005531
     7  C    0.000000   0.000007   0.000006   0.000116   0.000173  -0.001433
     8  N    0.000000   0.000000  -0.000000   0.000003   0.000002   0.000044
     9  N   -0.000000   0.000000   0.000000   0.000000   0.000000   0.000003
    10  N    0.000000   0.000000   0.000000   0.000000   0.000000   0.000000
    11  N   -0.000000   0.000000   0.000000   0.000000   0.000000   0.000000
    12  H   -0.031451  -0.004386  -0.002221  -0.000148  -0.000007   0.000001
    13  H    0.519907  -0.005623   0.006748  -0.000664   0.005812   0.000004
    14  H   -0.005623   0.690286  -0.051415   0.007067  -0.007020   0.004943
    15  H    0.006748  -0.051415   0.631150  -0.006690   0.006091  -0.000433
    16  H   -0.000664   0.007067  -0.006690   0.638755  -0.043314   0.006791
    17  H    0.005812  -0.007020   0.006091  -0.043314   0.651402  -0.004903
    18  H    0.000004   0.004943  -0.000433   0.006791  -0.004903   0.652634
    19  H    0.000018  -0.000508   0.004934  -0.004403   0.006262  -0.037988
    20  H   -0.000001   0.000009   0.000008   0.000185   0.005188  -0.002104
    21  H   -0.000000   0.000001  -0.000001   0.001670   0.000089   0.000009
    22  H    0.000004   0.000003   0.000026   0.007353   0.000667   0.000018
    23  H    0.000000  -0.000001   0.000001  -0.000001   0.000004   0.003969
    24  H   -0.000000   0.000001  -0.000001   0.000006   0.000005  -0.000485
    25  H   -0.000000   0.000000  -0.000000  -0.000004  -0.000001  -0.000028
    26  H    0.000000  -0.000000   0.000000   0.000000  -0.000000   0.000000
    27  H    0.000000  -0.000000   0.000000   0.000000   0.000000  -0.000000
              19         20         21         22         23         24
     1  N    0.000085   0.000002   0.000001  -0.000006  -0.000000  -0.000000
     2  C   -0.003384   0.000101  -0.000011  -0.000223   0.000001   0.000006
     3  C   -0.036625  -0.003904  -0.000292   0.002971  -0.000003   0.000049
     4  C    0.352546  -0.047920  -0.005172  -0.004903  -0.003453  -0.004018
     5  C   -0.024177   0.355956  -0.052185  -0.049067  -0.019595  -0.011801
     6  N   -0.004383  -0.036227   0.338248   0.350807   0.003663  -0.009454
     7  C   -0.004121  -0.039406  -0.003891   0.005058   0.355616   0.331438
     8  N    0.000053   0.002573  -0.000162   0.000205  -0.035082  -0.044695
     9  N    0.000004   0.000120  -0.000019   0.000002   0.000634   0.003786
    10  N    0.000000   0.000004   0.000002  -0.000000   0.000250   0.000625
    11  N    0.000000   0.000000   0.000000   0.000000  -0.000016  -0.000010
    12  H    0.000005   0.000000  -0.000000  -0.000000   0.000000   0.000000
    13  H    0.000018  -0.000001  -0.000000   0.000004   0.000000  -0.000000
    14  H   -0.000508   0.000009   0.000001   0.000003  -0.000001   0.000001
    15  H    0.004934   0.000008  -0.000001   0.000026   0.000001  -0.000001
    16  H   -0.004403   0.000185   0.001670   0.007353  -0.000001   0.000006
    17  H    0.006262   0.005188   0.000089   0.000667   0.000004   0.000005
    18  H   -0.037988  -0.002104   0.000009   0.000018   0.003969  -0.000485
    19  H    0.644809   0.006345   0.005405   0.000013  -0.000425   0.004797
    20  H    0.006345   0.664671   0.007065  -0.004203  -0.005356   0.007007
    21  H    0.005405   0.007065   0.516177  -0.033997  -0.000166   0.004445
    22  H    0.000013  -0.004203  -0.033997   0.493416  -0.000173  -0.000208
    23  H   -0.000425  -0.005356  -0.000166  -0.000173   0.645393  -0.055221
    24  H    0.004797   0.007007   0.004445  -0.000208  -0.055221   0.682115
    25  H   -0.000001   0.000654  -0.000465  -0.000355   0.005027   0.002959
    26  H    0.000000   0.000000   0.000000  -0.000000  -0.000000   0.000001
    27  H   -0.000000   0.000000   0.000000   0.000000   0.000001   0.000018
              25         26         27
     1  N   -0.000000  -0.000000   0.000000
     2  C   -0.000000   0.000000   0.000000
     3  C    0.000008   0.000000   0.000000
     4  C    0.000434   0.000000   0.000000
     5  C    0.003232   0.000000   0.000002
     6  N    0.013526  -0.000000  -0.000000
     7  C   -0.051746   0.000007   0.000167
     8  N    0.339887  -0.000223  -0.000439
     9  N   -0.048021   0.005041   0.029339
    10  N    0.022250  -0.028777  -0.048357
    11  N   -0.000225   0.357816   0.331204
    12  H    0.000000   0.000000   0.000000
    13  H   -0.000000   0.000000   0.000000
    14  H    0.000000  -0.000000  -0.000000
    15  H   -0.000000   0.000000   0.000000
    16  H   -0.000004   0.000000   0.000000
    17  H   -0.000001  -0.000000   0.000000
    18  H   -0.000028   0.000000  -0.000000
    19  H   -0.000001   0.000000  -0.000000
    20  H    0.000654   0.000000   0.000000
    21  H   -0.000465   0.000000   0.000000
    22  H   -0.000355  -0.000000   0.000000
    23  H    0.005027  -0.000000   0.000001
    24  H    0.002959   0.000001   0.000018
    25  H    0.474379   0.000056   0.000310
    26  H    0.000056   0.432636  -0.027591
    27  H    0.000310  -0.027591   0.477611
 Mulliken charges:
               1
     1  N   -0.512185
     2  C   -0.142197
     3  C   -0.170499
     4  C   -0.176919
     5  C   -0.022605
     6  N   -0.510012
     7  C   -0.095016
     8  N   -0.235289
     9  N   -0.109770
    10  N   -0.077863
    11  N   -0.420714
    12  H    0.222276
    13  H    0.220818
    14  H    0.079543
    15  H    0.102235
    16  H    0.100082
    17  H    0.089892
    18  H    0.091942
    19  H    0.090740
    20  H    0.089232
    21  H    0.223249
    22  H    0.232593
    23  H    0.104934
    24  H    0.088638
    25  H    0.238124
    26  H    0.261035
    27  H    0.237735
 Sum of Mulliken charges =  -0.00000
 Mulliken charges with hydrogens summed into heavy atoms:
               1
     1  N   -0.069091
     2  C    0.039582
     3  C    0.019474
     4  C    0.005763
     5  C    0.066627
     6  N   -0.054170
     7  C    0.098556
     8  N    0.002835
     9  N   -0.109770
    10  N   -0.077863
    11  N    0.078057
 Electronic spatial extent (au):  <R**2>=           4013.7273
 Charge=             -0.0000 electrons
 Dipole moment (field-independent basis, Debye):
    X=             -1.4088    Y=             -1.2693    Z=             -0.0688  Tot=              1.8976
 Quadrupole moment (field-independent basis, Debye-Ang):
   XX=            -54.3468   YY=            -69.5538   ZZ=            -66.1148
   XY=              2.9577   XZ=              3.8530   YZ=             -0.6689
 Traceless Quadrupole moment (field-independent basis, Debye-Ang):
   XX=              8.9917   YY=             -6.2153   ZZ=             -2.7763
   XY=              2.9577   XZ=              3.8530   YZ=             -0.6689
 Octapole moment (field-independent basis, Debye-Ang**2):
  XXX=            101.8017  YYY=              0.6434  ZZZ=              1.6623  XYY=              7.8413
  XXY=            -41.8198  XXZ=            -18.8295  XZZ=             -8.7018  YZZ=              3.5775
  YYZ=             -0.0641  XYZ=             -1.7924
 Hexadecapole moment (field-independent basis, Debye-Ang**3):
 XXXX=          -3469.8132 YYYY=           -276.4023 ZZZZ=           -128.0137 XXXY=            163.8803
 XXXZ=             95.0938 YYYX=            -19.5482 YYYZ=              3.2834 ZZZX=             10.9701
 ZZZY=              3.1909 XXYY=           -829.6733 XXZZ=           -787.9680 YYZZ=            -65.6898
 XXYZ=            -42.4198 YYXZ=              3.1341 ZZXY=             -5.2082
 N-N= 6.181773802004D+02 E-N=-2.467187472397D+03  KE= 5.246254159176D+02
 PrsmSu:  requested number of processors reduced to:  13 ShMem   1 Linda.
 Calling FoFJK, ICntrl=      2127 FMM=F ISym2X=0 I1Cent= 0 IOpClX= 0 NMat=1 NMatS=1 NMatT=0.
 ***** Axes restored to original set *****
 -------------------------------------------------------------------
 Center     Atomic                   Forces (Hartrees/Bohr)
 Number     Number              X              Y              Z
 -------------------------------------------------------------------
      1        7          -0.011020007    0.002558404    0.005067363
      2        6          -0.006909707   -0.002302907   -0.007219190
      3        6           0.008674606   -0.000247952    0.004734052
      4        6           0.000819258   -0.006225721   -0.007275766
      5        6           0.004632781    0.004161304    0.010589049
      6        7           0.002699136    0.004051932   -0.004776170
      7        6           0.001587945    0.008039997   -0.007501501
      8        7          -0.023862190   -0.006375492   -0.002446242
      9        7          -0.020111492   -0.007360166    0.005129678
     10        7           0.013486014    0.006034664   -0.006034275
     11        7           0.024734952    0.010824627   -0.005605460
     12        1          -0.000382146    0.001712610   -0.002671291
     13        1           0.001544154   -0.000052255    0.002986670
     14        1           0.010370211   -0.002585668   -0.000147563
     15        1          -0.000009020    0.000065402    0.000630102
     16        1          -0.001579367   -0.001332647    0.000124243
     17        1          -0.001277321   -0.000622347   -0.000352292
     18        1           0.000650380   -0.000798493    0.001104074
     19        1           0.001294511    0.001484228   -0.000341651
     20        1           0.000519533    0.000657851   -0.000701650
     21        1           0.000258093   -0.000813476   -0.002601436
     22        1           0.004844415    0.000121464   -0.001793471
     23        1          -0.002498967   -0.003412851    0.005872793
     24        1          -0.002497563   -0.003036068    0.007080281
     25        1           0.000209050   -0.002521534    0.007014587
     26        1          -0.005019848   -0.005328241    0.004825916
     27        1          -0.001157411    0.003303333   -0.005690847
 -------------------------------------------------------------------
 Cartesian Forces:  Max     0.024734952 RMS     0.006445631

 GradGradGradGradGradGradGradGradGradGradGradGradGradGradGradGradGradGrad
 Berny optimization.
 FormGI is forming the generalized inverse of G from B-inverse, IUseBI=4.
 Internal  Forces:  Max     0.036535462 RMS     0.006375906
 Search for a local minimum.
 Step number   1 out of a maximum of  140
 All quantities printed in internal units (Hartrees-Bohrs-Radians)
 Mixed Optimization -- RFO/linear search
 Second derivative matrix not updated -- first step.
 ITU=  0
     Eigenvalues ---    0.00230   0.00230   0.00295   0.00422   0.00717
     Eigenvalues ---    0.00925   0.01052   0.01323   0.01616   0.01928
     Eigenvalues ---    0.02093   0.03364   0.03411   0.03610   0.03914
     Eigenvalues ---    0.04239   0.04423   0.04499   0.04565   0.04655
     Eigenvalues ---    0.04755   0.04857   0.05360   0.05532   0.05815
     Eigenvalues ---    0.08199   0.08350   0.09020   0.09508   0.12102
     Eigenvalues ---    0.12229   0.12524   0.12824   0.15455   0.15949
     Eigenvalues ---    0.16000   0.16000   0.16000   0.16000   0.16000
     Eigenvalues ---    0.16673   0.18001   0.21913   0.21917   0.21921
     Eigenvalues ---    0.22009   0.22193   0.25000   0.25000   0.27471
     Eigenvalues ---    0.28189   0.28911   0.29796   0.33899   0.33947
     Eigenvalues ---    0.33966   0.33984   0.34049   0.34145   0.34211
     Eigenvalues ---    0.34224   0.34267   0.35298   0.37219   0.38460
     Eigenvalues ---    0.44208   0.44385   0.44420   0.44523   0.44718
     Eigenvalues ---    0.45093   0.46229   0.54577   0.57288   0.85656
 RFO step:  Lambda=-2.07162384D-02 EMin= 2.30000000D-03
 Linear search not attempted -- first point.
 Iteration  1 RMS(Cart)=  0.08816946 RMS(Int)=  0.00359464
 Iteration  2 RMS(Cart)=  0.00713050 RMS(Int)=  0.00050613
 Iteration  3 RMS(Cart)=  0.00004093 RMS(Int)=  0.00050595
 Iteration  4 RMS(Cart)=  0.00000001 RMS(Int)=  0.00050595
 Variable       Old X    -DE/DX   Delta X   Delta X   Delta X     New X
                                 (Linear)    (Quad)   (Total)
    R1        2.75517   0.00993   0.00000   0.02528   0.02528   2.78045
    R2        1.92534  -0.00281   0.00000  -0.00603  -0.00603   1.91930
    R3        1.92656  -0.00314   0.00000  -0.00674  -0.00674   1.91981
    R4        2.88371   0.00155   0.00000   0.00487   0.00487   2.88858
    R5        2.06882   0.00582   0.00000   0.01601   0.01601   2.08483
    R6        2.06976   0.00058   0.00000   0.00160   0.00160   2.07135
    R7        2.90189   0.00076   0.00000   0.00245   0.00245   2.90433
    R8        2.07086  -0.00060   0.00000  -0.00166  -0.00166   2.06920
    R9        2.07387   0.00093   0.00000   0.00259   0.00259   2.07647
   R10        2.91728   0.00188   0.00000   0.00622   0.00622   2.92350
   R11        2.07500   0.00080   0.00000   0.00221   0.00221   2.07722
   R12        2.07419   0.00057   0.00000   0.00157   0.00157   2.07576
   R13        2.78494  -0.00055   0.00000  -0.00146  -0.00146   2.78348
   R14        2.93309  -0.01518   0.00000  -0.05137  -0.05137   2.88172
   R15        2.07357   0.00024   0.00000   0.00066   0.00066   2.07423
   R16        1.92907  -0.00255   0.00000  -0.00552  -0.00552   1.92355
   R17        1.92696  -0.00483   0.00000  -0.01040  -0.01040   1.91656
   R18        2.73702  -0.00306   0.00000  -0.00755  -0.00755   2.72946
   R19        2.06954   0.00160   0.00000   0.00441   0.00441   2.07395
   R20        2.07248   0.00414   0.00000   0.01146   0.01146   2.08394
   R21        2.55510   0.01334   0.00000   0.02355   0.02355   2.57864
   R22        1.92304  -0.00502   0.00000  -0.01074  -0.01074   1.91230
   R23        2.35002   0.02485   0.00000   0.02832   0.02832   2.37834
   R24        2.53153   0.02005   0.00000   0.03378   0.03378   2.56531
   R25        1.90574  -0.00837   0.00000  -0.01733  -0.01733   1.88842
   R26        1.91868  -0.00581   0.00000  -0.01231  -0.01231   1.90637
    A1        1.91441   0.00232   0.00000   0.01149   0.01150   1.92592
    A2        1.91734  -0.00138   0.00000  -0.00896  -0.00895   1.90839
    A3        1.85666  -0.00088   0.00000  -0.00764  -0.00761   1.84905
    A4        1.90919   0.00344   0.00000   0.01978   0.01946   1.92865
    A5        1.91626   0.00591   0.00000   0.06447   0.06464   1.98090
    A6        1.90162  -0.00308   0.00000  -0.02291  -0.02256   1.87906
    A7        1.93109  -0.00511   0.00000  -0.02618  -0.02755   1.90354
    A8        1.91991  -0.00067   0.00000  -0.01731  -0.01754   1.90237
    A9        1.88543  -0.00052   0.00000  -0.01814  -0.01852   1.86691
   A10        1.95395   0.00385   0.00000   0.01769   0.01768   1.97163
   A11        1.88561  -0.00190   0.00000  -0.00871  -0.00893   1.87667
   A12        1.92066  -0.00208   0.00000  -0.01556  -0.01560   1.90506
   A13        1.92330   0.00028   0.00000   0.01100   0.01100   1.93430
   A14        1.90777  -0.00067   0.00000  -0.00104  -0.00093   1.90684
   A15        1.87066   0.00036   0.00000  -0.00440  -0.00453   1.86612
   A16        1.97299   0.00631   0.00000   0.02869   0.02867   2.00166
   A17        1.89634  -0.00232   0.00000  -0.00781  -0.00786   1.88849
   A18        1.90913  -0.00051   0.00000   0.00360   0.00373   1.91286
   A19        1.90221  -0.00117   0.00000  -0.00239  -0.00247   1.89974
   A20        1.91950  -0.00343   0.00000  -0.01934  -0.01946   1.90004
   A21        1.86010   0.00082   0.00000  -0.00455  -0.00464   1.85546
   A22        1.94077   0.01427   0.00000   0.08963   0.08965   2.03042
   A23        1.93704  -0.00513   0.00000  -0.02005  -0.01962   1.91742
   A24        1.89699  -0.00193   0.00000  -0.00479  -0.00530   1.89169
   A25        1.92044  -0.00741   0.00000  -0.03596  -0.03611   1.88433
   A26        1.87520  -0.00276   0.00000  -0.01810  -0.01934   1.85585
   A27        1.89152   0.00287   0.00000  -0.01276  -0.01350   1.87801
   A28        1.90630  -0.00025   0.00000   0.00174   0.00171   1.90801
   A29        1.91998   0.00036   0.00000   0.00505   0.00503   1.92501
   A30        1.84278   0.00092   0.00000   0.01167   0.01162   1.85440
   A31        1.96053  -0.01275   0.00000  -0.04957  -0.04905   1.91148
   A32        1.91917  -0.00056   0.00000  -0.01927  -0.01855   1.90062
   A33        1.92595   0.00022   0.00000  -0.01741  -0.01688   1.90907
   A34        1.86311   0.00866   0.00000   0.05932   0.05845   1.92156
   A35        1.89803   0.00775   0.00000   0.04885   0.04784   1.94587
   A36        1.89496  -0.00280   0.00000  -0.01849  -0.02053   1.87443
   A37        2.09368  -0.00772   0.00000  -0.03810  -0.03972   2.05396
   A38        2.10199  -0.00179   0.00000  -0.02500  -0.02635   2.07564
   A39        2.01280   0.00768   0.00000   0.02746   0.02537   2.03817
   A40        1.90320   0.03654   0.00000   0.13496   0.13496   2.03816
   A41        1.91613   0.02931   0.00000   0.10827   0.10827   2.02440
   A42        2.07559  -0.00489   0.00000  -0.02833  -0.02863   2.04696
   A43        2.06107   0.00526   0.00000   0.02782   0.02750   2.08856
   A44        2.13969  -0.00055   0.00000  -0.00426  -0.00453   2.13516
    D1        3.11064   0.00000   0.00000   0.01669   0.01726   3.12790
    D2        0.98845   0.00037   0.00000  -0.00445  -0.00516   0.98328
    D3       -1.07319  -0.00061   0.00000  -0.00642  -0.00630  -1.07948
    D4        1.07572   0.00051   0.00000   0.02446   0.02504   1.10077
    D5       -1.04647   0.00088   0.00000   0.00332   0.00262  -1.04385
    D6       -3.10810  -0.00010   0.00000   0.00135   0.00148  -3.10662
    D7        3.11245  -0.00240   0.00000  -0.02790  -0.02772   3.08473
    D8        0.99160  -0.00390   0.00000  -0.04690  -0.04665   0.94494
    D9       -1.04541  -0.00211   0.00000  -0.02811  -0.02801  -1.07342
   D10       -1.05752   0.00395   0.00000   0.04853   0.04811  -1.00941
   D11        3.10482   0.00245   0.00000   0.02953   0.02918   3.13399
   D12        1.06781   0.00424   0.00000   0.04832   0.04782   1.11563
   D13        1.02431  -0.00034   0.00000  -0.00143  -0.00118   1.02313
   D14       -1.09654  -0.00184   0.00000  -0.02043  -0.02011  -1.11665
   D15       -3.13355  -0.00004   0.00000  -0.00164  -0.00147  -3.13502
   D16       -3.14034  -0.00005   0.00000  -0.01099  -0.01110   3.13175
   D17        1.02896  -0.00105   0.00000  -0.02117  -0.02121   1.00774
   D18       -0.99518  -0.00046   0.00000  -0.01337  -0.01335  -1.00853
   D19       -1.04132   0.00029   0.00000  -0.00282  -0.00282  -1.04414
   D20        3.12797  -0.00071   0.00000  -0.01300  -0.01294   3.11504
   D21        1.10383  -0.00012   0.00000  -0.00520  -0.00507   1.09876
   D22        1.01014   0.00049   0.00000  -0.00235  -0.00243   1.00771
   D23       -1.10375  -0.00051   0.00000  -0.01252  -0.01254  -1.11629
   D24       -3.12789   0.00008   0.00000  -0.00472  -0.00468  -3.13257
   D25        1.04063   0.00298   0.00000   0.02634   0.02640   1.06703
   D26       -3.09861  -0.00008   0.00000   0.02929   0.02927  -3.06934
   D27       -1.02010  -0.00085   0.00000  -0.00143  -0.00170  -1.02180
   D28       -3.13199   0.00336   0.00000   0.03357   0.03369  -3.09830
   D29       -0.98805   0.00029   0.00000   0.03651   0.03656  -0.95148
   D30        1.09047  -0.00048   0.00000   0.00580   0.00559   1.09605
   D31       -1.09875   0.00173   0.00000   0.01576   0.01599  -1.08277
   D32        1.04518  -0.00134   0.00000   0.01870   0.01886   1.06404
   D33        3.12370  -0.00211   0.00000  -0.01201  -0.01212   3.11158
   D34        1.00102  -0.00169   0.00000  -0.00855  -0.00871   0.99231
   D35       -1.01398  -0.00285   0.00000  -0.02639  -0.02658  -1.04056
   D36       -1.15244   0.00020   0.00000  -0.01966  -0.01920  -1.17164
   D37        3.11574  -0.00096   0.00000  -0.03750  -0.03707   3.07867
   D38        3.07488   0.00242   0.00000   0.02575   0.02549   3.10037
   D39        1.05987   0.00126   0.00000   0.00791   0.00762   1.06750
   D40        3.06626  -0.00361   0.00000  -0.01138  -0.01131   3.05495
   D41        0.99410  -0.00596   0.00000  -0.04133  -0.04130   0.95280
   D42       -1.09582  -0.00228   0.00000   0.00478   0.00496  -1.09086
   D43       -1.06128   0.00584   0.00000   0.06380   0.06363  -0.99765
   D44       -3.13345   0.00348   0.00000   0.03384   0.03365  -3.09980
   D45        1.05982   0.00717   0.00000   0.07995   0.07991   1.13972
   D46        0.98446   0.00002   0.00000   0.01443   0.01444   0.99890
   D47       -1.08770  -0.00233   0.00000  -0.01552  -0.01554  -1.10325
   D48        3.10556   0.00135   0.00000   0.03059   0.03072   3.13627
   D49        3.04533  -0.00073   0.00000  -0.01901  -0.01841   3.02692
   D50        0.32815   0.00238   0.00000   0.07077   0.07028   0.39843
   D51       -1.13303  -0.00330   0.00000  -0.03327  -0.03388  -1.16692
   D52        2.43297  -0.00020   0.00000   0.05651   0.05481   2.48778
   D53        0.90835   0.00200   0.00000   0.00164   0.00329   0.91164
   D54       -1.80882   0.00510   0.00000   0.09142   0.09198  -1.71685
   D55       -3.02216   0.00469   0.00000   0.10392   0.10479  -2.91737
   D56       -0.28423  -0.00025   0.00000   0.00724   0.00637  -0.27787
   D57       -3.11626  -0.00179   0.00000  -0.03299  -0.03299   3.13394
   D58        3.06172  -0.00050   0.00000  -0.01332  -0.01358   3.04814
   D59        0.04219   0.00117   0.00000   0.02932   0.02958   0.07177
   D60       -3.01375   0.00134   0.00000   0.04242   0.04212  -2.97163
         Item               Value     Threshold  Converged?
 Maximum Force            0.036535     0.000450     NO 
 RMS     Force            0.006376     0.000300     NO 
 Maximum Displacement     0.269594     0.001800     NO 
 RMS     Displacement     0.089075     0.001200     NO 
 Predicted change in Energy=-1.176906D-02
 GradGradGradGradGradGradGradGradGradGradGradGradGradGradGradGradGradGrad

                          Input orientation:                          
 ---------------------------------------------------------------------
 Center     Atomic      Atomic             Coordinates (Angstroms)
 Number     Number       Type             X           Y           Z
 ---------------------------------------------------------------------
      1          7           0        0.926520   -0.078728    0.029267
      2          6           0        2.395965   -0.093224   -0.044151
      3          6           0        2.886784    0.855291   -1.137742
      4          6           0        4.419359    0.944688   -1.210574
      5          6           0        4.960060    1.884423   -2.314161
      6          7           0        4.575274    3.302492   -2.211146
      7          6           0        6.482709    1.812101   -2.355971
      8          7           0        6.973106    2.600365   -3.462476
      9          7           0        8.323094    2.764535   -3.574738
     10          7           0        8.722159    3.644689   -4.381001
     11          7           0       10.067492    3.800863   -4.473213
     12          1           0        0.602494   -0.719302    0.747752
     13          1           0        0.542468   -0.423506   -0.845792
     14          1           0        2.817621   -1.097095   -0.221905
     15          1           0        2.780687    0.248515    0.923664
     16          1           0        2.448274    1.839330   -0.941936
     17          1           0        2.496920    0.518838   -2.108416
     18          1           0        4.814626   -0.066834   -1.380464
     19          1           0        4.815907    1.271828   -0.239848
     20          1           0        4.584283    1.532259   -3.283479
     21          1           0        4.869007    3.666331   -1.307011
     22          1           0        3.565826    3.396102   -2.240371
     23          1           0        6.785623    0.764100   -2.476042
     24          1           0        6.892406    2.165722   -1.395130
     25          1           0        6.391436    3.341987   -3.830844
     26          1           0       10.408564    4.435381   -5.165797
     27          1           0       10.678145    3.184220   -3.958875
 ---------------------------------------------------------------------
                    Distance matrix (angstroms):
                    1          2          3          4          5
     1  N    0.000000
     2  C    1.471350   0.000000
     3  C    2.465145   1.528570   0.000000
     4  C    3.845064   2.555763   1.536907   0.000000
     5  C    5.061133   3.954569   2.596449   1.547050   0.000000
     6  N    5.455778   4.579972   3.161010   2.566066   1.472953
     7  C    6.335285   5.067174   3.915385   2.514309   1.524940
     8  N    7.478704   6.315900   5.014748   3.786021   2.425604
     9  N    8.705304   7.467442   6.256007   4.913274   3.697790
    10  N    9.699809   8.532349   7.235404   5.987963   4.639370
    11  N   10.903253   9.676406   8.447741   7.120671   5.866866
    12  H    1.015651   2.058063   3.354461   4.601343   5.928159
    13  H    1.015921   2.046257   2.686332   4.127386   5.195938
    14  H    2.162504   1.103244   2.157627   2.777033   4.225759
    15  H    2.084460   1.096113   2.151472   2.779366   4.231947
    16  H    2.633993   2.131553   1.094972   2.181222   2.862534
    17  H    2.718995   2.155459   1.098819   2.164080   2.823865
    18  H    4.135802   2.763394   2.150768   1.099216   2.168028
    19  H    4.125986   2.785279   2.168233   1.098444   2.167679
    20  H    5.191223   4.233695   2.818506   2.160874   1.097636
    21  H    5.599492   4.673864   3.443807   2.760222   2.048862
    22  H    4.918500   4.285715   2.851773   2.792568   2.057791
    23  H    6.427754   5.090991   4.123143   2.689466   2.148025
    24  H    6.531329   5.210178   4.222379   2.764226   2.158173
    25  H    7.514457   6.488721   5.071394   4.062259   2.544338
    26  H   11.716443  10.532865   9.253077   7.981184   6.657733
    27  H   11.029339   9.729399   8.607439   7.193126   6.090243
                    6          7          8          9         10
     6  N    0.000000
     7  C    2.424985   0.000000
     8  N    2.794353   1.444370   0.000000
     9  N    4.024294   2.404068   1.364560   0.000000
    10  N    4.692763   3.531892   2.234611   1.258564   0.000000
    11  N    5.960686   4.613953   3.469583   2.219044   1.357503
    12  H    6.380664   7.114634   8.326518   9.509401  10.548814
    13  H    5.657807   6.524190   7.572579   8.840187   9.795676
    14  H    5.138365   5.143008   6.437436   7.514248   8.639802
    15  H    4.730153   5.187077   6.507365   7.568636   8.658785
    16  H    2.876780   4.275150   5.235113   6.503935   7.378897
    17  H    3.475463   4.197658   5.118836   6.413857   7.327290
    18  H    3.478460   2.695276   4.013448   5.014064   6.168261
    19  H    2.840337   2.747381   4.099251   5.064586   6.167530
    20  H    2.069711   2.131339   2.622854   3.947410   4.773775
    21  H    1.017898   2.672550   3.195238   4.229248   4.929165
    22  H    1.014200   3.321240   3.706251   4.981066   5.588547
    23  H    3.376277   1.097488   2.092862   2.751852   3.959398
    24  H    2.706886   1.102776   2.114084   2.675096   3.801417
    25  H    2.433809   2.127001   1.011947   2.032325   2.413829
    26  H    6.636315   5.494457   4.250994   3.110045   2.021153
    27  H    6.349298   4.696136   3.783466   2.422800   2.053316
                   11         12         13         14         15
    11  N    0.000000
    12  H   11.716507   0.000000
    13  H   11.033112   1.621875   0.000000
    14  H    9.727500   2.447396   2.453422   0.000000
    15  H    9.738736   2.390008   2.931248   1.767586   0.000000
    16  H    8.623805   3.578902   2.960029   3.045892   2.474198
    17  H    8.583561   3.644109   2.510402   2.504599   3.057305
    18  H    7.219195   4.764144   4.320235   2.528187   3.089557
    19  H    7.203926   4.763696   4.637198   3.099237   2.557938
    20  H    6.052075   6.097130   5.109169   4.405433   4.754052
    21  H    6.088282   6.454375   5.971468   5.298667   4.584589
    22  H    6.886296   5.886150   5.067046   4.982253   4.531541
    23  H    4.897069   7.129124   6.560877   4.928512   5.278574
    24  H    4.714812   7.244190   6.879505   5.350356   5.094970
    25  H    3.759866   8.424337   7.569670   6.745521   6.724018
    26  H    0.999308  12.557859  11.815713  10.614744  10.620541
    27  H    1.008806  11.785948  11.199952   9.699611   9.737936
                   16         17         18         19         20
    16  H    0.000000
    17  H    1.762596   0.000000
    18  H    3.070080   2.498938   0.000000
    19  H    2.533904   3.071847   1.758700   0.000000
    20  H    3.184282   2.600938   2.496322   3.063522   0.000000
    21  H    3.054695   4.021910   3.734284   2.622079   2.922628
    22  H    2.314821   3.072234   3.780327   3.174482   2.366271
    23  H    4.724637   4.311412   2.403242   3.022935   2.467371
    24  H    4.479088   4.747768   3.049867   2.538813   3.048699
    25  H    5.113931   5.109225   4.484502   4.434310   2.615439
    26  H    9.377990   9.342430   8.117317   8.096348   6.774473
    27  H    8.868000   8.801188   7.183203   7.200989   6.349826
                   21         22         23         24         25
    21  H    0.000000
    22  H    1.625566   0.000000
    23  H    3.669195   4.165341   0.000000
    24  H    2.520662   3.646149   1.773223   0.000000
    25  H    2.965253   3.242931   2.938771   2.750868   0.000000
    26  H    6.794730   7.514072   5.817112   5.633174   4.372062
    27  H    6.403975   7.320057   4.817417   4.684224   4.291522
                   26         27
    26  H    0.000000
    27  H    1.759188   0.000000
 Stoichiometry    C5H16N6
 Framework group  C1[X(C5H16N6)]
 Deg. of freedom    75
 Full point group                 C1      NOp   1
 Largest Abelian subgroup         C1      NOp   1
 Largest concise Abelian subgroup C1      NOp   1
                         Standard orientation:                         
 ---------------------------------------------------------------------
 Center     Atomic      Atomic             Coordinates (Angstroms)
 Number     Number       Type             X           Y           Z
 ---------------------------------------------------------------------
      1          7           0       -5.433741    0.118317   -0.130598
      2          6           0       -4.209670   -0.631332    0.192743
      3          6           0       -2.970238    0.170580   -0.203832
      4          6           0       -1.656074   -0.526651    0.182077
      5          6           0       -0.374873    0.244935   -0.213579
      6          7           0       -0.202573    1.577923    0.388956
      7          6           0        0.856874   -0.587483    0.126010
      8          7           0        2.041634    0.086718   -0.351485
      9          7           0        3.252541   -0.445276   -0.015763
     10          7           0        4.264397    0.274868   -0.219535
     11          7           0        5.459638   -0.266372    0.128706
     12          1           0       -6.255834   -0.421982    0.121964
     13          1           0       -5.488329    0.256125   -1.135647
     14          1           0       -4.163645   -1.625166   -0.284040
     15          1           0       -4.196745   -0.795548    1.276408
     16          1           0       -3.045418    1.152264    0.275343
     17          1           0       -2.984106    0.342498   -1.289030
     18          1           0       -1.637892   -1.515163   -0.298326
     19          1           0       -1.640275   -0.709647    1.265056
     20          1           0       -0.383752    0.396393   -1.300678
     21          1           0       -0.227289    1.494825    1.403156
     22          1           0       -0.976842    2.181640    0.134722
     23          1           0        0.764099   -1.570984   -0.352109
     24          1           0        0.897684   -0.753055    1.215521
     25          1           0        2.008800    1.087001   -0.501130
     26          1           0        6.281880    0.253612   -0.099662
     27          1           0        5.498280   -1.216344    0.465973
 ---------------------------------------------------------------------
 Rotational constants (GHZ):           5.4056382           0.2691057           0.2614732
 Standard basis: 6-31G(2df,p) (6D, 7F)
 There are   421 symmetry adapted cartesian basis functions of A   symmetry.
 There are   388 symmetry adapted basis functions of A   symmetry.
   388 basis functions,   596 primitive gaussians,   421 cartesian basis functions
    44 alpha electrons       44 beta electrons
       nuclear repulsion energy       615.4038354833 Hartrees.
 NAtoms=   27 NActive=   27 NUniq=   27 SFac= 1.00D+00 NAtFMM=   60 NAOKFM=F Big=F
 Integral buffers will be    131072 words long.
 Raffenetti 2 integral format.
 Two-electron integral symmetry is turned on.
 One-electron integrals computed using PRISM.
 PrsmSu:  requested number of processors reduced to:  13 ShMem   1 Linda.
 NBasis=   388 RedAO= T EigKep=  2.25D-04  NBF=   388
 NBsUse=   388 1.00D-06 EigRej= -1.00D+00 NBFU=   388
 Initial guess from the checkpoint file:  "NCCCCpNpCNNdNN.chk"
 B after Tr=     0.000000   -0.000000   -0.000000
         Rot=    0.999995    0.002218   -0.000967    0.002104 Ang=   0.37 deg.
 ExpMin= 1.61D-01 ExpMax= 4.17D+03 ExpMxC= 6.27D+02 IAcc=2 IRadAn=         4 AccDes= 0.00D+00
 Harris functional with IExCor=  402 and IRadAn=       4 diagonalized for initial guess.
 HarFok:  IExCor=  402 AccDes= 0.00D+00 IRadAn=         4 IDoV= 1 UseB2=F ITyADJ=14
 ICtDFT=  3500011 ScaDFX=  1.000000  1.000000  1.000000  1.000000
 FoFCou: FMM=F IPFlag=           0 FMFlag=      100000 FMFlg1=           0
         NFxFlg=           0 DoJE=T BraDBF=F KetDBF=T FulRan=T
         wScrn=  0.000000 ICntrl=       500 IOpCl=  0 I1Cent=   200000004 NGrid=           0
         NMat0=    1 NMatS0=      1 NMatT0=    0 NMatD0=    1 NMtDS0=    0 NMtDT0=    0
 Petite list used in FoFCou.
 Requested convergence on RMS density matrix=1.00D-08 within 128 cycles.
 Requested convergence on MAX density matrix=1.00D-06.
 Requested convergence on             energy=1.00D-06.
 No special actions if energy rises.
 Integral accuracy reduced to 1.0D-05 until final iterations.
 Initial convergence to 1.0D-05 achieved.  Increase integral accuracy.
 SCF Done:  E(RB3LYP) =  -528.615526399     A.U. after   13 cycles
            NFock= 13  Conv=0.69D-08     -V/T= 2.0080
 PrsmSu:  requested number of processors reduced to:  13 ShMem   1 Linda.
 Calling FoFJK, ICntrl=      2127 FMM=F ISym2X=0 I1Cent= 0 IOpClX= 0 NMat=1 NMatS=1 NMatT=0.
 ***** Axes restored to original set *****
 -------------------------------------------------------------------
 Center     Atomic                   Forces (Hartrees/Bohr)
 Number     Number              X              Y              Z
 -------------------------------------------------------------------
      1        7           0.002153776    0.001545385   -0.000417546
      2        6          -0.003585912   -0.000819656   -0.000675117
      3        6           0.002769527    0.001417615    0.000869293
      4        6          -0.003210671    0.000334054   -0.001521806
      5        6          -0.002568544   -0.000474013    0.002210838
      6        7          -0.001744093   -0.003065141    0.001407007
      7        6           0.005350199    0.003965037   -0.002345793
      8        7           0.010302202    0.003345601   -0.018501625
      9        7           0.022070804   -0.002607544    0.004915429
     10        7          -0.023653801    0.003257484   -0.002396886
     11        7          -0.006499596   -0.009602024    0.014517724
     12        1           0.000810278   -0.000012561    0.000083087
     13        1          -0.000248847   -0.000594670   -0.000321490
     14        1           0.001003574   -0.000452693    0.000496885
     15        1           0.000343260   -0.000577158    0.000820815
     16        1          -0.000267929    0.001124889   -0.000857061
     17        1          -0.000401968    0.000335363   -0.000560713
     18        1           0.001250225    0.001084851   -0.000273559
     19        1           0.000005658    0.000444963    0.000587974
     20        1          -0.000755937   -0.000285198   -0.000545293
     21        1           0.000106002    0.000476189   -0.000043685
     22        1          -0.001035446    0.000251835   -0.000328817
     23        1           0.001689983    0.000928862    0.000401575
     24        1          -0.000049798   -0.000538636    0.001108236
     25        1          -0.002216034    0.002865991    0.004770204
[...]
 00001000,0.00000209,-0.00000999,-0.00004806,-0.00005639,-0.00013289,-0
 .00018870,0.00002325,0.00001626,-0.00013812,0.00002310,-0.00035972,0.0
 0041009,0.00072752,-0.00081395,-0.00152846,-0.00165089,0.00353504,0.02
 731883,0.09252868,0.00011442,0.00003942,0.00005191,0.00012214,0.000254
 11,0.00030313,-0.00152756,-0.00106720,0.00061259,-0.00754304,-0.005967
 31,-0.02353271,-0.07298308,-0.07429348,-0.24256337,-0.00036509,-0.0034
 2347,-0.00200208,-0.00070071,0.00028557,-0.00098640,0.00083653,0.00011
 027,0.00097774,-0.00003959,0.00003225,0.00032898,-0.00000529,0.0000094
 5,0.00007456,-0.00004835,-0.00003369,-0.00005283,0.00000644,-0.0000009
 4,-0.00001288,0.00004981,0.00004316,-0.00002868,-0.00000736,-0.0000301
 1,-0.00001394,-0.00010281,-0.00012192,0.00031228,0.00010489,0.00001623
 ,0.00004374,0.00121279,0.00048054,0.00051644,-0.00016967,0.00040661,0.
 00060976,0.00146174,0.00332717,-0.00250702,0.07887798,0.07949489,0.265
 27867,0.00009796,0.00004291,-0.00004368,-0.00009268,0.00000522,0.00015
 723,-0.00003216,-0.00040036,-0.00020587,0.00024406,0.00010108,-0.00035
 583,0.00231182,0.00019696,0.01161975,-0.05590617,0.00407627,-0.0467824
 9,0.00182689,0.00065550,0.00253847,-0.00064710,-0.00032303,-0.00049730
 ,-0.00020191,0.00013611,-0.00001772,-0.00008827,-0.00002018,-0.0000239
 1,0.00009699,-0.00001044,0.00002243,0.00001400,0.00002910,0.00000497,-
 0.00001402,0.00000692,0.00000386,0.00004059,0.00007448,-0.00005285,0.0
 0001601,-0.00003938,0.00002602,-0.00047248,-0.00001164,-0.00000158,-0.
 00004659,0.00024221,0.00011231,-0.00005724,0.00031684,0.00005065,0.000
 16236,-0.00023883,-0.00027476,0.00006105,0.00263237,0.00061158,0.06055
 333,0.00018694,0.00000657,-0.00007123,-0.00021314,-0.00002457,0.000209
 08,-0.00036513,-0.00025933,0.00013201,-0.00114220,0.00187411,-0.001830
 26,-0.00670934,-0.01878536,-0.03838489,-0.00168758,-0.07305049,-0.0993
 1182,-0.00070073,0.00104203,-0.00040370,-0.00059539,-0.00026982,0.0002
 4014,0.00016947,0.00011119,0.00000695,0.00006269,-0.00010605,-0.000037
 82,-0.00013332,-0.00005216,-0.00001716,0.00000983,0.00005449,0.0000098
 5,-0.00001942,0.00000134,0.00000435,0.00005816,0.00004712,-0.00006293,
 -0.00001252,-0.00003302,0.00003232,-0.00051107,-0.00012843,0.00004925,
 0.00026736,0.00023144,0.00010897,0.00035660,0.00101117,0.00026318,0.00
 025628,-0.00026068,0.00144435,0.00300977,-0.00637620,-0.00011675,0.007
 41850,0.09375718,-0.00006845,-0.00002021,0.00002054,-0.00001159,0.0001
 1641,-0.00000731,0.00013229,-0.00008500,-0.00004117,0.00038360,0.00152
 990,0.00292623,0.00045575,0.00374463,-0.00535292,-0.08152100,-0.136792
 63,-0.36161213,0.00025695,-0.00029627,-0.00007634,0.00054793,0.0001369
 4,-0.00000787,-0.00001539,-0.00010095,0.00007633,-0.00000556,0.0000628
 0,0.00005885,0.00001746,0.00002676,-0.00001315,-0.00000757,-0.00001246
 ,-0.00000240,0.00000226,-0.00000583,-0.00000477,0.00000957,0.00000074,
 -0.00002471,0.00000176,0.00000341,-0.00002949,-0.00009927,0.00001709,0
 .00004398,-0.00004547,0.00001158,-0.00004130,0.00010551,0.00023999,-0.
 00022552,-0.00051673,-0.00081224,0.00032109,0.00100518,-0.00077204,0.0
 0167449,0.07383198,0.13334945,0.37188343,-0.00001268,0.00005331,-0.000
 02965,0.00017747,-0.00014221,-0.00004168,-0.00005295,-0.00028366,0.000
 27425,0.00048894,-0.00088583,-0.00023872,-0.01104727,-0.00461106,0.001
 53056,-0.41460439,0.03838917,-0.08717181,0.00027270,0.00402269,0.00122
 070,-0.00003387,0.00059148,-0.00033319,0.00008166,-0.00008021,0.000071
 73,0.00019936,-0.00011126,0.00008595,-0.00021025,-0.00005811,-0.000047
 89,0.00000290,0.00000112,0.00000134,0.00000641,-0.00002411,0.00000183,
 -0.00005963,-0.00003145,0.00004810,-0.00000246,0.00000975,-0.00001634,
 0.00002477,-0.00090514,0.00043836,-0.00001190,-0.00006930,-0.00010459,
 -0.00016684,-0.00033051,0.00013560,0.00000560,0.00004990,-0.00004468,0
 .00083485,-0.00014707,0.00041275,-0.00763154,-0.00075682,0.00508214,0.
 43207245,0.00018324,-0.00001843,-0.00011048,-0.00062980,0.00006409,0.0
 0033596,0.00034251,-0.00051432,-0.00020450,0.00099415,0.00023047,0.000
 19098,0.03940296,-0.00464361,0.00757610,0.00912431,-0.04271190,-0.0206
 0803,0.00031948,-0.00705343,-0.00055260,-0.00085421,0.00035017,0.00056
 477,0.00012314,0.00023430,-0.00013861,0.00011868,-0.00002339,0.0000794
 3,-0.00008218,-0.00002134,-0.00001957,0.00001168,0.00007843,0.00002577
 ,-0.00004903,-0.00002687,0.00002072,0.00012460,0.00023186,-0.00019873,
 0.00002619,0.00003456,-0.00013068,-0.00116024,-0.00019544,0.00099557,-
 0.00008761,-0.00018328,-0.00012458,-0.00026578,0.00002307,-0.00019763,
 -0.00008113,-0.00005346,-0.00002605,-0.00056880,0.00137647,-0.00036809
 ,-0.01474129,0.00039683,0.00005402,-0.03439606,0.05221247,-0.00016401,
 -0.00003058,0.00009359,0.00035197,-0.00025390,-0.00049670,-0.00060185,
 0.00110983,0.00098016,-0.00124497,-0.00007483,-0.00029263,0.00399265,0
 .00336644,-0.00153148,-0.04534341,-0.01744125,-0.04214550,0.00087563,-
 0.00201634,-0.00014274,0.00075979,-0.00086932,-0.00004488,-0.00021211,
 -0.00003108,-0.00000876,-0.00024808,0.00017122,-0.00016966,0.00028630,
 0.00008486,0.00004874,-0.00002587,-0.00005713,-0.00001730,0.00003280,-
 0.00003284,0.00000570,-0.00010322,-0.00020351,0.00018468,-0.00000653,0
 .00005921,-0.00001689,0.00115818,0.00010707,-0.00070221,-0.00004879,-0
 .00036784,-0.00025158,0.00026735,-0.00004352,0.00016572,-0.00003473,0.
 00012521,0.00000385,0.00057272,-0.00016497,0.00011202,-0.03965425,0.00
 310075,-0.00916691,0.07891850,0.01350632,0.05211880,0.00008409,-0.0000
 0507,-0.00004941,-0.00000164,-0.00007138,0.00005158,0.00009264,-0.0002
 3153,-0.00028190,0.00076855,0.00112962,-0.00009292,-0.00724314,0.03011
 547,0.00431027,-0.00722610,0.00013709,-0.00133812,-0.07820458,0.083288
 63,0.00857420,0.00403132,-0.01242743,0.00167963,0.00198450,0.00015633,
 -0.00020185,-0.00062739,-0.00057202,-0.00053213,0.00019185,0.00031443,
 0.00030941,0.00000752,0.00002285,0.00000611,-0.00001278,0.00001196,0.0
 0000079,-0.00000294,-0.00004744,0.00001958,-0.00000029,-0.00000412,-0.
 00000710,0.00025505,0.00000122,-0.00008346,-0.00002253,0.00003063,-0.0
 0000715,-0.00033637,-0.00097957,0.00046939,-0.00005618,-0.00017249,0.0
 0004152,0.00129938,-0.00026006,-0.00046553,-0.00020174,-0.00005771,0.0
 0010284,-0.00091762,0.00181614,0.00078151,0.08287539,-0.00003525,0.000
 01989,0.00000348,0.00005632,-0.00001374,-0.00000156,0.00017743,0.00049
 314,-0.00000679,-0.00060060,-0.00037133,0.00016582,-0.00055765,0.00037
 294,-0.00031704,-0.00005706,0.00136289,0.00031030,0.08179595,-0.271985
 29,-0.02799827,0.00562792,-0.02030073,0.00678668,0.00258173,0.00103786
 ,-0.00127595,-0.00043843,0.00011088,0.00017968,-0.00060522,-0.00002276
 ,-0.00000576,0.00000836,-0.00001024,-0.00000414,0.00000477,-0.00000786
 ,0.00000017,-0.00000126,0.00003201,-0.00000619,0.00000041,0.00000017,-
 0.00000324,-0.00020555,0.00005859,0.00002996,0.00000932,-0.00002608,-0
 .00001371,-0.00042118,0.00080405,-0.00000006,0.00001631,0.00006065,0.0
 0011307,0.00036211,0.00033208,0.00029513,-0.00035250,0.00010870,0.0001
 7470,-0.00026900,0.00009987,0.00000461,-0.08955805,0.30045075,-0.00001
 061,0.00002232,-0.00000986,0.00004336,-0.00003965,0.00000517,-0.000057
 84,0.00016258,-0.00012001,0.00044871,-0.00042103,-0.00009034,-0.001525
 13,-0.00030834,-0.00139626,0.00086553,0.00005614,0.00102522,0.01234019
 ,-0.03450519,-0.05277105,-0.01143751,0.03336394,-0.00292906,-0.0015788
 2,-0.00066853,0.00101172,0.00036348,0.00040892,0.00014522,0.00014924,-
 0.00032033,-0.00028060,0.00000679,0.00000011,0.00000040,-0.00000149,-0
 .00000461,0.00000284,0.00000300,0.00002892,0.00000122,0.00000335,-0.00
 000498,-0.00000556,-0.00006722,-0.00002118,-0.00000002,-0.00003882,-0.
 00000521,-0.00001944,0.00051982,0.00034549,0.00008183,0.00004027,-0.00
 009613,0.00001141,0.00021341,0.00047798,0.00021534,-0.00059956,0.00036
 026,0.00022529,0.00019910,-0.00006638,0.00021714,-0.01220428,0.0231937
 3,0.06066133,-0.00001704,-0.00000680,0.00002654,-0.00000956,0.00008468
 ,0.00004908,-0.00012606,0.00003162,0.00030136,0.00117894,0.00071452,-0
 .00175933,-0.01482999,-0.01479541,-0.02929855,0.00292218,-0.00105089,0
 .00040198,-0.08151848,-0.03168936,-0.07191085,0.00311320,0.00161581,0.
 01434238,0.00389051,0.00172883,-0.00012424,-0.00064004,-0.00073452,0.0
 0072598,0.00017981,-0.00009001,-0.00036908,-0.00000748,-0.00001308,-0.
 00000723,0.00000778,0.00000890,-0.00000803,0.00000140,-0.00000989,0.00
 000080,-0.00002029,-0.00002363,0.00005328,-0.00000864,0.00001082,0.000
 00596,0.00025246,0.00008932,0.00017097,-0.00005985,-0.00007360,0.00011
 756,-0.00006613,-0.00006240,0.00106510,-0.00632470,0.00039576,0.000223
 03,-0.00060082,0.00070862,0.00066866,0.00051509,-0.00008967,0.00021605
 ,0.00473654,0.00524444,0.00901621,0.08745040,-0.00002407,-0.00000940,0
 .00004300,-0.00003070,0.00000892,-0.00006122,-0.00000600,-0.00000730,0
 .00028375,-0.00003385,-0.00011763,-0.00060418,0.00105541,-0.00089920,-
 0.00119449,-0.00006485,0.00094393,0.00110656,-0.03239505,-0.08970877,-
 0.07806770,0.00232721,0.00815813,0.02342127,0.00388947,0.00155160,-0.0
 0061812,0.00015541,-0.00106373,0.00020477,-0.00055435,-0.00019121,-0.0
 0036985,-0.00001063,-0.00001237,-0.00000450,0.00001102,0.00000342,-0.0
 0000363,-0.00000335,-0.00000277,-0.00000068,-0.00001198,0.00000769,0.0
 0002870,0.00000294,-0.00000020,-0.00000287,0.00010784,0.00000328,0.000
 03597,-0.00002315,0.00011748,-0.00011985,-0.00036025,0.00013708,0.0004
 7515,-0.00014830,0.00084285,0.00067240,-0.00011107,0.00044265,-0.00022
 557,-0.00013893,-0.00000659,0.00012688,-0.01187856,-0.01185522,-0.0251
 1905,0.03781714,0.09031183,0.00005104,-0.00000066,0.00000685,-0.000119
 98,-0.00003849,0.00000244,-0.00002826,0.00011081,0.00048617,-0.0000887
 9,-0.00004849,0.00015024,-0.00039509,-0.00119656,-0.00059301,0.0003096
 9,0.00036664,0.00098747,-0.07107398,-0.07889487,-0.20671730,0.00144577
 ,0.00169783,-0.03553874,-0.00727400,-0.00043243,0.00283688,-0.00007449
 ,0.00186915,-0.00064039,0.00249423,0.00055791,0.00059464,-0.00000577,0
 .00000591,-0.00000206,-0.00000732,0.00000242,0.00000192,0.00000972,0.0
 0000377,-0.00000668,-0.00001111,0.00000166,0.00001806,-0.00002069,-0.0
 0000961,-0.00000417,0.00024086,0.00004692,-0.00008375,-0.00002090,0.00
 015683,0.00006468,0.00000148,-0.00013966,0.00074531,0.00065730,0.00022
 469,0.00069666,-0.00109263,0.00049336,0.00009983,0.00006780,0.00027970
 ,0.00018946,-0.00272374,-0.00338246,-0.00310717,0.07704950,0.07964133,
 0.24074566,0.00003258,0.00002721,-0.00002694,-0.00007421,0.00000033,0.
 00006712,-0.00005107,-0.00002425,-0.00002837,-0.00046883,0.00060160,-0
 .00003445,0.00156166,-0.00318494,0.00055898,-0.00077241,0.00065930,-0.
 00039841,0.00754169,-0.01029632,-0.00333416,-0.10388177,0.11759575,0.0
 0589290,-0.03712579,0.03670611,0.00319745,0.00566380,0.00557399,-0.003
 48799,0.00072495,-0.00208169,-0.00053902,0.00000406,0.00001455,0.00000
 188,-0.00000583,-0.00002084,0.00000689,0.00001971,0.00005393,-0.000034
 64,0.00000610,-0.00000433,-0.00001605,-0.00022430,0.00001095,0.0000886
 7,-0.00002264,-0.00000455,0.00000463,0.00015673,0.00049975,-0.00022989
 ,0.00006697,-0.00000873,-0.00009414,-0.00030244,0.00000755,-0.00009388
 ,0.00057548,0.00039519,-0.00031150,0.00005505,0.00042236,-0.00051899,-
 0.00130837,-0.00267072,0.00312931,-0.00010707,0.00034047,0.00062222,0.
 12649356,0.00002177,0.00000834,-0.00001997,-0.00001599,-0.00002060,0.0
 0003289,0.00005885,0.00008614,-0.00003912,-0.00003666,-0.00059348,-0.0
 0006420,0.00042868,-0.00137691,0.00119636,0.00128148,-0.00015777,-0.00
 161414,0.00451643,-0.01573533,-0.00452950,0.14090369,-0.35263236,0.040
 17731,0.00065216,0.00558617,0.00038073,-0.00125168,0.00249163,-0.00597
 104,-0.00164759,-0.00018174,0.00156827,0.00000364,0.00000903,0.0000020
 0,-0.00000402,-0.00000508,0.00000507,0.00000355,0.00002030,-0.00000870
 ,0.00000146,0.00000100,-0.00000698,-0.00005450,0.00003972,0.00000830,-
 0.00001197,-0.00000974,-0.00000227,-0.00012068,0.00013826,0.00005494,0
 .00002636,0.00005528,-0.00007370,-0.00031325,-0.00025152,-0.00003800,0
 .00034316,0.00022722,-0.00033950,0.00006759,0.00010027,-0.00010732,-0.
 00076680,-0.00078102,0.00319606,0.00026384,0.00125003,-0.00077347,-0.1
 4415064,0.36194655,-0.00001340,-0.00000778,0.00000125,0.00003310,-0.00
 002043,-0.00003054,0.00000672,-0.00003200,0.00007292,0.00002746,-0.000
 35814,-0.00010551,-0.00062339,0.00161647,0.00117757,-0.00148548,-0.000
 71101,-0.00157868,-0.01168842,0.02731593,-0.00424021,0.02585309,0.0077
 2620,-0.02993912,-0.01045669,-0.00276728,0.00620741,-0.00187318,-0.000
 62115,-0.00453461,0.00339839,0.00123474,0.00006965,-0.00000174,-0.0000
 0020,0.00000050,0.00000070,-0.00000204,0.00000089,-0.00001160,-0.00002
 641,0.00002013,-0.00000111,0.00000459,-0.00000755,0.00013595,-0.000019
 00,-0.00004823,-0.00001762,-0.00002573,-0.00002497,-0.00006382,-0.0002
 7090,0.00009966,0.00000229,0.00009012,-0.00011232,-0.00025825,-0.00044
 593,-0.00008538,0.00063123,0.00039694,-0.00070742,-0.00049378,-0.00089
 690,0.00090586,0.00156668,0.00157495,-0.00279886,-0.00083791,0.0002669
 5,-0.00018611,-0.00392349,-0.03396683,0.03658953,0.00000926,-0.0000001
 2,-0.00000353,-0.00001412,-0.00000214,0.00000452,0.00000109,-0.0000071
 5,0.00001711,-0.00005437,0.00003349,0.00000529,-0.00003262,-0.00016425
 ,0.00015847,0.00004665,0.00003536,-0.00003266,-0.00040029,-0.00013450,
 -0.00064969,-0.00096207,-0.00236941,-0.00052956,-0.00923512,0.00425466
 ,0.00433759,-0.01815980,-0.02690122,0.03698824,-0.05920425,-0.01091639
 ,0.06021920,-0.00000091,0.00000331,0.00000038,-0.00000196,-0.00000159,
 0.00000143,0.00000220,-0.00000004,-0.00000116,0.00000020,0.,-0.0000020
 2,-0.00000258,0.00000058,0.00000180,0.00000006,-0.00000082,-0.00000225
 ,0.00000074,0.00000168,-0.00000491,-0.00000183,-0.00000271,0.00000665,
 0.00002618,-0.00000126,0.00000776,-0.00001207,-0.00000465,0.00000668,-
 0.00000099,-0.00000405,0.00001085,-0.00005212,-0.00003918,0.00005205,0
 .00006111,0.00005791,0.00000325,0.00016606,-0.00030563,0.00025327,0.08
 381782,0.00007017,0.00001134,-0.00004278,-0.00002854,-0.00004637,0.000
 05502,-0.00003868,0.00005116,-0.00005965,0.00009150,-0.00006899,-0.000
 00316,-0.00025436,0.00004467,0.00002672,0.00021072,-0.00006093,-0.0000
 2430,-0.00046242,-0.00103051,0.00072109,0.00478905,0.00147637,0.001078
 07,-0.00454117,0.00193480,0.00222171,-0.00791167,-0.00263709,-0.004375
 47,-0.01375531,-0.12396575,0.15292534,0.00000584,0.00002054,0.00000405
 ,-0.00001090,-0.00000200,0.00000458,0.00000980,0.00000342,-0.00000588,
 0.00000117,-0.00000091,-0.00000585,-0.00000074,-0.00000802,0.00000514,
 0.00000511,0.00000274,0.00000444,-0.00000349,-0.00000967,0.00001143,0.
 00000741,0.00000779,-0.00001349,-0.00004578,-0.00003309,-0.00000512,-0
 .00001986,0.00002781,-0.00000553,0.00004393,0.00002374,-0.00005731,-0.
 00004003,0.00008883,-0.00000563,-0.00004433,0.00010973,-0.00047434,-0.
 00045577,-0.00008176,-0.00075942,0.03223520,0.13763081,0.00003737,0.00
 000877,-0.00002294,-0.00001221,-0.00002747,0.00003230,-0.00002344,0.00
 002611,-0.00003324,0.00003956,-0.00004973,-0.00001612,-0.00014464,0.00
 004676,0.00005535,0.00008926,-0.00003774,-0.00002366,-0.00054787,-0.00
 049234,0.00058255,0.00228046,0.00099044,0.00259377,-0.00084401,-0.0024
 8728,-0.00120909,-0.00817117,-0.00293995,-0.00335974,0.09578900,0.1950
 4815,-0.32057959,0.00000387,0.00001134,0.00000214,-0.00000611,-0.00000
 323,0.00000126,0.00000417,0.00000333,-0.00000313,-0.00000007,-0.000001
 15,-0.00000495,-0.00000047,-0.00000444,0.00000315,0.00000225,0.0000004
 2,0.00000244,-0.00000102,-0.00000578,0.00000780,0.00000761,0.00000908,
 -0.00001233,-0.00003807,-0.00002911,-0.00001034,-0.00000607,0.00001954
 ,-0.00001081,0.00001883,0.00000847,-0.00002269,0.00002910,0.00004954,-
 0.00004522,-0.00006666,0.00005080,-0.00028559,-0.00017257,0.00024161,-
 0.00017395,-0.08608003,-0.18076743,0.32344406,0.00001856,0.00000456,-0
 .00001414,-0.00000383,-0.00001462,0.00001831,-0.00000863,0.00002139,-0
 .00002009,0.00004916,-0.00001690,0.00002967,-0.00006956,0.00003754,-0.
 00005023,0.00008352,-0.00002014,-0.00003158,0.00024128,-0.00043651,-0.
 00007630,0.00000402,-0.00230945,-0.00110333,0.00735375,0.00508985,-0.0
 0262662,-0.03763758,0.04183201,0.00336524,-0.08813754,0.09939423,0.013
 43357,0.00000236,0.00000608,0.00000116,-0.00000320,-0.00000172,0.00000
 166,0.00000187,0.00000212,-0.00000099,0.00000014,-0.00000107,-0.000003
 39,-0.00000034,-0.00000270,0.00000095,-0.00000030,0.00000054,-0.000000
 13,-0.00000337,-0.00000253,0.00000436,-0.00000093,-0.00000324,-0.00000
 384,0.00000098,-0.00000197,0.00001012,0.00000422,0.00000962,-0.0000080
 3,0.00001515,0.00000042,-0.00001751,-0.00011304,-0.00007341,0.00012745
 ,0.00002672,0.00003027,-0.00001610,0.00127632,0.00010673,-0.00015900,0
 .00400376,-0.00985685,-0.00218708,0.11289651,0.00002880,0.00000611,-0.
 00001754,-0.00001252,-0.00001780,0.00002299,-0.00001591,0.00001479,-0.
 00002412,0.00002864,-0.00001351,0.00000970,-0.00009821,-0.00000066,0.0
 0001394,0.00007095,-0.00000297,-0.00004337,-0.00025300,-0.00016536,0.0
 0021942,-0.00124138,0.00008826,0.00220750,-0.00336427,0.00332101,-0.00
 671593,0.00549013,0.00233314,0.00060381,0.12891128,-0.36617083,0.03364
 798,0.00000208,0.00000797,0.00000226,-0.00000473,-0.00000194,0.0000013
 6,0.00000386,0.00000162,-0.00000255,0.00000071,-0.00000079,-0.00000297
 ,-0.00000056,-0.00000302,0.00000290,0.00000124,0.00000085,0.00000108,-
 0.00000066,-0.00000371,0.00000370,0.00000276,0.00000107,-0.00000598,-0
 .00000153,-0.00000933,-0.00000111,-0.00000904,0.00000625,-0.00000018,0
 .00001180,-0.00000452,-0.00001066,0.00004787,-0.00005904,-0.00003020,-
 0.00003068,-0.00001423,-0.00006789,-0.00000627,-0.00013264,0.00070423,
 0.00423291,-0.01348864,-0.00966871,-0.13379425,0.37430791,0.00003491,0
 .00001216,-0.00002987,-0.00000495,-0.00003267,0.00004053,-0.00002325,0
 .00004344,-0.00004370,0.00008850,-0.00005420,0.00000823,-0.00014909,0.
 00008739,-0.00004075,0.00007303,-0.00000702,-0.00002704,-0.00013561,-0
 .00111827,0.00066752,0.00444061,0.00169811,-0.00011569,-0.00237582,-0.
 00148634,-0.00347952,-0.01106918,-0.00312216,0.00579778,0.03492435,-0.
 00557947,-0.03266982,0.00000607,0.00001247,0.00000247,-0.00000613,-0.0
 0000500,0.00000311,0.00000385,0.00000651,-0.00000263,0.00000081,-0.000
 00217,-0.00000831,-0.00000344,-0.00000329,0.00000374,-0.00000125,-0.00
 000088,-0.00000059,-0.00000026,0.00000059,0.00001220,0.00000908,0.,-0.
 00001913,-0.00004905,-0.00002689,-0.00001269,-0.00000196,0.00001582,-0
 .00000586,0.00001479,0.00000503,-0.00001580,0.00004498,0.00013336,-0.0
 0003069,-0.00005256,0.00003418,-0.00046130,-0.00032557,0.00069119,-0.0
 0057188,-0.01476874,0.02954777,-0.00091142,-0.01067413,-0.02084966,0.0
 3191111\\-0.00000758,0.00000874,0.00000934,0.00000886,-0.00000557,-0.0
 0001075,-0.00000153,-0.00000832,0.00000548,-0.00000163,0.00000364,-0.0
 0000340,0.00000537,-0.00001316,0.00001057,-0.00000342,0.00001440,-0.00
 000330,-0.00000264,-0.00000016,-0.00000772,-0.00000171,-0.00001939,-0.
 00000801,0.00001572,0.00001883,-0.00000429,-0.00003351,-0.00000997,0.0
 0001255,0.00003896,-0.00000442,-0.00001493,-0.00000290,-0.00000651,0.0
 0000021,0.00000224,-0.00000233,-0.00000185,-0.00000104,0.00000267,0.00
 000271,-0.00000230,0.00000235,-0.00000334,0.00000119,0.00000128,-0.000
 00126,-0.00000156,-0.00000042,0.00000377,-0.00000098,-0.00000234,0.000
 00533,-0.00000074,-0.00000106,-0.00000207,0.00000211,0.00000205,0.0000
 0413,-0.00000338,-0.00000158,0.00000227,-0.00000291,0.00000344,-0.0000
 0214,0.00000070,-0.00000375,0.00000188,-0.00000021,-0.00000060,-0.0000
 0056,-0.00000925,0.00001458,0.00000088,0.00000035,0.00000500,0.0000015
 6,0.00000181,0.00000262,0.00000294\\\@


 A SLIP OF THE FOOT YOU MAY SOON RECOVER, BUT A SLIP OF THE TONGUE
 YOU MAY NEVER GET OVER. -- BEN FRANKLIN
 Job cpu time:       0 days  3 hours 15 minutes 10.2 seconds.
 Elapsed time:       0 days  0 hours 48 minutes 48.0 seconds.
 File lengths (MBytes):  RWF=    303 Int=      0 D2E=      0 Chk=     13 Scr=      1
 Normal termination of Gaussian 16 at Tue Jun  1 08:44:55 2021.
### All Done ###
