### Starting Gaussian ###
 Entering Gaussian System, Link 0=g16
 Initial command:
 /cluster/software/gaussian/gaussian-16-A.03/avx2/g16/l1.exe "/local/scratch/linjian/Gau-24376.inp" -scrdir="/local/scratch/linjian/"
 Entering Link 1 = /cluster/software/gaussian/gaussian-16-A.03/avx2/g16/l1.exe PID=     24377.
  
 Copyright (c) 1988,1990,1992,1993,1995,1998,2003,2009,2016,
            Gaussian, Inc.  All Rights Reserved.
  
 This is part of the Gaussian(R) 16 program.  It is based on
 the Gaussian(R) 09 system (copyright 2009, Gaussian, Inc.),
 the Gaussian(R) 03 system (copyright 2003, Gaussian, Inc.),
 the Gaussian(R) 98 system (copyright 1998, Gaussian, Inc.),
 the Gaussian(R) 94 system (copyright 1995, Gaussian, Inc.),
 the Gaussian 92(TM) system (copyright 1992, Gaussian, Inc.),
 the Gaussian 90(TM) system (copyright 1990, Gaussian, Inc.),
 the Gaussian 88(TM) system (copyright 1988, Gaussian, Inc.),
 the Gaussian 86(TM) system (copyright 1986, Carnegie Mellon
 University), and the Gaussian 82(TM) system (copyright 1983,
 Carnegie Mellon University). Gaussian is a federally registered
 trademark of Gaussian, Inc.
  
 This software contains proprietary and confidential information,
 including trade secrets, belonging to Gaussian, Inc.
  
 This software is provided under written license and may be
 used, copied, transmitted, or stored only in accord with that
 written license.
  
 The following legend is applicable only to US Government
 contracts under FAR:
  
                    RESTRICTED RIGHTS LEGEND
  
 Use, reproduction and disclosure by the US Government is
 subject to restrictions as set forth in subparagraphs (a)
 and (c) of the Commercial Computer Software - Restricted
 Rights clause in FAR 52.227-19.
  
 Gaussian, Inc.
 340 Quinnipiac St., Bldg. 40, Wallingford CT 06492
  
  
 ---------------------------------------------------------------
 Warning -- This program may not be used in any manner that
 competes with the business of Gaussian, Inc. or will provide
 assistance to any competitor of Gaussian, Inc.  The licensee
 of this program is prohibited from giving any competitor of
 Gaussian, Inc. access to this program.  By using this program,
 the user acknowledges that Gaussian, Inc. is engaged in the
 business of creating and licensing software in the field of
 computational chemistry and represents and warrants to the
 licensee that it is not a competitor of Gaussian, Inc. and that
 it will not use this program in any manner prohibited above.
 ---------------------------------------------------------------
  

 Cite this work as:
 Gaussian 16, Revision A.03,
 M. J. Frisch, G. W. Trucks, H. B. Schlegel, G. E. Scuseria, 
 M. A. Robb, J. R. Cheeseman, G. Scalmani, V. Barone, 
 G. A. Petersson, H. Nakatsuji, X. Li, M. Caricato, A. V. Marenich, 
 J. Bloino, B. G. Janesko, R. Gomperts, B. Mennucci, H. P. Hratchian, 
 J. V. Ortiz, A. F. Izmaylov, J. L. Sonnenberg, D. Williams-Young, 
 F. Ding, F. Lipparini, F. Egidi, J. Goings, B. Peng, A. Petrone, 
 T. Henderson, D. Ranasinghe, V. G. Zakrzewski, J. Gao, N. Rega, 
 G. Zheng, W. Liang, M. Hada, M. Ehara, K. Toyota, R. Fukuda, 
 J. Hasegawa, M. Ishida, T. Nakajima, Y. Honda, O. Kitao, H. Nakai, 
 T. Vreven, K. Throssell, J. A. Montgomery, Jr., J. E. Peralta, 
 F. Ogliaro, M. J. Bearpark, J. J. Heyd, E. N. Brothers, K. N. Kudin, 
 V. N. Staroverov, T. A. Keith, R. Kobayashi, J. Normand, 
 K. Raghavachari, A. P. Rendell, J. C. Burant, S. S. Iyengar, 
 J. Tomasi, M. Cossi, J. M. Millam, M. Klene, C. Adamo, R. Cammi, 
 J. W. Ochterski, R. L. Martin, K. Morokuma, O. Farkas, 
 J. B. Foresman, and D. J. Fox, Gaussian, Inc., Wallingford CT, 2016.
 
 ******************************************
 Gaussian 16:  ES64L-G16RevA.03 25-Dec-2016
                31-May-2021 
 ******************************************
 %chk=NCCpNpCdNNN.chk
 %NProcShared=20
 Will use up to   20 processors via shared memory.
 -----------------------------
 # opt freq b3lyp/6-31g(2df,p)
 -----------------------------
 1/18=20,19=15,26=3,38=1/1,3;
 2/9=110,12=2,17=6,18=5,40=1/2;
 3/5=1,6=6,7=104,11=2,25=1,30=1,71=1,74=-5/1,2,3;
 4//1;
 5/5=2,38=5/2;
 6/7=2,8=2,9=2,10=2,28=1/1;
 7//1,2,3,16;
 1/18=20,19=15,26=3/3(2);
 2/9=110/2;
 99//99;
 2/9=110/2;
 3/5=1,6=6,7=104,11=2,25=1,30=1,71=1,74=-5/1,2,3;
 4/5=5,16=3,69=1/1;
 5/5=2,38=5/2;
 7//1,2,3,16;
 1/18=20,19=15,26=3/3(-5);
 2/9=110/2;
 6/7=2,8=2,9=2,10=2,19=2,28=1/1;
 99/9=1/99;
 -------------------
 Title Card Required
 -------------------
 Symbolic Z-matrix:
 Charge =  0 Multiplicity = 1
 N                     1.07686  -0.04799  -0.09358 
 C                     2.54728  -0.06097  -0.04715 
 C                     3.08795  -1.37504   0.56999 
 N                     2.56043  -2.53685  -0.17018 
 C                     4.61353  -1.39834   0.59777 
 N                     5.28029  -2.36836   1.16111 
 N                     6.59781  -2.15681   1.24894 
 N                     7.26855  -3.34929   1.58112 
 H                     0.75176   0.83801  -0.48101 
 H                     0.70816  -0.08952   0.85808 
 H                     2.90289   0.80655   0.51995 
 H                     2.91982   0.05233  -1.07274 
 H                     2.74625  -1.44454   1.61023 
 H                     2.86337  -2.47426  -1.14091 
 H                     1.54508  -2.41009  -0.21686 
 H                     5.12874  -0.52217   0.16815 
 H                     7.05215  -1.58761   0.52754 
 H                     6.58238  -4.03147   1.91497 
 H                     7.8714   -3.17854   2.38766 
 

 GradGradGradGradGradGradGradGradGradGradGradGradGradGradGradGradGradGrad
 Berny optimization.
 Initialization pass.
                           ----------------------------
                           !    Initial Parameters    !
                           ! (Angstroms and Degrees)  !
 --------------------------                            --------------------------
 ! Name  Definition              Value          Derivative Info.                !
 --------------------------------------------------------------------------------
 ! R1    R(1,2)                  1.4712         estimate D2E/DX2                !
 ! R2    R(1,9)                  1.0202         estimate D2E/DX2                !
 ! R3    R(1,10)                 1.0214         estimate D2E/DX2                !
 ! R4    R(2,3)                  1.5492         estimate D2E/DX2                !
 ! R5    R(2,11)                 1.0957         estimate D2E/DX2                !
 ! R6    R(2,12)                 1.097          estimate D2E/DX2                !
 ! R7    R(3,4)                  1.4751         estimate D2E/DX2                !
 ! R8    R(3,5)                  1.526          estimate D2E/DX2                !
 ! R9    R(3,13)                 1.0971         estimate D2E/DX2                !
 ! R10   R(4,14)                 1.0188         estimate D2E/DX2                !
 ! R11   R(4,15)                 1.0243         estimate D2E/DX2                !
 ! R12   R(5,6)                  1.3049         estimate D2E/DX2                !
 ! R13   R(5,16)                 1.1035         estimate D2E/DX2                !
 ! R14   R(6,7)                  1.3373         estimate D2E/DX2                !
 ! R15   R(7,8)                  1.4079         estimate D2E/DX2                !
 ! R16   R(7,17)                 1.0251         estimate D2E/DX2                !
 ! R17   R(8,18)                 1.0236         estimate D2E/DX2                !
 ! R18   R(8,19)                 1.0213         estimate D2E/DX2                !
 ! A1    A(2,1,9)              109.7637         estimate D2E/DX2                !
 ! A2    A(2,1,10)             109.33           estimate D2E/DX2                !
 ! A3    A(9,1,10)             105.9087         estimate D2E/DX2                !
 ! A4    A(1,2,3)              111.6461         estimate D2E/DX2                !
 ! A5    A(1,2,11)             109.4942         estimate D2E/DX2                !
 ! A6    A(1,2,12)             107.9986         estimate D2E/DX2                !
 ! A7    A(3,2,11)             110.6174         estimate D2E/DX2                !
 ! A8    A(3,2,12)             109.969          estimate D2E/DX2                !
 ! A9    A(11,2,12)            106.9699         estimate D2E/DX2                !
 ! A10   A(2,3,4)              110.083          estimate D2E/DX2                !
 ! A11   A(2,3,5)              111.6606         estimate D2E/DX2                !
 ! A12   A(2,3,13)             108.829          estimate D2E/DX2                !
 ! A13   A(4,3,5)              110.7704         estimate D2E/DX2                !
 ! A14   A(4,3,13)             108.3297         estimate D2E/DX2                !
 ! A15   A(5,3,13)             107.0457         estimate D2E/DX2                !
 ! A16   A(3,4,14)             108.8667         estimate D2E/DX2                !
 ! A17   A(3,4,15)             106.2536         estimate D2E/DX2                !
 ! A18   A(14,4,15)            104.1063         estimate D2E/DX2                !
 ! A19   A(3,5,6)              122.0066         estimate D2E/DX2                !
 ! A20   A(3,5,16)             116.5866         estimate D2E/DX2                !
 ! A21   A(6,5,16)             121.3142         estimate D2E/DX2                !
 ! A22   A(5,6,7)              114.4665         estimate D2E/DX2                !
 ! A23   A(6,7,8)              110.5407         estimate D2E/DX2                !
 ! A24   A(6,7,17)             118.5734         estimate D2E/DX2                !
 ! A25   A(8,7,17)             115.1622         estimate D2E/DX2                !
 ! A26   A(7,8,18)             108.7888         estimate D2E/DX2                !
 ! A27   A(7,8,19)             109.0215         estimate D2E/DX2                !
 ! A28   A(18,8,19)            104.4511         estimate D2E/DX2                !
 ! D1    D(9,1,2,3)            178.5038         estimate D2E/DX2                !
 ! D2    D(9,1,2,11)            55.6588         estimate D2E/DX2                !
 ! D3    D(9,1,2,12)           -60.4811         estimate D2E/DX2                !
 ! D4    D(10,1,2,3)            62.7375         estimate D2E/DX2                !
 ! D5    D(10,1,2,11)          -60.1075         estimate D2E/DX2                !
 ! D6    D(10,1,2,12)         -176.2474         estimate D2E/DX2                !
 ! D7    D(1,2,3,4)             55.6177         estimate D2E/DX2                !
 ! D8    D(1,2,3,5)            179.0858         estimate D2E/DX2                !
 ! D9    D(1,2,3,13)           -62.9664         estimate D2E/DX2                !
 ! D10   D(11,2,3,4)           177.8196         estimate D2E/DX2                !
 ! D11   D(11,2,3,5)           -58.7122         estimate D2E/DX2                !
 ! D12   D(11,2,3,13)           59.2355         estimate D2E/DX2                !
 ! D13   D(12,2,3,4)           -64.2438         estimate D2E/DX2                !
 ! D14   D(12,2,3,5)            59.2244         estimate D2E/DX2                !
 ! D15   D(12,2,3,13)          177.1721         estimate D2E/DX2                !
 ! D16   D(2,3,4,14)            60.4037         estimate D2E/DX2                !
 ! D17   D(2,3,4,15)           -51.183          estimate D2E/DX2                !
 ! D18   D(5,3,4,14)           -63.5821         estimate D2E/DX2                !
 ! D19   D(5,3,4,15)          -175.1689         estimate D2E/DX2                !
 ! D20   D(13,3,4,14)          179.2939         estimate D2E/DX2                !
 ! D21   D(13,3,4,15)           67.7072         estimate D2E/DX2                !
 ! D22   D(2,3,5,6)            175.0736         estimate D2E/DX2                !
 ! D23   D(2,3,5,16)            -1.4669         estimate D2E/DX2                !
 ! D24   D(4,3,5,6)            -61.8483         estimate D2E/DX2                !
 ! D25   D(4,3,5,16)           121.6112         estimate D2E/DX2                !
 ! D26   D(13,3,5,6)            56.0617         estimate D2E/DX2                !
 ! D27   D(13,3,5,16)         -120.4788         estimate D2E/DX2                !
 ! D28   D(3,5,6,7)           -171.9371         estimate D2E/DX2                !
 ! D29   D(16,5,6,7)             4.4415         estimate D2E/DX2                !
 ! D30   D(5,6,7,8)           -166.7231         estimate D2E/DX2                !
 ! D31   D(5,6,7,17)           -30.579          estimate D2E/DX2                !
 ! D32   D(6,7,8,18)           -14.7025         estimate D2E/DX2                !
 ! D33   D(6,7,8,19)          -128.0378         estimate D2E/DX2                !
 ! D34   D(17,7,8,18)         -152.4613         estimate D2E/DX2                !
 ! D35   D(17,7,8,19)           94.2034         estimate D2E/DX2                !
 --------------------------------------------------------------------------------
 Trust Radius=3.00D-01 FncErr=1.00D-07 GrdErr=1.00D-06 EigMax=2.50D+02 EigMin=1.00D-04
 Number of steps in this run=     91 maximum allowed number of steps=    114.
 GradGradGradGradGradGradGradGradGradGradGradGradGradGradGradGradGradGrad

                          Input orientation:                          
 ---------------------------------------------------------------------
 Center     Atomic      Atomic             Coordinates (Angstroms)
 Number     Number       Type             X           Y           Z
 ---------------------------------------------------------------------
      1          7           0        1.076860   -0.047990   -0.093580
      2          6           0        2.547280   -0.060970   -0.047150
      3          6           0        3.087950   -1.375040    0.569990
      4          7           0        2.560430   -2.536850   -0.170180
      5          6           0        4.613530   -1.398340    0.597770
      6          7           0        5.280290   -2.368360    1.161110
      7          7           0        6.597810   -2.156810    1.248940
      8          7           0        7.268550   -3.349290    1.581120
      9          1           0        0.751760    0.838010   -0.481010
     10          1           0        0.708160   -0.089520    0.858080
     11          1           0        2.902890    0.806550    0.519950
     12          1           0        2.919820    0.052330   -1.072740
     13          1           0        2.746250   -1.444540    1.610230
     14          1           0        2.863370   -2.474260   -1.140910
     15          1           0        1.545080   -2.410090   -0.216860
     16          1           0        5.128740   -0.522170    0.168150
     17          1           0        7.052150   -1.587610    0.527540
     18          1           0        6.582380   -4.031470    1.914970
     19          1           0        7.871400   -3.178540    2.387660
 ---------------------------------------------------------------------
                    Distance matrix (angstroms):
                    1          2          3          4          5
     1  N    0.000000
     2  C    1.471210   0.000000
     3  C    2.499174   1.549182   0.000000
     4  N    2.898495   2.478970   1.475104   0.000000
     5  C    3.848304   2.544380   1.526011   2.470055   0.000000
     6  N    4.962579   3.775352   2.478399   3.032880   1.304937
     7  N    6.060559   4.741222   3.659406   4.296367   2.221861
     8  N    7.213891   5.979524   4.732596   5.088566   3.438359
     9  H    1.020190   2.054335   3.385258   3.841560   4.591110
    10  H    1.021431   2.050029   2.720103   3.236919   4.127067
    11  H    2.107378   1.095743   2.189997   3.431018   2.791753
    12  H    2.089335   1.097022   2.182708   2.765435   2.786342
    13  H    2.764088   2.168124   1.097127   2.097029   2.124605
    14  H    3.189875   2.668369   2.045947   1.018826   2.691407
    15  H    2.411212   2.559604   2.017649   1.024296   3.332063
    16  H    4.087919   2.631159   2.248041   3.281710   1.103489
    17  H    6.201638   4.791112   3.970122   4.643643   2.446962
    18  H    7.086123   5.991395   4.590929   4.770516   3.541858
    19  H    7.881794   6.632782   5.425673   5.929647   4.121472
                    6          7          8          9         10
     6  N    0.000000
     7  N    1.337283   0.000000
     8  N    2.256504   1.407922   0.000000
     9  H    5.786618   6.792494   8.015885   0.000000
    10  H    5.117549   6.254154   7.361223   1.629532   0.000000
    11  H    4.017856   4.792219   6.120137   2.372819   2.394601
    12  H    4.052363   4.878330   6.125802   2.380740   2.939324
    13  H    2.734321   3.933494   4.907150   3.682568   2.560394
    14  H    3.339463   4.445020   5.251736   3.983152   3.785218
    15  H    3.981499   5.267144   6.072309   3.353995   2.690906
    16  H    2.101750   2.449147   3.816789   4.629196   4.494966
    17  H    2.037270   1.025101   2.064068   6.826106   6.526848
    18  H    2.242694   1.989519   1.023550   7.965468   7.152793
    19  H    2.979038   1.990640   1.021318   8.663210   7.949444
                   11         12         13         14         15
    11  H    0.000000
    12  H    1.762327   0.000000
    13  H    2.506123   3.077186   0.000000
    14  H    3.677463   2.528140   2.939866   0.000000
    15  H    3.568376   2.947194   2.390262   1.611172   0.000000
    16  H    2.616041   2.597920   2.933704   3.264383   4.068795
    17  H    4.790451   4.725087   4.442236   4.595188   5.617689
    18  H    6.236278   6.246453   4.636913   5.059085   5.705082
    19  H    6.637422   6.850623   5.466106   6.166618   6.884502
                   16         17         18         19
    16  H    0.000000
    17  H    2.227965   0.000000
    18  H    4.180865   2.849228   0.000000
    19  H    4.416414   2.581138   1.616322   0.000000
 Stoichiometry    C3H11N5
 Framework group  C1[X(C3H11N5)]
 Deg. of freedom    51
 Full point group                 C1      NOp   1
 Largest Abelian subgroup         C1      NOp   1
 Largest concise Abelian subgroup C1      NOp   1
                         Standard orientation:                         
 ---------------------------------------------------------------------
 Center     Atomic      Atomic             Coordinates (Angstroms)
 Number     Number       Type             X           Y           Z
 ---------------------------------------------------------------------
      1          7           0       -3.463731   -0.191570   -0.205910
      2          6           0       -2.158640   -0.756937    0.170330
      3          6           0       -0.990421    0.161838   -0.266800
      4          7           0       -1.174185    1.514972    0.291045
      5          6           0        0.362291   -0.413375    0.143090
      6          7           0        1.487202    0.148207   -0.206282
      7          7           0        2.578066   -0.567719    0.086625
      8          7           0        3.736357    0.222548   -0.040197
      9          1           0       -4.209359   -0.829724    0.072634
     10          1           0       -3.521039   -0.121091   -1.223294
     11          1           0       -2.051185   -1.754108   -0.270981
     12          1           0       -2.146426   -0.885887    1.259679
     13          1           0       -0.989579    0.237060   -1.361345
     14          1           0       -1.187998    1.453040    1.307893
     15          1           0       -2.127013    1.799416    0.045297
     16          1           0        0.345510   -1.364413    0.702496
     17          1           0        2.556339   -1.180558    0.908079
     18          1           0        3.499644    1.073938   -0.556681
     19          1           0        4.405760   -0.261889   -0.640456
 ---------------------------------------------------------------------
 Rotational constants (GHZ):           6.7644138           0.7504550           0.6993452
 Standard basis: 6-31G(2df,p) (6D, 7F)
 There are   303 symmetry adapted cartesian basis functions of A   symmetry.
 There are   279 symmetry adapted basis functions of A   symmetry.
   279 basis functions,   429 primitive gaussians,   303 cartesian basis functions
    32 alpha electrons       32 beta electrons
       nuclear repulsion energy       380.9576483989 Hartrees.
 NAtoms=   19 NActive=   19 NUniq=   19 SFac= 1.00D+00 NAtFMM=   60 NAOKFM=F Big=F
 Integral buffers will be    131072 words long.
 Raffenetti 2 integral format.
 Two-electron integral symmetry is turned on.
 One-electron integrals computed using PRISM.
 PrsmSu:  requested number of processors reduced to:  13 ShMem   1 Linda.
 NBasis=   279 RedAO= T EigKep=  2.66D-04  NBF=   279
 NBsUse=   279 1.00D-06 EigRej= -1.00D+00 NBFU=   279
 ExpMin= 1.61D-01 ExpMax= 4.17D+03 ExpMxC= 6.27D+02 IAcc=3 IRadAn=         5 AccDes= 0.00D+00
 Harris functional with IExCor=  402 and IRadAn=       5 diagonalized for initial guess.
 HarFok:  IExCor=  402 AccDes= 0.00D+00 IRadAn=         5 IDoV= 1 UseB2=F ITyADJ=14
 ICtDFT=  3500011 ScaDFX=  1.000000  1.000000  1.000000  1.000000
 FoFCou: FMM=F IPFlag=           0 FMFlag=      100000 FMFlg1=           0
         NFxFlg=           0 DoJE=T BraDBF=F KetDBF=T FulRan=T
         wScrn=  0.000000 ICntrl=       500 IOpCl=  0 I1Cent=   200000004 NGrid=           0
         NMat0=    1 NMatS0=      1 NMatT0=    0 NMatD0=    1 NMtDS0=    0 NMtDT0=    0
 Petite list used in FoFCou.
 Requested convergence on RMS density matrix=1.00D-08 within 128 cycles.
 Requested convergence on MAX density matrix=1.00D-06.
 Requested convergence on             energy=1.00D-06.
 No special actions if energy rises.
 Integral accuracy reduced to 1.0D-05 until final iterations.
 Initial convergence to 1.0D-05 achieved.  Increase integral accuracy.
 SCF Done:  E(RB3LYP) =  -394.618118992     A.U. after   14 cycles
            NFock= 14  Conv=0.52D-08     -V/T= 2.0077

 **********************************************************************

            Population analysis using the SCF density.

 **********************************************************************

 Orbital symmetries:
       Occupied  (A) (A) (A) (A) (A) (A) (A) (A) (A) (A) (A) (A)
                 (A) (A) (A) (A) (A) (A) (A) (A) (A) (A) (A) (A)
                 (A) (A) (A) (A) (A) (A) (A) (A)
       Virtual   (A) (A) (A) (A) (A) (A) (A) (A) (A) (A) (A) (A)
                 (A) (A) (A) (A) (A) (A) (A) (A) (A) (A) (A) (A)
                 (A) (A) (A) (A) (A) (A) (A) (A) (A) (A) (A) (A)
                 (A) (A) (A) (A) (A) (A) (A) (A) (A) (A) (A) (A)
                 (A) (A) (A) (A) (A) (A) (A) (A) (A) (A) (A) (A)
                 (A) (A) (A) (A) (A) (A) (A) (A) (A) (A) (A) (A)
                 (A) (A) (A) (A) (A) (A) (A) (A) (A) (A) (A) (A)
                 (A) (A) (A) (A) (A) (A) (A) (A) (A) (A) (A) (A)
                 (A) (A) (A) (A) (A) (A) (A) (A) (A) (A) (A) (A)
                 (A) (A) (A) (A) (A) (A) (A) (A) (A) (A) (A) (A)
                 (A) (A) (A) (A) (A) (A) (A) (A) (A) (A) (A) (A)
                 (A) (A) (A) (A) (A) (A) (A) (A) (A) (A) (A) (A)
                 (A) (A) (A) (A) (A) (A) (A) (A) (A) (A) (A) (A)
                 (A) (A) (A) (A) (A) (A) (A) (A) (A) (A) (A) (A)
                 (A) (A) (A) (A) (A) (A) (A) (A) (A) (A) (A) (A)
                 (A) (A) (A) (A) (A) (A) (A) (A) (A) (A) (A) (A)
                 (A) (A) (A) (A) (A) (A) (A) (A) (A) (A) (A) (A)
                 (A) (A) (A) (A) (A) (A) (A) (A) (A) (A) (A) (A)
                 (A) (A) (A) (A) (A) (A) (A) (A) (A) (A) (A) (A)
                 (A) (A) (A) (A) (A) (A) (A) (A) (A) (A) (A) (A)
                 (A) (A) (A) (A) (A) (A) (A)
 The electronic state is 1-A.
 Alpha  occ. eigenvalues --  -14.38018 -14.35728 -14.33459 -14.31327 -14.29078
 Alpha  occ. eigenvalues --  -10.21041 -10.20421 -10.19987  -1.02803  -0.89643
 Alpha  occ. eigenvalues --   -0.87858  -0.84934  -0.74037  -0.69552  -0.62443
 Alpha  occ. eigenvalues --   -0.58055  -0.51986  -0.50322  -0.47868  -0.46455
 Alpha  occ. eigenvalues --   -0.45448  -0.44977  -0.40890  -0.39822  -0.38452
 Alpha  occ. eigenvalues --   -0.35972  -0.34732  -0.28909  -0.27739  -0.24019
 Alpha  occ. eigenvalues --   -0.22370  -0.18031
 Alpha virt. eigenvalues --    0.00066   0.07709   0.09282   0.10504   0.11408
 Alpha virt. eigenvalues --    0.13346   0.14024   0.14884   0.16285   0.17365
 Alpha virt. eigenvalues --    0.17632   0.20228   0.21036   0.21253   0.25256
 Alpha virt. eigenvalues --    0.27467   0.28146   0.30993   0.36297   0.47598
 Alpha virt. eigenvalues --    0.48173   0.50530   0.50912   0.53076   0.53689
 Alpha virt. eigenvalues --    0.55151   0.56415   0.58498   0.59186   0.59917
 Alpha virt. eigenvalues --    0.62482   0.63523   0.64164   0.65104   0.67569
 Alpha virt. eigenvalues --    0.69247   0.69882   0.70829   0.72803   0.73235
 Alpha virt. eigenvalues --    0.73895   0.75472   0.77836   0.77949   0.78238
 Alpha virt. eigenvalues --    0.80198   0.80457   0.81737   0.83115   0.84309
 Alpha virt. eigenvalues --    0.84944   0.86273   0.87607   0.88430   0.89005
 Alpha virt. eigenvalues --    0.91333   0.94928   0.96880   0.98007   0.99679
 Alpha virt. eigenvalues --    1.02072   1.03427   1.07372   1.15570   1.17580
 Alpha virt. eigenvalues --    1.19781   1.21592   1.23770   1.28265   1.29283
 Alpha virt. eigenvalues --    1.33798   1.37739   1.38051   1.40563   1.41441
 Alpha virt. eigenvalues --    1.46215   1.47364   1.50550   1.51817   1.55925
 Alpha virt. eigenvalues --    1.58307   1.59247   1.61846   1.65808   1.67099
 Alpha virt. eigenvalues --    1.68270   1.69271   1.74647   1.77276   1.77916
 Alpha virt. eigenvalues --    1.81178   1.84288   1.85233   1.87487   1.88978
 Alpha virt. eigenvalues --    1.93455   1.96690   2.01270   2.04663   2.13340
 Alpha virt. eigenvalues --    2.18495   2.19843   2.20709   2.23302   2.24792
 Alpha virt. eigenvalues --    2.26069   2.31977   2.33993   2.39502   2.42425
 Alpha virt. eigenvalues --    2.46360   2.50669   2.52504   2.52855   2.60117
 Alpha virt. eigenvalues --    2.60754   2.66130   2.68263   2.73749   2.76417
 Alpha virt. eigenvalues --    2.77736   2.79055   2.80883   2.82291   2.84339
 Alpha virt. eigenvalues --    2.86412   2.88881   2.89224   2.90867   2.93974
 Alpha virt. eigenvalues --    2.96412   3.00246   3.03878   3.03999   3.05646
 Alpha virt. eigenvalues --    3.06575   3.10521   3.12452   3.13442   3.16641
 Alpha virt. eigenvalues --    3.23676   3.26760   3.29538   3.33061   3.34722
 Alpha virt. eigenvalues --    3.38379   3.40819   3.41978   3.43096   3.51211
 Alpha virt. eigenvalues --    3.52610   3.54885   3.59526   3.60263   3.66081
 Alpha virt. eigenvalues --    3.68441   3.72120   3.74155   3.75392   3.81047
 Alpha virt. eigenvalues --    3.84007   3.85920   3.90518   3.91755   3.98747
 Alpha virt. eigenvalues --    4.02002   4.02569   4.04781   4.09117   4.11737
 Alpha virt. eigenvalues --    4.13354   4.15369   4.19516   4.20867   4.23179
 Alpha virt. eigenvalues --    4.24744   4.26146   4.27175   4.31214   4.32268
 Alpha virt. eigenvalues --    4.33256   4.35772   4.36847   4.37689   4.38734
 Alpha virt. eigenvalues --    4.39803   4.41297   4.44026   4.45551   4.47924
 Alpha virt. eigenvalues --    4.49623   4.50860   4.51510   4.53882   4.56810
 Alpha virt. eigenvalues --    4.58135   4.59563   4.61940   4.63081   4.63537
 Alpha virt. eigenvalues --    4.65530   4.69208   4.70540   4.71863   4.73756
 Alpha virt. eigenvalues --    4.74646   4.76707   4.78170   4.80115   4.82001
 Alpha virt. eigenvalues --    4.84128   4.87378   4.89562   4.90347   4.92334
 Alpha virt. eigenvalues --    4.95333   4.97971   5.04821   5.08607   5.11115
 Alpha virt. eigenvalues --    5.17701   5.19922   5.22535   5.29786   5.30180
 Alpha virt. eigenvalues --    5.34770   5.38088   5.47175   5.52261   5.54902
 Alpha virt. eigenvalues --    5.60800   5.69790   5.79021   5.96684   6.44295
 Alpha virt. eigenvalues --    9.23408   9.57512  10.25476  11.08313  11.28789
 Alpha virt. eigenvalues --   11.42702  11.43284  11.44948  11.49204  12.69262
 Alpha virt. eigenvalues --   12.78513  14.86752
          Condensed to atoms (all electrons):
               1          2          3          4          5          6
     1  N    6.552445   0.384685  -0.033743  -0.013268   0.001421  -0.000015
     2  C    0.384685   4.964604   0.366149  -0.054435  -0.028661   0.000834
     3  C   -0.033743   0.366149   4.822423   0.378561   0.376302  -0.010122
     4  N   -0.013268  -0.054435   0.378561   6.583547  -0.031635  -0.002009
     5  C    0.001421  -0.028661   0.376302  -0.031635   4.815884   0.634843
     6  N   -0.000015   0.000834  -0.010122  -0.002009   0.634843   6.317432
     7  N    0.000000  -0.000052   0.003119   0.000344  -0.114488   0.363361
     8  N   -0.000000   0.000000  -0.000067   0.000003   0.004626  -0.090202
     9  H    0.339373  -0.041589   0.004182   0.000409  -0.000183   0.000000
    10  H    0.337614  -0.055527   0.000116   0.000473  -0.000132  -0.000003
    11  H   -0.047387   0.353680  -0.037658   0.006242   0.003500  -0.000001
    12  H   -0.024423   0.338955  -0.012356  -0.003656  -0.005622  -0.000139
    13  H   -0.002428  -0.061771   0.351358  -0.031828  -0.022529  -0.008452
    14  H    0.000404  -0.005687  -0.057368   0.331729   0.001009   0.000161
    15  H    0.023750  -0.006742  -0.052528   0.329979   0.005873   0.000153
    16  H    0.000147  -0.002765  -0.073022   0.002244   0.370782  -0.063176
    17  H    0.000000   0.000055  -0.000824   0.000034  -0.002258  -0.052312
    18  H    0.000000   0.000001  -0.000096  -0.000002   0.001209   0.012910
    19  H    0.000000  -0.000000   0.000005   0.000000  -0.000476   0.002917
               7          8          9         10         11         12
     1  N    0.000000  -0.000000   0.339373   0.337614  -0.047387  -0.024423
     2  C   -0.000052   0.000000  -0.041589  -0.055527   0.353680   0.338955
     3  C    0.003119  -0.000067   0.004182   0.000116  -0.037658  -0.012356
     4  N    0.000344   0.000003   0.000409   0.000473   0.006242  -0.003656
     5  C   -0.114488   0.004626  -0.000183  -0.000132   0.003500  -0.005622
     6  N    0.363361  -0.090202   0.000000  -0.000003  -0.000001  -0.000139
     7  N    6.420684   0.303243  -0.000000  -0.000000  -0.000008  -0.000011
     8  N    0.303243   6.592032   0.000000  -0.000000   0.000000  -0.000000
     9  H   -0.000000   0.000000   0.505715  -0.030752  -0.004258  -0.002167
    10  H   -0.000000  -0.000000  -0.030752   0.516347  -0.004835   0.006848
    11  H   -0.000008   0.000000  -0.004258  -0.004835   0.700550  -0.047031
    12  H   -0.000011  -0.000000  -0.002167   0.006848  -0.047031   0.637299
    13  H   -0.000054  -0.000021  -0.000036   0.005655  -0.003114   0.006422
    14  H   -0.000129  -0.000000  -0.000029   0.000130   0.000071   0.005747
    15  H   -0.000002  -0.000000  -0.000578  -0.000881   0.000815  -0.000353
    16  H   -0.008526   0.000120  -0.000000   0.000020   0.002977   0.003814
    17  H    0.333207  -0.037512   0.000000  -0.000000   0.000005  -0.000004
    18  H   -0.037234   0.337741   0.000000   0.000000  -0.000000   0.000000
    19  H   -0.058408   0.338569  -0.000000  -0.000000   0.000000  -0.000000
              13         14         15         16         17         18
     1  N   -0.002428   0.000404   0.023750   0.000147   0.000000   0.000000
     2  C   -0.061771  -0.005687  -0.006742  -0.002765   0.000055   0.000001
     3  C    0.351358  -0.057368  -0.052528  -0.073022  -0.000824  -0.000096
     4  N   -0.031828   0.331729   0.329979   0.002244   0.000034  -0.000002
     5  C   -0.022529   0.001009   0.005873   0.370782  -0.002258   0.001209
     6  N   -0.008452   0.000161   0.000153  -0.063176  -0.052312   0.012910
     7  N   -0.000054  -0.000129  -0.000002  -0.008526   0.333207  -0.037234
     8  N   -0.000021  -0.000000  -0.000000   0.000120  -0.037512   0.337741
     9  H   -0.000036  -0.000029  -0.000578  -0.000000   0.000000   0.000000
    10  H    0.005655   0.000130  -0.000881   0.000020  -0.000000   0.000000
    11  H   -0.003114   0.000071   0.000815   0.002977   0.000005  -0.000000
    12  H    0.006422   0.005747  -0.000353   0.003814  -0.000004   0.000000
    13  H    0.664773   0.007526  -0.002488   0.006493   0.000001   0.000013
    14  H    0.007526   0.532143  -0.029941   0.000737  -0.000006   0.000002
    15  H   -0.002488  -0.029941   0.503892  -0.000231  -0.000001   0.000000
    16  H    0.006493   0.000737  -0.000231   0.677207   0.015959   0.000187
    17  H    0.000001  -0.000006  -0.000001   0.015959   0.490815   0.005475
    18  H    0.000013   0.000002   0.000000   0.000187   0.005475   0.460004
    19  H   -0.000001  -0.000000  -0.000000   0.000026   0.004438  -0.033748
              19
     1  N    0.000000
     2  C   -0.000000
     3  C    0.000005
     4  N    0.000000
     5  C   -0.000476
     6  N    0.002917
     7  N   -0.058408
     8  N    0.338569
     9  H   -0.000000
    10  H   -0.000000
    11  H    0.000000
    12  H   -0.000000
    13  H   -0.000001
    14  H   -0.000000
    15  H   -0.000000
    16  H    0.000026
    17  H    0.004438
    18  H   -0.033748
    19  H    0.510699
 Mulliken charges:
               1
     1  N   -0.518575
     2  C   -0.151731
     3  C   -0.024431
     4  N   -0.496731
     5  C   -0.009465
     6  N   -0.106179
     7  N   -0.205048
     8  N   -0.448533
     9  H    0.229915
    10  H    0.224928
    11  H    0.076452
    12  H    0.096678
    13  H    0.090482
    14  H    0.213503
    15  H    0.229284
    16  H    0.067008
    17  H    0.242928
    18  H    0.253538
    19  H    0.235980
 Sum of Mulliken charges =  -0.00000
 Mulliken charges with hydrogens summed into heavy atoms:
               1
     1  N   -0.063732
     2  C    0.021399
     3  C    0.066051
     4  N   -0.053945
     5  C    0.057542
     6  N   -0.106179
     7  N    0.037880
     8  N    0.040985
 Electronic spatial extent (au):  <R**2>=           1606.2059
 Charge=             -0.0000 electrons
 Dipole moment (field-independent basis, Debye):
    X=             -0.9195    Y=             -2.8750    Z=             -0.1918  Tot=              3.0246
 Quadrupole moment (field-independent basis, Debye-Ang):
   XX=            -41.7665   YY=            -50.3884   ZZ=            -45.9003
   XY=              1.1343   XZ=             -1.2268   YZ=             -1.8584
 Traceless Quadrupole moment (field-independent basis, Debye-Ang):
   XX=              4.2519   YY=             -4.3700   ZZ=              0.1181
   XY=              1.1343   XZ=             -1.2268   YZ=             -1.8584
 Octapole moment (field-independent basis, Debye-Ang**2):
  XXX=              1.0163  YYY=             -4.5024  ZZZ=              0.1484  XYY=              3.8524
  XXY=            -19.2282  XXZ=            -27.6345  XZZ=             -3.2205  YZZ=              1.2088
  YYZ=              2.9346  XYZ=             -6.6204
 Hexadecapole moment (field-independent basis, Debye-Ang**3):
 XXXX=          -1547.2367 YYYY=           -231.9814 ZZZZ=            -83.1655 XXXY=             36.2578
 XXXZ=            -70.0133 YYYX=             -3.0242 YYYZ=             -1.7222 ZZZX=              4.0497
 ZZZY=              1.4260 XXYY=           -290.1760 XXZZ=           -274.7588 YYZZ=            -47.2423
 XXYZ=            -22.9300 YYXZ=             -1.2008 ZZXY=             -6.1478
 N-N= 3.809576483989D+02 E-N=-1.681668863789D+03  KE= 3.916094816745D+02
 PrsmSu:  requested number of processors reduced to:  13 ShMem   1 Linda.
 Calling FoFJK, ICntrl=      2127 FMM=F ISym2X=0 I1Cent= 0 IOpClX= 0 NMat=1 NMatS=1 NMatT=0.
 ***** Axes restored to original set *****
 -------------------------------------------------------------------
 Center     Atomic                   Forces (Hartrees/Bohr)
 Number     Number              X              Y              Z
 -------------------------------------------------------------------
      1        7          -0.003240630   -0.004289498    0.000916518
      2        6          -0.000569858    0.008190978    0.008851941
      3        6           0.004273083   -0.003071984   -0.015644704
      4        7          -0.006881412   -0.003849212    0.005887030
      5        6          -0.006111511   -0.013328865    0.004984705
      6        7          -0.024875531    0.047755026   -0.015812746
      7        7           0.000678935   -0.004005256    0.015904277
      8        7           0.028870483   -0.019839715   -0.000026339
      9        1           0.001803368   -0.004212007    0.001134765
     10        1           0.001708730    0.001260083   -0.003142531
     11        1           0.008704010    0.002395204    0.002478352
     12        1           0.000769673   -0.002254645   -0.000289642
     13        1          -0.004069685   -0.001711653   -0.000089316
     14        1           0.002773940    0.000225219    0.001340284
     15        1           0.003857857   -0.001152086   -0.000422283
     16        1           0.000026774   -0.004100248    0.002157154
     17        1          -0.002594980   -0.011555253    0.000041779
     18        1          -0.001908069    0.009353148   -0.007926274
     19        1          -0.003215179    0.004190765   -0.000342970
 -------------------------------------------------------------------
 Cartesian Forces:  Max     0.047755026 RMS     0.010216758

 GradGradGradGradGradGradGradGradGradGradGradGradGradGradGradGradGradGrad
 Berny optimization.
 FormGI is forming the generalized inverse of G from B-inverse, IUseBI=4.
 Internal  Forces:  Max     0.032495286 RMS     0.007515841
 Search for a local minimum.
 Step number   1 out of a maximum of   91
 All quantities printed in internal units (Hartrees-Bohrs-Radians)
 Mixed Optimization -- RFO/linear search
 Second derivative matrix not updated -- first step.
 ITU=  0
     Eigenvalues ---    0.00230   0.00422   0.00698   0.00750   0.01106
     Eigenvalues ---    0.01190   0.02124   0.02949   0.03472   0.04154
     Eigenvalues ---    0.04344   0.04443   0.04915   0.05110   0.05326
     Eigenvalues ---    0.06243   0.06412   0.09316   0.12751   0.14143
     Eigenvalues ---    0.15988   0.16000   0.16000   0.16000   0.16000
     Eigenvalues ---    0.16000   0.16000   0.17459   0.18519   0.21928
     Eigenvalues ---    0.22005   0.22679   0.25000   0.27721   0.29795
     Eigenvalues ---    0.33299   0.34002   0.34014   0.34157   0.35136
     Eigenvalues ---    0.35596   0.43534   0.43660   0.43776   0.44111
     Eigenvalues ---    0.44128   0.44308   0.44332   0.44526   0.57818
     Eigenvalues ---    0.65841
 RFO step:  Lambda=-1.97611117D-02 EMin= 2.30000000D-03
 Linear search not attempted -- first point.
 Iteration  1 RMS(Cart)=  0.08670662 RMS(Int)=  0.00414352
 Iteration  2 RMS(Cart)=  0.00877150 RMS(Int)=  0.00050236
 Iteration  3 RMS(Cart)=  0.00005297 RMS(Int)=  0.00050134
 Iteration  4 RMS(Cart)=  0.00000005 RMS(Int)=  0.00050134
 Variable       Old X    -DE/DX   Delta X   Delta X   Delta X     New X
                                 (Linear)    (Quad)   (Total)
    R1        2.78018  -0.00030   0.00000  -0.00080  -0.00080   2.77938
    R2        1.92788  -0.00466   0.00000  -0.01008  -0.01008   1.91780
    R3        1.93022  -0.00360   0.00000  -0.00780  -0.00780   1.92242
    R4        2.92753  -0.00624   0.00000  -0.02102  -0.02102   2.90651
    R5        2.07065   0.00600   0.00000   0.01662   0.01662   2.08727
    R6        2.07307   0.00030   0.00000   0.00083   0.00083   2.07390
    R7        2.78754   0.00044   0.00000   0.00118   0.00118   2.78872
    R8        2.88374  -0.00927   0.00000  -0.02919  -0.02919   2.85455
    R9        2.07327   0.00129   0.00000   0.00359   0.00359   2.07686
   R10        1.92530  -0.00044   0.00000  -0.00094  -0.00094   1.92436
   R11        1.93564  -0.00395   0.00000  -0.00865  -0.00865   1.92699
   R12        2.46597  -0.02433   0.00000  -0.03588  -0.03588   2.43010
   R13        2.08529  -0.00408   0.00000  -0.01157  -0.01157   2.07372
   R14        2.52710   0.01855   0.00000   0.03103   0.03103   2.55813
   R15        2.66059   0.01469   0.00000   0.03172   0.03172   2.69231
   R16        1.93716  -0.00760   0.00000  -0.01669  -0.01669   1.92047
   R17        1.93423  -0.00754   0.00000  -0.01648  -0.01648   1.91775
   R18        1.93001  -0.00147   0.00000  -0.00318  -0.00318   1.92683
    A1        1.91574  -0.00050   0.00000  -0.00392  -0.00393   1.91181
    A2        1.90817  -0.00072   0.00000  -0.00516  -0.00517   1.90300
    A3        1.84846   0.00023   0.00000  -0.00110  -0.00113   1.84733
    A4        1.94859  -0.00799   0.00000  -0.03352  -0.03366   1.91494
    A5        1.91103   0.00786   0.00000   0.06386   0.06380   1.97483
    A6        1.88493   0.00248   0.00000   0.00333   0.00221   1.88714
    A7        1.93064  -0.00093   0.00000  -0.00817  -0.00777   1.92287
    A8        1.91932  -0.00013   0.00000  -0.02302  -0.02345   1.89587
    A9        1.86698  -0.00088   0.00000  -0.00054  -0.00120   1.86578
   A10        1.92131   0.01192   0.00000   0.06484   0.06522   1.98653
   A11        1.94885  -0.00942   0.00000  -0.03877  -0.03944   1.90941
   A12        1.89943  -0.00184   0.00000  -0.02069  -0.02039   1.87904
   A13        1.93331  -0.00039   0.00000   0.00793   0.00829   1.94159
   A14        1.89071  -0.00525   0.00000  -0.03368  -0.03332   1.85739
   A15        1.86830   0.00473   0.00000   0.01784   0.01731   1.88560
   A16        1.90008  -0.00307   0.00000  -0.01521  -0.01518   1.88490
   A17        1.85448   0.00213   0.00000   0.01382   0.01385   1.86832
   A18        1.81700   0.00101   0.00000   0.01033   0.01040   1.82740
   A19        2.12942  -0.00372   0.00000  -0.01501  -0.01530   2.11412
   A20        2.03482   0.00427   0.00000   0.02182   0.02153   2.05635
   A21        2.11733  -0.00048   0.00000  -0.00443  -0.00473   2.11261
   A22        1.99782   0.03250   0.00000   0.12046   0.12046   2.11828
   A23        1.92930   0.02520   0.00000   0.08957   0.08966   2.01895
   A24        2.06950  -0.00765   0.00000  -0.04768  -0.04752   2.02198
   A25        2.00996  -0.01755   0.00000  -0.10569  -0.10562   1.90434
   A26        1.89872  -0.01389   0.00000  -0.08199  -0.08297   1.81576
   A27        1.90278  -0.00656   0.00000  -0.04122  -0.04212   1.86066
   A28        1.82302   0.00680   0.00000   0.02716   0.02456   1.84758
    D1        3.11548   0.00113   0.00000   0.03616   0.03599  -3.13172
    D2        0.97143   0.00220   0.00000   0.02450   0.02492   0.99634
    D3       -1.05559  -0.00233   0.00000  -0.01092  -0.01115  -1.06674
    D4        1.09498   0.00154   0.00000   0.04262   0.04244   1.13741
    D5       -1.04907   0.00262   0.00000   0.03096   0.03137  -1.01771
    D6       -3.07610  -0.00192   0.00000  -0.00445  -0.00470  -3.08080
    D7        0.97071  -0.00225   0.00000  -0.02532  -0.02495   0.94576
    D8        3.12564  -0.00080   0.00000   0.00422   0.00403   3.12967
    D9       -1.09897  -0.00176   0.00000  -0.01000  -0.00953  -1.10851
   D10        3.10354   0.00162   0.00000   0.02741   0.02755   3.13109
   D11       -1.02472   0.00307   0.00000   0.05696   0.05653  -0.96819
   D12        1.03386   0.00211   0.00000   0.04273   0.04297   1.07683
   D13       -1.12127  -0.00011   0.00000   0.00751   0.00747  -1.11380
   D14        1.03366   0.00134   0.00000   0.03706   0.03645   1.07011
   D15        3.09224   0.00038   0.00000   0.02283   0.02289   3.11512
   D16        1.05424  -0.00060   0.00000   0.03915   0.03967   1.09391
   D17       -0.89331  -0.00141   0.00000   0.02744   0.02801  -0.86530
   D18       -1.10972   0.00330   0.00000   0.03747   0.03698  -1.07274
   D19       -3.05727   0.00250   0.00000   0.02577   0.02532  -3.03195
   D20        3.12927   0.00093   0.00000   0.03146   0.03136  -3.12256
   D21        1.18171   0.00012   0.00000   0.01975   0.01970   1.20141
   D22        3.05561  -0.00388   0.00000  -0.01848  -0.01837   3.03724
   D23       -0.02560  -0.00521   0.00000  -0.06272  -0.06277  -0.08837
   D24       -1.07946   0.00451   0.00000   0.04329   0.04321  -1.03624
   D25        2.12252   0.00319   0.00000  -0.00095  -0.00119   2.12133
   D26        0.97846   0.00078   0.00000   0.01771   0.01791   0.99637
   D27       -2.10275  -0.00054   0.00000  -0.02653  -0.02649  -2.12924
   D28       -3.00087  -0.00415   0.00000  -0.09231  -0.09208  -3.09294
   D29        0.07752  -0.00262   0.00000  -0.04513  -0.04537   0.03215
   D30       -2.90987   0.00770   0.00000   0.16356   0.16351  -2.74636
   D31       -0.53370   0.00098   0.00000   0.04818   0.04823  -0.48547
   D32       -0.25661  -0.00004   0.00000   0.02253   0.02362  -0.23299
   D33       -2.23468   0.00261   0.00000   0.05475   0.05351  -2.18117
   D34       -2.66095   0.00261   0.00000   0.11006   0.11130  -2.54965
   D35        1.64416   0.00526   0.00000   0.14228   0.14119   1.78535
         Item               Value     Threshold  Converged?
 Maximum Force            0.032495     0.000450     NO 
 RMS     Force            0.007516     0.000300     NO 
 Maximum Displacement     0.308150     0.001800     NO 
 RMS     Displacement     0.085691     0.001200     NO 
 Predicted change in Energy=-1.151099D-02
 GradGradGradGradGradGradGradGradGradGradGradGradGradGradGradGradGradGrad

                          Input orientation:                          
 ---------------------------------------------------------------------
 Center     Atomic      Atomic             Coordinates (Angstroms)
 Number     Number       Type             X           Y           Z
 ---------------------------------------------------------------------
      1          7           0        1.078053   -0.080357   -0.114363
      2          6           0        2.546626   -0.036350   -0.046761
      3          6           0        3.076530   -1.337711    0.578773
      4          7           0        2.600908   -2.560491   -0.096773
      5          6           0        4.585555   -1.291999    0.629309
      6          7           0        5.259484   -2.217626    1.214720
      7          7           0        6.608197   -2.153427    1.311468
      8          7           0        7.273108   -3.398331    1.506145
      9          1           0        0.731896    0.775421   -0.535974
     10          1           0        0.702725   -0.095779    0.831044
     11          1           0        2.929704    0.837374    0.509886
     12          1           0        2.933313    0.043157   -1.070760
     13          1           0        2.702831   -1.387733    1.611103
     14          1           0        2.950096   -2.547591   -1.053273
     15          1           0        1.588909   -2.476371   -0.189558
     16          1           0        5.087852   -0.434838    0.163283
     17          1           0        7.081024   -1.635086    0.576240
     18          1           0        6.526547   -4.040303    1.751904
     19          1           0        7.841341   -3.296921    2.346668
 ---------------------------------------------------------------------
                    Distance matrix (angstroms):
                    1          2          3          4          5
     1  N    0.000000
     2  C    1.470786   0.000000
     3  C    2.460749   1.538061   0.000000
     4  N    2.910405   2.525219   1.475726   0.000000
     5  C    3.784665   2.488163   1.510562   2.464770   0.000000
     6  N    4.880445   3.702553   2.438025   2.984224   1.285952
     7  N    6.075615   4.777359   3.697960   4.266991   2.301843
     8  N    7.212052   6.004504   4.766281   5.010067   3.525396
     9  H    1.014858   2.047327   3.347432   3.848949   4.525792
    10  H    1.017302   2.043047   2.690908   3.246343   4.067924
    11  H    2.158826   1.104536   2.181124   3.467222   2.700062
    12  H    2.090918   1.097462   2.155984   2.799665   2.720805
    13  H    2.706726   2.144562   1.099026   2.074268   2.125497
    14  H    3.236254   2.735358   2.035526   1.018328   2.661263
    15  H    2.451022   2.625131   2.024819   1.019719   3.324630
    16  H    4.035001   2.580841   2.243486   3.281908   1.097364
    17  H    6.239373   4.848181   4.015521   4.623933   2.519502
    18  H    6.989292   5.925082   4.536832   4.584549   3.546948
    19  H    7.883211   6.662870   5.446777   5.828797   4.191560
                    6          7          8          9         10
     6  N    0.000000
     7  N    1.353702   0.000000
     8  N    2.352377   1.424707   0.000000
     9  H    5.702833   6.820712   8.023584   0.000000
    10  H    5.041179   6.272107   7.384615   1.621289   0.000000
    11  H    3.906110   4.808195   6.148080   2.434753   2.435847
    12  H    3.968077   4.899466   6.108855   2.380849   2.934567
    13  H    2.717042   3.990985   4.994092   3.629567   2.505605
    14  H    3.253604   4.373679   5.095372   4.028699   3.822657
    15  H    3.938535   5.248869   6.002960   3.380625   2.737548
    16  H    2.076851   2.565799   3.919300   4.574717   4.448618
    17  H    2.016189   1.016268   2.002661   6.881787   6.566360
    18  H    2.283893   1.939317   1.014830   7.874234   7.093951
    19  H    3.018637   1.974807   1.019633   8.685494   7.968956
                   11         12         13         14         15
    11  H    0.000000
    12  H    1.768965   0.000000
    13  H    2.493041   3.048436   0.000000
    14  H    3.728521   2.590861   2.916387   0.000000
    15  H    3.642507   2.988638   2.380826   1.613662   0.000000
    16  H    2.529084   2.528514   2.948308   3.242489   4.066319
    17  H    4.832280   4.767874   4.505630   4.533491   5.608701
    18  H    6.186406   6.128084   4.655830   4.784162   5.531312
    19  H    6.677600   6.850086   5.530854   6.003780   6.796959
                   16         17         18         19
    16  H    0.000000
    17  H    2.363020   0.000000
    18  H    4.194394   2.733989   0.000000
    19  H    4.532151   2.544443   1.623283   0.000000
 Stoichiometry    C3H11N5
 Framework group  C1[X(C3H11N5)]
 Deg. of freedom    51
 Full point group                 C1      NOp   1
 Largest Abelian subgroup         C1      NOp   1
 Largest concise Abelian subgroup C1      NOp   1
                         Standard orientation:                         
 ---------------------------------------------------------------------
 Center     Atomic      Atomic             Coordinates (Angstroms)
 Number     Number       Type             X           Y           Z
 ---------------------------------------------------------------------
      1          7           0       -3.451886   -0.134942   -0.164337
      2          6           0       -2.166126   -0.758214    0.184325
      3          6           0       -1.009927    0.151994   -0.263289
      4          7           0       -1.102386    1.530962    0.254077
      5          6           0        0.306161   -0.486765    0.113138
      6          7           0        1.424955    0.028437   -0.256376
      7          7           0        2.605029   -0.569585    0.030510
      8          7           0        3.745211    0.284677    0.034188
      9          1           0       -4.212831   -0.733247    0.140509
     10          1           0       -3.530232   -0.080226   -1.177141
     11          1           0       -2.043109   -1.768805   -0.244127
     12          1           0       -2.124252   -0.867050    1.275574
     13          1           0       -1.050297    0.227879   -1.358949
     14          1           0       -1.048771    1.490040    1.270169
     15          1           0       -2.046997    1.861161    0.057848
     16          1           0        0.276302   -1.413808    0.699574
     17          1           0        2.617992   -1.145391    0.867816
     18          1           0        3.416525    1.135746   -0.410250
     19          1           0        4.418569   -0.125224   -0.612512
 ---------------------------------------------------------------------
 Rotational constants (GHZ):           6.6785286           0.7551332           0.7009970
 Standard basis: 6-31G(2df,p) (6D, 7F)
 There are   303 symmetry adapted cartesian basis functions of A   symmetry.
 There are   279 symmetry adapted basis functions of A   symmetry.
   279 basis functions,   429 primitive gaussians,   303 cartesian basis functions
    32 alpha electrons       32 beta electrons
       nuclear repulsion energy       380.9980247806 Hartrees.
 NAtoms=   19 NActive=   19 NUniq=   19 SFac= 1.00D+00 NAtFMM=   60 NAOKFM=F Big=F
 Integral buffers will be    131072 words long.
 Raffenetti 2 integral format.
 Two-electron integral symmetry is turned on.
 One-electron integrals computed using PRISM.
 PrsmSu:  requested number of processors reduced to:  13 ShMem   1 Linda.
 NBasis=   279 RedAO= T EigKep=  2.60D-04  NBF=   279
 NBsUse=   279 1.00D-06 EigRej= -1.00D+00 NBFU=   279
 Initial guess from the checkpoint file:  "NCCpNpCdNNN.chk"
 B after Tr=     0.000000    0.000000    0.000000
         Rot=    0.999995    0.000824   -0.001454    0.002506 Ang=   0.35 deg.
 ExpMin= 1.61D-01 ExpMax= 4.17D+03 ExpMxC= 6.27D+02 IAcc=2 IRadAn=         4 AccDes= 0.00D+00
 Harris functional with IExCor=  402 and IRadAn=       4 diagonalized for initial guess.
 HarFok:  IExCor=  402 AccDes= 0.00D+00 IRadAn=         4 IDoV= 1 UseB2=F ITyADJ=14
 ICtDFT=  3500011 ScaDFX=  1.000000  1.000000  1.000000  1.000000
 FoFCou: FMM=F IPFlag=           0 FMFlag=      100000 FMFlg1=           0
         NFxFlg=           0 DoJE=T BraDBF=F KetDBF=T FulRan=T
         wScrn=  0.000000 ICntrl=       500 IOpCl=  0 I1Cent=   200000004 NGrid=           0
         NMat0=    1 NMatS0=      1 NMatT0=    0 NMatD0=    1 NMtDS0=    0 NMtDT0=    0
 Petite list used in FoFCou.
 Requested convergence on RMS density matrix=1.00D-08 within 128 cycles.
 Requested convergence on MAX density matrix=1.00D-06.
 Requested convergence on             energy=1.00D-06.
 No special actions if energy rises.
 Integral accuracy reduced to 1.0D-05 until final iterations.
 Initial convergence to 1.0D-05 achieved.  Increase integral accuracy.
 SCF Done:  E(RB3LYP) =  -394.627281406     A.U. after   12 cycles
            NFock= 12  Conv=0.66D-08     -V/T= 2.0076
 PrsmSu:  requested number of processors reduced to:  13 ShMem   1 Linda.
 Calling FoFJK, ICntrl=      2127 FMM=F ISym2X=0 I1Cent= 0 IOpClX= 0 NMat=1 NMatS=1 NMatT=0.
 ***** Axes restored to original set *****
 -------------------------------------------------------------------
 Center     Atomic                   Forces (Hartrees/Bohr)
 Number     Number              X              Y              Z
 -------------------------------------------------------------------
      1        7           0.002305878    0.000592692    0.000369301
      2        6          -0.004654062    0.000763707    0.000781773
      3        6           0.000780463   -0.002787258   -0.000711045
      4        7          -0.000043120    0.002764116    0.001173842
      5        6           0.011687995   -0.007532386    0.003967978
      6        7          -0.001239754   -0.000964223    0.000850315
      7        7          -0.004887321    0.018413972   -0.000770105
      8        7           0.000966814   -0.005878740   -0.001041250
      9        1          -0.000924860   -0.000190191   -0.000805440
     10        1          -0.000055768    0.000631148    0.000097931
     11        1           0.001573383   -0.001331708    0.000470570
     12        1          -0.000378409    0.000374299   -0.000870422
     13        1          -0.001091310   -0.000702369    0.000720413
     14        1           0.001288773   -0.001218134   -0.000180387
     15        1           0.000706199    0.000770264   -0.000139093
     16        1           0.000353415    0.000378019   -0.001053533
     17        1          -0.002078751    0.000086409   -0.003812664
     18        1          -0.001523707   -0.004572428   -0.001146681
     19        1          -0.002785859    0.000402810    0.002098496
 -------------------------------------------------------------------
 Cartesian Forces:  Max     0.018413972 RMS     0.003578796

 GradGradGradGradGradGradGradGradGradGradGradGradGradGradGradGradGradGrad
 Berny optimization.
 Using GEDIIS/GDIIS optimizer.
 FormGI is forming the generalized inverse of G from B-inverse, IUseBI=4.
 Internal  Forces:  Max     0.013182064 RMS     0.003048682
 Search for a local minimum.
 Step number   2 out of a maximum of   91
 All quantities printed in internal units (Hartrees-Bohrs-Radians)
 Mixed Optimization -- RFO/linear search
 Update second derivatives using D2CorX and points    1    2
 DE= -9.16D-03 DEPred=-1.15D-02 R= 7.96D-01
 TightC=F SS=  1.41D+00  RLast= 4.09D-01 DXNew= 5.0454D-01 1.2272D+00
 Trust test= 7.96D-01 RLast= 4.09D-01 DXMaxT set to 5.05D-01
 ITU=  1  0
 Use linear search instead of GDIIS.
     Eigenvalues ---    0.00230   0.00422   0.00697   0.00749   0.01091
     Eigenvalues ---    0.01149   0.02143   0.03002   0.03729   0.04113
     Eigenvalues ---    0.04321   0.04506   0.04893   0.05190   0.05529
     Eigenvalues ---    0.06447   0.06957   0.08879   0.12480   0.14139
     Eigenvalues ---    0.15706   0.15999   0.16000   0.16000   0.16000
     Eigenvalues ---    0.16000   0.16367   0.17589   0.18629   0.21897
     Eigenvalues ---    0.21964   0.23924   0.27652   0.29611   0.31421
     Eigenvalues ---    0.33373   0.33995   0.34017   0.34175   0.35371
     Eigenvalues ---    0.35679   0.43047   0.43612   0.43716   0.44077
     Eigenvalues ---    0.44126   0.44238   0.44512   0.44737   0.60052
     Eigenvalues ---    0.64195
 RFO step:  Lambda=-4.16199262D-03 EMin= 2.29930284D-03
 Quartic linear search produced a step of -0.05580.
 Iteration  1 RMS(Cart)=  0.06991938 RMS(Int)=  0.00350169
 Iteration  2 RMS(Cart)=  0.00433509 RMS(Int)=  0.00027889
 Iteration  3 RMS(Cart)=  0.00002007 RMS(Int)=  0.00027865
 Iteration  4 RMS(Cart)=  0.00000001 RMS(Int)=  0.00027865
 Variable       Old X    -DE/DX   Delta X   Delta X   Delta X     New X
                                 (Linear)    (Quad)   (Total)
    R1        2.77938  -0.00134   0.00004  -0.00357  -0.00352   2.77586
    R2        1.91780   0.00049   0.00056  -0.00076  -0.00019   1.91761
    R3        1.92242   0.00010   0.00044  -0.00116  -0.00072   1.92170
    R4        2.90651   0.00143   0.00117   0.00098   0.00216   2.90867
    R5        2.08727  -0.00027  -0.00093   0.00220   0.00127   2.08854
    R6        2.07390   0.00071  -0.00005   0.00204   0.00199   2.07589
    R7        2.78872  -0.00294  -0.00007  -0.00742  -0.00748   2.78123
    R8        2.85455   0.00047   0.00163  -0.00369  -0.00206   2.85249
    R9        2.07686   0.00108  -0.00020   0.00352   0.00332   2.08018
   R10        1.92436   0.00060   0.00005   0.00106   0.00111   1.92547
   R11        1.92699  -0.00062   0.00048  -0.00282  -0.00234   1.92465
   R12        2.43010  -0.01318   0.00200  -0.02462  -0.02262   2.40747
   R13        2.07372   0.00090   0.00065   0.00044   0.00109   2.07480
   R14        2.55813  -0.01020  -0.00173  -0.01073  -0.01246   2.54567
   R15        2.69231   0.00721  -0.00177   0.02042   0.01865   2.71095
   R16        1.92047   0.00184   0.00093   0.00093   0.00186   1.92233
   R17        1.91775   0.00374   0.00092   0.00491   0.00583   1.92358
   R18        1.92683   0.00022   0.00018  -0.00011   0.00007   1.92690
    A1        1.91181   0.00147   0.00022   0.00850   0.00872   1.92053
    A2        1.90300  -0.00017   0.00029  -0.00090  -0.00062   1.90238
    A3        1.84733  -0.00036   0.00006  -0.00015  -0.00009   1.84723
    A4        1.91494   0.00186   0.00188   0.00232   0.00422   1.91916
    A5        1.97483   0.00061  -0.00356   0.01859   0.01506   1.98989
    A6        1.88714  -0.00085  -0.00012  -0.00184  -0.00190   1.88524
    A7        1.92287  -0.00203   0.00043  -0.01533  -0.01495   1.90792
    A8        1.89587   0.00002   0.00131  -0.00324  -0.00193   1.89395
    A9        1.86578   0.00035   0.00007  -0.00108  -0.00105   1.86473
   A10        1.98653   0.00077  -0.00364   0.01467   0.01102   1.99755
   A11        1.90941   0.00012   0.00220  -0.00564  -0.00341   1.90600
   A12        1.87904  -0.00060   0.00114  -0.00847  -0.00732   1.87171
   A13        1.94159  -0.00079  -0.00046  -0.00204  -0.00252   1.93907
   A14        1.85739  -0.00011   0.00186  -0.00803  -0.00617   1.85122
   A15        1.88560   0.00061  -0.00097   0.00924   0.00829   1.89390
   A16        1.88490   0.00114   0.00085   0.00508   0.00593   1.89083
   A17        1.86832  -0.00110  -0.00077  -0.00234  -0.00311   1.86521
   A18        1.82740   0.00036  -0.00058   0.00720   0.00662   1.83402
   A19        2.11412  -0.00089   0.00085  -0.00639  -0.00554   2.10858
   A20        2.05635   0.00033  -0.00120   0.00498   0.00378   2.06012
   A21        2.11261   0.00056   0.00026   0.00159   0.00186   2.11446
   A22        2.11828  -0.01157  -0.00672  -0.02078  -0.02750   2.09078
   A23        2.01895  -0.01165  -0.00500  -0.03715  -0.04320   1.97575
   A24        2.02198   0.00247   0.00265  -0.01762  -0.01644   2.00554
   A25        1.90434   0.00401   0.00589  -0.01591  -0.01135   1.89299
   A26        1.81576   0.00414   0.00463   0.00829   0.01300   1.82876
   A27        1.86066  -0.00310   0.00235  -0.02511  -0.02268   1.83798
   A28        1.84758  -0.00066  -0.00137  -0.00024  -0.00139   1.84619
    D1       -3.13172   0.00009  -0.00201   0.03915   0.03717  -3.09455
    D2        0.99634   0.00091  -0.00139   0.04410   0.04268   1.03902
    D3       -1.06674   0.00068   0.00062   0.03549   0.03612  -1.03062
    D4        1.13741  -0.00018  -0.00237   0.03515   0.03280   1.17022
    D5       -1.01771   0.00063  -0.00175   0.04009   0.03831  -0.97940
    D6       -3.08080   0.00040   0.00026   0.03149   0.03175  -3.04904
    D7        0.94576   0.00027   0.00139   0.04802   0.04940   0.99516
    D8        3.12967  -0.00011  -0.00022   0.05176   0.05156  -3.10196
    D9       -1.10851   0.00034   0.00053   0.05497   0.05550  -1.05301
   D10        3.13109   0.00093  -0.00154   0.06263   0.06105  -3.09105
   D11       -0.96819   0.00055  -0.00315   0.06637   0.06320  -0.90499
   D12        1.07683   0.00101  -0.00240   0.06958   0.06714   1.14397
   D13       -1.11380   0.00022  -0.00042   0.05081   0.05041  -1.06339
   D14        1.07011  -0.00016  -0.00203   0.05455   0.05256   1.12268
   D15        3.11512   0.00029  -0.00128   0.05776   0.05651  -3.11155
   D16        1.09391   0.00103  -0.00221   0.06886   0.06662   1.16053
   D17       -0.86530   0.00061  -0.00156   0.05933   0.05774  -0.80756
   D18       -1.07274   0.00091  -0.00206   0.06674   0.06471  -1.00803
   D19       -3.03195   0.00048  -0.00141   0.05722   0.05583  -2.97613
   D20       -3.12256   0.00067  -0.00175   0.06151   0.05976  -3.06280
   D21        1.20141   0.00024  -0.00110   0.05198   0.05088   1.25229
   D22        3.03724  -0.00050   0.00102  -0.03128  -0.03027   3.00698
   D23       -0.08837  -0.00057   0.00350  -0.04450  -0.04100  -0.12937
   D24       -1.03624   0.00001  -0.00241  -0.01796  -0.02037  -1.05661
   D25        2.12133  -0.00005   0.00007  -0.03118  -0.03110   2.09023
   D26        0.99637  -0.00020  -0.00100  -0.02330  -0.02431   0.97207
   D27       -2.12924  -0.00026   0.00148  -0.03652  -0.03504  -2.16428
   D28       -3.09294   0.00039   0.00514  -0.00826  -0.00314  -3.09608
   D29        0.03215   0.00045   0.00253   0.00541   0.00795   0.04010
   D30       -2.74636   0.00291  -0.00912   0.10526   0.09564  -2.65072
   D31       -0.48547  -0.00045  -0.00269   0.02511   0.02292  -0.46255
   D32       -0.23299   0.00084  -0.00132   0.12210   0.12107  -0.11192
   D33       -2.18117   0.00103  -0.00299   0.12860   0.12611  -2.05506
   D34       -2.54965   0.00405  -0.00621   0.19698   0.19028  -2.35937
   D35        1.78535   0.00424  -0.00788   0.20349   0.19532   1.98067
         Item               Value     Threshold  Converged?
 Maximum Force            0.013182     0.000450     NO 
 RMS     Force            0.003049     0.000300     NO 
 Maximum Displacement     0.341831     0.001800     NO 
 RMS     Displacement     0.071017     0.001200     NO 
 Predicted change in Energy=-2.535926D-03
 GradGradGradGradGradGradGradGradGradGradGradGradGradGradGradGradGradGrad

                          Input orientation:                          
 ---------------------------------------------------------------------
 Center     Atomic      Atomic             Coordinates (Angstroms)
 Number     Number       Type             X           Y           Z
 ---------------------------------------------------------------------
      1          7           0        1.085267   -0.069581   -0.073205
      2          6           0        2.554007   -0.055186   -0.055146
      3          6           0        3.084317   -1.350591    0.585041
      4          7           0        2.626865   -2.585994   -0.071168
      5          6           0        4.591485   -1.293567    0.645818
      6          7           0        5.253814   -2.187058    1.267122
      7          7           0        6.594498   -2.087747    1.353188
      8          7           0        7.248867   -3.358762    1.472878
      9          1           0        0.735037    0.763423   -0.534909
     10          1           0        0.741955   -0.022131    0.882835
     11          1           0        2.988837    0.815791    0.468118
     12          1           0        2.906151   -0.010290   -1.094721
     13          1           0        2.694272   -1.389593    1.613668
     14          1           0        3.032467   -2.621935   -1.005182
     15          1           0        1.624361   -2.487159   -0.221228
     16          1           0        5.096974   -0.458119    0.143843
     17          1           0        7.035047   -1.568542    0.597449
     18          1           0        6.491981   -4.032289    1.571014
     19          1           0        7.718497   -3.335630    2.377665
 ---------------------------------------------------------------------
                    Distance matrix (angstroms):
                    1          2          3          4          5
     1  N    0.000000
     2  C    1.468921   0.000000
     3  C    2.463833   1.539202   0.000000
     4  N    2.951078   2.531907   1.471765   0.000000
     5  C    3.782684   2.485208   1.509471   2.458489   0.000000
     6  N    4.863843   3.685409   2.423145   2.975068   1.273980
     7  N    6.038147   4.737117   3.668081   4.244896   2.267852
     8  N    7.155351   5.940555   4.707917   4.933979   3.465651
     9  H    1.014755   2.051571   3.352978   3.874618   4.527419
    10  H    1.016921   2.040694   2.709270   3.322108   4.060986
    11  H    2.168062   1.105207   2.171635   3.463234   2.655080
    12  H    2.088691   1.098516   2.156328   2.785662   2.741647
    13  H    2.678967   2.141321   1.100785   2.067508   2.131988
    14  H    3.342855   2.778434   2.036619   1.018915   2.630761
    15  H    2.481373   2.608892   2.018249   1.018480   3.313647
    16  H    4.036319   2.582371   2.245429   3.267341   1.097939
    17  H    6.172240   4.774501   3.956758   4.573218   2.459461
    18  H    6.902106   5.828327   4.447002   4.441583   3.459548
    19  H    7.789324   6.584212   5.350655   5.699425   4.116736
                    6          7          8          9         10
     6  N    0.000000
     7  N    1.347109   0.000000
     8  N    2.322813   1.434574   0.000000
     9  H    5.689640   6.784347   7.965777   0.000000
    10  H    5.019109   6.224167   7.336291   1.620846   0.000000
    11  H    3.845209   4.713245   6.048495   2.467472   2.433635
    12  H    3.978460   4.889988   6.055082   2.371868   2.931657
    13  H    2.703202   3.970772   4.964050   3.618074   2.493112
    14  H    3.207315   4.305268   4.945880   4.118251   3.945889
    15  H    3.934232   5.228822   5.938414   3.384609   2.841471
    16  H    2.067749   2.522058   3.848468   4.580324   4.438737
    17  H    2.000954   1.017251   2.004241   6.812520   6.486590
    18  H    2.242830   1.959388   1.017913   7.783070   7.043988
    19  H    2.937206   1.967267   1.019670   8.605466   7.866761
                   11         12         13         14         15
    11  H    0.000000
    12  H    1.769664   0.000000
    13  H    2.502553   3.046758   0.000000
    14  H    3.740385   2.616231   2.914004   0.000000
    15  H    3.639570   2.922474   2.390858   1.617255   0.000000
    16  H    2.484401   2.556228   2.966649   3.203834   4.038481
    17  H    4.698254   4.726455   4.461733   4.438323   5.548839
    18  H    6.082129   6.011722   4.626906   4.538076   5.412328
    19  H    6.576500   6.802501   5.441837   5.823392   6.679270
                   16         17         18         19
    16  H    0.000000
    17  H    2.279238   0.000000
    18  H    4.093599   2.704219   0.000000
    19  H    4.488029   2.599783   1.624919   0.000000
 Stoichiometry    C3H11N5
 Framework group  C1[X(C3H11N5)]
 Deg. of freedom    51
 Full point group                 C1      NOp   1
 Largest Abelian subgroup         C1      NOp   1
 Largest concise Abelian subgroup C1      NOp   1
                         Standard orientation:                         
 ---------------------------------------------------------------------
 Center     Atomic      Atomic             Coordinates (Angstroms)
 Number     Number       Type             X           Y           Z
 ---------------------------------------------------------------------
      1          7           0       -3.439571   -0.155730   -0.181801
      2          6           0       -2.151961   -0.736689    0.221034
      3          6           0       -0.997548    0.162956   -0.255532
      4          7           0       -1.067399    1.551155    0.228326
      5          6           0        0.317502   -0.477148    0.117847
      6          7           0        1.420167    0.006575   -0.298287
      7          7           0        2.578507   -0.611269    0.003738
      8          7           0        3.698118    0.283785    0.061654
      9          1           0       -4.202859   -0.724399    0.169959
     10          1           0       -3.514298   -0.187192   -1.195484
     11          1           0       -1.988573   -1.766263   -0.146067
     12          1           0       -2.128347   -0.782549    1.318338
     13          1           0       -1.059620    0.219399   -1.353115
     14          1           0       -0.937012    1.545340    1.238847
     15          1           0       -2.025672    1.865674    0.086581
     16          1           0        0.293755   -1.372472    0.752907
     17          1           0        2.560600   -1.160529    0.859770
     18          1           0        3.331904    1.178669   -0.256493
     19          1           0        4.333408   -0.032012   -0.670743
 ---------------------------------------------------------------------
 Rotational constants (GHZ):           6.5324362           0.7689727           0.7121716
 Standard basis: 6-31G(2df,p) (6D, 7F)
 There are   303 symmetry adapted cartesian basis functions of A   symmetry.
 There are   279 symmetry adapted basis functions of A   symmetry.
   279 basis functions,   429 primitive gaussians,   303 cartesian basis functions
    32 alpha electrons       32 beta electrons
       nuclear repulsion energy       382.3573644154 Hartrees.
 NAtoms=   19 NActive=   19 NUniq=   19 SFac= 1.00D+00 NAtFMM=   60 NAOKFM=F Big=F
 Integral buffers will be    131072 words long.
 Raffenetti 2 integral format.
 Two-electron integral symmetry is turned on.
 One-electron integrals computed using PRISM.
 PrsmSu:  requested number of processors reduced to:  13 ShMem   1 Linda.
 NBasis=   279 RedAO= T EigKep=  2.53D-04  NBF=   279
 NBsUse=   279 1.00D-06 EigRej= -1.00D+00 NBFU=   279
 Initial guess from the checkpoint file:  "NCCpNpCdNNN.chk"
 B after Tr=    -0.000000   -0.000000   -0.000000
         Rot=    0.999971    0.007516   -0.000551    0.000865 Ang=   0.87 deg.
 ExpMin= 1.61D-01 ExpMax= 4.17D+03 ExpMxC= 6.27D+02 IAcc=2 IRadAn=         4 AccDes= 0.00D+00
 Harris functional with IExCor=  402 and IRadAn=       4 diagonalized for initial guess.
 HarFok:  IExCor=  402 AccDes= 0.00D+00 IRadAn=         4 IDoV= 1 UseB2=F ITyADJ=14
 ICtDFT=  3500011 ScaDFX=  1.000000  1.000000  1.000000  1.000000
 FoFCou: FMM=F IPFlag=           0 FMFlag=      100000 FMFlg1=           0
         NFxFlg=           0 DoJE=T BraDBF=F KetDBF=T FulRan=T
         wScrn=  0.000000 ICntrl=       500 IOpCl=  0 I1Cent=   200000004 NGrid=           0
         NMat0=    1 NMatS0=      1 NMatT0=    0 NMatD0=    1 NMtDS0=    0 NMtDT0=    0
 Petite list used in FoFCou.
 Requested convergence on RMS density matrix=1.00D-08 within 128 cycles.
 Requested convergence on MAX density matrix=1.00D-06.
 Requested convergence on             energy=1.00D-06.
 No special actions if energy rises.
 Integral accuracy reduced to 1.0D-05 until final iterations.
 Initial convergence to 1.0D-05 achieved.  Increase integral accuracy.
 SCF Done:  E(RB3LYP) =  -394.630080568     A.U. after   12 cycles
            NFock= 12  Conv=0.34D-08     -V/T= 2.0074
 PrsmSu:  requested number of processors reduced to:  13 ShMem   1 Linda.
 Calling FoFJK, ICntrl=      2127 FMM=F ISym2X=0 I1Cent= 0 IOpClX= 0 NMat=1 NMatS=1 NMatT=0.
 ***** Axes restored to original set *****
 -------------------------------------------------------------------
 Center     Atomic                   Forces (Hartrees/Bohr)
 Number     Number              X              Y              Z
 -------------------------------------------------------------------
      1        7           0.002452240    0.000122100    0.001010837
      2        6          -0.002648469   -0.000185734   -0.000841078
      3        6          -0.000655354    0.000131210    0.000760196
      4        7           0.000099585    0.002072877   -0.001352055
      5        6          -0.001056312    0.000100906   -0.000571927
      6        7          -0.003809174   -0.002228520    0.002500639
      7        7           0.005768919    0.003394982    0.000684659
      8        7           0.002887753    0.000129628    0.003540013
      9        1          -0.000321488   -0.000102385   -0.000879176
     10        1          -0.000420635    0.000189576    0.000139409
     11        1          -0.000277088   -0.000588450    0.000185290
     12        1          -0.000320967    0.000521588   -0.000205804
     13        1           0.000531805   -0.000137426    0.000282446
     14        1           0.000726227   -0.000869490    0.000414529
     15        1          -0.000802394    0.000326109   -0.000066110
     16        1           0.000069797    0.000607681   -0.000725189
     17        1          -0.001158731    0.000328625   -0.003495181
     18        1           0.000169585   -0.001438329   -0.001878656
     19        1          -0.001235301   -0.002374947    0.000497159
 -------------------------------------------------------------------
 Cartesian Forces:  Max     0.005768919 RMS     0.001608658

 GradGradGradGradGradGradGradGradGradGradGradGradGradGradGradGradGradGrad
 Berny optimization.
 Using GEDIIS/GDIIS optimizer.
 FormGI is forming the generalized inverse of G from B-inverse, IUseBI=4.
 Internal  Forces:  Max     0.006362887 RMS     0.001294801
 Search for a local minimum.
 Step number   3 out of a maximum of   91
 All quantities printed in internal units (Hartrees-Bohrs-Radians)
 Mixed Optimization -- RFO/linear search
 Update second derivatives using D2CorX and points    2    3
 DE= -2.80D-03 DEPred=-2.54D-03 R= 1.10D+00
 TightC=F SS=  1.41D+00  RLast= 4.30D-01 DXNew= 8.4853D-01 1.2886D+00
 Trust test= 1.10D+00 RLast= 4.30D-01 DXMaxT set to 8.49D-01
 ITU=  1  1  0
 Use linear search instead of GDIIS.
     Eigenvalues ---    0.00248   0.00407   0.00611   0.00731   0.00837
     Eigenvalues ---    0.01093   0.02243   0.03002   0.04074   0.04196
     Eigenvalues ---    0.04306   0.04471   0.04853   0.05202   0.05560
     Eigenvalues ---    0.06452   0.07058   0.08929   0.12487   0.13805
     Eigenvalues ---    0.15975   0.16000   0.16000   0.16000   0.16000
     Eigenvalues ---    0.16215   0.16358   0.17763   0.19066   0.21915
     Eigenvalues ---    0.22091   0.24128   0.27709   0.29817   0.31545
     Eigenvalues ---    0.33311   0.33987   0.34012   0.34155   0.35061
     Eigenvalues ---    0.35601   0.42029   0.43561   0.43680   0.43994
     Eigenvalues ---    0.44113   0.44142   0.44315   0.44537   0.60703
     Eigenvalues ---    0.76873
 RFO step:  Lambda=-2.08219824D-03 EMin= 2.48305034D-03
 Quartic linear search produced a step of  0.39892.
 Iteration  1 RMS(Cart)=  0.05224333 RMS(Int)=  0.00868228
 Iteration  2 RMS(Cart)=  0.00984877 RMS(Int)=  0.00021730
 Iteration  3 RMS(Cart)=  0.00012121 RMS(Int)=  0.00018465
 Iteration  4 RMS(Cart)=  0.00000002 RMS(Int)=  0.00018465
 Variable       Old X    -DE/DX   Delta X   Delta X   Delta X     New X
                                 (Linear)    (Quad)   (Total)
    R1        2.77586  -0.00172  -0.00141  -0.00641  -0.00781   2.76805
    R2        1.91761   0.00043  -0.00008   0.00096   0.00088   1.91849
    R3        1.92170   0.00028  -0.00029   0.00059   0.00030   1.92200
    R4        2.90867   0.00074   0.00086   0.00292   0.00378   2.91245
    R5        2.08854  -0.00049   0.00051  -0.00134  -0.00083   2.08770
    R6        2.07589   0.00011   0.00079   0.00051   0.00130   2.07720
    R7        2.78123  -0.00084  -0.00299  -0.00329  -0.00628   2.77496
    R8        2.85249   0.00160  -0.00082   0.00611   0.00529   2.85778
    R9        2.08018   0.00008   0.00133   0.00050   0.00182   2.08200
   R10        1.92547  -0.00006   0.00044  -0.00018   0.00027   1.92574
   R11        1.92465   0.00083  -0.00093   0.00218   0.00124   1.92589
   R12        2.40747   0.00380  -0.00902   0.00590  -0.00313   2.40435
   R13        2.07480   0.00083   0.00043   0.00293   0.00336   2.07817
   R14        2.54567   0.00636  -0.00497   0.01498   0.01001   2.55567
   R15        2.71095   0.00427   0.00744   0.01402   0.02146   2.73241
   R16        1.92233   0.00226   0.00074   0.00636   0.00710   1.92943
   R17        1.92358   0.00064   0.00232   0.00160   0.00392   1.92750
   R18        1.92690  -0.00018   0.00003  -0.00063  -0.00060   1.92629
    A1        1.92053   0.00034   0.00348   0.00507   0.00850   1.92903
    A2        1.90238   0.00062  -0.00025   0.00716   0.00687   1.90925
    A3        1.84723  -0.00009  -0.00004   0.00412   0.00399   1.85122
    A4        1.91916  -0.00001   0.00168  -0.00131   0.00038   1.91954
    A5        1.98989   0.00002   0.00601   0.00080   0.00682   1.99671
    A6        1.88524  -0.00029  -0.00076  -0.00315  -0.00391   1.88133
    A7        1.90792  -0.00011  -0.00596  -0.00172  -0.00769   1.90022
    A8        1.89395   0.00038  -0.00077   0.00438   0.00360   1.89755
    A9        1.86473   0.00004  -0.00042   0.00132   0.00089   1.86562
   A10        1.99755  -0.00185   0.00439  -0.01230  -0.00791   1.98964
   A11        1.90600   0.00174  -0.00136   0.00965   0.00829   1.91429
   A12        1.87171  -0.00002  -0.00292  -0.00020  -0.00313   1.86858
   A13        1.93907  -0.00010  -0.00101  -0.00142  -0.00241   1.93666
   A14        1.85122   0.00081  -0.00246   0.00529   0.00282   1.85404
   A15        1.89390  -0.00059   0.00331  -0.00078   0.00253   1.89642
   A16        1.89083   0.00080   0.00236   0.00846   0.01081   1.90163
   A17        1.86521  -0.00036  -0.00124  -0.00017  -0.00143   1.86378
   A18        1.83402   0.00027   0.00264   0.00837   0.01096   1.84498
   A19        2.10858   0.00164  -0.00221   0.00912   0.00690   2.11548
   A20        2.06012  -0.00120   0.00151  -0.00729  -0.00580   2.05432
   A21        2.11446  -0.00044   0.00074  -0.00190  -0.00118   2.11328
   A22        2.09078  -0.00025  -0.01097   0.00155  -0.00942   2.08135
   A23        1.97575   0.00079  -0.01723   0.00466  -0.01324   1.96252
[...]
 3,-0.03337506,-0.01410135,-0.09849196,-0.02638933,-0.03110410,0.222185
 15,-0.00085315,-0.00067316,0.00181705,-0.00406908,-0.01130057,-0.00626
 675,-0.02554126,-0.07451736,-0.14426912,-0.05886063,0.01440491,0.56321
 181,0.00138128,0.00000912,0.00037074,-0.01690341,0.01493710,0.00046053
 ,-0.20117923,0.00934226,0.02344369,-0.02492721,-0.00294573,-0.00640228
 ,0.68144671,0.00318367,-0.00595097,0.00209945,0.03182229,-0.00203821,-
 0.00262516,0.01406115,-0.06498163,0.00052002,-0.02070026,0.00310653,0.
 00026954,-0.07439184,0.17912450,-0.00133494,0.00134010,0.00014395,-0.0
 0650255,0.00172949,0.00085329,0.03419067,0.00383762,-0.08517927,-0.033
 19558,-0.00067312,-0.00341963,0.12863363,-0.11009460,0.75625576,0.0011
 1889,-0.00057311,0.00009589,0.00119071,-0.00062263,-0.00045796,-0.0336
 4695,0.00804571,-0.03213129,-0.00113965,0.00134445,-0.00040986,-0.2474
 9962,0.05934810,-0.23249582,0.54375918,0.00056400,-0.00105333,0.000559
 42,0.00284260,0.00101277,-0.00026294,0.00685095,-0.01507966,0.00003649
 ,-0.00411348,0.00053795,-0.00054834,0.04665183,-0.06723065,0.08699443,
 -0.09697644,0.11329647,0.00058005,-0.00026965,0.00050948,0.00315890,-0
 .00286059,-0.00073650,-0.01559642,-0.00233985,0.00065154,0.00109200,0.
 00122821,0.00097563,-0.18075982,0.08359941,-0.42967327,0.21444084,-0.1
 0937313,0.57963538,-0.00162649,0.00249570,-0.00061255,-0.00399556,-0.0
 0382385,-0.00041904,0.01012091,0.00597920,-0.00157598,-0.00283816,-0.0
 0031831,0.00052853,-0.07482487,0.00408311,-0.01305962,-0.19709781,-0.0
 0911978,-0.00028329,0.41756606,-0.00110894,0.00166585,-0.00052670,-0.0
 0308824,-0.00241968,-0.00038550,0.00169623,0.01504295,0.00343919,0.001
 79996,-0.00087632,-0.00013939,0.01101856,0.00707899,-0.00528296,0.0436
 9404,-0.05227456,0.01323673,-0.11785766,0.21251803,0.00015023,0.000046
 85,-0.00004246,-0.00049858,0.00002886,0.00019645,0.00092419,0.00153516
 ,-0.00189656,-0.00005435,-0.00014283,0.00044531,-0.05318297,0.00297896
 ,-0.00763622,0.05969855,0.01784519,-0.11591954,-0.03118973,-0.00788086
 ,0.68889991,-0.00014190,0.00005478,-0.00007236,0.00040731,-0.00023390,
 0.00010701,0.00048971,-0.00155012,-0.00183433,-0.00116232,0.00010443,0
 .00001270,-0.00352514,0.00118940,0.00386663,-0.04901768,0.03621112,-0.
 04107850,-0.07807271,0.00037827,-0.00908788,0.30426865,0.00013979,0.00
 001980,-0.00001905,-0.00048323,0.00005464,0.00010745,-0.00081988,0.002
 83420,0.00089370,0.00110358,-0.00007254,-0.00007323,0.00016045,0.00141
 237,-0.00042813,0.00749732,-0.01180187,0.00198103,0.05558081,-0.110660
 05,0.06501057,0.14765073,0.55110507,0.00029166,-0.00027551,0.00012347,
 0.00031878,0.00053090,0.00002152,-0.00049918,-0.00116045,-0.00013225,0
 .00028754,0.00022454,-0.00002618,0.00062502,0.00144254,0.00318361,-0.0
 1864251,0.00361361,0.00377732,-0.06632854,0.05799952,-0.17904602,0.066
 01434,0.04118785,0.56667946,-0.06869417,0.08456086,-0.00650207,-0.0143
 1284,0.03880921,-0.00991280,-0.00757301,-0.00217664,0.00054189,0.00087
 592,-0.00072524,-0.00033877,0.00006306,0.00185332,-0.00062030,0.000198
 46,0.00041149,0.00022584,-0.00071308,-0.00052340,-0.00003267,0.0000158
 8,-0.00002393,0.00008145,0.08448816,0.11441030,-0.37279607,0.11891174,
 -0.00729876,-0.00291102,-0.00324216,0.00188953,0.00015196,-0.00107862,
 0.00076692,0.00022830,0.00018447,-0.00023383,-0.00059401,0.00004433,-0
 .00009502,-0.00009056,-0.00000645,0.00032730,0.00021055,-0.00001981,0.
 00002586,-0.00001691,-0.00004231,-0.10960151,0.38157280,-0.00224572,0.
 07705281,-0.05601905,-0.00337169,-0.00319226,-0.00109315,0.00196994,-0
 .00145407,-0.00046375,0.00088439,-0.00051024,-0.00000019,-0.00049810,-
 0.00069025,0.00049605,-0.00001236,-0.00010473,0.00006229,0.00046135,0.
 00030859,-0.00001958,0.00004239,-0.00002675,-0.00007856,0.01370158,-0.
 11050954,0.06833326,-0.07652116,0.00061909,0.09276731,-0.01723592,-0.0
 0709512,0.04064201,0.00087125,-0.00066567,0.00077497,0.00010651,-0.000
 50974,-0.00007006,-0.00013610,0.00000797,-0.00032517,0.00006485,-0.000
 07229,-0.00010237,-0.00000666,0.00002369,-0.00001877,0.00004836,-0.000
 01332,-0.00001437,0.00344341,0.00068474,-0.01160153,0.09436822,0.00957
 331,-0.04328859,0.03901952,-0.00467747,-0.00050872,-0.00314178,0.00064
 389,0.00160110,-0.00230146,0.00016505,-0.00139554,0.00047307,0.0000341
 2,-0.00033186,0.00041885,-0.00008668,-0.00006121,-0.00004377,0.0000289
 9,0.00002786,0.00001646,-0.00002715,0.00001076,-0.00001681,-0.01266277
 ,-0.00804641,0.03817649,0.00531959,0.05047454,0.12328730,0.08211926,-0
 .37679406,-0.00547381,-0.00221373,-0.00221002,0.00030223,-0.00036033,0
 .00024276,0.00031140,-0.00083637,0.00003866,0.00000239,-0.00020887,0.0
 0027348,-0.00000916,-0.00004133,-0.00004978,0.00000751,0.00001585,-0.0
 0000296,0.00000078,0.00000075,-0.00000802,0.00226066,-0.00488260,-0.01
 239128,-0.12070420,-0.07343826,0.38745349,-0.03248846,-0.01501527,-0.0
 2269547,-0.09373850,-0.05398859,-0.07649022,0.00370565,0.00189052,0.00
 492577,0.00102888,0.00311880,0.00034203,0.00037176,0.00032443,0.000806
 03,-0.00006842,-0.00012226,0.00010573,0.00014397,0.00009549,-0.0000044
 1,-0.00002404,0.00000612,-0.00001786,0.00027630,-0.00092060,0.00007352
 ,0.00215916,0.00104242,-0.00061744,0.11428930,0.00264852,0.00546867,0.
 00380323,-0.05282048,-0.11160346,-0.08601960,-0.01195550,-0.01412146,-
 0.02565146,0.00042649,-0.00889352,-0.00073267,-0.00203827,0.00065496,-
 0.00111737,0.00058023,0.00058085,0.00098100,0.00020819,-0.00009309,0.0
 0009399,-0.00001567,0.00001923,0.00005745,-0.00007301,0.00068262,0.000
 70331,-0.00091344,0.00007203,0.00004269,0.05878274,0.11886217,-0.00019
 858,0.00210131,0.00706653,-0.07566012,-0.08790702,-0.18228276,0.000175
 84,0.00264555,-0.00008583,-0.00050600,-0.00136212,0.00142134,-0.000158
 93,0.00017164,-0.00022038,0.00029997,-0.00000917,0.00048148,0.00023079
 ,0.00012442,-0.00002059,-0.00000476,0.00002209,0.00001348,-0.00059009,
 0.00039785,-0.00011931,-0.00022485,0.00104276,0.00211507,0.08773725,0.
 09754577,0.19095995,-0.01843086,-0.01383541,0.03387739,-0.06770662,-0.
 02383284,0.05708538,0.00263456,0.00306030,-0.00847677,-0.00035783,-0.0
 0059806,0.00002942,0.00096045,-0.00018901,-0.00084245,-0.00037102,-0.0
 0009226,0.00009190,0.00020465,0.00010132,-0.00000051,-0.00004126,-0.00
 000896,-0.00002628,0.00169609,-0.00000839,0.00058052,-0.00746298,0.000
 66517,0.00024779,0.00491691,0.00521508,-0.01150673,0.08391390,0.002844
 66,0.00157546,-0.00346922,-0.02937987,-0.08167393,0.07996242,-0.008216
 92,-0.01446622,0.03086324,0.00055439,0.00401651,-0.00025087,-0.0019359
 2,0.00100635,0.00016825,0.00074481,0.00006195,-0.00014729,-0.00013177,
 -0.00006015,0.00001843,0.00005152,-0.00001028,0.00001595,-0.00028307,0
 .00078708,-0.00055600,0.00140834,0.00088816,-0.00024162,0.00444148,0.0
 0670122,-0.01492470,0.02756120,0.08802026,0.00220489,0.00032586,-0.000
 38090,0.06447338,0.07963803,-0.24659374,-0.00051725,0.00088973,-0.0040
 0593,-0.00018038,-0.00013595,0.00226099,0.00078178,-0.00011936,-0.0000
 4580,-0.00040579,0.00025580,0.00023693,-0.00012355,-0.00015123,-0.0000
 4442,-0.00005748,0.00000028,0.00002742,0.00060341,-0.00036994,0.000362
 19,0.00001447,-0.00051295,0.00203085,0.00594240,0.00911380,-0.02050168
 ,-0.07208932,-0.08992187,0.26454778,0.00116525,-0.00063691,-0.00065972
 ,0.00267440,0.00521626,-0.00714271,-0.07003574,-0.02455453,0.06320450,
 0.00623303,0.00186717,-0.01690369,-0.01361633,-0.01092770,0.03084840,0
 .00406806,0.00010688,0.00087112,-0.00082928,-0.00000460,-0.00058117,0.
 00018471,0.00015389,-0.00004639,0.00015871,-0.00018614,0.00003242,0.00
 007505,0.00006739,0.00036932,0.00011277,-0.00057303,0.00025597,-0.0000
 0663,0.00181332,-0.00044790,0.07592098,-0.00126128,0.00244174,-0.00085
 776,-0.00912899,-0.01691753,0.02988144,-0.02762227,-0.07822500,0.08377
 885,0.00626053,0.00400173,-0.02231663,0.00299764,0.00095952,-0.0032539
 9,0.00023478,-0.00028019,-0.00069169,-0.00013368,-0.00014126,-0.000247
 96,-0.00002064,-0.00001397,0.00002668,-0.00023433,0.00041479,-0.000201
 41,0.00094510,-0.00036538,-0.00042300,-0.00028906,0.00127314,-0.000513
 91,0.00222510,-0.00596422,0.00029572,0.02742782,0.09201881,-0.00045399
 ,-0.00055436,0.00080885,0.00227132,0.00257814,-0.00247048,0.06421745,0
 .07879291,-0.24230176,0.00442124,-0.00168755,-0.02598608,0.00299432,0.
 00098334,-0.00337586,-0.00276012,0.00053905,0.00032226,0.00032256,-0.0
 0038821,0.00059055,0.00009535,0.00002548,-0.00003359,-0.00023630,-0.00
 012267,0.00019231,-0.00064200,0.00088904,-0.00008189,-0.00021407,0.000
 81710,0.00066766,0.00032305,-0.00005136,0.00140432,-0.06685906,-0.0813
 6787,0.27326514,-0.00017179,0.00108700,-0.00036790,-0.00030449,-0.0001
 3543,0.00003716,0.00752009,0.00407195,-0.01788968,-0.11571627,-0.03099
 605,0.12142104,0.00241422,0.00076321,-0.00335045,-0.00116399,0.0000221
 4,0.00088776,0.00028094,0.00017040,-0.00009234,0.00006089,-0.00005723,
 -0.00003831,0.00015627,0.00022154,0.00026556,-0.00017709,-0.00020221,-
 0.00021961,0.00007774,-0.00008484,-0.00003558,0.00019886,0.00017902,0.
 00033302,-0.00111586,-0.00238641,-0.00363607,0.12453001,-0.00003362,-0
 .00074331,0.00041550,0.00073391,0.00125219,-0.00251847,0.00815604,-0.0
 0290403,-0.02442754,-0.05478442,-0.03481060,0.09669823,-0.00009098,0.0
 0086232,0.00045474,0.00022661,-0.00010540,0.00013685,0.00006300,0.0000
 0512,0.00004992,0.00008575,-0.00007944,-0.00006013,0.00002657,-0.00011
 236,-0.00007580,-0.00003419,0.00010986,0.00014599,-0.00021638,-0.00013
 626,0.00068491,-0.00038252,-0.00049700,0.00050013,-0.00090140,-0.00046
 198,-0.00079152,0.03909130,0.03836143,0.00004849,-0.00014971,0.0001386
 5,0.00059796,0.00080945,0.00122725,0.01082737,0.01007016,-0.02964829,0
 .13161703,0.05062147,-0.33190677,0.00180033,0.00074893,0.00128793,-0.0
 0081863,-0.00029967,0.00046093,0.00038644,0.00028509,0.00002326,0.0000
 5931,-0.00008037,-0.00009525,0.00001993,-0.00003412,-0.00005094,-0.000
 11108,0.00019602,0.00006285,-0.00021260,0.00032374,0.00048124,0.000182
 17,-0.00102474,0.00039887,-0.00331643,-0.00430971,-0.00272500,-0.13658
 594,-0.06037779,0.35951797,-0.00004548,0.00106950,0.00145947,-0.000152
 77,0.00187344,0.00101466,-0.02006132,0.00416117,-0.00496364,-0.3671581
 8,0.09256041,-0.01009168,-0.00097973,-0.00107451,-0.00452957,-0.000398
 64,-0.00071506,0.00052213,-0.00026042,0.00017866,-0.00007460,-0.000111
 93,0.00009798,0.00002961,-0.00005435,-0.00006647,-0.00020609,0.0001697
 8,0.00033745,0.00035797,-0.00076960,0.00053784,0.00022441,-0.00012063,
 -0.00037986,0.00007133,-0.00003619,-0.00002967,0.00000071,-0.01569896,
 0.00800376,-0.00273463,0.40543713,-0.00079833,-0.00070365,-0.00040495,
 -0.00283595,-0.00014578,0.00003377,-0.02710311,0.00158185,-0.00351919,
 0.14838261,-0.05998001,-0.00182624,-0.00091924,-0.00290800,-0.00318387
 ,-0.00127541,0.00006248,-0.00048054,0.00012698,0.00035974,-0.00015778,
 -0.00018907,0.00011527,-0.00003402,0.00050746,0.00060925,0.00111693,0.
 00034340,0.00078932,0.00022041,0.00081083,0.00079716,0.00020634,0.0001
 1740,-0.00032207,-0.00003610,0.00064077,0.00029921,0.00018731,-0.01123
 248,-0.00105630,0.00335778,-0.10673490,0.06056130,0.00033236,0.0016941
 0,-0.00178219,-0.00143062,-0.00053476,0.00076920,-0.02933477,0.0078489
 0,-0.00120055,-0.02562355,0.00001571,-0.05991172,-0.00024666,-0.002713
 51,-0.00433932,-0.00060651,-0.00096908,0.00011344,-0.00089580,0.000458
 03,0.00003344,-0.00022977,0.00022454,0.00006451,0.00077145,0.00077134,
 0.00079270,-0.00026650,-0.00085235,-0.00064432,0.00032954,0.00005865,0
 .00002211,0.00029715,0.00003556,0.00000236,0.00012415,0.00038041,-0.00
 031418,0.03833519,-0.01099901,0.00042093,0.01881908,0.00433737,0.06558
 639,-0.00027156,0.00059919,-0.00062554,0.00042299,-0.00203210,0.000653
 62,-0.00869265,-0.00438064,0.02728937,0.00255362,0.00036284,0.00126707
 ,-0.10488896,-0.00834991,0.09024999,0.00883889,0.00487922,-0.01918018,
 0.00427878,-0.00170523,-0.00525998,-0.00025330,-0.00008511,0.00055870,
 -0.00012879,0.00016454,0.00003143,0.00027167,-0.00022945,-0.00011740,-
 0.00000619,0.00008881,-0.00001731,-0.00000185,0.00070176,-0.00064781,-
 0.00539973,0.00095401,0.00033215,-0.00068451,0.00006373,-0.00160434,0.
 00027475,0.00021331,-0.00033786,0.10285254,-0.00016672,0.00007435,0.00
 001220,-0.00084392,0.00060994,-0.00016341,0.00109247,0.00438158,-0.003
 14186,0.00076734,-0.00012024,0.00047676,-0.00761153,-0.04836701,0.0253
 6533,-0.00032642,0.02672604,0.01371006,-0.00356227,-0.00838553,-0.0007
 8988,0.00017991,-0.00136637,0.00044769,-0.00001629,-0.00002300,0.00005
 048,-0.00005407,0.00000924,0.00009404,0.00008976,-0.00021884,-0.000141
 54,0.00003309,-0.00010249,0.00017833,0.00047756,0.00090333,0.00036323,
 -0.00042084,0.00026678,-0.00004605,0.00010440,-0.00005597,0.00004471,0
 .00835652,0.02695898,0.00010615,-0.00032021,0.00029101,0.00012814,0.00
 060573,-0.00013012,-0.00219970,0.00108091,-0.00391904,-0.00013615,0.00
 033971,0.00166613,0.08781802,0.02376170,-0.23450164,0.00442810,0.01036
 142,-0.03916508,0.00604203,-0.00223768,0.00428643,-0.00085803,0.000112
 34,0.00084950,0.00012356,-0.00004680,-0.00005636,-0.00012717,0.0000602
 8,-0.00004464,-0.00001437,0.00001185,0.00001389,0.00021964,-0.00045716
 ,0.00030849,0.00035851,-0.00024663,0.00023165,0.00090600,0.00015533,0.
 00036330,0.00013980,0.00012220,0.00035184,-0.09490003,-0.03348653,0.26
 965702,0.00009482,-0.00019488,0.00002709,0.00034330,0.00022950,0.00001
 396,-0.00066667,-0.00133098,-0.00133203,-0.00030662,0.00003190,-0.0001
 4858,0.00435302,-0.00159185,0.00948164,-0.03559455,0.01309754,0.035729
 81,-0.06845179,0.03570456,0.07827514,0.00030593,-0.00355123,-0.0227931
 7,0.00005341,-0.00002814,-0.00002164,0.00000862,0.00000018,0.00000418,
 0.00000590,-0.00006998,-0.00002842,-0.00003082,0.00004687,-0.00001237,
 0.00055697,0.00005050,-0.00023792,-0.00014112,0.00005699,-0.00009540,-
 0.00004533,-0.00005667,-0.00011261,0.00087550,0.00140248,-0.00294922,0
 .09908328,0.00022129,-0.00037301,0.00009669,0.00048021,0.00058036,-0.0
 0007373,-0.00122217,0.00014385,0.00084161,0.00071176,-0.00010343,-0.00
 006766,0.00306160,-0.00156708,0.00299126,-0.01567036,0.00187637,0.0025
 7251,0.06113834,-0.05151289,-0.13127179,-0.00126116,-0.00171968,0.0283
 1204,0.00009930,-0.00004993,-0.00007404,-0.00000919,0.00000891,0.00000
 089,-0.00003242,-0.00001459,-0.00005451,-0.00001193,0.00002505,0.00005
 954,-0.00012503,0.00004943,-0.00017821,-0.00005554,0.00003265,-0.00005
 641,0.00006813,-0.00000195,0.00018790,0.00036667,-0.00163983,0.0007399
 1,-0.04648713,0.05661411,-0.00009768,0.00018569,-0.00008845,-0.0005390
 1,-0.00014690,0.00009057,0.00039163,0.00247934,0.00002583,0.00023658,-
 0.00005771,-0.00002203,-0.00494449,-0.00008055,0.00609611,0.00658869,-
 0.00340560,-0.00371770,0.09061206,-0.08242675,-0.34291532,-0.00387881,
 -0.00736598,-0.02520569,-0.00006677,0.00002333,0.00002324,0.00000150,0
 .00001238,0.00000494,0.00000392,-0.00001777,-0.00001231,-0.00000617,-0
 .00000609,-0.00000489,-0.00002885,0.00004913,-0.00020032,0.00000294,-0
 .00003873,0.00002890,-0.00003710,0.00003933,0.00006562,0.00209210,-0.0
 0313215,-0.00042485,-0.09074612,0.09000612,0.37027569,0.00017272,-0.00
 016793,0.00007964,0.00015328,0.00033705,0.00001602,0.00007101,-0.00128
 310,-0.00006175,-0.00001689,0.00008034,0.00005092,-0.00161581,0.000178
 32,-0.00218768,0.00775881,0.00218454,0.00125173,0.00293632,0.03011580,
 -0.01285634,-0.15822065,-0.20844503,0.02941448,0.00004114,-0.00003056,
 -0.00004868,-0.00002117,0.00000202,-0.00000423,-0.00000064,0.00001651,
 -0.00000159,0.00000462,-0.00001782,0.00003032,-0.00009302,0.00002685,0
 .00006280,-0.00002097,-0.00003451,-0.00002155,-0.00002264,-0.00001519,
 -0.00000589,-0.00003766,0.00078537,0.00059049,-0.00036783,-0.00137046,
 0.00108671,0.15535968,0.00003510,-0.00008015,0.00000646,0.00016685,0.0
 0010947,0.00002769,-0.00026967,-0.00028061,-0.00010373,0.00002024,0.00
 000607,-0.00006245,0.00120525,0.00003842,0.00045453,-0.00614896,0.0034
 7140,-0.00229734,-0.00146670,-0.02240214,0.02119110,-0.15239027,-0.252
 24291,0.04301609,0.00002813,-0.00000689,-0.00000816,0.00001330,-0.0000
 0640,0.00000286,-0.00001327,-0.00001430,-0.00000540,-0.00001710,0.0000
 1752,-0.00001436,0.00012276,0.00001117,-0.00002542,-0.00001588,0.00001
 664,-0.00002511,0.00000475,-0.00001025,0.00000978,-0.00008484,0.000049
 50,-0.00047817,-0.00007139,-0.00138892,-0.00071303,0.17619660,0.291391
 83,-0.00012693,0.00007333,-0.00003302,-0.00005641,-0.00016207,-0.00002
 543,0.00019885,0.00023510,0.00003720,-0.00012206,-0.00011703,-0.000018
 28,-0.00054643,-0.00039053,-0.00030709,0.00307307,-0.00321550,0.001009
 60,0.01303044,0.02889784,-0.01419654,0.02709283,0.06597709,-0.07106446
 ,-0.00002180,0.00001860,0.00002700,0.00000787,0.00000578,0.00000506,0.
 00000031,-0.00002225,-0.00001127,0.00001160,-0.00000879,-0.00000230,-0
 .00005323,0.00001006,-0.00000534,0.00001582,0.00005578,0.00001676,-0.0
 0000833,0.00001101,-0.00003670,0.00008913,0.00020659,0.00001747,0.0001
 0047,0.00382263,-0.00088382,-0.02340004,-0.06538226,0.07897927,0.00015
 726,-0.00008129,0.00005281,-0.00011445,0.00018541,-0.00000668,-0.00038
 502,0.00051864,0.00003954,0.00039515,0.00002593,0.00003734,-0.00089410
 ,0.00041011,0.00036713,-0.00099953,-0.00261076,-0.00195723,-0.00681481
 ,-0.00068890,-0.02611383,-0.01521052,0.00109723,0.01078503,0.00000942,
 -0.00002130,-0.00003728,-0.00002581,0.00000617,-0.00000565,0.00000752,
 0.00003981,0.00000870,0.00000046,-0.00000217,0.00002686,-0.00001715,-0
 .00001599,-0.00000141,-0.00004395,-0.00002962,-0.00003843,0.00003452,0
 .00001760,0.00008162,-0.00000354,-0.00028684,0.00032423,-0.00007602,0.
 00009812,-0.00067113,-0.00608029,-0.01731491,-0.01928516,0.03006084,0.
 00001791,-0.00008537,0.00000738,0.00012513,0.00011663,0.00003639,-0.00
 008014,-0.00036223,-0.00005972,0.00000010,-0.00000862,0.00000158,0.000
 74943,-0.00027455,0.00023513,0.00005899,0.00035115,0.00106453,0.006382
 38,0.01191659,0.03169543,-0.03024380,-0.17758733,-0.17528562,0.0000238
 7,-0.00001019,-0.00000535,0.00000180,0.00001234,0.00000337,-0.00000474
 ,-0.00001651,-0.00002427,-0.00000215,-0.00000321,0.00000454,0.00001551
 ,-0.00000334,-0.00000844,-0.00001964,-0.00000030,-0.00000897,0.0000029
 8,0.00000842,0.00000169,0.00011669,0.00029957,-0.00007818,0.00276171,-
 0.00095940,0.00459594,0.00144121,-0.01867945,-0.03001539,0.01865277,0.
 18528580,-0.00000691,0.00003396,-0.00000309,-0.00006872,-0.00004795,-0
 .00000322,0.00006119,0.00017182,0.00012473,0.00004652,0.00000766,-0.00
 001016,-0.00019076,0.00034732,0.00010832,0.00012490,-0.00197590,0.0010
 2558,0.00286639,-0.00534597,-0.03273515,-0.04018940,-0.16754968,-0.299
 05027,-0.00000820,0.00000337,0.00000311,-0.00000007,-0.00000327,-0.000
 00015,-0.00000006,0.00000853,0.00001136,0.00000222,-0.00000414,-0.0000
 0053,-0.00002524,0.00000828,0.00001175,0.00001139,-0.00000838,-0.00000
 258,0.00000646,0.00001022,0.00000644,0.00012690,-0.00004801,0.00020500
 ,-0.00515480,0.00214525,-0.00313551,0.00600463,0.00440692,0.00649188,0
 .03639354,0.16783994,0.32695251\\-0.00001147,0.00000263,0.00000421,0.0
 0000801,0.00000760,0.00000031,0.00000271,-0.00001226,-0.00000387,-0.00
 000512,0.00000105,0.00000614,-0.00000630,0.00000439,-0.00002206,0.0000
 1520,-0.00000261,0.00000931,-0.00001213,-0.00000169,-0.00000414,0.0000
 1180,0.00000581,-0.00002293,0.00000087,-0.00000080,-0.00000154,0.00000
 092,0.00000053,-0.00000023,-0.00000264,0.00000109,-0.00000036,0.000003
 15,-0.00000406,-0.00000010,0.00000145,0.00000077,-0.00000246,-0.000000
 50,0.00000198,0.00000226,-0.00000027,-0.00000097,-0.00000025,0.0000058
 3,0.00000133,0.00000902,0.00000081,0.00000043,0.00000471,-0.00000788,-
 0.00000775,0.00001065,-0.00000443,0.00000254,0.00001134\\\@


 EVERYBODY NEEDS BEAUTY AS WELL AS BREAD, PLACES TO PLAY IN AND PRAY IN,
 WHERE NATURE MAY HEAL AND CHEER AND GIVE STRENGTH TO BODY AND SOUL ALIKE.

                                    -- JOHN MUIR
 Job cpu time:       0 days  1 hours 16 minutes 13.2 seconds.
 Elapsed time:       0 days  0 hours 19 minutes  6.6 seconds.
 File lengths (MBytes):  RWF=    119 Int=      0 D2E=      0 Chk=      7 Scr=      1
 Normal termination of Gaussian 16 at Mon May 31 20:02:58 2021.
### All Done ###
