### Starting Gaussian ###
 Entering Gaussian System, Link 0=g16
 Initial command:
 /cluster/software/gaussian/gaussian-16-A.03/avx2/g16/l1.exe "/local/scratch/linjian/Gau-31250.inp" -scrdir="/local/scratch/linjian/"
 Entering Link 1 = /cluster/software/gaussian/gaussian-16-A.03/avx2/g16/l1.exe PID=     31251.
  
 Copyright (c) 1988,1990,1992,1993,1995,1998,2003,2009,2016,
            Gaussian, Inc.  All Rights Reserved.
  
 This is part of the Gaussian(R) 16 program.  It is based on
 the Gaussian(R) 09 system (copyright 2009, Gaussian, Inc.),
 the Gaussian(R) 03 system (copyright 2003, Gaussian, Inc.),
 the Gaussian(R) 98 system (copyright 1998, Gaussian, Inc.),
 the Gaussian(R) 94 system (copyright 1995, Gaussian, Inc.),
 the Gaussian 92(TM) system (copyright 1992, Gaussian, Inc.),
 the Gaussian 90(TM) system (copyright 1990, Gaussian, Inc.),
 the Gaussian 88(TM) system (copyright 1988, Gaussian, Inc.),
 the Gaussian 86(TM) system (copyright 1986, Carnegie Mellon
 University), and the Gaussian 82(TM) system (copyright 1983,
 Carnegie Mellon University). Gaussian is a federally registered
 trademark of Gaussian, Inc.
  
 This software contains proprietary and confidential information,
 including trade secrets, belonging to Gaussian, Inc.
  
 This software is provided under written license and may be
 used, copied, transmitted, or stored only in accord with that
 written license.
  
 The following legend is applicable only to US Government
 contracts under FAR:
  
                    RESTRICTED RIGHTS LEGEND
  
 Use, reproduction and disclosure by the US Government is
 subject to restrictions as set forth in subparagraphs (a)
 and (c) of the Commercial Computer Software - Restricted
 Rights clause in FAR 52.227-19.
  
 Gaussian, Inc.
 340 Quinnipiac St., Bldg. 40, Wallingford CT 06492
  
  
 ---------------------------------------------------------------
 Warning -- This program may not be used in any manner that
 competes with the business of Gaussian, Inc. or will provide
 assistance to any competitor of Gaussian, Inc.  The licensee
 of this program is prohibited from giving any competitor of
 Gaussian, Inc. access to this program.  By using this program,
 the user acknowledges that Gaussian, Inc. is engaged in the
 business of creating and licensing software in the field of
 computational chemistry and represents and warrants to the
 licensee that it is not a competitor of Gaussian, Inc. and that
 it will not use this program in any manner prohibited above.
 ---------------------------------------------------------------
  

 Cite this work as:
 Gaussian 16, Revision A.03,
 M. J. Frisch, G. W. Trucks, H. B. Schlegel, G. E. Scuseria, 
 M. A. Robb, J. R. Cheeseman, G. Scalmani, V. Barone, 
 G. A. Petersson, H. Nakatsuji, X. Li, M. Caricato, A. V. Marenich, 
 J. Bloino, B. G. Janesko, R. Gomperts, B. Mennucci, H. P. Hratchian, 
 J. V. Ortiz, A. F. Izmaylov, J. L. Sonnenberg, D. Williams-Young, 
 F. Ding, F. Lipparini, F. Egidi, J. Goings, B. Peng, A. Petrone, 
 T. Henderson, D. Ranasinghe, V. G. Zakrzewski, J. Gao, N. Rega, 
 G. Zheng, W. Liang, M. Hada, M. Ehara, K. Toyota, R. Fukuda, 
 J. Hasegawa, M. Ishida, T. Nakajima, Y. Honda, O. Kitao, H. Nakai, 
 T. Vreven, K. Throssell, J. A. Montgomery, Jr., J. E. Peralta, 
 F. Ogliaro, M. J. Bearpark, J. J. Heyd, E. N. Brothers, K. N. Kudin, 
 V. N. Staroverov, T. A. Keith, R. Kobayashi, J. Normand, 
 K. Raghavachari, A. P. Rendell, J. C. Burant, S. S. Iyengar, 
 J. Tomasi, M. Cossi, J. M. Millam, M. Klene, C. Adamo, R. Cammi, 
 J. W. Ochterski, R. L. Martin, K. Morokuma, O. Farkas, 
 J. B. Foresman, and D. J. Fox, Gaussian, Inc., Wallingford CT, 2016.
 
 ******************************************
 Gaussian 16:  ES64L-G16RevA.03 25-Dec-2016
                 1-Jun-2021 
 ******************************************
 %chk=NCCpCdNNNpCN.chk
 %NProcShared=20
 Will use up to   20 processors via shared memory.
 -----------------------------
 # opt freq b3lyp/6-31g(2df,p)
 -----------------------------
 1/18=20,19=15,26=3,38=1/1,3;
 2/9=110,12=2,17=6,18=5,40=1/2;
 3/5=1,6=6,7=104,11=2,25=1,30=1,71=1,74=-5/1,2,3;
 4//1;
 5/5=2,38=5/2;
 6/7=2,8=2,9=2,10=2,28=1/1;
 7//1,2,3,16;
 1/18=20,19=15,26=3/3(2);
 2/9=110/2;
 99//99;
 2/9=110/2;
 3/5=1,6=6,7=104,11=2,25=1,30=1,71=1,74=-5/1,2,3;
 4/5=5,16=3,69=1/1;
 5/5=2,38=5/2;
 7//1,2,3,16;
 1/18=20,19=15,26=3/3(-5);
 2/9=110/2;
 6/7=2,8=2,9=2,10=2,19=2,28=1/1;
 99/9=1/99;
 -------------------
 Title Card Required
 -------------------
 Symbolic Z-matrix:
 Charge =  0 Multiplicity = 1
 N                     1.02686   0.04912   0.17197 
 C                     2.47403  -0.037     0.06681 
 C                     2.95389  -1.38413  -0.50113 
 C                     2.42559  -1.61815  -1.91326 
 N                     1.15104  -1.78227  -2.14501 
 N                     0.844    -2.07747  -3.40711 
 N                    -0.52613  -1.87012  -3.65151 
 C                     4.49625  -1.41183  -0.48901 
 N                     5.03931  -2.68452  -0.96084 
 H                     0.7152    0.92199   0.58238 
 H                     0.64396  -0.7314    0.70023 
 H                     2.89998   0.1126    1.06656 
 H                     2.83076   0.78393  -0.56518 
 H                     2.58262  -2.20021   0.1338 
 H                     3.16963  -1.67625  -2.7247 
 H                     1.48705  -1.80629  -4.15726 
 H                    -0.99842  -1.71799  -2.75625 
 H                    -0.92625  -2.73939  -4.00665 
 H                     4.86628  -1.23693   0.52933 
 H                     4.89742  -0.6083   -1.11812 
 H                     4.73325  -3.44055  -0.34717 
 H                     6.05807  -2.66882  -0.90156 
 

 GradGradGradGradGradGradGradGradGradGradGradGradGradGradGradGradGradGrad
 Berny optimization.
 Initialization pass.
                           ----------------------------
                           !    Initial Parameters    !
                           ! (Angstroms and Degrees)  !
 --------------------------                            --------------------------
 ! Name  Definition              Value          Derivative Info.                !
 --------------------------------------------------------------------------------
 ! R1    R(1,2)                  1.4535         estimate D2E/DX2                !
 ! R2    R(1,10)                 1.0136         estimate D2E/DX2                !
 ! R3    R(1,11)                 1.0173         estimate D2E/DX2                !
 ! R4    R(2,3)                  1.5387         estimate D2E/DX2                !
 ! R5    R(2,12)                 1.097          estimate D2E/DX2                !
 ! R6    R(2,13)                 1.0957         estimate D2E/DX2                !
 ! R7    R(3,4)                  1.5258         estimate D2E/DX2                !
 ! R8    R(3,8)                  1.5427         estimate D2E/DX2                !
 ! R9    R(3,14)                 1.0986         estimate D2E/DX2                !
 ! R10   R(4,5)                  1.3058         estimate D2E/DX2                !
 ! R11   R(4,15)                 1.1025         estimate D2E/DX2                !
 ! R12   R(5,6)                  1.332          estimate D2E/DX2                !
 ! R13   R(6,7)                  1.4071         estimate D2E/DX2                !
 ! R14   R(6,16)                 1.0246         estimate D2E/DX2                !
 ! R15   R(7,17)                 1.0236         estimate D2E/DX2                !
 ! R16   R(7,18)                 1.0207         estimate D2E/DX2                !
 ! R17   R(8,9)                  1.4619         estimate D2E/DX2                !
 ! R18   R(8,19)                 1.0975         estimate D2E/DX2                !
 ! R19   R(8,20)                 1.0965         estimate D2E/DX2                !
 ! R20   R(9,21)                 1.0207         estimate D2E/DX2                !
 ! R21   R(9,22)                 1.0206         estimate D2E/DX2                !
 ! A1    A(2,1,10)             112.7326         estimate D2E/DX2                !
 ! A2    A(2,1,11)             111.5216         estimate D2E/DX2                !
 ! A3    A(10,1,11)            109.5556         estimate D2E/DX2                !
 ! A4    A(1,2,3)              112.8967         estimate D2E/DX2                !
 ! A5    A(1,2,12)             108.215          estimate D2E/DX2                !
 ! A6    A(1,2,13)             108.7525         estimate D2E/DX2                !
 ! A7    A(3,2,12)             109.5542         estimate D2E/DX2                !
 ! A8    A(3,2,13)             109.9693         estimate D2E/DX2                !
 ! A9    A(12,2,13)            107.2821         estimate D2E/DX2                !
 ! A10   A(2,3,4)              111.587          estimate D2E/DX2                !
 ! A11   A(2,3,8)              108.9427         estimate D2E/DX2                !
 ! A12   A(2,3,14)             109.3679         estimate D2E/DX2                !
 ! A13   A(4,3,8)              110.5303         estimate D2E/DX2                !
 ! A14   A(4,3,14)             107.6946         estimate D2E/DX2                !
 ! A15   A(8,3,14)             108.6628         estimate D2E/DX2                !
 ! A16   A(3,4,5)              121.4329         estimate D2E/DX2                !
 ! A17   A(3,4,15)             117.1042         estimate D2E/DX2                !
 ! A18   A(5,4,15)             121.4322         estimate D2E/DX2                !
 ! A19   A(4,5,6)              114.8978         estimate D2E/DX2                !
 ! A20   A(5,6,7)              110.8767         estimate D2E/DX2                !
 ! A21   A(5,6,16)             119.3659         estimate D2E/DX2                !
 ! A22   A(7,6,16)             116.4204         estimate D2E/DX2                !
 ! A23   A(6,7,17)             108.6189         estimate D2E/DX2                !
 ! A24   A(6,7,18)             108.4595         estimate D2E/DX2                !
 ! A25   A(17,7,18)            104.4787         estimate D2E/DX2                !
 ! A26   A(3,8,9)              112.612          estimate D2E/DX2                !
 ! A27   A(3,8,19)             109.9694         estimate D2E/DX2                !
 ! A28   A(3,8,20)             110.3723         estimate D2E/DX2                !
 ! A29   A(9,8,19)             108.2371         estimate D2E/DX2                !
 ! A30   A(9,8,20)             108.4733         estimate D2E/DX2                !
 ! A31   A(19,8,20)            106.9905         estimate D2E/DX2                !
 ! A32   A(8,9,21)             109.8394         estimate D2E/DX2                !
 ! A33   A(8,9,22)             109.795          estimate D2E/DX2                !
 ! A34   A(21,9,22)            106.0086         estimate D2E/DX2                !
 ! D1    D(10,1,2,3)           177.5939         estimate D2E/DX2                !
 ! D2    D(10,1,2,12)           56.1625         estimate D2E/DX2                !
 ! D3    D(10,1,2,13)          -60.0692         estimate D2E/DX2                !
 ! D4    D(11,1,2,3)            53.8601         estimate D2E/DX2                !
 ! D5    D(11,1,2,12)          -67.5713         estimate D2E/DX2                !
 ! D6    D(11,1,2,13)          176.1971         estimate D2E/DX2                !
 ! D7    D(1,2,3,4)             61.2637         estimate D2E/DX2                !
 ! D8    D(1,2,3,8)           -176.4231         estimate D2E/DX2                !
 ! D9    D(1,2,3,14)           -57.7858         estimate D2E/DX2                !
 ! D10   D(12,2,3,4)          -178.0659         estimate D2E/DX2                !
 ! D11   D(12,2,3,8)           -55.7527         estimate D2E/DX2                !
 ! D12   D(12,2,3,14)           62.8846         estimate D2E/DX2                !
 ! D13   D(13,2,3,4)           -60.3888         estimate D2E/DX2                !
 ! D14   D(13,2,3,8)            61.9244         estimate D2E/DX2                !
 ! D15   D(13,2,3,14)         -179.4384         estimate D2E/DX2                !
 ! D16   D(2,3,4,5)            -66.157          estimate D2E/DX2                !
 ! D17   D(2,3,4,15)           115.8308         estimate D2E/DX2                !
 ! D18   D(8,3,4,5)            172.4465         estimate D2E/DX2                !
 ! D19   D(8,3,4,15)            -5.5657         estimate D2E/DX2                !
 ! D20   D(14,3,4,5)            53.8822         estimate D2E/DX2                !
 ! D21   D(14,3,4,15)         -124.13           estimate D2E/DX2                !
 ! D22   D(2,3,8,9)            177.5268         estimate D2E/DX2                !
 ! D23   D(2,3,8,19)            56.7269         estimate D2E/DX2                !
 ! D24   D(2,3,8,20)           -61.086          estimate D2E/DX2                !
 ! D25   D(4,3,8,9)            -59.5245         estimate D2E/DX2                !
 ! D26   D(4,3,8,19)           179.6756         estimate D2E/DX2                !
 ! D27   D(4,3,8,20)            61.8627         estimate D2E/DX2                !
 ! D28   D(14,3,8,9)            58.4485         estimate D2E/DX2                !
 ! D29   D(14,3,8,19)          -62.3513         estimate D2E/DX2                !
 ! D30   D(14,3,8,20)          179.8358         estimate D2E/DX2                !
 ! D31   D(3,4,5,6)           -175.1504         estimate D2E/DX2                !
 ! D32   D(15,4,5,6)             2.7757         estimate D2E/DX2                !
 ! D33   D(4,5,6,7)           -163.5182         estimate D2E/DX2                !
 ! D34   D(4,5,6,16)           -23.9623         estimate D2E/DX2                !
 ! D35   D(5,6,7,17)           -11.0336         estimate D2E/DX2                !
 ! D36   D(5,6,7,18)          -124.0255         estimate D2E/DX2                !
 ! D37   D(16,6,7,17)         -151.8885         estimate D2E/DX2                !
 ! D38   D(16,6,7,18)           95.1197         estimate D2E/DX2                !
 ! D39   D(3,8,9,21)           -61.6558         estimate D2E/DX2                !
 ! D40   D(3,8,9,22)          -177.8526         estimate D2E/DX2                !
 ! D41   D(19,8,9,21)           60.1311         estimate D2E/DX2                !
 ! D42   D(19,8,9,22)          -56.0657         estimate D2E/DX2                !
 ! D43   D(20,8,9,21)          175.8822         estimate D2E/DX2                !
 ! D44   D(20,8,9,22)           59.6854         estimate D2E/DX2                !
 --------------------------------------------------------------------------------
 Trust Radius=3.00D-01 FncErr=1.00D-07 GrdErr=1.00D-06 EigMax=2.50D+02 EigMin=1.00D-04
 Number of steps in this run=    109 maximum allowed number of steps=    132.
 GradGradGradGradGradGradGradGradGradGradGradGradGradGradGradGradGradGrad

                          Input orientation:                          
 ---------------------------------------------------------------------
 Center     Atomic      Atomic             Coordinates (Angstroms)
 Number     Number       Type             X           Y           Z
 ---------------------------------------------------------------------
      1          7           0        1.026860    0.049120    0.171970
      2          6           0        2.474030   -0.037000    0.066810
      3          6           0        2.953890   -1.384130   -0.501130
      4          6           0        2.425590   -1.618150   -1.913260
      5          7           0        1.151040   -1.782270   -2.145010
      6          7           0        0.844000   -2.077470   -3.407110
      7          7           0       -0.526130   -1.870120   -3.651510
      8          6           0        4.496250   -1.411830   -0.489010
      9          7           0        5.039310   -2.684520   -0.960840
     10          1           0        0.715200    0.921990    0.582380
     11          1           0        0.643960   -0.731400    0.700230
     12          1           0        2.899980    0.112600    1.066560
     13          1           0        2.830760    0.783930   -0.565180
     14          1           0        2.582620   -2.200210    0.133800
     15          1           0        3.169630   -1.676250   -2.724700
     16          1           0        1.487050   -1.806290   -4.157260
     17          1           0       -0.998420   -1.717990   -2.756250
     18          1           0       -0.926250   -2.739390   -4.006650
     19          1           0        4.866280   -1.236930    0.529330
     20          1           0        4.897420   -0.608300   -1.118120
     21          1           0        4.733250   -3.440550   -0.347170
     22          1           0        6.058070   -2.668820   -0.901560
 ---------------------------------------------------------------------
                    Distance matrix (angstroms):
                    1          2          3          4          5
     1  N    0.000000
     2  C    1.453539   0.000000
     3  C    2.494136   1.538694   0.000000
     4  C    3.014037   2.534375   1.525771   0.000000
     5  N    2.955978   3.112622   2.472069   1.305803   0.000000
     6  N    4.167210   4.346106   3.657469   2.223508   1.332033
     7  N    4.551292   5.117342   4.719282   3.434771   2.256138
     8  C    3.822033   2.507682   1.542656   2.521644   3.750999
     9  N    4.985559   3.827021   2.500265   2.979225   4.163527
    10  H    1.013642   2.068564   3.391742   3.950438   3.865441
    11  H    1.017292   2.057321   2.684232   3.284945   3.075199
    12  H    2.076752   1.096957   2.168123   3.478487   4.118678
    13  H    2.082640   1.095716   2.172498   2.784146   3.450030
    14  H    2.735202   2.166970   1.098619   2.133988   2.723430
    15  H    3.994879   3.311122   2.253029   1.102455   2.102852
    16  H    4.732500   4.684793   3.961960   2.439629   2.040252
    17  H    3.974784   4.780513   4.562651   3.527668   2.235604
    18  H    5.389925   5.954653   5.401934   4.107833   2.949053
    19  H    4.064822   2.715993   2.177327   3.473981   4.610043
    20  H    4.132526   2.757401   2.181719   2.786034   4.058087
    21  H    5.117092   4.106045   2.723727   3.331527   4.337551
    22  H    5.818311   4.550776   3.383298   3.914378   5.139171
                    6          7          8          9         10
     6  N    0.000000
     7  N    1.407118   0.000000
     8  C    4.722003   5.952792   0.000000
     9  N    4.894218   6.235148   1.461943   0.000000
    10  H    4.992933   5.221360   4.570660   5.838353   0.000000
    11  H    4.326911   4.647950   4.088694   5.088510   1.659115
    12  H    5.388616   6.158701   2.700326   4.063369   2.379665
    13  H    4.495708   5.276185   2.756995   4.130906   2.410715
    14  H    3.946633   4.909364   2.161346   2.732786   3.665599
    15  H    2.456668   3.815128   2.613073   2.761071   4.869482
    16  H    1.024586   2.076716   4.760981   4.858697   5.522993
    17  H    1.986795   1.023568   5.951933   6.372744   4.588294
    18  H    1.982769   1.020711   6.598463   6.698349   6.095839
    19  H    5.690413   6.852623   1.097510   2.084721   4.679232
    20  H    4.881409   6.117610   1.096530   2.086998   4.767017
    21  H    5.132980   6.406715   2.047436   1.020708   6.003378
    22  H    5.814981   7.179961   2.046828   1.020604   6.606228
                   11         12         13         14         15
    11  H    0.000000
    12  H    2.436424   0.000000
    13  H    2.946113   1.765800   0.000000
    14  H    2.497328   2.513931   3.074937   0.000000
    15  H    4.359116   4.200756   3.291025   2.964817   0.000000
    16  H    5.045929   5.741673   4.627941   4.446194   2.213643
    17  H    3.951965   5.758685   5.071786   4.626961   4.168378
    18  H    5.352785   6.965008   6.194564   5.454009   4.421526
    19  H    4.255908   2.444623   3.070044   2.509872   3.695989
    20  H    4.627469   3.046685   2.552475   3.075676   2.589763
    21  H    5.015858   4.240800   4.638235   2.528831   3.348180
    22  H    5.969247   4.645786   4.738160   3.656545   3.556982
                   16         17         18         19         20
    16  H    0.000000
    17  H    2.854503   0.000000
    18  H    2.591790   1.616158   0.000000
    19  H    5.805815   6.739522   7.509055   0.000000
    20  H    4.722518   6.218988   6.841073   1.763586   0.000000
    21  H    5.265492   6.451583   6.775940   2.375266   2.939890
    22  H    5.677831   7.357853   7.643775   2.349068   2.374816
                   21         22
    21  H    0.000000
    22  H    1.630357   0.000000
 Stoichiometry    C4H13N5
 Framework group  C1[X(C4H13N5)]
 Deg. of freedom    60
 Full point group                 C1      NOp   1
 Largest Abelian subgroup         C1      NOp   1
 Largest concise Abelian subgroup C1      NOp   1
                         Standard orientation:                         
 ---------------------------------------------------------------------
 Center     Atomic      Atomic             Coordinates (Angstroms)
 Number     Number       Type             X           Y           Z
 ---------------------------------------------------------------------
      1          7           0        0.008768    2.452820   -0.157931
      2          6           0       -1.117782    1.664734    0.313856
      3          6           0       -1.112261    0.226039   -0.231767
      4          6           0        0.134127   -0.536302    0.207926
      5          7           0        1.323727   -0.194102   -0.207854
      6          7           0        2.306872   -1.007516    0.174369
      7          7           0        3.560331   -0.388020    0.016104
      8          6           0       -2.386861   -0.497171    0.250053
      9          7           0       -2.492049   -1.858640   -0.272074
     10          1           0       -0.018165    3.411033    0.171576
     11          1           0        0.071594    2.443519   -1.173238
     12          1           0       -2.041978    2.170036    0.007516
     13          1           0       -1.102857    1.649536    1.409365
     14          1           0       -1.117167    0.252878   -1.330048
     15          1           0       -0.016388   -1.408863    0.864728
     16          1           0        2.185390   -1.582876    1.013404
     17          1           0        3.434282    0.470676   -0.526525
     18          1           0        4.141635   -0.981593   -0.576860
     19          1           0       -3.277032    0.061619   -0.065983
     20          1           0       -2.409110   -0.542437    1.345422
     21          1           0       -2.542162   -1.835870   -1.291296
     22          1           0       -3.364924   -2.283262    0.043232
 ---------------------------------------------------------------------
 Rotational constants (GHZ):           2.0517078           0.9129441           0.6591975
 Standard basis: 6-31G(2df,p) (6D, 7F)
 There are   344 symmetry adapted cartesian basis functions of A   symmetry.
 There are   317 symmetry adapted basis functions of A   symmetry.
   317 basis functions,   487 primitive gaussians,   344 cartesian basis functions
    36 alpha electrons       36 beta electrons
       nuclear repulsion energy       470.8722716662 Hartrees.
 NAtoms=   22 NActive=   22 NUniq=   22 SFac= 1.00D+00 NAtFMM=   60 NAOKFM=F Big=F
 Integral buffers will be    131072 words long.
 Raffenetti 2 integral format.
 Two-electron integral symmetry is turned on.
 One-electron integrals computed using PRISM.
 PrsmSu:  requested number of processors reduced to:  13 ShMem   1 Linda.
 NBasis=   317 RedAO= T EigKep=  2.59D-04  NBF=   317
 NBsUse=   317 1.00D-06 EigRej= -1.00D+00 NBFU=   317
 ExpMin= 1.61D-01 ExpMax= 4.17D+03 ExpMxC= 6.27D+02 IAcc=3 IRadAn=         5 AccDes= 0.00D+00
 Harris functional with IExCor=  402 and IRadAn=       5 diagonalized for initial guess.
 HarFok:  IExCor=  402 AccDes= 0.00D+00 IRadAn=         5 IDoV= 1 UseB2=F ITyADJ=14
 ICtDFT=  3500011 ScaDFX=  1.000000  1.000000  1.000000  1.000000
 FoFCou: FMM=F IPFlag=           0 FMFlag=      100000 FMFlg1=           0
         NFxFlg=           0 DoJE=T BraDBF=F KetDBF=T FulRan=T
         wScrn=  0.000000 ICntrl=       500 IOpCl=  0 I1Cent=   200000004 NGrid=           0
         NMat0=    1 NMatS0=      1 NMatT0=    0 NMatD0=    1 NMtDS0=    0 NMtDT0=    0
 Petite list used in FoFCou.
 Requested convergence on RMS density matrix=1.00D-08 within 128 cycles.
 Requested convergence on MAX density matrix=1.00D-06.
 Requested convergence on             energy=1.00D-06.
 No special actions if energy rises.
 Integral accuracy reduced to 1.0D-05 until final iterations.
 Initial convergence to 1.0D-05 achieved.  Increase integral accuracy.
 SCF Done:  E(RB3LYP) =  -433.929105869     A.U. after   14 cycles
            NFock= 14  Conv=0.47D-08     -V/T= 2.0077

 **********************************************************************

            Population analysis using the SCF density.

 **********************************************************************

 Orbital symmetries:
       Occupied  (A) (A) (A) (A) (A) (A) (A) (A) (A) (A) (A) (A)
                 (A) (A) (A) (A) (A) (A) (A) (A) (A) (A) (A) (A)
                 (A) (A) (A) (A) (A) (A) (A) (A) (A) (A) (A) (A)
       Virtual   (A) (A) (A) (A) (A) (A) (A) (A) (A) (A) (A) (A)
                 (A) (A) (A) (A) (A) (A) (A) (A) (A) (A) (A) (A)
                 (A) (A) (A) (A) (A) (A) (A) (A) (A) (A) (A) (A)
                 (A) (A) (A) (A) (A) (A) (A) (A) (A) (A) (A) (A)
                 (A) (A) (A) (A) (A) (A) (A) (A) (A) (A) (A) (A)
                 (A) (A) (A) (A) (A) (A) (A) (A) (A) (A) (A) (A)
                 (A) (A) (A) (A) (A) (A) (A) (A) (A) (A) (A) (A)
                 (A) (A) (A) (A) (A) (A) (A) (A) (A) (A) (A) (A)
                 (A) (A) (A) (A) (A) (A) (A) (A) (A) (A) (A) (A)
                 (A) (A) (A) (A) (A) (A) (A) (A) (A) (A) (A) (A)
                 (A) (A) (A) (A) (A) (A) (A) (A) (A) (A) (A) (A)
                 (A) (A) (A) (A) (A) (A) (A) (A) (A) (A) (A) (A)
                 (A) (A) (A) (A) (A) (A) (A) (A) (A) (A) (A) (A)
                 (A) (A) (A) (A) (A) (A) (A) (A) (A) (A) (A) (A)
                 (A) (A) (A) (A) (A) (A) (A) (A) (A) (A) (A) (A)
                 (A) (A) (A) (A) (A) (A) (A) (A) (A) (A) (A) (A)
                 (A) (A) (A) (A) (A) (A) (A) (A) (A) (A) (A) (A)
                 (A) (A) (A) (A) (A) (A) (A) (A) (A) (A) (A) (A)
                 (A) (A) (A) (A) (A) (A) (A) (A) (A) (A) (A) (A)
                 (A) (A) (A) (A) (A) (A) (A) (A) (A) (A) (A) (A)
                 (A) (A) (A) (A) (A) (A) (A) (A) (A) (A) (A) (A)
                 (A) (A) (A) (A) (A) (A) (A) (A) (A) (A) (A) (A)
                 (A) (A) (A) (A) (A) (A) (A) (A) (A) (A) (A) (A)
                 (A) (A) (A) (A) (A)
 The electronic state is 1-A.
 Alpha  occ. eigenvalues --  -14.36661 -14.34134 -14.32652 -14.30503 -14.29039
 Alpha  occ. eigenvalues --  -10.20271 -10.19659 -10.18612 -10.18536  -1.01639
 Alpha  occ. eigenvalues --   -0.88301  -0.86912  -0.86106  -0.76150  -0.70654
 Alpha  occ. eigenvalues --   -0.63266  -0.61678  -0.56731  -0.51113  -0.49383
 Alpha  occ. eigenvalues --   -0.47838  -0.45809  -0.45322  -0.44648  -0.43514
 Alpha  occ. eigenvalues --   -0.41699  -0.37971  -0.37653  -0.34496  -0.34132
 Alpha  occ. eigenvalues --   -0.33621  -0.27887  -0.26624  -0.22991  -0.20834
 Alpha  occ. eigenvalues --   -0.16774
 Alpha virt. eigenvalues --    0.01937   0.08124   0.09515   0.10269   0.11383
 Alpha virt. eigenvalues --    0.11727   0.13351   0.15323   0.16042   0.16829
 Alpha virt. eigenvalues --    0.17400   0.18976   0.19167   0.20169   0.21887
 Alpha virt. eigenvalues --    0.22649   0.25938   0.26451   0.28647   0.29573
 Alpha virt. eigenvalues --    0.30667   0.38248   0.47286   0.49063   0.49836
 Alpha virt. eigenvalues --    0.51546   0.52124   0.52773   0.54724   0.55198
 Alpha virt. eigenvalues --    0.57228   0.58045   0.59161   0.60682   0.61310
 Alpha virt. eigenvalues --    0.62657   0.62897   0.64760   0.66853   0.67811
 Alpha virt. eigenvalues --    0.69910   0.70894   0.71991   0.72588   0.72660
 Alpha virt. eigenvalues --    0.75522   0.76334   0.76928   0.77946   0.78795
 Alpha virt. eigenvalues --    0.79259   0.79881   0.80947   0.81470   0.82717
 Alpha virt. eigenvalues --    0.82854   0.83870   0.85325   0.85908   0.85963
 Alpha virt. eigenvalues --    0.86826   0.89470   0.91605   0.92179   0.94929
 Alpha virt. eigenvalues --    0.96201   0.98959   1.01168   1.03354   1.07821
 Alpha virt. eigenvalues --    1.11095   1.12174   1.13281   1.16776   1.20954
 Alpha virt. eigenvalues --    1.24060   1.24716   1.27806   1.31680   1.32259
 Alpha virt. eigenvalues --    1.35208   1.36474   1.37789   1.39791   1.42408
 Alpha virt. eigenvalues --    1.43582   1.50578   1.50990   1.52279   1.53666
 Alpha virt. eigenvalues --    1.57245   1.57479   1.59433   1.62668   1.64725
 Alpha virt. eigenvalues --    1.64940   1.67815   1.70627   1.71951   1.73917
 Alpha virt. eigenvalues --    1.75796   1.79773   1.82694   1.83069   1.84993
 Alpha virt. eigenvalues --    1.86795   1.88337   1.89692   1.95702   1.96294
 Alpha virt. eigenvalues --    1.98479   2.03661   2.05053   2.07683   2.18273
 Alpha virt. eigenvalues --    2.20466   2.21618   2.21969   2.24588   2.27692
 Alpha virt. eigenvalues --    2.29356   2.32314   2.34929   2.37069   2.43888
 Alpha virt. eigenvalues --    2.45718   2.49723   2.52064   2.53668   2.56095
 Alpha virt. eigenvalues --    2.58349   2.62341   2.63329   2.67566   2.69810
 Alpha virt. eigenvalues --    2.75298   2.77017   2.77478   2.80322   2.80724
 Alpha virt. eigenvalues --    2.81877   2.83773   2.84486   2.86584   2.89862
 Alpha virt. eigenvalues --    2.89997   2.92699   2.94724   2.95763   2.97954
 Alpha virt. eigenvalues --    2.98663   3.00846   3.03193   3.04604   3.05414
 Alpha virt. eigenvalues --    3.08604   3.10209   3.13197   3.14592   3.22973
 Alpha virt. eigenvalues --    3.23788   3.27215   3.28447   3.31837   3.31957
 Alpha virt. eigenvalues --    3.35169   3.37117   3.41564   3.43200   3.44741
 Alpha virt. eigenvalues --    3.45497   3.48181   3.51043   3.54234   3.57414
 Alpha virt. eigenvalues --    3.60350   3.62565   3.66501   3.70446   3.70748
 Alpha virt. eigenvalues --    3.73508   3.76337   3.78566   3.81921   3.84431
 Alpha virt. eigenvalues --    3.85982   3.88226   3.90613   3.94356   3.96504
 Alpha virt. eigenvalues --    4.02476   4.03887   4.06357   4.08759   4.12172
 Alpha virt. eigenvalues --    4.15262   4.16075   4.18771   4.21159   4.22714
 Alpha virt. eigenvalues --    4.23534   4.24803   4.27478   4.28798   4.32391
 Alpha virt. eigenvalues --    4.32993   4.34558   4.35713   4.36129   4.38086
 Alpha virt. eigenvalues --    4.38980   4.41079   4.41859   4.44228   4.47451
 Alpha virt. eigenvalues --    4.48474   4.50107   4.51113   4.51519   4.53825
 Alpha virt. eigenvalues --    4.56400   4.58153   4.59797   4.60563   4.60575
 Alpha virt. eigenvalues --    4.64403   4.66274   4.67193   4.68093   4.68620
 Alpha virt. eigenvalues --    4.70822   4.72577   4.73240   4.75531   4.77158
 Alpha virt. eigenvalues --    4.78527   4.80745   4.81749   4.84243   4.85181
 Alpha virt. eigenvalues --    4.88020   4.90404   4.92906   4.93911   4.94801
 Alpha virt. eigenvalues --    4.95244   4.99199   5.00760   5.03354   5.08844
 Alpha virt. eigenvalues --    5.13384   5.16605   5.20491   5.23536   5.28326
 Alpha virt. eigenvalues --    5.30625   5.32572   5.33453   5.41460   5.49848
 Alpha virt. eigenvalues --    5.54028   5.55399   5.67593   5.69200   5.74316
 Alpha virt. eigenvalues --    5.81661   6.01669   6.56988   9.25543  10.03689
 Alpha virt. eigenvalues --   10.59242  11.05669  11.30233  11.44142  11.44621
 Alpha virt. eigenvalues --   11.45588  11.55753  12.11641  12.44242  13.03291
 Alpha virt. eigenvalues --   15.79803
          Condensed to atoms (all electrons):
               1          2          3          4          5          6
     1  N    6.527351   0.401983  -0.030780   0.000389  -0.001888   0.000317
     2  C    0.401983   4.846483   0.389537  -0.031036  -0.004623   0.000353
     3  C   -0.030780   0.389537   4.810988   0.367714  -0.008935   0.004280
     4  C    0.000389  -0.031036   0.367714   4.824562   0.626190  -0.112995
     5  N   -0.001888  -0.004623  -0.008935   0.626190   6.334348   0.355509
     6  N    0.000317   0.000353   0.004280  -0.112995   0.355509   6.432059
     7  N   -0.000034   0.000009  -0.000101   0.005241  -0.094870   0.308267
     8  C    0.001974  -0.038572   0.378374  -0.017961  -0.000008  -0.000141
     9  N   -0.000020   0.002129  -0.033959   0.000444  -0.000139  -0.000011
    10  H    0.340356  -0.043735   0.004555   0.000275   0.000115  -0.000005
    11  H    0.341832  -0.053394  -0.002916  -0.000847   0.001913  -0.000096
    12  H   -0.052624   0.366073  -0.042608   0.005621   0.000078   0.000001
    13  H   -0.024785   0.342805  -0.013736  -0.003890   0.000223  -0.000121
    14  H   -0.003688  -0.046287   0.351765  -0.037365  -0.005994  -0.000231
    15  H   -0.000030   0.002078  -0.066313   0.369871  -0.057891  -0.011276
    16  H   -0.000032   0.000000  -0.000650  -0.000749  -0.052682   0.330795
    17  H    0.000284  -0.000012  -0.000106   0.001354   0.014043  -0.038450
    18  H   -0.000001   0.000000   0.000006  -0.000411   0.002644  -0.061004
    19  H   -0.000013  -0.000490  -0.038211   0.004883  -0.000071   0.000001
    20  H   -0.000013  -0.007129  -0.015060  -0.007799   0.000086  -0.000013
    21  H    0.000000  -0.000162  -0.001403  -0.001256   0.000013   0.000000
    22  H    0.000001  -0.000228   0.004447   0.000231   0.000002   0.000000
               7          8          9         10         11         12
     1  N   -0.000034   0.001974  -0.000020   0.340356   0.341832  -0.052624
     2  C    0.000009  -0.038572   0.002129  -0.043735  -0.053394   0.366073
     3  C   -0.000101   0.378374  -0.033959   0.004555  -0.002916  -0.042608
     4  C    0.005241  -0.017961   0.000444   0.000275  -0.000847   0.005621
     5  N   -0.094870  -0.000008  -0.000139   0.000115   0.001913   0.000078
     6  N    0.308267  -0.000141  -0.000011  -0.000005  -0.000096   0.000001
     7  N    6.590415  -0.000000  -0.000000  -0.000000  -0.000011  -0.000000
     8  C   -0.000000   4.881741   0.377773  -0.000236  -0.000127  -0.001329
     9  N   -0.000000   0.377773   6.555317   0.000000  -0.000000   0.000037
    10  H   -0.000000  -0.000236   0.000000   0.513619  -0.030016  -0.005118
    11  H   -0.000011  -0.000127  -0.000000  -0.030016   0.514831  -0.004082
    12  H   -0.000000  -0.001329   0.000037  -0.005118  -0.004082   0.717022
    13  H   -0.000000  -0.007323  -0.000020  -0.001068   0.006879  -0.051840
    14  H   -0.000022  -0.043444  -0.003052   0.000092   0.006702  -0.005742
    15  H    0.000144  -0.003717   0.007578   0.000015   0.000045  -0.000223
    16  H   -0.037479   0.000023  -0.000019   0.000001   0.000004  -0.000002
    17  H    0.337478   0.000001  -0.000000  -0.000000   0.000044   0.000000
    18  H    0.337889  -0.000000   0.000000   0.000000  -0.000000  -0.000000
    19  H   -0.000000   0.375480  -0.046578   0.000001   0.000001   0.007232
    20  H   -0.000000   0.350384  -0.024750   0.000005   0.000020  -0.000490
    21  H    0.000000  -0.052958   0.341050  -0.000000  -0.000001   0.000003
    22  H    0.000000  -0.044065   0.339880  -0.000000  -0.000000  -0.000001
              13         14         15         16         17         18
     1  N   -0.024785  -0.003688  -0.000030  -0.000032   0.000284  -0.000001
     2  C    0.342805  -0.046287   0.002078   0.000000  -0.000012   0.000000
     3  C   -0.013736   0.351765  -0.066313  -0.000650  -0.000106   0.000006
     4  C   -0.003890  -0.037365   0.369871  -0.000749   0.001354  -0.000411
     5  N    0.000223  -0.005994  -0.057891  -0.052682   0.014043   0.002644
     6  N   -0.000121  -0.000231  -0.011276   0.330795  -0.038450  -0.061004
     7  N   -0.000000  -0.000022   0.000144  -0.037479   0.337478   0.337889
     8  C   -0.007323  -0.043444  -0.003717   0.000023   0.000001  -0.000000
     9  N   -0.000020  -0.003052   0.007578  -0.000019  -0.000000   0.000000
    10  H   -0.001068   0.000092   0.000015   0.000001  -0.000000   0.000000
    11  H    0.006879   0.006702   0.000045   0.000004   0.000044  -0.000000
    12  H   -0.051840  -0.005742  -0.000223  -0.000002   0.000000  -0.000000
    13  H    0.643002   0.006955   0.000928   0.000001   0.000002  -0.000000
    14  H    0.006955   0.692486   0.005904   0.000008   0.000017  -0.000002
    15  H    0.000928   0.005904   0.654052   0.016565   0.000186   0.000027
    16  H    0.000001   0.000008   0.016565   0.496101   0.005360   0.004772
    17  H    0.000002   0.000017   0.000186   0.005360   0.464687  -0.034949
    18  H   -0.000000  -0.000002   0.000027   0.004772  -0.034949   0.518761
    19  H   -0.000521  -0.005192   0.000271  -0.000000  -0.000000   0.000000
    20  H    0.005383   0.006568   0.002700  -0.000003   0.000000  -0.000000
    21  H    0.000015   0.005422  -0.000165   0.000000   0.000000   0.000000
    22  H    0.000002  -0.000071  -0.000301   0.000000   0.000000   0.000000
              19         20         21         22
     1  N   -0.000013  -0.000013   0.000000   0.000001
     2  C   -0.000490  -0.007129  -0.000162  -0.000228
     3  C   -0.038211  -0.015060  -0.001403   0.004447
     4  C    0.004883  -0.007799  -0.001256   0.000231
     5  N   -0.000071   0.000086   0.000013   0.000002
     6  N    0.000001  -0.000013   0.000000   0.000000
     7  N   -0.000000  -0.000000   0.000000   0.000000
     8  C    0.375480   0.350384  -0.052958  -0.044065
     9  N   -0.046578  -0.024750   0.341050   0.339880
    10  H    0.000001   0.000005  -0.000000  -0.000000
    11  H    0.000001   0.000020  -0.000001  -0.000000
    12  H    0.007232  -0.000490   0.000003  -0.000001
    13  H   -0.000521   0.005383   0.000015   0.000002
    14  H   -0.005192   0.006568   0.005422  -0.000071
    15  H    0.000271   0.002700  -0.000165  -0.000301
    16  H   -0.000000  -0.000003   0.000000   0.000000
    17  H   -0.000000   0.000000   0.000000   0.000000
    18  H    0.000000  -0.000000   0.000000   0.000000
    19  H    0.683132  -0.048990  -0.005277  -0.004428
    20  H   -0.048990   0.632189   0.006708  -0.002645
    21  H   -0.005277   0.006708   0.517113  -0.031964
    22  H   -0.004428  -0.002645  -0.031964   0.514652
 Mulliken charges:
               1
     1  N   -0.500580
     2  C   -0.125784
     3  C   -0.056885
     4  C    0.007535
     5  N   -0.108064
     6  N   -0.207239
     7  N   -0.446924
     8  C   -0.155871
     9  N   -0.515661
    10  H    0.221143
    11  H    0.219218
    12  H    0.067992
    13  H    0.097111
    14  H    0.075170
    15  H    0.079552
    16  H    0.237987
    17  H    0.250062
    18  H    0.232269
    19  H    0.078771
    20  H    0.102849
    21  H    0.222861
    22  H    0.224490
 Sum of Mulliken charges =  -0.00000
 Mulliken charges with hydrogens summed into heavy atoms:
               1
     1  N   -0.060220
     2  C    0.039318
     3  C    0.018284
     4  C    0.087087
     5  N   -0.108064
     6  N    0.030748
     7  N    0.035407
     8  C    0.025749
     9  N   -0.068310
 Electronic spatial extent (au):  <R**2>=           1735.2194
 Charge=             -0.0000 electrons
 Dipole moment (field-independent basis, Debye):
    X=             -2.0351    Y=              0.2015    Z=             -0.8220  Tot=              2.2041
 Quadrupole moment (field-independent basis, Debye-Ang):
   XX=            -49.6854   YY=            -51.7401   ZZ=            -52.1837
   XY=             -1.2547   XZ=             -2.3609   YZ=             -2.1849
 Traceless Quadrupole moment (field-independent basis, Debye-Ang):
   XX=              1.5177   YY=             -0.5370   ZZ=             -0.9806
   XY=             -1.2547   XZ=             -2.3609   YZ=             -2.1849
 Octapole moment (field-independent basis, Debye-Ang**2):
  XXX=             -7.3312  YYY=             20.6212  ZZZ=             -4.2223  XYY=              4.2384
  XXY=            -21.5478  XXZ=            -22.6774  XZZ=             -0.0359  YZZ=             -1.9756
  YYZ=             -0.3261  XYZ=             -5.8984
 Hexadecapole moment (field-independent basis, Debye-Ang**3):
 XXXX=          -1330.7274 YYYY=           -585.7902 ZZZZ=           -103.5035 XXXY=             35.9568
 XXXZ=            -84.4240 YYYX=             -1.1412 YYYZ=             -4.6235 ZZZX=              5.8005
 ZZZY=             -2.8629 XXYY=           -305.4265 XXZZ=           -245.2994 YYZZ=           -111.8185
 XXYZ=              1.1288 YYXZ=              6.9150 ZZXY=              4.3413
 N-N= 4.708722716662D+02 E-N=-1.952768713881D+03  KE= 4.306189057683D+02
 PrsmSu:  requested number of processors reduced to:  13 ShMem   1 Linda.
 Calling FoFJK, ICntrl=      2127 FMM=F ISym2X=0 I1Cent= 0 IOpClX= 0 NMat=1 NMatS=1 NMatT=0.
 ***** Axes restored to original set *****
 -------------------------------------------------------------------
 Center     Atomic                   Forces (Hartrees/Bohr)
 Number     Number              X              Y              Z
 -------------------------------------------------------------------
      1        7          -0.010580085   -0.003190177   -0.009986530
      2        6          -0.007059677    0.001971893    0.013938552
      3        6           0.000928725    0.003745543   -0.015383324
      4        6          -0.016515831    0.000852185    0.009518403
      5        7           0.056256902   -0.002947656    0.008801043
      6        7          -0.010629334   -0.015327110    0.002541388
      7        7          -0.024163695    0.004350887   -0.022381038
      8        6           0.002631837   -0.006685965    0.009096484
      9        7           0.000923671   -0.008050496   -0.007942344
     10        1           0.002714103   -0.002284093    0.002301469
     11        1           0.001703432    0.004846310   -0.000069477
     12        1           0.012585233   -0.001040811    0.001290609
     13        1           0.000192139   -0.000345326   -0.001893108
     14        1           0.000077690    0.001227459    0.003481287
     15        1          -0.003973238    0.000562504    0.003188004
     16        1          -0.009505329    0.007799733    0.004794652
     17        1           0.011903665    0.003017646   -0.002959264
     18        1           0.002927906   -0.001426802    0.001453181
     19        1          -0.005041011    0.009451962    0.004103891
     20        1          -0.001643699   -0.000015142   -0.001533176
     21        1           0.000975119    0.003342357   -0.001988274
     22        1          -0.004708523    0.000145097   -0.000372426
 -------------------------------------------------------------------
 Cartesian Forces:  Max     0.056256902 RMS     0.010171442

 GradGradGradGradGradGradGradGradGradGradGradGradGradGradGradGradGradGrad
 Berny optimization.
 FormGI is forming the generalized inverse of G from B-inverse, IUseBI=4.
 Internal  Forces:  Max     0.029158272 RMS     0.006904981
 Search for a local minimum.
 Step number   1 out of a maximum of  109
 All quantities printed in internal units (Hartrees-Bohrs-Radians)
 Mixed Optimization -- RFO/linear search
 Second derivative matrix not updated -- first step.
 ITU=  0
     Eigenvalues ---    0.00230   0.00254   0.00425   0.00872   0.00984
     Eigenvalues ---    0.01097   0.01201   0.02194   0.02938   0.03197
     Eigenvalues ---    0.03790   0.04026   0.04102   0.04133   0.04472
     Eigenvalues ---    0.04738   0.05320   0.05385   0.05520   0.06335
     Eigenvalues ---    0.09505   0.09550   0.12864   0.12901   0.14367
     Eigenvalues ---    0.15996   0.16000   0.16000   0.16000   0.16000
     Eigenvalues ---    0.16000   0.16000   0.16250   0.17974   0.21951
     Eigenvalues ---    0.21972   0.22001   0.22563   0.25000   0.28285
     Eigenvalues ---    0.28635   0.29817   0.33412   0.33835   0.33959
     Eigenvalues ---    0.34021   0.34069   0.34160   0.36722   0.37785
     Eigenvalues ---    0.43614   0.43774   0.44225   0.44225   0.44242
     Eigenvalues ---    0.44461   0.44773   0.45368   0.59028   0.65607
 RFO step:  Lambda=-2.12835286D-02 EMin= 2.30000000D-03
 Linear search not attempted -- first point.
 Iteration  1 RMS(Cart)=  0.05722314 RMS(Int)=  0.00253115
 Iteration  2 RMS(Cart)=  0.00460776 RMS(Int)=  0.00039994
 Iteration  3 RMS(Cart)=  0.00002871 RMS(Int)=  0.00039974
 Iteration  4 RMS(Cart)=  0.00000001 RMS(Int)=  0.00039974
 Variable       Old X    -DE/DX   Delta X   Delta X   Delta X     New X
                                 (Linear)    (Quad)   (Total)
    R1        2.74679   0.00554   0.00000   0.01387   0.01387   2.76066
    R2        1.91551  -0.00187   0.00000  -0.00394  -0.00394   1.91157
    R3        1.92240  -0.00440   0.00000  -0.00937  -0.00937   1.91303
    R4        2.90771   0.00216   0.00000   0.00703   0.00703   2.91474
    R5        2.07295   0.00592   0.00000   0.01638   0.01638   2.08933
    R6        2.07060   0.00090   0.00000   0.00247   0.00247   2.07307
    R7        2.88329  -0.00629   0.00000  -0.01969  -0.01969   2.86360
    R8        2.91520  -0.00682   0.00000  -0.02242  -0.02242   2.89278
    R9        2.07609   0.00107   0.00000   0.00299   0.00299   2.07908
   R10        2.46761  -0.02420   0.00000  -0.03573  -0.03573   2.43188
   R11        2.08334  -0.00506   0.00000  -0.01423  -0.01423   2.06911
   R12        2.51718   0.02283   0.00000   0.03732   0.03732   2.55450
   R13        2.65907   0.01411   0.00000   0.03029   0.03029   2.68936
   R14        1.93619  -0.00741   0.00000  -0.01620  -0.01620   1.91998
   R15        1.93426  -0.00763   0.00000  -0.01663  -0.01663   1.91764
   R16        1.92886  -0.00044   0.00000  -0.00095  -0.00095   1.92792
   R17        2.76267   0.00625   0.00000   0.01610   0.01610   2.77877
   R18        2.07399   0.00361   0.00000   0.01002   0.01002   2.08401
   R19        2.07214   0.00027   0.00000   0.00074   0.00074   2.07288
   R20        1.92886  -0.00396   0.00000  -0.00855  -0.00855   1.92031
   R21        1.92866  -0.00472   0.00000  -0.01018  -0.01018   1.91848
    A1        1.96756  -0.00419   0.00000  -0.03291  -0.03341   1.93414
    A2        1.94642   0.00026   0.00000  -0.00851  -0.00900   1.93742
    A3        1.91211  -0.00026   0.00000  -0.01855  -0.01948   1.89262
    A4        1.97042   0.00049   0.00000   0.00578   0.00563   1.97605
    A5        1.88871   0.00853   0.00000   0.08069   0.08096   1.96967
    A6        1.89809  -0.00148   0.00000  -0.01342  -0.01344   1.88465
    A7        1.91208  -0.00645   0.00000  -0.03824  -0.03927   1.87281
    A8        1.91933  -0.00071   0.00000  -0.02261  -0.02307   1.89625
    A9        1.87243  -0.00025   0.00000  -0.01142  -0.01250   1.85993
   A10        1.94756   0.00688   0.00000   0.04658   0.04660   1.99416
   A11        1.90141  -0.00097   0.00000  -0.00499  -0.00497   1.89644
   A12        1.90883  -0.00273   0.00000  -0.02021  -0.02072   1.88811
   A13        1.92912  -0.00460   0.00000  -0.02013  -0.02019   1.90892
   A14        1.87963   0.00065   0.00000   0.01302   0.01289   1.89252
   A15        1.89652   0.00066   0.00000  -0.01582  -0.01602   1.88050
   A16        2.11940   0.00221   0.00000   0.00910   0.00908   2.12849
   A17        2.04385  -0.00031   0.00000  -0.00028  -0.00030   2.04356
   A18        2.11939  -0.00191   0.00000  -0.00911  -0.00912   2.11027
   A19        2.00534   0.02916   0.00000   0.10748   0.10748   2.11283
   A20        1.93516   0.02659   0.00000   0.09438   0.09418   2.02934
   A21        2.08333  -0.00820   0.00000  -0.04990  -0.05020   2.03313
   A22        2.03192  -0.01893   0.00000  -0.11185  -0.11207   1.91985
   A23        1.89576  -0.01403   0.00000  -0.08021  -0.08080   1.81496
   A24        1.89298  -0.00374   0.00000  -0.02350  -0.02403   1.86894
   A25        1.82350   0.00625   0.00000   0.02792   0.02639   1.84989
   A26        1.96545  -0.00677   0.00000  -0.02690  -0.02723   1.93822
   A27        1.91933  -0.00416   0.00000  -0.02504  -0.02502   1.89430
   A28        1.92636   0.00072   0.00000  -0.02244  -0.02336   1.90300
   A29        1.88909   0.01116   0.00000   0.09504   0.09517   1.98426
   A30        1.89322   0.00040   0.00000  -0.01293  -0.01407   1.87914
   A31        1.86734  -0.00083   0.00000  -0.00440  -0.00526   1.86208
   A32        1.91706  -0.00097   0.00000  -0.00578  -0.00578   1.91128
   A33        1.91628  -0.00014   0.00000  -0.00121  -0.00121   1.91507
   A34        1.85020   0.00038   0.00000   0.00118   0.00117   1.85137
    D1        3.09960  -0.00187   0.00000  -0.01694  -0.01629   3.08331
    D2        0.98022   0.00001   0.00000  -0.02856  -0.02872   0.95150
    D3       -1.04840  -0.00351   0.00000  -0.05150  -0.05125  -1.09966
    D4        0.94004   0.00143   0.00000   0.03890   0.03906   0.97909
    D5       -1.17934   0.00332   0.00000   0.02727   0.02663  -1.15271
    D6        3.07522  -0.00021   0.00000   0.00434   0.00409   3.07931
    D7        1.06925  -0.00074   0.00000  -0.00891  -0.00884   1.06041
    D8       -3.07916  -0.00269   0.00000  -0.00711  -0.00691  -3.08607
    D9       -1.00855  -0.00405   0.00000  -0.04096  -0.04054  -1.04909
   D10       -3.10784   0.00591   0.00000   0.07075   0.07005  -3.03779
   D11       -0.97307   0.00396   0.00000   0.07255   0.07199  -0.90108
   D12        1.09754   0.00260   0.00000   0.03870   0.03835   1.13590
   D13       -1.05398   0.00133   0.00000   0.02065   0.02079  -1.03319
   D14        1.08078  -0.00061   0.00000   0.02245   0.02272   1.10351
   D15       -3.13179  -0.00197   0.00000  -0.01140  -0.01091   3.14049
   D16       -1.15466  -0.00165   0.00000  -0.05142  -0.05175  -1.20641
   D17        2.02163  -0.00133   0.00000  -0.04174  -0.04205   1.97957
   D18        3.00976  -0.00191   0.00000  -0.06283  -0.06286   2.94690
   D19       -0.09714  -0.00160   0.00000  -0.05315  -0.05316  -0.15030
   D20        0.94042  -0.00049   0.00000  -0.04011  -0.03977   0.90065
   D21       -2.16648  -0.00017   0.00000  -0.03042  -0.03008  -2.19656
   D22        3.09843   0.00070   0.00000   0.02133   0.02109   3.11952
   D23        0.99007  -0.00606   0.00000  -0.06416  -0.06392   0.92615
   D24       -1.06615  -0.00293   0.00000  -0.02984  -0.02973  -1.09588
   D25       -1.03890   0.00566   0.00000   0.06316   0.06276  -0.97614
   D26        3.13593  -0.00110   0.00000  -0.02234  -0.02225   3.11368
   D27        1.07971   0.00202   0.00000   0.01199   0.01194   1.09165
   D28        1.02012   0.00417   0.00000   0.05774   0.05755   1.07767
   D29       -1.08824  -0.00259   0.00000  -0.02775  -0.02746  -1.11570
   D30        3.13873   0.00053   0.00000   0.00657   0.00673  -3.13773
   D31       -3.05695  -0.00190   0.00000  -0.03546  -0.03548  -3.09243
   D32        0.04845  -0.00219   0.00000  -0.04536  -0.04534   0.00310
   D33       -2.85393   0.00651   0.00000   0.12935   0.12934  -2.72459
   D34       -0.41822  -0.00086   0.00000   0.00154   0.00156  -0.41666
   D35       -0.19257   0.00048   0.00000   0.02697   0.02775  -0.16482
   D36       -2.16465   0.00216   0.00000   0.04678   0.04618  -2.11847
   D37       -2.65095   0.00362   0.00000   0.12664   0.12724  -2.52372
   D38        1.66015   0.00529   0.00000   0.14645   0.14567   1.80582
   D39       -1.07610  -0.00064   0.00000  -0.02824  -0.02807  -1.10417
   D40       -3.10411  -0.00046   0.00000  -0.02562  -0.02546  -3.12957
   D41        1.04949  -0.00251   0.00000  -0.01122  -0.01141   1.03808
   D42       -0.97853  -0.00234   0.00000  -0.00860  -0.00879  -0.98732
   D43        3.06972   0.00264   0.00000   0.02714   0.02717   3.09689
   D44        1.04171   0.00281   0.00000   0.02976   0.02978   1.07149
         Item               Value     Threshold  Converged?
 Maximum Force            0.029158     0.000450     NO 
 RMS     Force            0.006905     0.000300     NO 
 Maximum Displacement     0.167589     0.001800     NO 
 RMS     Displacement     0.057017     0.001200     NO 
 Predicted change in Energy=-1.259239D-02
 GradGradGradGradGradGradGradGradGradGradGradGradGradGradGradGradGradGrad

                          Input orientation:                          
 ---------------------------------------------------------------------
 Center     Atomic      Atomic             Coordinates (Angstroms)
 Number     Number       Type             X           Y           Z
 ---------------------------------------------------------------------
      1          7           0        1.021728    0.074137    0.195966
      2          6           0        2.475997   -0.030021    0.104175
      3          6           0        2.953292   -1.370721   -0.490596
      4          6           0        2.468885   -1.633133   -1.902254
      5          7           0        1.231663   -1.870954   -2.164586
      6          7           0        0.828229   -2.158265   -3.422367
      7          7           0       -0.537116   -1.891509   -3.722398
      8          6           0        4.483578   -1.400676   -0.465042
      9          7           0        4.995902   -2.673145   -0.994765
     10          1           0        0.750735    0.941839    0.639710
     11          1           0        0.636019   -0.693485    0.731503
     12          1           0        2.977881    0.093400    1.081562
     13          1           0        2.834172    0.785257   -0.536520
     14          1           0        2.591145   -2.182292    0.157973
     15          1           0        3.225787   -1.654886   -2.693131
     16          1           0        1.421487   -1.823471   -4.176183
     17          1           0       -0.948693   -1.674918   -2.820483
     18          1           0       -0.956687   -2.773092   -4.018374
     19          1           0        4.821455   -1.179843    0.561243
     20          1           0        4.867845   -0.595564   -1.103294
     21          1           0        4.690636   -3.436719   -0.397775
     22          1           0        6.010451   -2.675918   -0.958043
 ---------------------------------------------------------------------
                    Distance matrix (angstroms):
                    1          2          3          4          5
     1  N    0.000000
     2  C    1.460881   0.000000
     3  C    2.507972   1.542413   0.000000
     4  C    3.067828   2.568225   1.515351   0.000000
     5  N    3.065886   3.175638   2.452851   1.286894   0.000000
     6  N    4.255984   4.436334   3.705590   2.297446   1.351784
     7  N    4.652670   5.214082   4.785260   3.523596   2.357071
     8  C    3.820525   2.496615   1.530793   2.485679   3.699264
     9  N    4.975887   3.813619   2.474419   2.879405   4.022621
    10  H    1.011559   2.051301   3.387740   4.005510   4.000896
    11  H    1.012332   2.054079   2.705906   3.343504   3.182539
    12  H    2.147367   1.105624   2.148473   3.484703   4.176774
    13  H    2.080187   1.097022   2.159754   2.801299   3.503440
    14  H    2.748816   2.156020   1.100199   2.135664   2.709133
    15  H    4.024212   3.320737   2.237446   1.094924   2.074265
    16  H    4.782929   4.759193   4.016834   2.510781   2.021092
    17  H    4.005087   4.794561   4.554821   3.539030   2.285298
    18  H    5.457243   6.025211   5.449752   4.184736   3.006536
    19  H    4.017937   2.651825   2.152402   3.436405   4.560086
    20  H    4.114510   2.738387   2.154480   2.733111   3.996846
    21  H    5.112683   4.094163   2.700987   3.233041   4.187807
    22  H    5.812220   4.541084   3.356825   3.810725   4.994049
                    6          7          8          9         10
     6  N    0.000000
     7  N    1.423146   0.000000
     8  C    4.762487   6.004885   0.000000
     9  N    4.850551   6.218137   1.470462   0.000000
    10  H    5.110491   5.358582   4.543344   5.810426   0.000000
    11  H    4.408760   4.759069   4.090910   5.089954   1.641911
    12  H    5.475069   6.274799   2.625142   4.004661   2.423894
    13  H    4.584348   5.355416   2.739334   4.104096   2.397654
    14  H    3.990900   4.992780   2.140180   2.711567   3.657783
    15  H    2.556063   3.908301   2.571194   2.656051   4.896600
    16  H    1.016012   2.011636   4.829877   4.860021   5.593717
    17  H    1.937354   1.014769   5.927299   6.298247   4.659229
    18  H    1.979687   1.020210   6.641248   6.677238   6.197882
    19  H    5.724711   6.897125   1.102810   2.163688   4.591128
    20  H    4.913108   6.144330   1.096920   2.084351   4.727819
    21  H    5.069594   6.385153   2.047649   1.016184   5.980883
    22  H    5.761622   7.150357   2.049545   1.015218   6.580699
                   11         12         13         14         15
    11  H    0.000000
    12  H    2.495205   0.000000
    13  H    2.937079   1.765646   0.000000
    14  H    2.523490   2.486233   3.057405   0.000000
    15  H    4.399921   4.167286   3.280036   2.968117   0.000000
    16  H    5.096981   5.808669   4.695560   4.503527   2.341657
    17  H    4.011375   5.811273   5.057570   4.653932   4.176470
    18  H    5.424280   7.050315   6.257457   5.511627   4.527664
    19  H    4.217037   2.300140   3.002665   2.478268   3.655513
    20  H    4.613504   2.969888   2.522643   3.048256   2.519147
    21  H    5.023994   4.193293   4.614194   2.508048   3.254131
    22  H    5.972364   4.585367   4.716584   3.630539   3.436189
                   16         17         18         19         20
    16  H    0.000000
    17  H    2.734547   0.000000
    18  H    2.565618   1.625113   0.000000
    19  H    5.866621   6.706399   7.543094   0.000000
    20  H    4.777843   6.160022   6.867641   1.764715   0.000000
    21  H    5.250358   6.385569   6.741023   2.455671   2.932801
    22  H    5.669363   7.273265   7.610262   2.441349   2.377923
                   21         22
    21  H    0.000000
    22  H    1.623155   0.000000
 Stoichiometry    C4H13N5
 Framework group  C1[X(C4H13N5)]
 Deg. of freedom    60
 Full point group                 C1      NOp   1
 Largest Abelian subgroup         C1      NOp   1
 Largest concise Abelian subgroup C1      NOp   1
                         Standard orientation:                         
 ---------------------------------------------------------------------
 Center     Atomic      Atomic             Coordinates (Angstroms)
 Number     Number       Type             X           Y           Z
 ---------------------------------------------------------------------
      1          7           0       -0.095954    2.494886   -0.154583
      2          6           0       -1.205517    1.658862    0.297200
      3          6           0       -1.127246    0.209866   -0.225603
      4          6           0        0.112357   -0.543809    0.212172
      5          7           0        1.283602   -0.242115   -0.227443
      6          7           0        2.369954   -0.962125    0.131370
      7          7           0        3.623387   -0.292722    0.052960
      8          6           0       -2.373149   -0.547173    0.241240
      9          7           0       -2.367045   -1.931345   -0.255034
     10          1           0       -0.211610    3.448276    0.163099
     11          1           0       -0.033006    2.499452   -1.164946
     12          1           0       -2.193000    2.061086    0.004801
     13          1           0       -1.188766    1.637455    1.393886
     14          1           0       -1.145724    0.240211   -1.325229
     15          1           0       -0.032736   -1.390624    0.890928
     16          1           0        2.304562   -1.476065    1.005367
     17          1           0        3.408436    0.575071   -0.427131
     18          1           0        4.210330   -0.829467   -0.585971
     19          1           0       -3.265403    0.027240   -0.058967
     20          1           0       -2.377992   -0.586569    1.337442
     21          1           0       -2.405272   -1.927933   -1.270493
     22          1           0       -3.206100   -2.410666    0.056261
 ---------------------------------------------------------------------
 Rotational constants (GHZ):           2.0091172           0.9096768           0.6521050
 Standard basis: 6-31G(2df,p) (6D, 7F)
 There are   344 symmetry adapted cartesian basis functions of A   symmetry.
 There are   317 symmetry adapted basis functions of A   symmetry.
   317 basis functions,   487 primitive gaussians,   344 cartesian basis functions
    36 alpha electrons       36 beta electrons
       nuclear repulsion energy       469.2895590206 Hartrees.
 NAtoms=   22 NActive=   22 NUniq=   22 SFac= 1.00D+00 NAtFMM=   60 NAOKFM=F Big=F
 Integral buffers will be    131072 words long.
 Raffenetti 2 integral format.
 Two-electron integral symmetry is turned on.
 One-electron integrals computed using PRISM.
 PrsmSu:  requested number of processors reduced to:  13 ShMem   1 Linda.
 NBasis=   317 RedAO= T EigKep=  2.58D-04  NBF=   317
 NBsUse=   317 1.00D-06 EigRej= -1.00D+00 NBFU=   317
 Initial guess from the checkpoint file:  "NCCpCdNNNpCN.chk"
 B after Tr=    -0.000000    0.000000    0.000000
         Rot=    0.999869    0.000946    0.000505   -0.016136 Ang=   1.85 deg.
 ExpMin= 1.61D-01 ExpMax= 4.17D+03 ExpMxC= 6.27D+02 IAcc=2 IRadAn=         4 AccDes= 0.00D+00
 Harris functional with IExCor=  402 and IRadAn=       4 diagonalized for initial guess.
 HarFok:  IExCor=  402 AccDes= 0.00D+00 IRadAn=         4 IDoV= 1 UseB2=F ITyADJ=14
 ICtDFT=  3500011 ScaDFX=  1.000000  1.000000  1.000000  1.000000
 FoFCou: FMM=F IPFlag=           0 FMFlag=      100000 FMFlg1=           0
         NFxFlg=           0 DoJE=T BraDBF=F KetDBF=T FulRan=T
         wScrn=  0.000000 ICntrl=       500 IOpCl=  0 I1Cent=   200000004 NGrid=           0
         NMat0=    1 NMatS0=      1 NMatT0=    0 NMatD0=    1 NMtDS0=    0 NMtDT0=    0
 Petite list used in FoFCou.
 Requested convergence on RMS density matrix=1.00D-08 within 128 cycles.
 Requested convergence on MAX density matrix=1.00D-06.
 Requested convergence on             energy=1.00D-06.
 No special actions if energy rises.
 Integral accuracy reduced to 1.0D-05 until final iterations.
 Initial convergence to 1.0D-05 achieved.  Increase integral accuracy.
 SCF Done:  E(RB3LYP) =  -433.939307030     A.U. after   12 cycles
            NFock= 12  Conv=0.63D-08     -V/T= 2.0077
 PrsmSu:  requested number of processors reduced to:  13 ShMem   1 Linda.
 Calling FoFJK, ICntrl=      2127 FMM=F ISym2X=0 I1Cent= 0 IOpClX= 0 NMat=1 NMatS=1 NMatT=0.
 ***** Axes restored to original set *****
 -------------------------------------------------------------------
 Center     Atomic                   Forces (Hartrees/Bohr)
 Number     Number              X              Y              Z
 -------------------------------------------------------------------
      1        7           0.001595457   -0.001090774   -0.006474529
      2        6          -0.003449545    0.000514487    0.003159914
      3        6          -0.002331134   -0.000310174   -0.005404676
      4        6          -0.012925416   -0.001978097   -0.006910963
      5        7           0.000819427    0.000568359    0.005835905
      6        7           0.016615624   -0.010176189   -0.003064386
      7        7          -0.004100292    0.003540956    0.000628037
      8        6           0.003352015   -0.004503493    0.001495639
      9        7          -0.000339989    0.002292531    0.001099416
     10        1           0.000079635    0.000593881    0.002450252
     11        1          -0.000204602   -0.000130671    0.001976112
     12        1           0.001396723   -0.000072918   -0.000524600
     13        1          -0.000208356    0.000633922   -0.000499511
     14        1          -0.001412187    0.000532797    0.001127938
     15        1           0.000892444    0.001819800   -0.000259690
     16        1           0.001448594    0.005357252    0.001115830
     17        1          -0.003118359    0.003668856    0.001707221
     18        1           0.000968825   -0.001506345    0.003518918
     19        1           0.000402191    0.000183080   -0.000285733
     20        1           0.000415146    0.000324817   -0.000583715
     21        1          -0.000168242   -0.000198965    0.000167130
     22        1           0.000272040   -0.000063113   -0.000274509
 -------------------------------------------------------------------
 Cartesian Forces:  Max     0.016615624 RMS     0.003715852

 GradGradGradGradGradGradGradGradGradGradGradGradGradGradGradGradGradGrad
 Berny optimization.
 Using GEDIIS/GDIIS optimizer.
 FormGI is forming the generalized inverse of G from B-inverse, IUseBI=4.
 Internal  Forces:  Max     0.014400312 RMS     0.002835999
 Search for a local minimum.
 Step number   2 out of a maximum of  109
 All quantities printed in internal units (Hartrees-Bohrs-Radians)
 Mixed Optimization -- RFO/linear search
 Update second derivatives using D2CorX and points    1    2
 DE= -1.02D-02 DEPred=-1.26D-02 R= 8.10D-01
 TightC=F SS=  1.41D+00  RLast= 4.32D-01 DXNew= 5.0454D-01 1.2970D+00
 Trust test= 8.10D-01 RLast= 4.32D-01 DXMaxT set to 5.05D-01
 ITU=  1  0
 Use linear search instead of GDIIS.
     Eigenvalues ---    0.00230   0.00255   0.00424   0.00872   0.00983
     Eigenvalues ---    0.01093   0.01156   0.02206   0.02949   0.03421
     Eigenvalues ---    0.03858   0.04094   0.04124   0.04270   0.04512
     Eigenvalues ---    0.04854   0.05507   0.05522   0.05532   0.06915
     Eigenvalues ---    0.09183   0.09423   0.12670   0.12832   0.14276
     Eigenvalues ---    0.15788   0.15994   0.16000   0.16000   0.16000
     Eigenvalues ---    0.16000   0.16159   0.16604   0.18308   0.21862
     Eigenvalues ---    0.21949   0.22013   0.23948   0.27969   0.28617
     Eigenvalues ---    0.29606   0.31895   0.33532   0.33826   0.33971
     Eigenvalues ---    0.34000   0.34104   0.34189   0.36958   0.37969
     Eigenvalues ---    0.43414   0.43716   0.44119   0.44225   0.44233
     Eigenvalues ---    0.44483   0.44950   0.45489   0.59890   0.64541
 RFO step:  Lambda=-5.26105227D-03 EMin= 2.30029473D-03
 Quartic linear search produced a step of -0.02818.
 Iteration  1 RMS(Cart)=  0.05061268 RMS(Int)=  0.00359969
 Iteration  2 RMS(Cart)=  0.00498642 RMS(Int)=  0.00052498
 Iteration  3 RMS(Cart)=  0.00002620 RMS(Int)=  0.00052454
 Iteration  4 RMS(Cart)=  0.00000010 RMS(Int)=  0.00052454
 Variable       Old X    -DE/DX   Delta X   Delta X   Delta X     New X
                                 (Linear)    (Quad)   (Total)
    R1        2.76066  -0.00164  -0.00039  -0.00168  -0.00207   2.75859
    R2        1.91157   0.00156   0.00011   0.00254   0.00265   1.91422
    R3        1.91303   0.00122   0.00026   0.00096   0.00122   1.91426
    R4        2.91474   0.00067  -0.00020   0.00334   0.00314   2.91788
    R5        2.08933   0.00016  -0.00046   0.00320   0.00274   2.09206
    R6        2.07307   0.00069  -0.00007   0.00230   0.00223   2.07530
    R7        2.86360  -0.00281   0.00055  -0.01202  -0.01147   2.85213
    R8        2.89278   0.00400   0.00063   0.00926   0.00990   2.90267
    R9        2.07908   0.00074  -0.00008   0.00252   0.00243   2.08151
   R10        2.43188  -0.01440   0.00101  -0.02647  -0.02546   2.40642
   R11        2.06911   0.00077   0.00040  -0.00027   0.00013   2.06924
   R12        2.55450  -0.00735  -0.00105  -0.00533  -0.00638   2.54812
   R13        2.68936   0.00583  -0.00085   0.01727   0.01642   2.70578
   R14        1.91998   0.00178   0.00046   0.00107   0.00153   1.92151
   R15        1.91764   0.00357   0.00047   0.00477   0.00524   1.92287
   R16        1.92792  -0.00012   0.00003  -0.00041  -0.00038   1.92754
   R17        2.77877  -0.00220  -0.00045  -0.00283  -0.00329   2.77548
   R18        2.08401  -0.00011  -0.00028   0.00140   0.00111   2.08512
   R19        2.07288   0.00072  -0.00002   0.00209   0.00207   2.07495
   R20        1.92031   0.00030   0.00024  -0.00081  -0.00057   1.91974
   R21        1.91848   0.00026   0.00029  -0.00116  -0.00087   1.91761
    A1        1.93414  -0.00118   0.00094  -0.01932  -0.01863   1.91551
    A2        1.93742  -0.00052   0.00025  -0.01145  -0.01144   1.92597
    A3        1.89262  -0.00053   0.00055  -0.01952  -0.01947   1.87315
    A4        1.97605  -0.00096  -0.00016  -0.00302  -0.00319   1.97286
    A5        1.96967   0.00145  -0.00228   0.02596   0.02369   1.99336
    A6        1.88465  -0.00024   0.00038  -0.00630  -0.00594   1.87872
    A7        1.87281  -0.00060   0.00111  -0.01054  -0.00943   1.86338
    A8        1.89625   0.00062   0.00065  -0.00298  -0.00236   1.89389
    A9        1.85993  -0.00024   0.00035  -0.00394  -0.00359   1.85634
   A10        1.99416  -0.00138  -0.00131   0.00336   0.00193   1.99608
   A11        1.89644   0.00108   0.00014   0.00806   0.00814   1.90458
   A12        1.88811  -0.00048   0.00058  -0.01602  -0.01540   1.87270
   A13        1.90892   0.00109   0.00057   0.00901   0.00952   1.91845
   A14        1.89252   0.00038  -0.00036   0.00212   0.00178   1.89429
   A15        1.88050  -0.00070   0.00045  -0.00758  -0.00710   1.87341
   A16        2.12849  -0.00264  -0.00026  -0.00945  -0.00970   2.11879
   A17        2.04356   0.00050   0.00001   0.00080   0.00080   2.04436
   A18        2.11027   0.00214   0.00026   0.00867   0.00892   2.11920
   A19        2.11283  -0.01162  -0.00303  -0.02468  -0.02770   2.08512
   A20        2.02934  -0.01212  -0.00265  -0.04400  -0.04883   1.98051
   A21        2.03313   0.00272   0.00141  -0.02447  -0.02618   2.00695
   A22        1.91985   0.00344   0.00316  -0.02682  -0.02639   1.89346
   A23        1.81496   0.00465   0.00228   0.01243   0.01476   1.82972
   A24        1.86894  -0.00406   0.00068  -0.02745  -0.02672   1.84222
   A25        1.84989  -0.00054  -0.00074   0.00046  -0.00014   1.84975
   A26        1.93822   0.00054   0.00077  -0.00188  -0.00113   1.93709
   A27        1.89430   0.00025   0.00071  -0.00070  -0.00002   1.89428
   A28        1.90300  -0.00014   0.00066  -0.00489  -0.00423   1.89877
   A29        1.98426  -0.00039  -0.00268   0.01445   0.01176   1.99602
   A30        1.87914  -0.00025   0.00040  -0.00503  -0.00461   1.87453
   A31        1.86208  -0.00004   0.00015  -0.00271  -0.00253   1.85955
   A32        1.91128  -0.00008   0.00016  -0.00086  -0.00069   1.91058
   A33        1.91507   0.00034   0.00003   0.00230   0.00234   1.91741
   A34        1.85137   0.00002  -0.00003   0.00158   0.00155   1.85292
    D1        3.08331  -0.00115   0.00046  -0.02554  -0.02495   3.05836
    D2        0.95150  -0.00073   0.00081  -0.02922  -0.02828   0.92322
    D3       -1.09966  -0.00114   0.00144  -0.03551  -0.03392  -1.13357
    D4        0.97909   0.00065  -0.00110   0.01972   0.01848   0.99757
    D5       -1.15271   0.00107  -0.00075   0.01604   0.01515  -1.13756
    D6        3.07931   0.00066  -0.00012   0.00975   0.00952   3.08883
    D7        1.06041  -0.00098   0.00025  -0.00339  -0.00312   1.05729
    D8       -3.08607   0.00029   0.00019   0.01661   0.01682  -3.06925
    D9       -1.04909  -0.00022   0.00114   0.00327   0.00440  -1.04469
   D10       -3.03779  -0.00022  -0.00197   0.02007   0.01810  -3.01969
   D11       -0.90108   0.00105  -0.00203   0.04007   0.03804  -0.86304
   D12        1.13590   0.00055  -0.00108   0.02673   0.02562   1.16152
   D13       -1.03319  -0.00049  -0.00059   0.00853   0.00796  -1.02524
   D14        1.10351   0.00078  -0.00064   0.02853   0.02790   1.13141
   D15        3.14049   0.00027   0.00031   0.01519   0.01548  -3.12722
   D16       -1.20641  -0.00017   0.00146  -0.09832  -0.09684  -1.30325
   D17        1.97957  -0.00022   0.00119  -0.09893  -0.09772   1.88185
   D18        2.94690  -0.00143   0.00177  -0.11791  -0.11614   2.83076
   D19       -0.15030  -0.00147   0.00150  -0.11852  -0.11702  -0.26732
   D20        0.90065  -0.00142   0.00112  -0.11506  -0.11396   0.78668
   D21       -2.19656  -0.00146   0.00085  -0.11567  -0.11485  -2.31140
   D22        3.11952  -0.00014  -0.00059  -0.02049  -0.02111   3.09840
   D23        0.92615  -0.00019   0.00180  -0.03710  -0.03533   0.89082
   D24       -1.09588  -0.00021   0.00084  -0.03087  -0.03006  -1.12594
   D25       -0.97614  -0.00042  -0.00177  -0.00491  -0.00664  -0.98278
   D26        3.11368  -0.00047   0.00063  -0.02152  -0.02086   3.09282
   D27        1.09165  -0.00049  -0.00034  -0.01529  -0.01559   1.07606
   D28        1.07767   0.00023  -0.00162  -0.00174  -0.00338   1.07429
   D29       -1.11570   0.00018   0.00077  -0.01835  -0.01759  -1.13329
   D30       -3.13773   0.00017  -0.00019  -0.01212  -0.01232   3.13314
   D31       -3.09243  -0.00007   0.00100  -0.00908  -0.00808  -3.10051
   D32        0.00310  -0.00007   0.00128  -0.00867  -0.00739  -0.00429
   D33       -2.72459   0.00321  -0.00365   0.09389   0.08933  -2.63527
   D34       -0.41666  -0.00189  -0.00004  -0.02524  -0.02436  -0.44102
   D35       -0.16482   0.00045  -0.00078   0.11053   0.11055  -0.05427
   D36       -2.11847   0.00064  -0.00130   0.11543   0.11506  -2.00341
   D37       -2.52372   0.00495  -0.00359   0.22053   0.21601  -2.30771
   D38        1.80582   0.00514  -0.00411   0.22542   0.22051   2.02633
   D39       -1.10417  -0.00012   0.00079  -0.00875  -0.00797  -1.11214
   D40       -3.12957  -0.00029   0.00072  -0.01148  -0.01077  -3.14034
   D41        1.03808   0.00034   0.00032  -0.00043  -0.00009   1.03799
   D42       -0.98732   0.00016   0.00025  -0.00316  -0.00289  -0.99022
   D43        3.09689  -0.00011  -0.00077   0.00143   0.00066   3.09754
   D44        1.07149  -0.00028  -0.00084  -0.00130  -0.00215   1.06934
         Item               Value     Threshold  Converged?
 Maximum Force            0.014400     0.000450     NO 
 RMS     Force            0.002836     0.000300     NO 
 Maximum Displacement     0.242439     0.001800     NO 
 RMS     Displacement     0.052645     0.001200     NO 
 Predicted change in Energy=-3.209275D-03
 GradGradGradGradGradGradGradGradGradGradGradGradGradGradGradGradGradGrad

                          Input orientation:                          
 ---------------------------------------------------------------------
 Center     Atomic      Atomic             Coordinates (Angstroms)
 Number     Number       Type             X           Y           Z
 ---------------------------------------------------------------------
      1          7           0        1.007862    0.074465    0.179429
      2          6           0        2.461634   -0.025941    0.093226
      3          6           0        2.939905   -1.360589   -0.518441
      4          6           0        2.459905   -1.607021   -1.927981
      5          7           0        1.255270   -1.941805   -2.169589
      6          7           0        0.880077   -2.198854   -3.438984
      7          7           0       -0.500611   -1.917813   -3.693680
      8          6           0        4.474255   -1.414617   -0.471160
      9          7           0        4.971784   -2.695168   -0.990580
     10          1           0        0.751559    0.930189    0.657065
     11          1           0        0.632919   -0.696264    0.719359
     12          1           0        2.982760    0.085505    1.063595
     13          1           0        2.814844    0.795960   -0.543774
     14          1           0        2.562912   -2.170120    0.126392
     15          1           0        3.201727   -1.526593   -2.729383
     16          1           0        1.439603   -1.740283   -4.153525
     17          1           0       -0.877921   -1.628750   -2.793975
     18          1           0       -0.929463   -2.819672   -3.901420
     19          1           0        4.801902   -1.182088    0.556493
     20          1           0        4.876121   -0.620824   -1.114615
     21          1           0        4.651756   -3.450763   -0.391685
     22          1           0        5.985590   -2.712935   -0.950449
 ---------------------------------------------------------------------
                    Distance matrix (angstroms):
                    1          2          3          4          5
     1  N    0.000000
     2  C    1.459783   0.000000
     3  C    2.505832   1.544074   0.000000
     4  C    3.062189   2.566144   1.509282   0.000000
     5  N    3.105550   3.200966   2.429423   1.273421   0.000000
     6  N    4.275186   4.438398   3.670851   2.264785   1.348409
     7  N    4.609298   5.166694   4.714848   3.461061   2.325198
     8  C    3.828383   2.509501   1.536029   2.493382   3.677561
     9  N    4.975185   3.821029   2.476398   2.893496   3.971158
    10  H    1.012962   2.038739   3.379103   4.004790   4.061041
    11  H    1.012980   2.045867   2.701048   3.343017   3.206979
    12  H    2.163815   1.107072   2.143797   3.476715   4.188996
    13  H    2.075756   1.098202   2.160321   2.795770   3.545547
    14  H    2.731146   2.146826   1.101487   2.132637   2.652091
    15  H    3.979651   3.281283   2.232571   1.094995   2.067479
    16  H    4.717436   4.692378   3.950811   2.451901   2.002646
    17  H    3.911297   4.696546   4.452612   3.448405   2.244629
    18  H    5.364940   5.938154   5.342797   4.105216   2.922832
    19  H    4.014455   2.651065   2.157401   3.440658   4.537322
    20  H    4.137802   2.764509   2.156759   2.733541   3.996064
    21  H    5.102094   4.094041   2.704686   3.250200   4.119953
    22  H    5.815840   4.552742   3.360307   3.822181   4.945389
                    6          7          8          9         10
     6  N    0.000000
     7  N    1.431836   0.000000
     8  C    4.726640   5.948709   0.000000
     9  N    4.794067   6.152897   1.468722   0.000000
    10  H    5.156068   5.348647   4.541968   5.802434   0.000000
    11  H    4.428394   4.717200   4.085245   5.073978   1.631964
    12  H    5.469258   6.227264   2.613503   3.988483   2.420127
    13  H    4.592872   5.317773   2.765062   4.127954   2.391061
    14  H    3.942672   4.903242   2.140347   2.706652   3.629673
    15  H    2.519033   3.845807   2.594501   2.742646   4.848416
    16  H    1.016821   2.001850   4.782780   4.836562   5.544962
    17  H    1.957450   1.017541   5.838416   6.213576   4.594894
    18  H    1.968171   1.020010   6.552941   6.581277   6.137351
    19  H    5.690198   6.835342   1.103400   2.170646   4.569147
    20  H    4.884797   6.102705   1.098015   2.080250   4.749369
    21  H    5.007881   6.308724   2.045413   1.015882   5.958536
    22  H    5.702924   7.087195   2.049263   1.014756   6.576590
                   11         12         13         14         15
    11  H    0.000000
    12  H    2.500282   0.000000
    13  H    2.929681   1.765383   0.000000
    14  H    2.499746   2.478400   3.051266   0.000000
    15  H    4.379731   4.127165   3.212603   2.996275   0.000000
    16  H    5.048337   5.738744   4.621052   4.445703   2.275726
    17  H    3.936455   5.720522   4.957734   4.545432   4.081438
    18  H    5.319915   6.956789   6.194063   5.370463   4.484691
    19  H    4.200353   2.274472   3.011920   2.484808   3.670997
    20  H    4.623193   2.971248   2.565541   3.048172   2.496295
    21  H    4.997272   4.172359   4.629474   2.504340   3.357059
    22  H    5.958716   4.572158   4.746721   3.628906   3.510257
                   16         17         18         19         20
    16  H    0.000000
    17  H    2.689188   0.000000
    18  H    2.615551   1.627080   0.000000
    19  H    5.813854   6.609502   7.443333   0.000000
    20  H    4.722057   6.078253   6.804853   1.764405   0.000000
    21  H    5.234034   6.298258   6.623181   2.463426   2.929423
    22  H    5.645507   7.189007   7.519147   2.452648   2.373773
                   21         22
    21  H    0.000000
    22  H    1.623490   0.000000
 Stoichiometry    C4H13N5
 Framework group  C1[X(C4H13N5)]
 Deg. of freedom    60
[...]
 4324,-0.00060758,-0.00001507,-0.00110517,-0.00596362,0.05358618,-0.004
 29295,0.00067081,0.00654934,-0.07314024,0.00645945,-0.25013028,-0.0045
 3010,0.00108289,-0.01565495,-0.00011504,-0.00380203,0.00077595,0.00051
 861,-0.00010345,-0.00003960,-0.00022180,-0.00005690,-0.00076304,-0.000
 18518,0.00016737,-0.00019926,-0.00127889,0.00057154,-0.00136070,0.0004
 4220,0.00029310,0.00110529,-0.00065787,0.00050286,0.00155363,-0.000519
 05,-0.00021556,0.00138786,0.08830266,-0.00571927,0.27099502,-0.0267994
 8,-0.02666759,0.01503060,-0.09495710,-0.07757545,0.05346476,0.00229662
 ,0.00385100,-0.00333011,-0.00026975,-0.00046338,0.00043214,0.00028245,
 0.00012601,-0.00029508,-0.00006927,-0.00005000,0.00008657,-0.00003209,
 0.00000034,0.00000064,0.00072496,0.00053632,-0.00045209,0.00005886,0.0
 0020820,0.00000734,0.00083711,0.00006543,0.00053958,-0.00669752,0.0022
 5262,0.00192014,0.00627596,0.00727068,-0.00500055,0.11821199,0.0042843
 7,0.00792130,-0.00395548,-0.08356934,-0.18151903,0.09285320,-0.0123103
 6,-0.02426884,0.01461985,0.00025151,0.00095752,0.00212036,0.00000182,0
 .00006944,-0.00070541,-0.00001112,0.00009845,-0.00003549,-0.00000740,-
 0.00001150,-0.00003813,-0.00213788,0.00007230,0.00096205,0.00044020,0.
 00045447,-0.00034655,-0.00073728,0.00028784,-0.00012558,0.00240527,0.0
 0113067,-0.00045555,-0.00038308,-0.00019457,0.00057964,0.08900895,0.19
 820460,0.00153179,-0.00158016,0.00290995,0.05696976,0.09358809,-0.1163
 2751,-0.00683083,-0.01141256,0.00765477,-0.00081540,-0.00036131,0.0014
 9134,-0.00006480,0.00005632,-0.00046948,0.00002736,0.00009707,0.000208
 81,0.00003132,-0.00003601,0.00003302,-0.00043866,0.00030392,0.00016211
 ,-0.00033366,-0.00007354,0.00014264,0.00039787,0.00009642,-0.00016584,
 -0.00059206,-0.00094426,0.00081546,0.01230980,0.02341957,-0.01669019,-
 0.06306212,-0.10052683,0.12046865,0.00138615,0.00043260,-0.00065163,0.
 00197236,0.00510841,-0.00304753,-0.10061564,-0.08269014,0.06027967,0.0
 0469853,0.00769649,-0.00679683,0.00020391,0.00086058,-0.00005966,-0.00
 006049,0.00030569,-0.00021327,0.00001905,-0.00007104,0.00012191,-0.019
 42738,-0.02399201,0.01721307,0.00216166,-0.00114618,-0.00079030,0.0001
 5621,-0.00011314,-0.00011051,0.00010635,-0.00032194,0.00023352,-0.0000
 2814,-0.00055320,-0.00024760,0.00009712,0.00162107,0.00046745,0.113647
 82,-0.00105876,0.00214531,0.00051686,-0.01376154,-0.02470224,0.0144067
 6,-0.08159794,-0.17392572,0.09224731,-0.00080853,-0.00116522,0.0011136
 2,0.00005048,0.00005871,-0.00199422,0.00028210,0.00046991,0.00001020,0
 .00000181,-0.00004998,0.00012266,0.00347977,0.00354811,-0.00351395,0.0
 0018976,0.00167049,-0.00008328,-0.00006044,0.00051217,-0.00016641,0.00
 148649,-0.00031033,-0.00054343,0.00008927,0.00131374,-0.00022518,0.001
 28847,-0.00428203,-0.00307490,0.09058353,0.19319436,-0.00107352,0.0005
 8130,0.00040901,-0.00641833,-0.01221075,0.00683013,0.05768361,0.089284
 50,-0.11247804,0.01458238,0.02467766,-0.02175932,0.00219498,0.00058858
 ,0.00419424,-0.00046065,-0.00085669,-0.00077163,0.00001678,-0.00001120
 ,0.00011493,-0.00066199,-0.00031777,0.00002050,-0.00001226,-0.00000705
 ,-0.00005380,-0.00033373,0.00005115,0.00001821,0.00006139,0.00069172,0
 .00011046,-0.00031672,0.00067359,0.00101203,0.00077260,-0.00314235,-0.
 00047768,-0.06372318,-0.09842798,0.12546259,-0.00004033,0.00005727,-0.
 00011496,0.00015845,0.00024708,0.00001520,0.00565961,0.00545155,-0.007
 87029,-0.08374695,-0.05947203,0.05247487,-0.00242706,-0.03732186,0.010
 67248,-0.00141038,0.00419512,0.00786017,-0.00104562,0.00066169,-0.0003
 6952,0.00158565,0.00023137,0.00056171,0.00008655,0.00010009,0.00009947
 ,-0.00001034,-0.00000011,-0.00000289,-0.00004061,-0.00000775,0.0000181
 5,-0.00009249,-0.00005914,0.00004578,0.00000423,-0.00006287,0.00026989
 ,0.00002286,-0.00048658,-0.00261424,0.08160973,0.00005789,0.00022486,0
 .00002575,0.00036171,0.00060478,0.00074182,-0.00240393,0.00146418,-0.0
 0108121,-0.05920667,-0.14621001,0.10008559,-0.03013851,-0.01006000,0.0
 1745180,0.00766574,-0.00092258,0.00066394,0.00082814,0.00050170,-0.001
 00242,-0.00047586,0.00021718,0.00003902,0.00014640,0.00000909,-0.00033
 998,0.00005163,-0.00000274,0.00006788,-0.00001383,-0.00007181,-0.00016
 215,-0.00003291,0.00025101,0.00027533,-0.00005619,0.00020065,0.0002336
 5,-0.00067817,0.00079305,-0.00008962,0.08402371,0.15450106,0.00016928,
 -0.00045043,0.00033354,0.00008769,0.00198580,0.00085935,0.01183214,0.0
 1896621,-0.01452634,0.05402745,0.10265255,-0.16376595,-0.00632609,0.00
 040349,0.00972648,-0.00011296,-0.00612581,0.00230199,0.00053910,0.0000
 8208,-0.00021000,0.00161787,0.00004218,0.00004858,-0.00029886,-0.00005
 550,0.00041047,0.00009321,-0.00002394,-0.00007644,-0.00022178,0.000136
 23,0.00016294,-0.00021923,-0.00051255,0.00025358,-0.00029758,-0.001094
 36,0.00001906,-0.00200075,0.00025482,-0.00492860,-0.05882645,-0.116849
 74,0.16768936,-0.00006993,-0.00012314,-0.00016922,-0.00005552,0.000089
 04,-0.00015025,-0.00064443,-0.00083810,0.00079744,0.00039099,0.0032447
 6,-0.00389709,0.00312032,0.00768108,0.00182019,-0.03452035,-0.01247035
 ,-0.01974942,-0.01744478,-0.03871845,0.00957929,0.00017653,0.00010253,
 -0.00049624,-0.00022545,0.00008146,0.00015792,-0.00001614,0.00001081,-
 0.00006110,-0.00001593,0.00000615,0.00003938,-0.00001813,-0.00012161,-
 0.00016200,-0.00001608,-0.00006104,0.00000640,-0.00006949,-0.00009566,
 0.00019893,-0.00076340,-0.00131614,0.00129236,0.05774853,0.00001587,0.
 00005133,0.00008976,0.00012915,-0.00015742,0.00029712,-0.00146281,0.00
 153375,0.00010933,0.00325184,0.00569132,-0.00420393,-0.00056471,0.0008
 0194,-0.00666773,-0.04990988,-0.34029815,0.16203723,0.00094083,-0.0119
 0752,-0.00301358,-0.00024145,-0.00001695,-0.00014225,0.00013729,-0.000
 10851,-0.00011827,0.00001457,-0.00000253,0.00002489,0.00001910,-0.0000
 0596,-0.00002124,-0.00000145,0.00013452,0.00008477,0.00000415,0.000019
 66,-0.00000652,-0.00020831,-0.00018870,-0.00006389,0.00317007,-0.00174
 855,0.00119356,0.04715997,0.34558056,0.00013322,0.00005598,0.00023902,
 -0.00044855,0.00003534,-0.00020756,0.00060278,-0.00198646,-0.00127474,
 0.00699441,0.00630682,0.00320518,-0.00769617,0.03303627,-0.04182834,-0
 .00009219,0.12271366,-0.08954296,-0.00172208,-0.00738357,0.00254273,-0
 .00002462,0.00001275,0.00054317,0.00001217,-0.00000348,-0.00010918,-0.
 00000035,-0.00000964,0.00002114,-0.00001149,0.00002028,0.00000622,0.00
 005217,-0.00006614,0.00004581,-0.00001449,-0.00006562,-0.00006663,0.00
 007065,-0.00014823,0.00065490,-0.00247579,-0.00100498,0.00137705,0.006
 57957,-0.15000467,0.12430366,0.00007541,0.00003112,0.00008525,-0.00007
 960,0.00001788,-0.00010576,0.00026053,-0.00000478,0.00029478,-0.001021
 22,-0.00113505,-0.00139175,0.00736436,0.00122677,0.00669982,-0.0450952
 6,-0.00059076,0.02560534,-0.13221205,0.04705291,0.13089390,-0.00003498
 ,0.00003638,-0.00004859,-0.00000418,-0.00000798,-0.00002425,0.00003182
 ,0.00001289,0.00000531,-0.00002354,-0.00002850,-0.00012347,0.00003800,
 -0.00003848,-0.00001122,0.00001416,0.00002049,0.00000655,-0.00003304,0
 .00001513,-0.00013455,0.00006011,0.00067565,0.00002678,-0.00159648,0.0
 0171577,0.00038576,0.17203083,0.00025180,-0.00007908,0.00010335,-0.000
 19165,0.00009488,0.00002110,0.00005294,-0.00013735,-0.00001664,0.00006
 938,-0.00035983,0.00007426,0.00049795,-0.00051735,0.00011353,-0.010160
 28,0.00782709,0.01384279,0.04002705,-0.08966869,-0.08387401,0.00002216
 ,-0.00002109,0.00001086,-0.00002242,0.00000260,-0.00003343,-0.00001954
 ,0.00000681,-0.00006089,-0.00005458,0.00004254,-0.00006607,0.00006961,
 -0.00004345,-0.00000711,0.00001053,-0.00001332,0.00000053,0.00000177,-
 0.00000768,0.00003015,-0.00029208,0.00000015,0.00012548,-0.00229168,0.
 00042554,0.00088157,-0.05152834,0.09685347,-0.00014955,0.00016031,0.00
 003110,0.00003219,-0.00022134,-0.00016430,0.00100005,-0.00046030,-0.00
 038519,-0.00142676,-0.00153686,-0.00035094,-0.00134072,0.00279999,0.00
 534198,-0.01329556,0.00514620,0.00361306,0.18128496,-0.11637208,-0.257
 41036,-0.00012332,0.00009901,0.00031691,0.00009894,-0.00002950,0.00000
 711,0.00003087,-0.00000068,0.00008273,0.00002740,-0.00004044,-0.000062
 05,-0.00001793,0.00004095,0.00005354,-0.00000168,0.00002014,-0.0000170
 9,-0.00001852,0.00000799,-0.00001538,-0.00039715,0.00074957,-0.0000409
 9,0.00254585,-0.00047658,-0.00133947,-0.16505752,0.10386853,0.25476645
 ,0.00004259,0.00001742,0.00003028,0.00001564,-0.00001887,0.00011137,-0
 .00039481,0.00041601,0.00009514,-0.00074183,0.00011885,-0.00082757,0.0
 0109504,-0.00187965,-0.00046440,-0.01520582,-0.04946334,0.00491344,-0.
 05088657,0.04122291,0.01438927,-0.00000908,-0.00008490,-0.00015746,0.0
 0004066,0.00003802,0.00007511,0.00000449,0.00000180,0.00000346,-0.0000
 0974,-0.00000451,-0.00004095,0.00000597,0.00002780,0.00002577,0.000009
 00,0.00000397,0.00000031,-0.00001468,0.00000495,-0.00005895,0.00039894
 ,0.00004015,-0.00018882,-0.00578593,-0.00415113,-0.00252747,0.00025618
 ,0.02356389,-0.00336281,0.07124061,-0.00001890,0.00001198,-0.00001431,
 0.00003092,-0.00003842,0.00004711,0.00001202,0.00010357,-0.00002713,0.
 00000854,0.00031098,0.00007115,0.00200021,0.00014496,-0.00064210,-0.00
 605449,-0.01035972,0.00873559,0.01368033,-0.41756691,-0.00974186,-0.00
 002245,0.00002440,-0.00000569,0.00002408,-0.00001801,-0.00001428,0.000
 00373,-0.00000040,0.00000976,0.00000015,-0.00000863,-0.00001033,-0.000
 00845,0.00002096,0.00001750,0.00000395,-0.00000115,-0.00000414,-0.0000
 1813,-0.00000601,-0.00001817,0.00007456,0.00020230,0.00012418,-0.00234
 733,0.00023735,-0.00229120,0.00250901,-0.01438762,0.00624523,-0.009894
 18,0.44132432,-0.00007625,0.00007735,0.00003579,0.00014960,-0.00013656
 ,0.00007157,-0.00037903,0.00029679,-0.00011447,-0.00027022,0.00030365,
 -0.00069547,0.00044521,-0.00241982,-0.00066171,-0.00855810,-0.00545491
 ,-0.00213561,0.01567558,0.04388326,-0.02244995,-0.00016188,0.00002867,
 -0.00002145,0.00014830,-0.00008028,-0.00002383,0.00001609,-0.00000346,
 0.00004780,0.00002893,-0.00003727,-0.00002300,-0.00002190,0.00008816,0
 .00010318,-0.00000619,0.00001648,-0.00001957,0.00000056,-0.00000570,0.
 00000096,0.00023649,0.00010831,-0.00009466,0.00178779,0.00080922,0.001
 34273,0.00292673,-0.03499945,-0.00448063,-0.01196926,-0.00249846,0.029
 06258,0.00042514,-0.00001193,0.00071612,0.00014084,-0.00096639,-0.0019
 7670,-0.01308822,0.00340964,-0.03247567,-0.00597778,0.00067763,0.00295
 046,-0.00055207,0.00072497,-0.00030597,0.00034043,-0.00094764,-0.00183
 939,0.00011973,0.00012807,-0.00011210,-0.07067260,0.00027356,-0.064196
 95,0.00485625,0.00285988,0.00914689,-0.00000476,0.00005380,0.00010916,
 -0.00009510,-0.00007202,-0.00018343,0.00008155,0.00063398,0.00101291,-
 0.00000530,0.00018192,0.00019354,0.00150489,-0.00072205,0.00021225,0.0
 0015512,0.00012566,-0.00040886,-0.00019539,0.00001348,0.00020237,-0.00
 002979,-0.00002466,0.00017167,-0.00004249,0.00001002,0.00005436,0.0767
 1395,-0.00007180,-0.00009156,-0.00018503,0.00037641,0.00005156,0.00095
 822,-0.00015824,0.00013938,0.00469064,0.00152099,0.00038789,-0.0005437
 4,0.00012650,0.00002742,-0.00008628,-0.00011407,0.00021259,0.00049989,
 -0.00000488,-0.00003218,0.00003263,0.00078743,-0.05123576,0.00959602,-
 0.00500049,-0.00973242,-0.03667258,0.00001733,-0.00002222,0.00004001,-
 0.00004010,0.00000795,-0.00002163,0.00060807,-0.00012682,-0.00037176,0
 .00005332,0.00001476,0.00000085,0.00012381,0.00026805,-0.00064709,-0.0
 0023005,0.00000147,-0.00032510,0.00006077,-0.00004151,-0.00005890,0.00
 000685,0.00000568,-0.00003702,0.00002351,-0.00000310,-0.00002278,-0.00
 383512,0.05736975,0.00058070,0.00007853,0.00080666,-0.00003451,-0.0003
 2327,-0.00096304,0.00033678,0.00073511,-0.00237484,-0.00055570,-0.0011
 9385,0.00074213,0.00000565,0.00043323,0.00014948,0.00005854,-0.0000673
 3,-0.00019629,-0.00004299,0.00007574,-0.00005074,-0.06639608,0.0111008
 1,-0.25569759,-0.00048843,-0.01315563,-0.01603123,-0.00013900,0.000118
 33,-0.00002011,-0.00006846,-0.00007811,-0.00016148,0.00035669,0.000329
 53,0.00117075,-0.00004839,-0.00014150,0.00013252,-0.00034105,-0.000368
 78,0.00071095,0.00024647,-0.00006693,0.00022028,-0.00000457,0.00000253
 ,0.00000894,-0.00001242,-0.00003492,0.00005060,0.00001896,0.00000190,0
 .00003011,0.07146155,0.00048016,0.28510977,0.00028440,0.00039885,-0.00
 025449,0.00065403,-0.00229968,0.00004477,-0.01862175,-0.02335868,0.017
 08363,0.00159810,-0.00072354,0.00191999,-0.00024970,0.00025082,-0.0007
 2293,0.00008590,-0.00001266,-0.00003668,-0.00002590,0.00002766,-0.0000
 4018,-0.10713851,-0.08859226,0.05635758,0.00594498,0.00702307,-0.00274
 204,0.00002072,0.00006372,-0.00001075,0.00035473,-0.00009077,-0.000236
 47,-0.00002598,0.00028348,0.00005549,0.00017081,0.00120481,-0.00013082
 ,-0.00596590,0.00174690,-0.00043832,-0.00011266,0.00040112,-0.00093781
 ,-0.00001216,-0.00001948,-0.00006504,0.00002290,-0.00000810,0.00002659
 ,0.00000896,0.00000934,0.00001546,0.00554734,0.00698370,-0.00561684,0.
 11682956,0.00017396,0.00036521,-0.00016451,0.00037065,0.00055074,-0.00
 016524,0.00223616,0.00425148,-0.00296876,-0.00012777,-0.00006856,0.000
 22565,0.00006983,0.00038041,-0.00013084,-0.00002423,-0.00011603,-0.000
 05471,0.00000696,0.00001215,-0.00002092,-0.08509433,-0.17506454,0.0857
 1509,-0.01599983,-0.03062036,0.00662349,-0.00005136,-0.00000088,0.0000
 4135,0.00006933,-0.00018115,-0.00003732,-0.00007565,0.00001749,-0.0001
 2509,0.00018359,0.00045242,0.00009396,0.00164134,0.00031394,-0.0001454
 9,-0.00028112,0.00003814,-0.00038863,-0.00003102,0.00000413,0.00001520
 ,0.00000462,-0.00000502,0.00001032,0.00001186,-0.00000016,0.00000588,-
 0.00151194,-0.00018433,0.00282365,0.09498065,0.20471372,-0.00005563,-0
 .00044825,0.00005006,0.00025806,0.00066921,-0.00006993,-0.00000126,-0.
 00106680,0.00000846,-0.00036121,-0.00119667,0.00064996,-0.00003592,0.0
 0013393,-0.00025581,-0.00001234,0.00006300,0.00021192,0.00001245,-0.00
 002834,0.00001865,0.05867210,0.09097677,-0.10981627,-0.01011377,-0.016
 63172,0.00865277,0.00007244,0.00000869,-0.00006702,-0.00014005,0.00004
 517,0.00002652,0.00004503,0.00010398,0.00007234,0.00024215,-0.00054150
 ,0.00030675,-0.00025481,-0.00053753,0.00103293,0.00021563,0.00015146,0
 .00023231,0.00000159,-0.00001522,-0.00002953,0.00000698,0.00001011,-0.
 00002304,0.00000471,-0.00000148,-0.00001980,0.01514577,0.02218844,-0.0
 1611740,-0.06428693,-0.09031110,0.11487232,-0.00009134,-0.00008403,-0.
 00008273,-0.00010337,0.00031955,0.00026229,0.00208869,0.00165630,-0.00
 100027,0.00057982,0.00030235,-0.00000471,-0.00012132,-0.00055406,0.000
 00182,-0.00012089,-0.00005433,-0.00005415,0.00005053,-0.00004994,0.000
 10305,0.00550229,0.00622935,-0.00430669,-0.15232184,-0.13046958,0.0785
 4547,0.00000028,-0.00000842,-0.00001876,-0.00004876,0.00004118,0.00007
 549,-0.00003898,-0.00009524,-0.00016819,-0.00014700,-0.00019606,0.0000
 5369,-0.00012932,-0.00051534,0.00065810,-0.00005055,-0.00007368,0.0001
 9979,0.00004257,-0.00002625,0.00004271,-0.00002509,0.00002964,-0.00003
 871,-0.00003079,-0.00000682,-0.00006392,-0.00028984,0.00014829,0.00053
 342,0.00048540,0.00318069,0.00049769,0.16585491,0.00006928,0.00024630,
 -0.00001705,-0.00008113,0.00009852,-0.00041432,-0.00098287,0.00094442,
 0.00080211,0.00017011,-0.00028826,0.00037073,0.00005890,0.00012213,0.0
 0012470,0.00008332,0.00001933,-0.00017259,-0.00004526,0.00005310,-0.00
 006755,-0.01753271,-0.02855898,0.01733127,-0.14436230,-0.25907865,0.09
 921583,-0.00003664,-0.00000477,0.00003169,0.00007680,-0.00005416,-0.00
 004361,-0.00003259,-0.00001541,0.00001766,-0.00003481,0.00041679,0.000
 01659,0.00141166,0.00010813,-0.00040790,-0.00006000,0.00004589,-0.0002
 2486,-0.00004516,0.00001935,-0.00001899,0.00000453,-0.00001175,0.00003
 264,-0.00000117,0.00000943,0.00003996,-0.00050898,0.00167871,-0.000178
 48,0.00212718,-0.00504181,-0.00432579,0.15224009,0.28236621,-0.0001052
 6,0.00008678,-0.00012279,-0.00012742,0.00008183,-0.00002724,-0.0003692
 7,0.00039435,0.00127625,0.00076235,0.00068054,0.00001092,-0.00002990,-
 0.00066744,0.00022666,-0.00003441,-0.00012277,-0.00046580,0.00001938,-
 0.00003014,0.00007520,-0.01071092,-0.02100207,0.00118662,0.11188801,0.
 13639144,-0.08364603,-0.00003475,-0.00000696,-0.00000374,0.00004590,0.
 00000154,0.00007129,-0.00007954,-0.00013727,-0.00015533,0.00001551,0.0
 0001657,-0.00005379,0.00023722,0.00038602,-0.00009190,-0.00012229,0.00
 000908,0.00002636,-0.00000011,0.00002383,0.00006404,-0.00002255,0.0000
 2333,-0.00002177,-0.00007078,0.00000454,-0.00002380,-0.00069411,-0.000
 63239,0.00115605,0.00050686,-0.00165327,-0.00018261,-0.09354500,-0.110
 49419,0.08324468,-0.00000761,0.00027853,0.00015666,-0.00050961,-0.0004
 4054,-0.00053458,0.00098242,0.00241410,0.00096578,-0.00000662,-0.00003
 386,0.00032922,0.00015130,0.00015161,0.00015362,0.00004152,-0.00001046
 ,-0.00010097,-0.00001856,0.00002705,-0.00002948,-0.00632163,-0.0004328
 4,-0.00567452,-0.40110084,0.07112829,-0.02475765,-0.00007695,-0.000026
 26,0.00003269,0.00000113,-0.00000795,-0.00001366,0.00003541,0.00005207
 ,0.00012726,0.00001031,0.00005207,0.00000263,0.00036716,-0.00011182,-0
 .00013459,-0.00000084,0.00001810,-0.00004648,-0.00002934,0.00001338,0.
 00000242,0.00000092,-0.00000338,0.00001170,0.00000366,0.00000388,0.000
 02166,0.00106810,-0.00138223,0.00014970,0.00014476,0.00026760,0.000087
 31,-0.02108542,0.00748175,-0.00752892,0.42635072,0.00016834,-0.0008199
 7,-0.00031073,0.00196705,0.00072755,0.00040190,-0.00052217,-0.00636078
 ,-0.00309148,-0.00066731,-0.00003482,-0.00077829,-0.00011735,0.0002259
 4,-0.00001533,0.00004363,0.00007626,0.00020506,0.00000822,-0.00001270,
 0.00000799,0.03512977,-0.00678067,0.00592100,0.07607656,-0.07674361,0.
 00457768,0.00026468,-0.00005561,-0.00008965,-0.00005263,0.00000840,-0.
 00000968,-0.00004186,0.00000735,-0.00009655,-0.00001612,-0.00001043,0.
 00011326,0.00000530,0.00024194,-0.00023270,0.00006107,-0.00003984,0.00
 008435,0.00002310,-0.00002366,-0.00003598,0.00000389,-0.00000653,-0.00
 000609,0.00000661,-0.00000012,0.00000096,-0.00049188,0.00130468,-0.000
 57071,-0.00039612,0.00018299,0.00075363,-0.03201370,0.00692548,-0.0033
 5333,-0.07943909,0.08118817,-0.00012813,-0.00014629,-0.00009164,0.0007
 7199,-0.00040654,0.00059318,-0.00016159,-0.00247690,-0.00130524,-0.000
 51025,-0.00075831,0.00011737,0.00019912,0.00062504,0.00054652,0.000161
 67,-0.00016375,-0.00054400,-0.00005242,0.00010389,-0.00009618,0.022076
 88,-0.00978045,-0.00501689,-0.07743888,0.01621425,-0.01881223,0.000080
 63,-0.00001265,0.00005109,0.00000643,-0.00000775,-0.00002123,-0.000004
 23,0.00010989,-0.00008495,-0.00000375,-0.00001394,-0.00005733,-0.00036
 841,0.00002338,0.00000451,0.00007726,-0.00000617,-0.00001836,-0.000116
 72,0.00006163,0.00004381,-0.00000512,-0.00001306,0.00004771,0.00000063
 ,0.00001218,0.00006922,0.00081613,0.00111744,0.00132447,-0.00049107,0.
 00061127,0.00044644,0.01830963,-0.00161784,-0.00254326,0.03678019,-0.0
 0347530,0.02534698\\-0.00001145,0.00000990,0.00001553,0.00000940,-0.00
 000982,-0.00000023,-0.00000450,0.00001055,0.00001266,0.00000221,-0.000
 00051,-0.00000240,0.00000148,-0.00000055,-0.00001475,-0.00000474,0.000
 00283,0.00001475,0.00000970,0.00001150,-0.00002050,-0.00000330,0.00000
 425,-0.00000015,0.00000545,-0.00000739,-0.00000463,0.00000222,-0.00000
 706,-0.00000235,0.00000448,-0.00000036,-0.00001077,0.,0.00000295,0.,-0
 .00000085,-0.00000381,-0.00000430,0.00000084,-0.00000032,-0.00000159,-
 0.00000171,-0.00000166,0.00000149,-0.00000104,-0.00000471,0.00000090,-
 0.00000598,-0.00000111,0.00001010,-0.00000146,-0.00000860,0.00000745,0
 .00000113,0.00000023,0.00000034,-0.00000037,-0.00000037,-0.00000047,-0
 .00000043,0.00000234,-0.00000140,-0.00000107,0.00000172,0.00000028\\\@


 ...THOSE SCIENCES ARE VAIN AND FULL OF ERRORS WHICH 
 ARE NOT BORN FROM EXPERIMENT, THE MOTHER OF CERTAINTY...

                          -- LEONARDO DA VINCI, 1452-1519
 Job cpu time:       0 days  1 hours 55 minutes 18.2 seconds.
 Elapsed time:       0 days  0 hours 29 minutes  0.3 seconds.
 File lengths (MBytes):  RWF=    171 Int=      0 D2E=      0 Chk=      9 Scr=      1
 Normal termination of Gaussian 16 at Tue Jun  1 06:09:26 2021.
### All Done ###
