### Starting Gaussian ###
 Entering Gaussian System, Link 0=g16
 Initial command:
 /cluster/software/gaussian/gaussian-16-A.03/avx2/g16/l1.exe "/local/scratch/linjian/Gau-27910.inp" -scrdir="/local/scratch/linjian/"
 Entering Link 1 = /cluster/software/gaussian/gaussian-16-A.03/avx2/g16/l1.exe PID=     27911.
  
 Copyright (c) 1988,1990,1992,1993,1995,1998,2003,2009,2016,
            Gaussian, Inc.  All Rights Reserved.
  
 This is part of the Gaussian(R) 16 program.  It is based on
 the Gaussian(R) 09 system (copyright 2009, Gaussian, Inc.),
 the Gaussian(R) 03 system (copyright 2003, Gaussian, Inc.),
 the Gaussian(R) 98 system (copyright 1998, Gaussian, Inc.),
 the Gaussian(R) 94 system (copyright 1995, Gaussian, Inc.),
 the Gaussian 92(TM) system (copyright 1992, Gaussian, Inc.),
 the Gaussian 90(TM) system (copyright 1990, Gaussian, Inc.),
 the Gaussian 88(TM) system (copyright 1988, Gaussian, Inc.),
 the Gaussian 86(TM) system (copyright 1986, Carnegie Mellon
 University), and the Gaussian 82(TM) system (copyright 1983,
 Carnegie Mellon University). Gaussian is a federally registered
 trademark of Gaussian, Inc.
  
 This software contains proprietary and confidential information,
 including trade secrets, belonging to Gaussian, Inc.
  
 This software is provided under written license and may be
 used, copied, transmitted, or stored only in accord with that
 written license.
  
 The following legend is applicable only to US Government
 contracts under FAR:
  
                    RESTRICTED RIGHTS LEGEND
  
 Use, reproduction and disclosure by the US Government is
 subject to restrictions as set forth in subparagraphs (a)
 and (c) of the Commercial Computer Software - Restricted
 Rights clause in FAR 52.227-19.
  
 Gaussian, Inc.
 340 Quinnipiac St., Bldg. 40, Wallingford CT 06492
  
  
 ---------------------------------------------------------------
 Warning -- This program may not be used in any manner that
 competes with the business of Gaussian, Inc. or will provide
 assistance to any competitor of Gaussian, Inc.  The licensee
 of this program is prohibited from giving any competitor of
 Gaussian, Inc. access to this program.  By using this program,
 the user acknowledges that Gaussian, Inc. is engaged in the
 business of creating and licensing software in the field of
 computational chemistry and represents and warrants to the
 licensee that it is not a competitor of Gaussian, Inc. and that
 it will not use this program in any manner prohibited above.
 ---------------------------------------------------------------
  

 Cite this work as:
 Gaussian 16, Revision A.03,
 M. J. Frisch, G. W. Trucks, H. B. Schlegel, G. E. Scuseria, 
 M. A. Robb, J. R. Cheeseman, G. Scalmani, V. Barone, 
 G. A. Petersson, H. Nakatsuji, X. Li, M. Caricato, A. V. Marenich, 
 J. Bloino, B. G. Janesko, R. Gomperts, B. Mennucci, H. P. Hratchian, 
 J. V. Ortiz, A. F. Izmaylov, J. L. Sonnenberg, D. Williams-Young, 
 F. Ding, F. Lipparini, F. Egidi, J. Goings, B. Peng, A. Petrone, 
 T. Henderson, D. Ranasinghe, V. G. Zakrzewski, J. Gao, N. Rega, 
 G. Zheng, W. Liang, M. Hada, M. Ehara, K. Toyota, R. Fukuda, 
 J. Hasegawa, M. Ishida, T. Nakajima, Y. Honda, O. Kitao, H. Nakai, 
 T. Vreven, K. Throssell, J. A. Montgomery, Jr., J. E. Peralta, 
 F. Ogliaro, M. J. Bearpark, J. J. Heyd, E. N. Brothers, K. N. Kudin, 
 V. N. Staroverov, T. A. Keith, R. Kobayashi, J. Normand, 
 K. Raghavachari, A. P. Rendell, J. C. Burant, S. S. Iyengar, 
 J. Tomasi, M. Cossi, J. M. Millam, M. Klene, C. Adamo, R. Cammi, 
 J. W. Ochterski, R. L. Martin, K. Morokuma, O. Farkas, 
 J. B. Foresman, and D. J. Fox, Gaussian, Inc., Wallingford CT, 2016.
 
 ******************************************
 Gaussian 16:  ES64L-G16RevA.03 25-Dec-2016
                31-May-2021 
 ******************************************
 %chk=NCCpNpCdCCNF.chk
 %NProcShared=20
 Will use up to   20 processors via shared memory.
 -----------------------------
 # opt freq b3lyp/6-31g(2df,p)
 -----------------------------
 1/18=20,19=15,26=3,38=1/1,3;
 2/9=110,12=2,17=6,18=5,40=1/2;
 3/5=1,6=6,7=104,11=2,25=1,30=1,71=1,74=-5/1,2,3;
 4//1;
 5/5=2,38=5/2;
 6/7=2,8=2,9=2,10=2,28=1/1;
 7//1,2,3,16;
 1/18=20,19=15,26=3/3(2);
 2/9=110/2;
 99//99;
 2/9=110/2;
 3/5=1,6=6,7=104,11=2,25=1,30=1,71=1,74=-5/1,2,3;
 4/5=5,16=3,69=1/1;
 5/5=2,38=5/2;
 7//1,2,3,16;
 1/18=20,19=15,26=3/3(-5);
 2/9=110/2;
 6/7=2,8=2,9=2,10=2,19=2,28=1/1;
 99/9=1/99;
 -------------------
 Title Card Required
 -------------------
 Symbolic Z-matrix:
 Charge =  0 Multiplicity = 1
 N                     0.98573   0.03985   0.0678 
 C                     2.45446   0.0715    0.06014 
 C                     3.0125    0.94845   1.21325 
 N                     2.5033    0.47947   2.50992 
 C                     4.51267   0.97071   1.22366 
 C                     5.22852   1.68551   2.1105 
 C                     6.72085   1.70047   2.13597 
 N                     7.21282   2.5411    3.21847 
 F                     8.58633   2.56758   3.22363 
 H                     0.66223  -0.50735  -0.72911 
 H                     0.63839   0.98809  -0.08324 
 H                     2.80614   0.45378  -0.90531 
 H                     2.82308  -0.95712   0.15883 
 H                     2.65403   1.97503   1.06017 
 H                     2.79877  -0.48928   2.62908 
 H                     1.48733   0.40693   2.40547 
 H                     5.03349   0.39183   0.46514 
 H                     4.69115   2.27096   2.8548 
 H                     7.10016   2.08712   1.18419 
 H                     7.09934   0.6815    2.27232 
 H                     6.86247   2.17101   4.10129 
 

 GradGradGradGradGradGradGradGradGradGradGradGradGradGradGradGradGradGrad
 Berny optimization.
 Initialization pass.
                           ----------------------------
                           !    Initial Parameters    !
                           ! (Angstroms and Degrees)  !
 --------------------------                            --------------------------
 ! Name  Definition              Value          Derivative Info.                !
 --------------------------------------------------------------------------------
 ! R1    R(1,2)                  1.4691         estimate D2E/DX2                !
 ! R2    R(1,10)                 1.0194         estimate D2E/DX2                !
 ! R3    R(1,11)                 1.0211         estimate D2E/DX2                !
 ! R4    R(2,3)                  1.5525         estimate D2E/DX2                !
 ! R5    R(2,12)                 1.0963         estimate D2E/DX2                !
 ! R6    R(2,13)                 1.0971         estimate D2E/DX2                !
 ! R7    R(3,4)                  1.4699         estimate D2E/DX2                !
 ! R8    R(3,5)                  1.5004         estimate D2E/DX2                !
 ! R9    R(3,14)                 1.0981         estimate D2E/DX2                !
 ! R10   R(4,15)                 1.0198         estimate D2E/DX2                !
 ! R11   R(4,16)                 1.0239         estimate D2E/DX2                !
 ! R12   R(5,6)                  1.3453         estimate D2E/DX2                !
 ! R13   R(5,17)                 1.0871         estimate D2E/DX2                !
 ! R14   R(6,7)                  1.4926         estimate D2E/DX2                !
 ! R15   R(6,18)                 1.0888         estimate D2E/DX2                !
 ! R16   R(7,8)                  1.4562         estimate D2E/DX2                !
 ! R17   R(7,19)                 1.0951         estimate D2E/DX2                !
 ! R18   R(7,20)                 1.0955         estimate D2E/DX2                !
 ! R19   R(8,9)                  1.3738         estimate D2E/DX2                !
 ! R20   R(8,21)                 1.0194         estimate D2E/DX2                !
 ! A1    A(2,1,10)             108.951          estimate D2E/DX2                !
 ! A2    A(2,1,11)             108.6209         estimate D2E/DX2                !
 ! A3    A(10,1,11)            105.9566         estimate D2E/DX2                !
 ! A4    A(1,2,3)              111.5717         estimate D2E/DX2                !
 ! A5    A(1,2,12)             109.4393         estimate D2E/DX2                !
 ! A6    A(1,2,13)             108.3751         estimate D2E/DX2                !
 ! A7    A(3,2,12)             109.988          estimate D2E/DX2                !
 ! A8    A(3,2,13)             110.0001         estimate D2E/DX2                !
 ! A9    A(12,2,13)            107.3591         estimate D2E/DX2                !
 ! A10   A(2,3,4)              110.5168         estimate D2E/DX2                !
 ! A11   A(2,3,5)              111.8972         estimate D2E/DX2                !
 ! A12   A(2,3,14)             107.8908         estimate D2E/DX2                !
 ! A13   A(4,3,5)              110.181          estimate D2E/DX2                !
 ! A14   A(4,3,14)             107.9489         estimate D2E/DX2                !
 ! A15   A(5,3,14)             108.2704         estimate D2E/DX2                !
 ! A16   A(3,4,15)             107.806          estimate D2E/DX2                !
 ! A17   A(3,4,16)             106.0426         estimate D2E/DX2                !
 ! A18   A(15,4,16)            103.4214         estimate D2E/DX2                !
 ! A19   A(3,5,6)              122.99           estimate D2E/DX2                !
 ! A20   A(3,5,17)             117.7944         estimate D2E/DX2                !
 ! A21   A(6,5,17)             119.2078         estimate D2E/DX2                !
 ! A22   A(5,6,7)              123.2694         estimate D2E/DX2                !
 ! A23   A(5,6,18)             118.2752         estimate D2E/DX2                !
 ! A24   A(7,6,18)             118.4499         estimate D2E/DX2                !
 ! A25   A(6,7,8)              110.8701         estimate D2E/DX2                !
 ! A26   A(6,7,19)             109.573          estimate D2E/DX2                !
 ! A27   A(6,7,20)             109.7688         estimate D2E/DX2                !
 ! A28   A(8,7,19)             108.9804         estimate D2E/DX2                !
 ! A29   A(8,7,20)             109.1292         estimate D2E/DX2                !
 ! A30   A(19,7,20)            108.476          estimate D2E/DX2                !
 ! A31   A(7,8,9)              110.5914         estimate D2E/DX2                !
 ! A32   A(7,8,21)             108.5481         estimate D2E/DX2                !
 ! A33   A(9,8,21)             110.327          estimate D2E/DX2                !
 ! D1    D(10,1,2,3)           177.2742         estimate D2E/DX2                !
 ! D2    D(10,1,2,12)           55.3146         estimate D2E/DX2                !
 ! D3    D(10,1,2,13)          -61.4694         estimate D2E/DX2                !
 ! D4    D(11,1,2,3)            62.287          estimate D2E/DX2                !
 ! D5    D(11,1,2,12)          -59.6727         estimate D2E/DX2                !
 ! D6    D(11,1,2,13)         -176.4566         estimate D2E/DX2                !
 ! D7    D(1,2,3,4)             56.0295         estimate D2E/DX2                !
 ! D8    D(1,2,3,5)            179.2188         estimate D2E/DX2                !
 ! D9    D(1,2,3,14)           -61.7819         estimate D2E/DX2                !
 ! D10   D(12,2,3,4)           177.672          estimate D2E/DX2                !
 ! D11   D(12,2,3,5)           -59.1387         estimate D2E/DX2                !
 ! D12   D(12,2,3,14)           59.8607         estimate D2E/DX2                !
 ! D13   D(13,2,3,4)           -64.2776         estimate D2E/DX2                !
 ! D14   D(13,2,3,5)            58.9117         estimate D2E/DX2                !
 ! D15   D(13,2,3,14)          177.911          estimate D2E/DX2                !
 ! D16   D(2,3,4,15)            59.4799         estimate D2E/DX2                !
 ! D17   D(2,3,4,16)           -50.7644         estimate D2E/DX2                !
 ! D18   D(5,3,4,15)           -64.6999         estimate D2E/DX2                !
 ! D19   D(5,3,4,16)          -174.9441         estimate D2E/DX2                !
 ! D20   D(14,3,4,15)          177.2556         estimate D2E/DX2                !
 ! D21   D(14,3,4,16)           67.0114         estimate D2E/DX2                !
 ! D22   D(2,3,5,6)            178.4768         estimate D2E/DX2                !
 ! D23   D(2,3,5,17)            -0.5008         estimate D2E/DX2                !
 ! D24   D(4,3,5,6)            -58.1442         estimate D2E/DX2                !
 ! D25   D(4,3,5,17)           122.8782         estimate D2E/DX2                !
 ! D26   D(14,3,5,6)            59.7021         estimate D2E/DX2                !
 ! D27   D(14,3,5,17)         -119.2755         estimate D2E/DX2                !
 ! D28   D(3,5,6,7)            179.3093         estimate D2E/DX2                !
 ! D29   D(3,5,6,18)             0.1812         estimate D2E/DX2                !
 ! D30   D(17,5,6,7)            -1.7269         estimate D2E/DX2                !
 ! D31   D(17,5,6,18)          179.145          estimate D2E/DX2                !
 ! D32   D(5,6,7,8)           -178.9092         estimate D2E/DX2                !
 ! D33   D(5,6,7,19)            60.7601         estimate D2E/DX2                !
 ! D34   D(5,6,7,20)           -58.2652         estimate D2E/DX2                !
 ! D35   D(18,6,7,8)             0.2175         estimate D2E/DX2                !
 ! D36   D(18,6,7,19)         -120.1132         estimate D2E/DX2                !
 ! D37   D(18,6,7,20)          120.8615         estimate D2E/DX2                !
 ! D38   D(6,7,8,9)           -179.0528         estimate D2E/DX2                !
 ! D39   D(6,7,8,21)            59.7841         estimate D2E/DX2                !
 ! D40   D(19,7,8,9)           -58.3703         estimate D2E/DX2                !
 ! D41   D(19,7,8,21)         -179.5334         estimate D2E/DX2                !
 ! D42   D(20,7,8,9)            59.9248         estimate D2E/DX2                !
 ! D43   D(20,7,8,21)          -61.2383         estimate D2E/DX2                !
 --------------------------------------------------------------------------------
 Trust Radius=3.00D-01 FncErr=1.00D-07 GrdErr=1.00D-06 EigMax=2.50D+02 EigMin=1.00D-04
 Number of steps in this run=    106 maximum allowed number of steps=    126.
 GradGradGradGradGradGradGradGradGradGradGradGradGradGradGradGradGradGrad

                          Input orientation:                          
 ---------------------------------------------------------------------
 Center     Atomic      Atomic             Coordinates (Angstroms)
 Number     Number       Type             X           Y           Z
 ---------------------------------------------------------------------
      1          7           0        0.985730    0.039850    0.067800
      2          6           0        2.454460    0.071500    0.060140
      3          6           0        3.012500    0.948450    1.213250
      4          7           0        2.503300    0.479470    2.509920
      5          6           0        4.512670    0.970710    1.223660
      6          6           0        5.228520    1.685510    2.110500
      7          6           0        6.720850    1.700470    2.135970
      8          7           0        7.212820    2.541100    3.218470
      9          9           0        8.586330    2.567580    3.223630
     10          1           0        0.662230   -0.507350   -0.729110
     11          1           0        0.638390    0.988090   -0.083240
     12          1           0        2.806140    0.453780   -0.905310
     13          1           0        2.823080   -0.957120    0.158830
     14          1           0        2.654030    1.975030    1.060170
     15          1           0        2.798770   -0.489280    2.629080
     16          1           0        1.487330    0.406930    2.405470
     17          1           0        5.033490    0.391830    0.465140
     18          1           0        4.691150    2.270960    2.854800
     19          1           0        7.100160    2.087120    1.184190
     20          1           0        7.099340    0.681500    2.272320
     21          1           0        6.862470    2.171010    4.101290
 ---------------------------------------------------------------------
                    Distance matrix (angstroms):
                    1          2          3          4          5
     1  N    0.000000
     2  C    1.469091   0.000000
     3  C    2.499081   1.552454   0.000000
     4  N    2.908648   2.483998   1.469891   0.000000
     5  C    3.826463   2.529543   1.500371   2.435847   0.000000
     6  C    4.988195   3.808466   2.501811   3.006808   1.345312
     7  C    6.318749   5.016443   3.894715   4.406632   2.498183
     8  N    7.413476   6.222215   4.919363   5.189599   3.706238
     9  F    8.609170   7.337432   6.142539   6.470923   4.810881
    10  H    1.019385   2.042075   3.378740   3.854175   4.563317
    11  H    1.021086   2.039315   2.705338   3.234357   4.088806
    12  H    2.105273   1.096317   2.185310   3.428727   2.777044
    13  H    2.092389   1.097123   2.186065   2.773747   2.775807
    14  H    2.740975   2.159471   1.098090   2.088347   2.118946
    15  H    3.182334   2.651882   2.029119   1.019793   2.654097
    16  H    2.418895   2.558989   2.010168   1.023898   3.296544
    17  H    4.082417   2.630215   2.225735   3.254331   1.087064
    18  H    5.145421   4.201253   2.694733   2.848696   2.093591
    19  H    6.543997   5.187364   4.243392   5.047100   2.818339
    20  H    6.530532   5.180806   4.230266   4.606610   2.806099
    21  H    7.439554   6.337932   4.965652   4.939244   3.904233
                    6          7          8          9         10
     6  C    0.000000
     7  C    1.492622   0.000000
     8  N    2.428390   1.456194   0.000000
     9  F    3.645819   2.326994   1.373775   0.000000
    10  H    5.807153   7.056205   8.233266   9.373938   0.000000
    11  H    5.134996   6.513731   7.519060   8.752138   1.629128
    12  H    4.059580   5.111612   6.386023   7.411268   2.356092
    13  H    4.071689   5.115122   6.392868   7.418326   2.379076
    14  H    2.795535   4.215656   5.075555   6.342228   3.651164
    15  H    3.301866   4.518946   5.386504   6.572194   3.980273
    16  H    3.964628   5.397741   6.164161   7.465494   3.367832
    17  H    2.102107   2.711346   4.116997   4.996582   4.619813
    18  H    1.088807   2.227523   2.562040   3.923831   6.065939
    19  H    2.126588   1.095107   2.087363   2.568824   7.199926
    20  H    2.129364   1.095512   2.089543   2.583298   7.201273
    21  H    2.620830   2.025820   1.019354   1.974651   8.303575
                   11         12         13         14         15
    11  H    0.000000
    12  H    2.379165   0.000000
    13  H    2.935185   1.767292   0.000000
    14  H    2.518778   2.490070   3.072213   0.000000
    15  H    3.769157   3.658050   2.514279   2.924936   0.000000
    16  H    2.692977   3.564087   2.948262   2.372753   1.604079
    17  H    4.469133   2.615924   2.607567   2.919317   3.233104
    18  H    5.167465   4.581903   4.602004   2.730958   3.354248
    19  H    6.675981   5.047021   5.349035   4.449272   5.217998
    20  H    6.883788   5.346097   5.043641   4.785740   4.471343
    21  H    7.592678   6.668488   6.453283   5.195939   5.075254
                   16         17         18         19         20
    16  H    0.000000
    17  H    4.042321   0.000000
    18  H    3.733761   3.059216   0.000000
    19  H    5.984850   2.768062   2.937357   0.000000
    20  H    5.620300   2.759990   2.943645   1.777581   0.000000
    21  H    5.905922   4.442098   2.505665   2.927970   2.370628
                   21
    21  H    0.000000
 Stoichiometry    C5H12FN3
 Framework group  C1[X(C5H12FN3)]
 Deg. of freedom    57
 Full point group                 C1      NOp   1
 Largest Abelian subgroup         C1      NOp   1
 Largest concise Abelian subgroup C1      NOp   1
                         Standard orientation:                         
 ---------------------------------------------------------------------
 Center     Atomic      Atomic             Coordinates (Angstroms)
 Number     Number       Type             X           Y           Z
 ---------------------------------------------------------------------
      1          7           0       -4.107952   -0.166913   -0.168701
      2          6           0       -2.813357   -0.770079    0.175453
      3          6           0       -1.628475    0.128497   -0.270334
      4          7           0       -1.753810    1.472483    0.311535
      5          6           0       -0.302755   -0.471912    0.094479
      6          6           0        0.872580    0.105856   -0.213151
      7          6           0        2.194569   -0.478324    0.159678
      8          7           0        3.284448    0.379793   -0.283379
      9          9           0        4.498588   -0.173351    0.043966
     10          1           0       -4.853675   -0.808007    0.099707
     11          1           0       -4.166421   -0.077722   -1.184203
     12          1           0       -2.733603   -1.756605   -0.296053
     13          1           0       -2.780687   -0.922704    1.261417
     14          1           0       -1.672597    0.227377   -1.363072
     15          1           0       -1.758856    1.373646    1.326515
     16          1           0       -2.705139    1.785462    0.098498
     17          1           0       -0.304575   -1.425318    0.616707
     18          1           0        0.856827    1.053678   -0.748768
     19          1           0        2.304878   -1.463307   -0.306048
     20          1           0        2.252592   -0.599891    1.246876
     21          1           0        3.179794    1.291783    0.159796
 ---------------------------------------------------------------------
 Rotational constants (GHZ):           6.4914469           0.4538476           0.4347785
 Standard basis: 6-31G(2df,p) (6D, 7F)
 There are   339 symmetry adapted cartesian basis functions of A   symmetry.
 There are   312 symmetry adapted basis functions of A   symmetry.
   312 basis functions,   480 primitive gaussians,   339 cartesian basis functions
    36 alpha electrons       36 beta electrons
       nuclear repulsion energy       444.1557171594 Hartrees.
 NAtoms=   21 NActive=   21 NUniq=   21 SFac= 1.00D+00 NAtFMM=   60 NAOKFM=F Big=F
 Integral buffers will be    131072 words long.
 Raffenetti 2 integral format.
 Two-electron integral symmetry is turned on.
 One-electron integrals computed using PRISM.
 PrsmSu:  requested number of processors reduced to:  13 ShMem   1 Linda.
 NBasis=   312 RedAO= T EigKep=  4.16D-04  NBF=   312
 NBsUse=   312 1.00D-06 EigRej= -1.00D+00 NBFU=   312
 ExpMin= 1.61D-01 ExpMax= 7.00D+03 ExpMxC= 1.05D+03 IAcc=3 IRadAn=         5 AccDes= 0.00D+00
 Harris functional with IExCor=  402 and IRadAn=       5 diagonalized for initial guess.
 HarFok:  IExCor=  402 AccDes= 0.00D+00 IRadAn=         5 IDoV= 1 UseB2=F ITyADJ=14
 ICtDFT=  3500011 ScaDFX=  1.000000  1.000000  1.000000  1.000000
 FoFCou: FMM=F IPFlag=           0 FMFlag=      100000 FMFlg1=           0
         NFxFlg=           0 DoJE=T BraDBF=F KetDBF=T FulRan=T
         wScrn=  0.000000 ICntrl=       500 IOpCl=  0 I1Cent=   200000004 NGrid=           0
         NMat0=    1 NMatS0=      1 NMatT0=    0 NMatD0=    1 NMtDS0=    0 NMtDT0=    0
 Petite list used in FoFCou.
 Requested convergence on RMS density matrix=1.00D-08 within 128 cycles.
 Requested convergence on MAX density matrix=1.00D-06.
 Requested convergence on             energy=1.00D-06.
 No special actions if energy rises.
 Integral accuracy reduced to 1.0D-05 until final iterations.
 Initial convergence to 1.0D-05 achieved.  Increase integral accuracy.
 SCF Done:  E(RB3LYP) =  -461.757388104     A.U. after   12 cycles
            NFock= 12  Conv=0.70D-08     -V/T= 2.0073

 **********************************************************************

            Population analysis using the SCF density.

 **********************************************************************

 Orbital symmetries:
       Occupied  (A) (A) (A) (A) (A) (A) (A) (A) (A) (A) (A) (A)
                 (A) (A) (A) (A) (A) (A) (A) (A) (A) (A) (A) (A)
                 (A) (A) (A) (A) (A) (A) (A) (A) (A) (A) (A) (A)
       Virtual   (A) (A) (A) (A) (A) (A) (A) (A) (A) (A) (A) (A)
                 (A) (A) (A) (A) (A) (A) (A) (A) (A) (A) (A) (A)
                 (A) (A) (A) (A) (A) (A) (A) (A) (A) (A) (A) (A)
                 (A) (A) (A) (A) (A) (A) (A) (A) (A) (A) (A) (A)
                 (A) (A) (A) (A) (A) (A) (A) (A) (A) (A) (A) (A)
                 (A) (A) (A) (A) (A) (A) (A) (A) (A) (A) (A) (A)
                 (A) (A) (A) (A) (A) (A) (A) (A) (A) (A) (A) (A)
                 (A) (A) (A) (A) (A) (A) (A) (A) (A) (A) (A) (A)
                 (A) (A) (A) (A) (A) (A) (A) (A) (A) (A) (A) (A)
                 (A) (A) (A) (A) (A) (A) (A) (A) (A) (A) (A) (A)
                 (A) (A) (A) (A) (A) (A) (A) (A) (A) (A) (A) (A)
                 (A) (A) (A) (A) (A) (A) (A) (A) (A) (A) (A) (A)
                 (A) (A) (A) (A) (A) (A) (A) (A) (A) (A) (A) (A)
                 (A) (A) (A) (A) (A) (A) (A) (A) (A) (A) (A) (A)
                 (A) (A) (A) (A) (A) (A) (A) (A) (A) (A) (A) (A)
                 (A) (A) (A) (A) (A) (A) (A) (A) (A) (A) (A) (A)
                 (A) (A) (A) (A) (A) (A) (A) (A) (A) (A) (A) (A)
                 (A) (A) (A) (A) (A) (A) (A) (A) (A) (A) (A) (A)
                 (A) (A) (A) (A) (A) (A) (A) (A) (A) (A) (A) (A)
                 (A) (A) (A) (A) (A) (A) (A) (A) (A) (A) (A) (A)
                 (A) (A) (A) (A) (A) (A) (A) (A) (A) (A) (A) (A)
                 (A) (A) (A) (A) (A) (A) (A) (A) (A) (A) (A) (A)
                 (A) (A) (A) (A) (A) (A) (A) (A) (A) (A) (A) (A)
 The electronic state is 1-A.
 Alpha  occ. eigenvalues --  -24.68700 -14.38595 -14.31683 -14.30082 -10.21563
 Alpha  occ. eigenvalues --  -10.21413 -10.20708 -10.19021 -10.18394  -1.20677
 Alpha  occ. eigenvalues --   -0.90118  -0.86916  -0.86125  -0.77529  -0.70874
 Alpha  occ. eigenvalues --   -0.65658  -0.59697  -0.56346  -0.52689  -0.50671
 Alpha  occ. eigenvalues --   -0.48433  -0.46571  -0.46182  -0.45556  -0.43125
 Alpha  occ. eigenvalues --   -0.41054  -0.40621  -0.39927  -0.38267  -0.36030
 Alpha  occ. eigenvalues --   -0.35277  -0.33676  -0.25455  -0.24533  -0.23337
 Alpha  occ. eigenvalues --   -0.22623
 Alpha virt. eigenvalues --    0.00047   0.07316   0.08100   0.10377   0.11097
 Alpha virt. eigenvalues --    0.12177   0.12757   0.14104   0.14155   0.15988
 Alpha virt. eigenvalues --    0.16597   0.17206   0.19008   0.19603   0.21953
 Alpha virt. eigenvalues --    0.23672   0.25104   0.26789   0.28934   0.31518
 Alpha virt. eigenvalues --    0.37500   0.44567   0.46916   0.47727   0.48431
 Alpha virt. eigenvalues --    0.50188   0.51311   0.52676   0.53277   0.56569
 Alpha virt. eigenvalues --    0.57018   0.58891   0.60546   0.60697   0.61772
 Alpha virt. eigenvalues --    0.64012   0.65176   0.66753   0.68133   0.68544
 Alpha virt. eigenvalues --    0.70352   0.71734   0.73346   0.73515   0.75087
 Alpha virt. eigenvalues --    0.76353   0.77662   0.78482   0.78739   0.79729
 Alpha virt. eigenvalues --    0.80151   0.81417   0.82780   0.83391   0.83840
 Alpha virt. eigenvalues --    0.84046   0.85504   0.86420   0.87090   0.88296
 Alpha virt. eigenvalues --    0.91781   0.93136   0.96559   0.98803   1.01436
 Alpha virt. eigenvalues --    1.01615   1.04402   1.05340   1.07625   1.09496
 Alpha virt. eigenvalues --    1.12083   1.12729   1.16054   1.18459   1.20703
 Alpha virt. eigenvalues --    1.24261   1.26358   1.28893   1.33525   1.33970
 Alpha virt. eigenvalues --    1.35335   1.36627   1.37921   1.40230   1.42749
 Alpha virt. eigenvalues --    1.44524   1.49288   1.51178   1.53720   1.54320
 Alpha virt. eigenvalues --    1.57067   1.58467   1.60965   1.64607   1.65633
 Alpha virt. eigenvalues --    1.66884   1.67688   1.72034   1.73380   1.77745
 Alpha virt. eigenvalues --    1.79018   1.79871   1.83600   1.87125   1.87148
 Alpha virt. eigenvalues --    1.87804   1.91288   1.93743   2.00691   2.04333
 Alpha virt. eigenvalues --    2.09675   2.11917   2.12462   2.16852   2.19486
 Alpha virt. eigenvalues --    2.19773   2.22970   2.24106   2.26681   2.30703
 Alpha virt. eigenvalues --    2.34400   2.35552   2.41135   2.43260   2.46919
 Alpha virt. eigenvalues --    2.50278   2.52426   2.53769   2.55085   2.60654
 Alpha virt. eigenvalues --    2.65039   2.69426   2.74281   2.75723   2.76289
 Alpha virt. eigenvalues --    2.79828   2.80422   2.81052   2.82865   2.83889
 Alpha virt. eigenvalues --    2.85476   2.86125   2.88732   2.89178   2.92619
 Alpha virt. eigenvalues --    2.94195   2.96336   2.98170   3.02286   3.03198
 Alpha virt. eigenvalues --    3.04413   3.06690   3.07850   3.09701   3.13922
 Alpha virt. eigenvalues --    3.15519   3.18819   3.19856   3.23299   3.27767
 Alpha virt. eigenvalues --    3.29386   3.32541   3.34032   3.35838   3.38746
 Alpha virt. eigenvalues --    3.39435   3.41823   3.44521   3.46711   3.47892
 Alpha virt. eigenvalues --    3.51631   3.53386   3.55727   3.62934   3.65117
 Alpha virt. eigenvalues --    3.66179   3.70200   3.72071   3.75168   3.79706
 Alpha virt. eigenvalues --    3.81961   3.83472   3.83818   3.88175   3.92239
 Alpha virt. eigenvalues --    3.96444   3.96734   3.99109   4.06958   4.11561
 Alpha virt. eigenvalues --    4.14236   4.16637   4.19107   4.21916   4.22349
 Alpha virt. eigenvalues --    4.23702   4.24954   4.26121   4.28466   4.31518
 Alpha virt. eigenvalues --    4.32019   4.32904   4.34649   4.36096   4.37125
 Alpha virt. eigenvalues --    4.38743   4.39332   4.41984   4.43446   4.46791
 Alpha virt. eigenvalues --    4.47613   4.49544   4.51966   4.53605   4.55579
 Alpha virt. eigenvalues --    4.56034   4.57808   4.59575   4.60500   4.62275
 Alpha virt. eigenvalues --    4.63355   4.63726   4.66121   4.67610   4.68980
 Alpha virt. eigenvalues --    4.69805   4.70634   4.73125   4.75226   4.77620
 Alpha virt. eigenvalues --    4.80883   4.81752   4.83452   4.85624   4.88010
 Alpha virt. eigenvalues --    4.88765   4.90230   4.92169   4.95205   5.02406
 Alpha virt. eigenvalues --    5.06150   5.08538   5.10844   5.14210   5.15043
 Alpha virt. eigenvalues --    5.19594   5.20925   5.30596   5.36174   5.37794
 Alpha virt. eigenvalues --    5.39730   5.47797   5.50933   5.55615   5.63503
 Alpha virt. eigenvalues --    5.70378   6.16433   6.66187   6.66298   6.75428
 Alpha virt. eigenvalues --    6.77386   7.12409   7.24539   7.29741   9.40196
 Alpha virt. eigenvalues --    9.63402   9.98982  10.34026  10.54242  11.40088
 Alpha virt. eigenvalues --   11.41188  11.47095  11.48686  12.52844  12.73146
 Alpha virt. eigenvalues --   12.88655
          Condensed to atoms (all electrons):
               1          2          3          4          5          6
     1  N    6.552265   0.381247  -0.032345  -0.011426   0.001701  -0.000047
     2  C    0.381247   4.954033   0.388633  -0.054121  -0.034822   0.004379
     3  C   -0.032345   0.388633   4.762506   0.387811   0.386274  -0.001561
     4  N   -0.011426  -0.054121   0.387811   6.578048  -0.038969  -0.004646
     5  C    0.001701  -0.034822   0.386274  -0.038969   4.792110   0.645859
     6  C   -0.000047   0.004379  -0.001561  -0.004646   0.645859   4.912968
     7  C    0.000000  -0.000113   0.001860   0.000151  -0.011265   0.268721
     8  N   -0.000000   0.000000  -0.000029   0.000001   0.000718  -0.019047
     9  F   -0.000000  -0.000000   0.000000  -0.000000  -0.000044   0.003048
    10  H    0.339481  -0.042015   0.004296   0.000399  -0.000224   0.000001
    11  H    0.337961  -0.056520  -0.000305   0.000481  -0.000135  -0.000010
    12  H   -0.047102   0.357271  -0.038946   0.006071   0.003694  -0.000208
    13  H   -0.024585   0.341728  -0.013866  -0.003599  -0.005108  -0.000126
    14  H   -0.002658  -0.060572   0.353542  -0.032150  -0.022982  -0.012024
    15  H    0.000392  -0.005641  -0.060435   0.333380   0.002210   0.000160
    16  H    0.023932  -0.007123  -0.054045   0.331932   0.006801   0.000431
    17  H    0.000129  -0.007884  -0.062867   0.002283   0.369145  -0.048814
    18  H    0.000002   0.000431  -0.013774   0.007322  -0.021844   0.361966
    19  H   -0.000000  -0.000006  -0.000327  -0.000011  -0.010353  -0.013223
    20  H    0.000000   0.000016   0.000120   0.000034  -0.001993  -0.024281
    21  H   -0.000000  -0.000000  -0.000005  -0.000007  -0.000721   0.009458
               7          8          9         10         11         12
     1  N    0.000000  -0.000000  -0.000000   0.339481   0.337961  -0.047102
     2  C   -0.000113   0.000000  -0.000000  -0.042015  -0.056520   0.357271
     3  C    0.001860  -0.000029   0.000000   0.004296  -0.000305  -0.038946
     4  N    0.000151   0.000001  -0.000000   0.000399   0.000481   0.006071
     5  C   -0.011265   0.000718  -0.000044  -0.000224  -0.000135   0.003694
     6  C    0.268721  -0.019047   0.003048   0.000001  -0.000010  -0.000208
     7  C    5.023307   0.350318  -0.016896  -0.000000   0.000000  -0.000006
     8  N    0.350318   6.347621   0.233219   0.000000  -0.000000   0.000000
     9  F   -0.016896   0.233219   8.968969  -0.000000  -0.000000   0.000000
    10  H   -0.000000   0.000000  -0.000000   0.504963  -0.030250  -0.004600
    11  H    0.000000  -0.000000  -0.000000  -0.030250   0.516674  -0.004961
    12  H   -0.000006   0.000000   0.000000  -0.004600  -0.004961   0.695302
    13  H    0.000002  -0.000000   0.000000  -0.002130   0.006865  -0.045943
    14  H   -0.000024   0.000000  -0.000000  -0.000047   0.006025  -0.003244
    15  H   -0.000054  -0.000000  -0.000000  -0.000030   0.000137   0.000063
    16  H    0.000001  -0.000000   0.000000  -0.000581  -0.000927   0.000840
    17  H   -0.012914   0.000128   0.000000  -0.000012   0.000020   0.003162
    18  H   -0.071786   0.003013   0.000052   0.000000  -0.000001  -0.000012
    19  H    0.346866  -0.019355   0.000703   0.000000   0.000000  -0.000000
    20  H    0.350534  -0.046286   0.004845   0.000000  -0.000000   0.000001
    21  H   -0.067738   0.323582  -0.019215  -0.000000   0.000000  -0.000000
              13         14         15         16         17         18
     1  N   -0.024585  -0.002658   0.000392   0.023932   0.000129   0.000002
     2  C    0.341728  -0.060572  -0.005641  -0.007123  -0.007884   0.000431
     3  C   -0.013866   0.353542  -0.060435  -0.054045  -0.062867  -0.013774
     4  N   -0.003599  -0.032150   0.333380   0.331932   0.002283   0.007322
     5  C   -0.005108  -0.022982   0.002210   0.006801   0.369145  -0.021844
     6  C   -0.000126  -0.012024   0.000160   0.000431  -0.048814   0.361966
     7  C    0.000002  -0.000024  -0.000054   0.000001  -0.012914  -0.071786
     8  N   -0.000000   0.000000  -0.000000  -0.000000   0.000128   0.003013
     9  F    0.000000  -0.000000  -0.000000   0.000000   0.000000   0.000052
    10  H   -0.002130  -0.000047  -0.000030  -0.000581  -0.000012   0.000000
    11  H    0.006865   0.006025   0.000137  -0.000927   0.000020  -0.000001
    12  H   -0.045943  -0.003244   0.000063   0.000840   0.003162  -0.000012
    13  H    0.633685   0.006374   0.005819  -0.000413   0.003334   0.000004
    14  H    0.006374   0.667482   0.007766  -0.003128   0.006047   0.001618
    15  H    0.005819   0.007766   0.530061  -0.029762   0.000651  -0.000121
    16  H   -0.000413  -0.003128  -0.029762   0.500273  -0.000210  -0.000256
    17  H    0.003334   0.006047   0.000651  -0.000210   0.654868   0.007462
    18  H    0.000004   0.001618  -0.000121  -0.000256   0.007462   0.603504
    19  H    0.000002   0.000057   0.000004   0.000000   0.001942   0.003092
    20  H   -0.000004  -0.000016  -0.000023  -0.000001   0.002607   0.005037
    21  H    0.000000   0.000003   0.000002   0.000000   0.000026   0.002777
              19         20         21
     1  N   -0.000000   0.000000  -0.000000
     2  C   -0.000006   0.000016  -0.000000
     3  C   -0.000327   0.000120  -0.000005
     4  N   -0.000011   0.000034  -0.000007
     5  C   -0.010353  -0.001993  -0.000721
     6  C   -0.013223  -0.024281   0.009458
     7  C    0.346866   0.350534  -0.067738
     8  N   -0.019355  -0.046286   0.323582
     9  F    0.000703   0.004845  -0.019215
    10  H    0.000000   0.000000  -0.000000
    11  H    0.000000  -0.000000   0.000000
    12  H   -0.000000   0.000001  -0.000000
    13  H    0.000002  -0.000004   0.000000
    14  H    0.000057  -0.000016   0.000003
    15  H    0.000004  -0.000023   0.000002
    16  H    0.000000  -0.000001   0.000000
    17  H    0.001942   0.002607   0.000026
    18  H    0.003092   0.005037   0.002777
    19  H    0.601252  -0.050189   0.007285
    20  H   -0.050189   0.664420  -0.009658
    21  H    0.007285  -0.009658   0.511610
 Mulliken charges:
               1
     1  N   -0.518949
     2  C   -0.158920
     3  C   -0.006536
     4  N   -0.502984
     5  C   -0.060053
     6  C   -0.083005
     7  C   -0.160964
     8  N   -0.173885
     9  F   -0.174681
    10  H    0.230748
    11  H    0.224946
    12  H    0.078619
    13  H    0.097962
    14  H    0.087930
    15  H    0.215423
    16  H    0.232239
    17  H    0.080897
    18  H    0.111512
    19  H    0.132263
    20  H    0.104838
    21  H    0.242600
 Sum of Mulliken charges =  -0.00000
 Mulliken charges with hydrogens summed into heavy atoms:
               1
     1  N   -0.063255
     2  C    0.017662
     3  C    0.081394
     4  N   -0.055323
     5  C    0.020844
     6  C    0.028507
     7  C    0.076137
     8  N    0.068715
     9  F   -0.174681
 Electronic spatial extent (au):  <R**2>=           2399.2441
 Charge=             -0.0000 electrons
 Dipole moment (field-independent basis, Debye):
    X=             -2.9407    Y=             -1.2687    Z=              0.7169  Tot=              3.2820
 Quadrupole moment (field-independent basis, Debye-Ang):
   XX=            -58.6155   YY=            -54.1757   ZZ=            -52.7468
   XY=              6.6319   XZ=              5.0691   YZ=              0.5540
 Traceless Quadrupole moment (field-independent basis, Debye-Ang):
   XX=             -3.4361   YY=              1.0036   ZZ=              2.4325
   XY=              6.6319   XZ=              5.0691   YZ=              0.5540
 Octapole moment (field-independent basis, Debye-Ang**2):
  XXX=            -57.0483  YYY=             -1.9574  ZZZ=              2.3557  XYY=             14.9596
  XXY=             -9.8177  XXZ=             -0.4627  XZZ=             -1.9557  YZZ=              2.1333
  YYZ=              1.7654  XYZ=              3.0479
 Hexadecapole moment (field-independent basis, Debye-Ang**3):
 XXXX=          -2579.2702 YYYY=           -240.8446 ZZZZ=            -96.8114 XXXY=            122.2131
 XXXZ=             81.5485 YYYX=              2.6820 YYYZ=              3.4208 ZZZX=             10.7070
 ZZZY=              3.9591 XXYY=           -413.5024 XXZZ=           -411.5309 YYZZ=            -53.6761
 XXYZ=              6.3672 YYXZ=             -1.8565 ZZXY=             -6.7832
 N-N= 4.441557171594D+02 E-N=-1.968153091317D+03  KE= 4.584274635849D+02
 PrsmSu:  requested number of processors reduced to:  13 ShMem   1 Linda.
 Calling FoFJK, ICntrl=      2127 FMM=F ISym2X=0 I1Cent= 0 IOpClX= 0 NMat=1 NMatS=1 NMatT=0.
 ***** Axes restored to original set *****
 -------------------------------------------------------------------
 Center     Atomic                   Forces (Hartrees/Bohr)
 Number     Number              X              Y              Z
 -------------------------------------------------------------------
      1        7          -0.002534001    0.001223880    0.003664760
      2        6          -0.000355703    0.008761138   -0.007472022
      3        6          -0.008989529   -0.015166103   -0.004587243
      4        7          -0.008080714    0.003154504    0.004196550
      5        6           0.013826146    0.011947132    0.010311192
      6        6          -0.016833586   -0.009792120   -0.008817092
      7        6           0.013977923   -0.005604235    0.001974278
      8        7          -0.042196388    0.024905045   -0.008315391
      9        9           0.016267012   -0.011573468    0.004343250
     10        1          -0.000062285    0.001575573    0.003559455
     11        1           0.000382260   -0.003220298   -0.000808454
     12        1           0.008917693    0.000978316   -0.002492747
     13        1           0.000704080    0.000291250    0.001951699
     14        1          -0.003095785    0.000364963    0.001201103
     15        1           0.002824979    0.001409531    0.001108336
     16        1           0.002701521    0.000531416    0.001721208
     17        1           0.000394005   -0.001562282   -0.001285577
     18        1           0.001509762    0.000343806    0.000237628
     19        1           0.003833712    0.001125585    0.001554192
     20        1           0.002623244   -0.005614192   -0.006136089
     21        1           0.014185655   -0.004079441    0.004090964
 -------------------------------------------------------------------
 Cartesian Forces:  Max     0.042196388 RMS     0.008979795

 GradGradGradGradGradGradGradGradGradGradGradGradGradGradGradGradGradGrad
 Berny optimization.
 FormGI is forming the generalized inverse of G from B-inverse, IUseBI=4.
 Internal  Forces:  Max     0.016292244 RMS     0.004724776
 Search for a local minimum.
 Step number   1 out of a maximum of  106
 All quantities printed in internal units (Hartrees-Bohrs-Radians)
 Mixed Optimization -- RFO/linear search
 Second derivative matrix not updated -- first step.
 ITU=  0
     Eigenvalues ---    0.00230   0.00761   0.00767   0.00778   0.00864
     Eigenvalues ---    0.00948   0.01595   0.01642   0.02812   0.04194
     Eigenvalues ---    0.04414   0.04509   0.04626   0.05122   0.05172
     Eigenvalues ---    0.05350   0.05361   0.06535   0.06705   0.09280
     Eigenvalues ---    0.09775   0.12734   0.13137   0.15998   0.15999
     Eigenvalues ---    0.16000   0.16000   0.16000   0.16000   0.16000
     Eigenvalues ---    0.17581   0.18516   0.21944   0.22000   0.22000
     Eigenvalues ---    0.22015   0.23644   0.27444   0.32338   0.33164
     Eigenvalues ---    0.33894   0.34002   0.34093   0.34183   0.34229
     Eigenvalues ---    0.34951   0.35154   0.35753   0.35849   0.37445
     Eigenvalues ---    0.43722   0.44165   0.44371   0.44436   0.44441
     Eigenvalues ---    0.50258   0.56031
 RFO step:  Lambda=-1.41780637D-02 EMin= 2.30000000D-03
 Linear search not attempted -- first point.
 Iteration  1 RMS(Cart)=  0.05059782 RMS(Int)=  0.00256013
 Iteration  2 RMS(Cart)=  0.00258913 RMS(Int)=  0.00120100
 Iteration  3 RMS(Cart)=  0.00000476 RMS(Int)=  0.00120100
 Iteration  4 RMS(Cart)=  0.00000001 RMS(Int)=  0.00120100
 Variable       Old X    -DE/DX   Delta X   Delta X   Delta X     New X
                                 (Linear)    (Quad)   (Total)
    R1        2.77618   0.00226   0.00000   0.00605   0.00605   2.78223
    R2        1.92636  -0.00361   0.00000  -0.00787  -0.00787   1.91849
    R3        1.92957  -0.00300   0.00000  -0.00658  -0.00658   1.92299
    R4        2.93371  -0.00678   0.00000  -0.02348  -0.02348   2.91023
    R5        2.07174   0.00540   0.00000   0.01520   0.01520   2.08694
    R6        2.07326   0.00014   0.00000   0.00039   0.00039   2.07366
    R7        2.77769   0.00546   0.00000   0.01468   0.01468   2.79237
    R8        2.83529   0.00757   0.00000   0.02244   0.02244   2.85773
    R9        2.07509   0.00118   0.00000   0.00335   0.00335   2.07844
   R10        1.92713  -0.00039   0.00000  -0.00085  -0.00085   1.92628
   R11        1.93489  -0.00289   0.00000  -0.00641  -0.00641   1.92848
   R12        2.54227  -0.01629   0.00000  -0.02836  -0.02836   2.51391
   R13        2.05425   0.00192   0.00000   0.00524   0.00524   2.05950
   R14        2.82065   0.00864   0.00000   0.02498   0.02498   2.84563
   R15        2.05755  -0.00040   0.00000  -0.00109  -0.00109   2.05645
   R16        2.75181   0.00146   0.00000   0.00376   0.00376   2.75557
   R17        2.06945   0.00037   0.00000   0.00105   0.00105   2.07050
   R18        2.07022   0.00536   0.00000   0.01507   0.01507   2.08528
   R19        2.59606   0.01606   0.00000   0.03107   0.03107   2.62713
   R20        1.92630   0.00015   0.00000   0.00032   0.00032   1.92662
    A1        1.90155   0.00200   0.00000   0.01214   0.01212   1.91367
    A2        1.89579   0.00082   0.00000   0.00537   0.00535   1.90114
    A3        1.84929  -0.00108   0.00000  -0.00470  -0.00475   1.84454
    A4        1.94729  -0.00722   0.00000  -0.03006  -0.03039   1.91690
    A5        1.91008   0.00789   0.00000   0.07245   0.07246   1.98253
    A6        1.89150   0.00193   0.00000  -0.00307  -0.00433   1.88718
    A7        1.91965  -0.00083   0.00000  -0.00413  -0.00393   1.91573
    A8        1.91986  -0.00030   0.00000  -0.02826  -0.02891   1.89096
    A9        1.87377  -0.00116   0.00000  -0.00551  -0.00606   1.86771
   A10        1.92888   0.00958   0.00000   0.05710   0.05728   1.98616
   A11        1.95297  -0.00635   0.00000  -0.02157  -0.02238   1.93060
   A12        1.88305  -0.00164   0.00000  -0.02008  -0.01972   1.86333
   A13        1.92302  -0.00055   0.00000   0.00942   0.00926   1.93228
   A14        1.88406  -0.00442   0.00000  -0.03556  -0.03515   1.84892
   A15        1.88968   0.00325   0.00000   0.00819   0.00789   1.89756
   A16        1.88157  -0.00036   0.00000   0.00281   0.00272   1.88429
   A17        1.85079   0.00277   0.00000   0.02105   0.02095   1.87174
   A18        1.80504   0.00082   0.00000   0.01776   0.01753   1.82257
   A19        2.14658   0.00199   0.00000   0.00855   0.00850   2.15508
   A20        2.05590  -0.00162   0.00000  -0.00779  -0.00783   2.04807
   A21        2.08057  -0.00036   0.00000  -0.00049  -0.00053   2.08004
   A22        2.15146   0.00352   0.00000   0.01503   0.01503   2.16648
   A23        2.06429  -0.00021   0.00000   0.00138   0.00138   2.06567
   A24        2.06734  -0.00330   0.00000  -0.01637  -0.01637   2.05097
   A25        1.93505  -0.01005   0.00000  -0.04057  -0.04065   1.89440
   A26        1.91241   0.00603   0.00000   0.02495   0.02402   1.93643
   A27        1.91583   0.00175   0.00000   0.01597   0.01621   1.93204
   A28        1.90207  -0.00183   0.00000  -0.03156  -0.03146   1.87060
   A29        1.90466   0.00768   0.00000   0.05438   0.05479   1.95946
   A30        1.89326  -0.00348   0.00000  -0.02314  -0.02289   1.87037
   A31        1.93018  -0.01399   0.00000  -0.08355  -0.08682   1.84336
   A32        1.89452   0.00689   0.00000  -0.00852  -0.01155   1.88297
   A33        1.92557  -0.00797   0.00000  -0.13825  -0.14675   1.77882
    D1        3.09402   0.00179   0.00000   0.05643   0.05633  -3.13284
    D2        0.96542   0.00221   0.00000   0.03185   0.03211   0.99753
    D3       -1.07284  -0.00183   0.00000   0.00030   0.00019  -1.07265
    D4        1.08711   0.00156   0.00000   0.05266   0.05252   1.13964
    D5       -1.04148   0.00198   0.00000   0.02808   0.02831  -1.01317
    D6       -3.07975  -0.00206   0.00000  -0.00347  -0.00361  -3.08336
    D7        0.97790  -0.00291   0.00000  -0.03786  -0.03757   0.94033
    D8        3.12796  -0.00119   0.00000   0.00038   0.00051   3.12847
    D9       -1.07830  -0.00200   0.00000  -0.01514  -0.01468  -1.09298
   D10        3.10096   0.00167   0.00000   0.03095   0.03089   3.13185
   D11       -1.03216   0.00340   0.00000   0.06919   0.06897  -0.96319
   D12        1.04477   0.00259   0.00000   0.05368   0.05377   1.09854
   D13       -1.12186  -0.00044   0.00000   0.00458   0.00434  -1.11751
   D14        1.02820   0.00129   0.00000   0.04281   0.04242   1.07063
   D15        3.10513   0.00048   0.00000   0.02730   0.02723   3.13236
   D16        1.03812   0.00092   0.00000   0.06158   0.06219   1.10031
   D17       -0.88601  -0.00110   0.00000   0.03083   0.03130  -0.85470
   D18       -1.12923   0.00272   0.00000   0.04261   0.04228  -1.08694
   D19       -3.05335   0.00071   0.00000   0.01186   0.01140  -3.04195
   D20        3.09369   0.00171   0.00000   0.04839   0.04831  -3.14118
   D21        1.16957  -0.00030   0.00000   0.01764   0.01743   1.18700
   D22        3.11501  -0.00293   0.00000   0.00081   0.00092   3.11593
   D23       -0.00874  -0.00347   0.00000  -0.01708  -0.01694  -0.02568
   D24       -1.01481   0.00453   0.00000   0.06595   0.06579  -0.94902
   D25        2.14463   0.00399   0.00000   0.04806   0.04793   2.19256
   D26        1.04200   0.00081   0.00000   0.03320   0.03322   1.07521
   D27       -2.08175   0.00026   0.00000   0.01532   0.01536  -2.06639
   D28        3.12954   0.00031   0.00000   0.00526   0.00525   3.13479
   D29        0.00316   0.00020   0.00000   0.00155   0.00152   0.00468
   D30       -0.03014   0.00085   0.00000   0.02332   0.02335  -0.00679
   D31        3.12667   0.00074   0.00000   0.01961   0.01962  -3.13690
   D32       -3.12255  -0.00274   0.00000  -0.02117  -0.02129   3.13934
   D33        1.06046   0.00200   0.00000   0.02765   0.02788   1.08834
   D34       -1.01692   0.00153   0.00000   0.03110   0.03102  -0.98590
   D35        0.00380  -0.00261   0.00000  -0.01732  -0.01745  -0.01365
   D36       -2.09637   0.00213   0.00000   0.03151   0.03172  -2.06465
   D37        2.10943   0.00166   0.00000   0.03496   0.03486   2.14429
   D38       -3.12506  -0.00732   0.00000  -0.12233  -0.12036   3.03777
   D39        1.04343   0.00677   0.00000   0.10558   0.10252   1.14595
   D40       -1.01875  -0.00732   0.00000  -0.13724  -0.13412  -1.15287
   D41       -3.13345   0.00677   0.00000   0.09068   0.08876  -3.04469
   D42        1.04588  -0.00814   0.00000  -0.15201  -0.14955   0.89634
   D43       -1.06881   0.00595   0.00000   0.07590   0.07333  -0.99548
         Item               Value     Threshold  Converged?
 Maximum Force            0.016292     0.000450     NO 
 RMS     Force            0.004725     0.000300     NO 
 Maximum Displacement     0.207191     0.001800     NO 
 RMS     Displacement     0.051342     0.001200     NO 
 Predicted change in Energy=-8.071917D-03
 GradGradGradGradGradGradGradGradGradGradGradGradGradGradGradGradGradGrad

                          Input orientation:                          
 ---------------------------------------------------------------------
 Center     Atomic      Atomic             Coordinates (Angstroms)
 Number     Number       Type             X           Y           Z
 ---------------------------------------------------------------------
      1          7           0        1.002688    0.038846    0.067446
      2          6           0        2.474176    0.080153    0.041589
      3          6           0        2.993332    0.938486    1.210104
      4          7           0        2.480494    0.519978    2.531213
      5          6           0        4.505062    0.977906    1.211232
      6          6           0        5.220412    1.669763    2.094023
      7          6           0        6.725509    1.712690    2.113957
      8          7           0        7.150385    2.570271    3.214110
      9          9           0        8.535197    2.457939    3.262908
     10          1           0        0.663813   -0.534322   -0.698919
     11          1           0        0.643074    0.974335   -0.108770
     12          1           0        2.889118    0.455429   -0.910566
     13          1           0        2.846820   -0.943585    0.172862
     14          1           0        2.613713    1.957944    1.047939
     15          1           0        2.815868   -0.425179    2.713585
     16          1           0        1.468746    0.418460    2.444656
     17          1           0        5.021395    0.404044    0.441926
     18          1           0        4.691234    2.234426    2.859116
     19          1           0        7.117110    2.153285    1.190376
     20          1           0        7.143721    0.694503    2.191883
     21          1           0        6.871891    2.121768    4.086302
 ---------------------------------------------------------------------
                    Distance matrix (angstroms):
                    1          2          3          4          5
     1  N    0.000000
     2  C    1.472295   0.000000
     3  C    2.465296   1.540028   0.000000
     4  N    2.912996   2.528183   1.477660   0.000000
     5  C    3.802197   2.509686   1.512244   2.459862   0.000000
     6  C    4.955411   3.779042   2.505187   3.003380   1.330305
     7  C    6.304018   5.003371   3.917331   4.429088   2.507031
     8  N    7.355527   6.175152   4.894880   5.145671   3.680337
     9  F    8.532391   7.264072   6.102050   6.399258   4.758347
    10  H    1.015220   2.050206   3.352640   3.853003   4.548703
    11  H    1.017602   2.043307   2.695261   3.248394   4.081344
    12  H    2.165334   1.104359   2.177486   3.466552   2.717771
    13  H    2.092154   1.097331   2.153956   2.799648   2.742281
    14  H    2.690670   2.135020   1.099864   2.070167   2.136431
    15  H    3.241141   2.740743   2.037530   1.019342   2.660656
    16  H    2.452029   2.626798   2.029509   1.020505   3.324684
    17  H    4.052605   2.598749   2.233554   3.291616   1.089839
    18  H    5.120485   4.182666   2.698438   2.816776   2.080631
    19  H    6.566429   5.212910   4.299031   5.095463   2.864393
    20  H    6.531111   5.177436   4.271902   4.678813   2.829225
    21  H    7.411971   6.314095   4.971508   4.926297   3.895681
                    6          7          8          9         10
     6  C    0.000000
     7  C    1.505841   0.000000
     8  N    2.406305   1.458184   0.000000
     9  F    3.602127   2.269462   1.390218   0.000000
    10  H    5.781099   7.050212   8.186935   9.306363   0.000000
    11  H    5.127177   6.517799   7.478879   8.709472   1.620108
    12  H    3.992129   5.044436   6.296340   7.301106   2.444665
    13  H    4.019252   5.086047   6.333801   7.312755   2.386005
    14  H    2.823512   4.254810   5.064447   6.341928   3.614556
    15  H    3.248764   4.496146   5.292568   6.428441   4.035893
    16  H    3.970352   5.423831   6.123999   7.400253   3.381978
    17  H    2.090712   2.722545   4.112195   4.952094   4.601149
    18  H    1.088228   2.228395   2.507236   3.871571   6.045304
    19  H    2.155884   1.095663   2.066515   2.529660   7.241389
    20  H    2.158663   1.103485   2.136235   2.488576   7.201108
    21  H    2.626950   2.019633   1.019526   1.886153   8.276073
                   11         12         13         14         15
    11  H    0.000000
    12  H    2.440667   0.000000
    13  H    2.935001   1.769985   0.000000
    14  H    2.487746   2.483776   3.039567   0.000000
    15  H    3.826926   3.730322   2.593255   2.914535   0.000000
    16  H    2.740569   3.643671   2.985850   2.373136   1.612075
    17  H    4.449516   2.525565   2.572406   2.928956   3.272979
    18  H    5.175305   4.541250   4.551656   2.769999   3.257557
    19  H    6.707522   5.017229   5.372273   4.509881   5.241119
    20  H    6.901429   5.271052   5.022264   4.840027   4.500686
    21  H    7.596933   6.603624   6.396295   5.233600   4.982230
                   16         17         18         19         20
    16  H    0.000000
    17  H    4.078289   0.000000
    18  H    3.722088   3.049936   0.000000
    19  H    6.040435   2.830556   2.945531   0.000000
    20  H    5.687304   2.766041   2.971743   1.769681   0.000000
    21  H    5.898325   4.433553   2.504784   2.906461   2.387426
                   21
    21  H    0.000000
 Stoichiometry    C5H12FN3
 Framework group  C1[X(C5H12FN3)]
 Deg. of freedom    57
 Full point group                 C1      NOp   1
 Largest Abelian subgroup         C1      NOp   1
 Largest concise Abelian subgroup C1      NOp   1
                         Standard orientation:                         
 ---------------------------------------------------------------------
 Center     Atomic      Atomic             Coordinates (Angstroms)
 Number     Number       Type             X           Y           Z
 ---------------------------------------------------------------------
      1          7           0       -4.082625   -0.165024   -0.144479
      2          6           0       -2.789040   -0.793403    0.170844
      3          6           0       -1.638417    0.136129   -0.257786
      4          7           0       -1.734771    1.500802    0.300661
      5          6           0       -0.300256   -0.484694    0.075058
      6          6           0        0.865869    0.088194   -0.210712
      7          6           0        2.206194   -0.512514    0.121304
      8          7           0        3.248887    0.394137   -0.344612
      9          9           0        4.445921   -0.146488    0.110954
     10          1           0       -4.839033   -0.776363    0.146698
     11          1           0       -4.170845   -0.080194   -1.154695
     12          1           0       -2.656896   -1.788216   -0.290128
     13          1           0       -2.733362   -0.933276    1.257798
     14          1           0       -1.712857    0.250510   -1.349151
     15          1           0       -1.668565    1.430589    1.315425
     16          1           0       -2.685195    1.831026    0.130140
     17          1           0       -0.308125   -1.452822    0.575471
     18          1           0        0.858065    1.056892   -0.706498
     19          1           0        2.348697   -1.465159   -0.400843
     20          1           0        2.284022   -0.718942    1.202512
     21          1           0        3.184272    1.252665    0.201454
 ---------------------------------------------------------------------
 Rotational constants (GHZ):           6.2735190           0.4610714           0.4403601
 Standard basis: 6-31G(2df,p) (6D, 7F)
 There are   339 symmetry adapted cartesian basis functions of A   symmetry.
 There are   312 symmetry adapted basis functions of A   symmetry.
   312 basis functions,   480 primitive gaussians,   339 cartesian basis functions
    36 alpha electrons       36 beta electrons
       nuclear repulsion energy       444.7865380508 Hartrees.
 NAtoms=   21 NActive=   21 NUniq=   21 SFac= 1.00D+00 NAtFMM=   60 NAOKFM=F Big=F
 Integral buffers will be    131072 words long.
 Raffenetti 2 integral format.
 Two-electron integral symmetry is turned on.
 One-electron integrals computed using PRISM.
 PrsmSu:  requested number of processors reduced to:  13 ShMem   1 Linda.
 NBasis=   312 RedAO= T EigKep=  4.07D-04  NBF=   312
 NBsUse=   312 1.00D-06 EigRej= -1.00D+00 NBFU=   312
 Initial guess from the checkpoint file:  "NCCpNpCdCCNF.chk"
 B after Tr=    -0.000000    0.000000   -0.000000
         Rot=    0.999997   -0.002326   -0.000601   -0.000210 Ang=  -0.28 deg.
 ExpMin= 1.61D-01 ExpMax= 7.00D+03 ExpMxC= 1.05D+03 IAcc=2 IRadAn=         4 AccDes= 0.00D+00
 Harris functional with IExCor=  402 and IRadAn=       4 diagonalized for initial guess.
 HarFok:  IExCor=  402 AccDes= 0.00D+00 IRadAn=         4 IDoV= 1 UseB2=F ITyADJ=14
 ICtDFT=  3500011 ScaDFX=  1.000000  1.000000  1.000000  1.000000
 FoFCou: FMM=F IPFlag=           0 FMFlag=      100000 FMFlg1=           0
         NFxFlg=           0 DoJE=T BraDBF=F KetDBF=T FulRan=T
         wScrn=  0.000000 ICntrl=       500 IOpCl=  0 I1Cent=   200000004 NGrid=           0
         NMat0=    1 NMatS0=      1 NMatT0=    0 NMatD0=    1 NMtDS0=    0 NMtDT0=    0
 Petite list used in FoFCou.
 Requested convergence on RMS density matrix=1.00D-08 within 128 cycles.
 Requested convergence on MAX density matrix=1.00D-06.
 Requested convergence on             energy=1.00D-06.
 No special actions if energy rises.
 Integral accuracy reduced to 1.0D-05 until final iterations.
 Initial convergence to 1.0D-05 achieved.  Increase integral accuracy.
 SCF Done:  E(RB3LYP) =  -461.764938414     A.U. after   11 cycles
            NFock= 11  Conv=0.75D-08     -V/T= 2.0073
 PrsmSu:  requested number of processors reduced to:  13 ShMem   1 Linda.
 Calling FoFJK, ICntrl=      2127 FMM=F ISym2X=0 I1Cent= 0 IOpClX= 0 NMat=1 NMatS=1 NMatT=0.
 ***** Axes restored to original set *****
 -------------------------------------------------------------------
 Center     Atomic                   Forces (Hartrees/Bohr)
 Number     Number              X              Y              Z
 -------------------------------------------------------------------
      1        7           0.003285146    0.000902001   -0.001093200
      2        6          -0.003919245    0.000020450    0.001128726
      3        6          -0.002453436   -0.002955944    0.000382455
      4        7          -0.000122037    0.000100286   -0.002486907
      5        6           0.000927304    0.002022542    0.002056114
      6        6          -0.002327417   -0.002833977   -0.001837233
      7        6          -0.002942711   -0.002537825   -0.002516770
      8        7          -0.015686154    0.002972094    0.000152205
      9        9           0.021020940   -0.000641139    0.001161410
     10        1          -0.000654760   -0.000810075    0.000555110
     11        1          -0.000114763   -0.000087881   -0.000577516
     12        1           0.000851841    0.000516126    0.001062709
     13        1          -0.000425356   -0.001061342   -0.000656675
     14        1          -0.000028130    0.001100199    0.000319552
     15        1           0.001420823    0.000837679    0.000893104
     16        1           0.001191257    0.000428080   -0.000726301
     17        1          -0.000966282   -0.000138749   -0.000898160
     18        1           0.001202435    0.000830275    0.000333465
     19        1           0.000539452    0.000497887    0.000152412
     20        1           0.000890461    0.001855267    0.000581768
     21        1          -0.001689370   -0.001015955    0.002013733
 -------------------------------------------------------------------
 Cartesian Forces:  Max     0.021020940 RMS     0.003621339

 GradGradGradGradGradGradGradGradGradGradGradGradGradGradGradGradGradGrad
 Berny optimization.
 Using GEDIIS/GDIIS optimizer.
 FormGI is forming the generalized inverse of G from B-inverse, IUseBI=4.
 Internal  Forces:  Max     0.021031691 RMS     0.002403955
 Search for a local minimum.
 Step number   2 out of a maximum of  106
 All quantities printed in internal units (Hartrees-Bohrs-Radians)
 Mixed Optimization -- RFO/linear search
 Update second derivatives using D2CorX and points    1    2
 DE= -7.55D-03 DEPred=-8.07D-03 R= 9.35D-01
 TightC=F SS=  1.41D+00  RLast= 4.21D-01 DXNew= 5.0454D-01 1.2632D+00
 Trust test= 9.35D-01 RLast= 4.21D-01 DXMaxT set to 5.05D-01
 ITU=  1  0
 Use linear search instead of GDIIS.
     Eigenvalues ---    0.00229   0.00754   0.00767   0.00777   0.00862
     Eigenvalues ---    0.00953   0.01598   0.01651   0.02812   0.04133
     Eigenvalues ---    0.04361   0.04530   0.04922   0.05233   0.05480
     Eigenvalues ---    0.05551   0.05916   0.06639   0.06747   0.08907
     Eigenvalues ---    0.09473   0.12474   0.13110   0.15837   0.16000
     Eigenvalues ---    0.16000   0.16000   0.16000   0.16000   0.16405
     Eigenvalues ---    0.17822   0.18754   0.21588   0.21898   0.22000
     Eigenvalues ---    0.22445   0.24099   0.27410   0.32061   0.32905
     Eigenvalues ---    0.33882   0.33999   0.34085   0.34220   0.34241
     Eigenvalues ---    0.34951   0.35144   0.35807   0.36147   0.37657
     Eigenvalues ---    0.43648   0.44118   0.44366   0.44382   0.44521
     Eigenvalues ---    0.49078   0.56977
 RFO step:  Lambda=-2.28227040D-03 EMin= 2.29450446D-03
 Quartic linear search produced a step of  0.02948.
 Iteration  1 RMS(Cart)=  0.06831116 RMS(Int)=  0.00241777
 Iteration  2 RMS(Cart)=  0.00316513 RMS(Int)=  0.00003942
 Iteration  3 RMS(Cart)=  0.00000588 RMS(Int)=  0.00003931
 Iteration  4 RMS(Cart)=  0.00000000 RMS(Int)=  0.00003931
 Variable       Old X    -DE/DX   Delta X   Delta X   Delta X     New X
                                 (Linear)    (Quad)   (Total)
    R1        2.78223  -0.00253   0.00018  -0.00662  -0.00644   2.77579
    R2        1.91849   0.00026  -0.00023  -0.00015  -0.00038   1.91811
    R3        1.92299   0.00006  -0.00019  -0.00048  -0.00068   1.92231
    R4        2.91023   0.00030  -0.00069  -0.00106  -0.00176   2.90847
    R5        2.08694  -0.00042   0.00045   0.00017   0.00061   2.08755
    R6        2.07366   0.00077   0.00001   0.00233   0.00234   2.07600
    R7        2.79237  -0.00333   0.00043  -0.00808  -0.00765   2.78473
    R8        2.85773   0.00100   0.00066   0.00522   0.00588   2.86361
    R9        2.07844   0.00098   0.00010   0.00326   0.00336   2.08180
   R10        1.92628  -0.00015  -0.00003  -0.00042  -0.00045   1.92583
   R11        1.92848  -0.00116  -0.00019  -0.00331  -0.00350   1.92498
   R12        2.51391   0.00012  -0.00084  -0.00247  -0.00330   2.51061
   R13        2.05950   0.00025   0.00015   0.00121   0.00137   2.06086
   R14        2.84563   0.00218   0.00074   0.00902   0.00976   2.85539
   R15        2.05645   0.00008  -0.00003   0.00013   0.00010   2.05655
   R16        2.75557   0.00435   0.00011   0.01215   0.01226   2.76783
   R17        2.07050   0.00026   0.00003   0.00088   0.00091   2.07142
   R18        2.08528  -0.00133   0.00044  -0.00256  -0.00211   2.08317
   R19        2.62713   0.02103   0.00092   0.04554   0.04645   2.67358
   R20        1.92662   0.00263   0.00001   0.00606   0.00606   1.93269
    A1        1.91367   0.00111   0.00036   0.00956   0.00989   1.92356
    A2        1.90114   0.00007   0.00016   0.00237   0.00250   1.90364
    A3        1.84454  -0.00024  -0.00014   0.00120   0.00102   1.84556
    A4        1.91690   0.00144  -0.00090   0.00439   0.00349   1.92039
    A5        1.98253   0.00015   0.00214   0.00732   0.00947   1.99200
    A6        1.88718  -0.00072  -0.00013  -0.00137  -0.00155   1.88563
    A7        1.91573  -0.00144  -0.00012  -0.01232  -0.01243   1.90330
    A8        1.89096   0.00039  -0.00085   0.00412   0.00324   1.89420
    A9        1.86771   0.00017  -0.00018  -0.00214  -0.00235   1.86536
   A10        1.98616   0.00082   0.00169   0.01036   0.01206   1.99822
   A11        1.93060   0.00035  -0.00066   0.00024  -0.00043   1.93017
   A12        1.86333   0.00004  -0.00058   0.00314   0.00259   1.86591
   A13        1.93228  -0.00105   0.00027  -0.00647  -0.00623   1.92605
   A14        1.84892  -0.00015  -0.00104  -0.00574  -0.00681   1.84211
   A15        1.89756  -0.00002   0.00023  -0.00189  -0.00169   1.89587
   A16        1.88429   0.00059   0.00008   0.00628   0.00635   1.89064
   A17        1.87174  -0.00133   0.00062  -0.00412  -0.00351   1.86824
   A18        1.82257   0.00089   0.00052   0.01290   0.01340   1.83597
   A19        2.15508   0.00142   0.00025   0.00732   0.00753   2.16261
   A20        2.04807  -0.00197  -0.00023  -0.01192  -0.01219   2.03588
   A21        2.08004   0.00055  -0.00002   0.00460   0.00454   2.08458
   A22        2.16648   0.00224   0.00044   0.01170   0.01215   2.17863
   A23        2.06567   0.00035   0.00004   0.00421   0.00425   2.06993
   A24        2.05097  -0.00259  -0.00048  -0.01590  -0.01638   2.03459
   A25        1.89440   0.00137  -0.00120   0.00287   0.00169   1.89608
   A26        1.93643  -0.00005   0.00071   0.00661   0.00728   1.94370
   A27        1.93204   0.00088   0.00048   0.01062   0.01110   1.94314
   A28        1.87060  -0.00043  -0.00093  -0.00552  -0.00647   1.86413
   A29        1.95946  -0.00198   0.00162  -0.01218  -0.01057   1.94888
   A30        1.87037   0.00013  -0.00067  -0.00286  -0.00364   1.86673
   A31        1.84336   0.00266  -0.00256   0.00492   0.00228   1.84564
   A32        1.88297  -0.00073  -0.00034  -0.00262  -0.00304   1.87993
   A33        1.77882   0.00010  -0.00433  -0.00318  -0.00773   1.77108
    D1       -3.13284   0.00013   0.00166   0.04715   0.04883  -3.08402
    D2        0.99753   0.00081   0.00095   0.05465   0.05561   1.05314
    D3       -1.07265   0.00100   0.00001   0.05378   0.05379  -1.01886
    D4        1.13964  -0.00023   0.00155   0.03917   0.04071   1.18034
    D5       -1.01317   0.00045   0.00083   0.04666   0.04749  -0.96569
    D6       -3.08336   0.00064  -0.00011   0.04580   0.04567  -3.03769
    D7        0.94033   0.00062  -0.00111   0.07902   0.07793   1.01826
    D8        3.12847   0.00013   0.00002   0.07857   0.07860  -3.07611
    D9       -1.09298   0.00032  -0.00043   0.07828   0.07786  -1.01512
   D10        3.13185   0.00081   0.00091   0.08278   0.08368  -3.06765
   D11       -0.96319   0.00032   0.00203   0.08233   0.08435  -0.87884
   D12        1.09854   0.00051   0.00159   0.08204   0.08361   1.18215
   D13       -1.11751   0.00044   0.00013   0.07578   0.07591  -1.04161
   D14        1.07063  -0.00005   0.00125   0.07533   0.07658   1.14720
   D15        3.13236   0.00014   0.00080   0.07504   0.07583  -3.07499
   D16        1.10031   0.00084   0.00183   0.06351   0.06537   1.16567
   D17       -0.85470   0.00016   0.00092   0.04771   0.04864  -0.80606
   D18       -1.08694   0.00058   0.00125   0.06038   0.06165  -1.02530
   D19       -3.04195  -0.00010   0.00034   0.04458   0.04492  -2.99703
   D20       -3.14118   0.00123   0.00142   0.06931   0.07071  -3.07047
   D21        1.18700   0.00056   0.00051   0.05351   0.05399   1.24099
   D22        3.11593   0.00064   0.00003   0.06875   0.06876  -3.09850
   D23       -0.02568   0.00037  -0.00050   0.05278   0.05232   0.02664
   D24       -0.94902   0.00118   0.00194   0.07760   0.07950  -0.86952
   D25        2.19256   0.00091   0.00141   0.06163   0.06306   2.25562
   D26        1.07521   0.00040   0.00098   0.06593   0.06688   1.14209
   D27       -2.06639   0.00013   0.00045   0.04996   0.05044  -2.01595
   D28        3.13479   0.00002   0.00015  -0.00144  -0.00132   3.13347
   D29        0.00468   0.00000   0.00004  -0.00318  -0.00319   0.00150
   D30       -0.00679   0.00029   0.00069   0.01481   0.01555   0.00875
   D31       -3.13690   0.00027   0.00058   0.01307   0.01368  -3.12322
   D32        3.13934   0.00074  -0.00063   0.03334   0.03271  -3.11114
   D33        1.08834   0.00047   0.00082   0.03450   0.03535   1.12369
   D34       -0.98590  -0.00023   0.00091   0.02697   0.02787  -0.95803
   D35       -0.01365   0.00078  -0.00051   0.03519   0.03466   0.02101
   D36       -2.06465   0.00050   0.00094   0.03634   0.03730  -2.02735
   D37        2.14429  -0.00020   0.00103   0.02882   0.02982   2.17411
   D38        3.03777   0.00054  -0.00355  -0.00592  -0.00942   3.02835
   D39        1.14595  -0.00043   0.00302  -0.00342  -0.00048   1.14547
   D40       -1.15287   0.00099  -0.00395   0.00040  -0.00350  -1.15637
   D41       -3.04469   0.00002   0.00262   0.00290   0.00543  -3.03926
   D42        0.89634  -0.00023  -0.00441  -0.01333  -0.01764   0.87870
   D43       -0.99548  -0.00120   0.00216  -0.01083  -0.00870  -1.00419
         Item               Value     Threshold  Converged?
 Maximum Force            0.021032     0.000450     NO 
 RMS     Force            0.002404     0.000300     NO 
 Maximum Displacement     0.249989     0.001800     NO 
 RMS     Displacement     0.068759     0.001200     NO 
 Predicted change in Energy=-1.305577D-03
 GradGradGradGradGradGradGradGradGradGradGradGradGradGradGradGradGradGrad

                          Input orientation:                          
 ---------------------------------------------------------------------
 Center     Atomic      Atomic             Coordinates (Angstroms)
 Number     Number       Type             X           Y           Z
 ---------------------------------------------------------------------
      1          7           0        0.991519    0.065367    0.033522
      2          6           0        2.460019    0.048872    0.062881
      3          6           0        2.974571    0.944428    1.203951
      4          7           0        2.491371    0.565160    2.543432
      5          6           0        4.488435    1.009900    1.188736
      6          6           0        5.210754    1.671014    2.086650
      7          6           0        6.720061    1.741847    2.097131
      8          7           0        7.143844    2.524911    3.260096
      9          9           0        8.554605    2.424700    3.297073
     10          1           0        0.647966   -0.566385   -0.682802
     11          1           0        0.674964    0.992290   -0.241059
     12          1           0        2.934260    0.363196   -0.884020
     13          1           0        2.784856   -0.982802    0.255196
     14          1           0        2.576828    1.955512    1.021953
     15          1           0        2.892452   -0.340216    2.784270
     16          1           0        1.489268    0.400534    2.463760
     17          1           0        4.993735    0.461833    0.392734
     18          1           0        4.693049    2.198926    2.885178
     19          1           0        7.101700    2.260177    1.209876
     20          1           0        7.168790    0.734943    2.099098
     21          1           0        6.880714    2.002931    4.099314
 ---------------------------------------------------------------------
                    Distance matrix (angstroms):
                    1          2          3          4          5
     1  N    0.000000
     2  C    1.468887   0.000000
     3  C    2.464781   1.539099   0.000000
     4  N    2.966311   2.533904   1.473614   0.000000
     5  C    3.801984   2.511094   1.515356   2.453826   0.000000
     6  C    4.959373   3.780678   2.511493   2.970960   1.328558
     7  C    6.315478   5.015207   3.932219   4.411983   2.518151
     8  N    7.369616   6.187986   4.910040   5.098993   3.692829
     9  F    8.568400   7.297159   6.140777   6.386600   4.793796
    10  H    1.015018   2.053807   3.354920   3.884215   4.553738
    11  H    1.017245   2.041774   2.716346   3.351890   4.072737
    12  H    2.169063   1.104684   2.167736   3.461845   2.670206
    13  H    2.088985   1.098570   2.156466   2.778191   2.782901
    14  H    2.657602   2.137461   1.101641   2.062833   2.139214
    15  H    3.368183   2.782866   2.038250   1.019104   2.629773
    16  H    2.503227   2.613473   2.022143   1.018656   3.315420
    17  H    4.037816   2.588254   2.228900   3.301212   1.090561
    18  H    5.136666   4.192196   2.711725   2.762854   2.081721
    19  H    6.598130   5.267891   4.331792   5.089852   2.897032
    20  H    6.547795   5.175848   4.293792   4.701543   2.844058
    21  H    7.414003   6.297118   4.976095   4.873837   3.896226
                    6          7          8          9         10
     6  C    0.000000
     7  C    1.511005   0.000000
     8  N    2.417220   1.464674   0.000000
     9  F    3.635176   2.296018   1.414799   0.000000
    10  H    5.787474   7.065855   8.203596   9.343497   0.000000
    11  H    5.143179   6.524736   7.513549   8.755508   1.620288
    12  H    3.964554   5.012009   6.290255   7.302028   2.476238
    13  H    4.035089   5.128574   6.350925   7.358946   2.370558
    14  H    2.855185   4.285795   5.117727   6.413277   3.603702
    15  H    3.147419   4.411093   5.148757   6.322002   4.136358
    16  H    3.950416   5.412460   6.092729   7.396664   3.397583
    17  H    2.092502   2.742919   4.135338   4.996781   4.593443
    18  H    1.088281   2.222323   2.500645   3.890019   6.061363
    19  H    2.165993   1.096147   2.067671   2.548410   7.295366
    20  H    2.170320   1.102368   2.133664   2.492169   7.207883
    21  H    2.636239   2.025515   1.022735   1.903520   8.265421
                   11         12         13         14         15
    11  H    0.000000
    12  H    2.431785   0.000000
    13  H    2.932389   1.769703   0.000000
    14  H    2.477920   2.509175   3.043827   0.000000
    15  H    3.980633   3.735357   2.611648   2.911313   0.000000
    16  H    2.886055   3.646509   2.910312   2.383181   1.618752
    17  H    4.397143   2.425132   2.642921   2.910057   3.283004
    18  H    5.232049   4.546437   4.547680   2.830061   3.114413
    19  H    6.709373   5.034927   5.483016   4.539009   5.192161
    20  H    6.907412   5.193114   5.056629   4.871975   4.462343
    21  H    7.640130   6.564820   6.361438   5.291109   4.808942
                   16         17         18         19         20
    16  H    0.000000
    17  H    4.071141   0.000000
    18  H    3.698110   3.052896   0.000000
    19  H    6.043996   2.888820   2.934619   0.000000
    20  H    5.701033   2.777972   2.981688   1.766792   0.000000
    21  H    5.857509   4.435585   2.509666   2.909273   2.385717
                   21
    21  H    0.000000
 Stoichiometry    C5H12FN3
 Framework group  C1[X(C5H12FN3)]
 Deg. of freedom    57
 Full point group                 C1      NOp   1
 Largest Abelian subgroup         C1      NOp   1
 Largest concise Abelian subgroup C1      NOp   1
                         Standard orientation:                         
 ---------------------------------------------------------------------
 Center     Atomic      Atomic             Coordinates (Angstroms)
 Number     Number       Type             X           Y           Z
 ---------------------------------------------------------------------
      1          7           0       -4.097519   -0.176631   -0.151731
      2          6           0       -2.804452   -0.762738    0.225210
      3          6           0       -1.655464    0.139656   -0.258874
      4          7           0       -1.697696    1.516336    0.265060
      5          6           0       -0.314091   -0.497901    0.042024
      6          6           0        0.854934    0.075992   -0.220835
      7          6           0        2.203498   -0.535923    0.079284
      8          7           0        3.246610    0.413424   -0.315589
      9          9           0        4.466262   -0.149669    0.128292
     10          1           0       -4.858109   -0.741145    0.213080
     11          1           0       -4.193162   -0.205715   -1.164052
     12          1           0       -2.644165   -1.786777   -0.156862
     13          1           0       -2.764172   -0.821391    1.321474
     14          1           0       -1.762121    0.236035   -1.351096
     15          1           0       -1.533897    1.481762    1.270320
     16          1           0       -2.656083    1.845752    0.161912
     17          1           0       -0.334585   -1.479813    0.516105
     18          1           0        0.859322    1.063448   -0.678292
     19          1           0        2.367227   -1.448224   -0.505899
     20          1           0        2.289269   -0.815943    1.142039
     21          1           0        3.167803    1.232619    0.291615
 ---------------------------------------------------------------------
 Rotational constants (GHZ):           6.2267685           0.4592430           0.4382150
 Standard basis: 6-31G(2df,p) (6D, 7F)
 There are   339 symmetry adapted cartesian basis functions of A   symmetry.
 There are   312 symmetry adapted basis functions of A   symmetry.
   312 basis functions,   480 primitive gaussians,   339 cartesian basis functions
    36 alpha electrons       36 beta electrons
       nuclear repulsion energy       443.6653021134 Hartrees.
 NAtoms=   21 NActive=   21 NUniq=   21 SFac= 1.00D+00 NAtFMM=   60 NAOKFM=F Big=F
 Integral buffers will be    131072 words long.
 Raffenetti 2 integral format.
 Two-electron integral symmetry is turned on.
 One-electron integrals computed using PRISM.
 PrsmSu:  requested number of processors reduced to:  13 ShMem   1 Linda.
[...]
 1514,0.00000434,-0.00000484,0.08682275,0.41424976,-0.04740920,-0.09908
 274,-0.04623314,0.00620073,-0.00410737,-0.00441709,-0.00313145,-0.0006
 1424,-0.00109013,-0.00083736,-0.00033494,-0.00000161,0.00062001,-0.000
 92550,-0.00025175,-0.00042653,0.00002602,-0.00005821,0.00010150,0.0001
 1444,-0.00012616,0.00004509,-0.00005752,0.00000865,-0.00021761,0.00003
 260,-0.00004316,0.03687227,0.07010857,0.04744163,-0.07297077,0.0387488
 5,-0.08231402,-0.01749946,0.02434663,-0.03311302,0.00076473,0.00090485
 ,-0.00024445,0.00012003,0.00045425,0.00034145,0.00003211,-0.00025938,0
 .00039965,0.00013467,-0.00001519,0.00009985,-0.00003289,0.00007377,-0.
 00000935,-0.00002379,0.00001120,0.00001303,0.00004652,-0.00000928,0.00
 000796,0.00264887,-0.00443156,0.00854438,0.09157298,0.04651638,-0.1599
 3640,0.14808034,0.00093963,0.00236874,-0.00278197,-0.00045318,0.002456
 81,-0.00111090,0.00008899,-0.00087312,-0.00005968,-0.00013952,-0.00035
 080,0.00022065,0.00013543,-0.00006689,-0.00001769,-0.00001427,0.000108
 96,-0.00001241,-0.00001315,0.00000538,-0.00000182,0.00001044,-0.000007
 07,-0.00000153,0.01214909,-0.02225151,0.03376889,-0.05747905,0.1772159
 8,-0.11560255,0.18953849,-0.26324463,0.00684139,0.00103698,-0.00520195
 ,-0.00048170,0.00075847,-0.00063213,-0.00028024,-0.00126514,-0.0004146
 9,-0.00005682,-0.00043709,0.00032324,0.00014883,-0.00006720,-0.0000542
 8,-0.00003467,0.00014098,-0.00001419,-0.00001338,-0.00000113,-0.000003
 22,0.00000421,-0.00000777,-0.00000242,0.00429096,-0.01018836,0.0026407
 6,0.10630925,-0.17791838,0.26315840,-0.03426360,0.00112385,0.02564907,
 -0.09900071,0.01071758,0.09556691,0.00246813,0.00102567,-0.00278124,0.
 00094925,-0.00186431,-0.00161337,-0.00017039,-0.00016472,-0.00096407,0
 .00039409,0.00000557,0.00012864,-0.00000656,-0.00003571,0.00004195,0.0
 0002289,0.00001126,-0.00001981,-0.00000769,-0.00000452,0.00000012,0.00
 023607,0.00088125,0.00028485,0.00222834,-0.00117361,0.00003505,0.12217
 385,-0.00421144,0.00347355,0.00308339,0.01053795,-0.05512525,-0.015529
 89,0.01218622,-0.00035567,-0.02587246,-0.00039733,-0.00584260,-0.00453
 387,0.00144445,0.00056974,-0.00026637,-0.00021945,0.00002131,0.0001844
 1,-0.00002382,0.00000876,-0.00000389,0.00001376,-0.00001161,0.00001020
 ,-0.00001985,0.00000306,-0.00000371,-0.00023417,0.00009056,0.00081273,
 0.00084637,0.00007170,-0.00101588,-0.00876349,0.05320722,-0.00172092,0
 .00012048,0.00978212,0.09413476,-0.01687395,-0.22734267,0.00634792,0.0
 0278596,-0.01260725,0.00032073,-0.00554546,-0.00199382,0.00170117,0.00
 020564,-0.00039362,-0.00073119,0.00006162,0.00031537,0.00003172,0.0000
 6990,-0.00012087,-0.00000660,-0.00003161,0.00005939,-0.00004919,0.0000
 0737,0.00000850,0.00049851,0.00053043,0.00057904,0.00056286,0.00001574
 ,0.00224354,-0.10862631,0.02089582,0.24380799,-0.01824766,0.02675542,-
 0.02396711,-0.06995834,0.04949429,-0.04208995,0.00226209,-0.00525235,0
 .00475272,-0.00041239,0.00042117,0.00024017,0.00080571,0.00001736,0.00
 057089,0.00007095,0.00006854,-0.00015867,-0.00005958,0.00008542,0.0000
 1303,-0.00002176,-0.00001230,-0.00000716,0.00003150,0.00000266,0.00000
 164,0.00164259,0.00029961,-0.00044987,-0.00724472,-0.00078445,-0.00083
 768,0.00535046,-0.01077017,0.00886907,0.08542817,-0.00241360,0.0037026
 4,-0.00322091,0.05749120,-0.17926931,0.11467729,0.00710606,-0.02505800
 ,0.01938701,-0.00066899,0.00369170,0.00086859,0.00203960,0.00118949,0.
 00048872,-0.00072710,0.00018905,-0.00065799,0.00003852,-0.00018184,0.0
 0001476,-0.00001807,-0.00002708,-0.00002620,0.00000295,0.00002642,-0.0
 0002050,0.00056837,0.00108670,-0.00018479,-0.00164692,0.00130796,-0.00
 065657,-0.00096510,0.00278301,-0.00225241,-0.05928697,0.19590717,-0.00
 388726,0.00250120,-0.00225191,-0.04631954,0.11420644,-0.14854499,0.004
 08235,-0.01058585,0.00674233,-0.00001458,0.00045305,0.00261792,0.00071
 026,0.00029536,0.00054737,0.00015580,0.00010597,0.00004106,-0.00007464
 ,-0.00001327,0.00003597,0.00000407,0.00003743,0.00000126,0.00006426,-0
 .00002763,0.00001519,-0.00036522,0.00000205,0.00004458,-0.00091643,-0.
 00086961,0.00146929,-0.00706125,0.02078474,-0.01718123,0.05415429,-0.1
 2411776,0.15675554,0.00101261,-0.00015391,0.00103541,0.00263049,-0.005
 41006,0.00240134,-0.07849541,0.06474406,-0.05657519,0.00691999,-0.0096
 1772,0.01489586,-0.01686903,0.02004797,-0.02283465,-0.00212634,0.00086
 726,0.00178774,0.00049366,-0.00338998,0.00019445,0.00047669,0.00000453
 ,0.00017809,-0.00033535,0.00004160,0.00001154,0.00014791,0.00009820,0.
 00012345,0.00028378,0.00018568,-0.00029079,0.00006808,0.00053882,0.000
 09100,0.00015466,-0.00163000,-0.00017747,0.08726240,0.00107607,0.00317
 920,0.00027862,0.01172793,-0.02961052,0.01727598,0.05966041,-0.1580530
 4,0.10231398,-0.00265881,0.00505899,-0.00228162,-0.00138217,0.00461759
 ,-0.00358863,-0.00078896,-0.00001378,-0.00073550,0.00017301,-0.0008321
 7,0.00024653,0.00006192,0.00002724,-0.00001232,0.00005744,0.00000141,0
 .00002020,0.00017953,0.00059520,0.00004446,-0.00113576,-0.00059161,-0.
 00079518,0.00004971,0.00106195,-0.00039513,-0.00149765,-0.00490476,-0.
 00307280,-0.06562076,0.17805499,0.00104096,0.00028800,0.00063881,0.002
 45750,-0.00998117,0.00678791,-0.04829623,0.09845800,-0.12891062,-0.008
 72196,0.01747428,-0.03146327,-0.00530513,0.00134877,-0.00228598,0.0000
 8802,0.00029034,0.00125974,-0.00023388,-0.00033350,0.00002745,0.000063
 98,-0.00003420,0.00002015,0.00002524,0.00000045,0.00003552,0.00035266,
 -0.00000345,0.00016723,0.00011242,0.00070148,0.00007220,0.00020973,0.0
 0108179,0.00089534,-0.00104717,-0.00281333,-0.00008584,0.05575213,-0.1
 0817855,0.15742776,-0.00019420,-0.00092308,-0.00008433,-0.00020675,-0.
 00009678,0.00022145,0.00741061,-0.01254052,0.01287035,-0.11118797,0.08
 558835,-0.08496126,0.00214624,-0.00038189,0.00191485,-0.00028592,0.000
 08681,-0.00065028,-0.00026125,0.00021647,-0.00039748,-0.00019702,0.000
 01118,0.00001866,0.00029884,-0.00000678,-0.00002500,0.00012298,-0.0000
 5005,-0.00029128,-0.00019074,0.00006272,0.00025791,0.00004033,0.000049
 10,0.00014578,0.00020257,0.00005227,-0.00037014,-0.00119319,-0.0002283
 3,0.00424380,0.11849236,0.00002740,-0.00071917,0.00002814,-0.00069138,
 0.00247711,-0.00203628,-0.00107597,-0.00219203,-0.00981762,0.10950114,
 -0.18114321,0.19196618,0.00101179,0.00022939,0.00060523,-0.00027521,0.
 00069292,0.00085787,0.00002553,-0.00029604,-0.00066821,-0.00008935,0.0
 0006605,0.00001887,0.00011652,-0.00002840,-0.00004133,-0.00002853,-0.0
 0005967,-0.00007849,-0.00001476,-0.00004290,0.00011299,0.00006164,-0.0
 0031283,0.00028210,0.00046019,-0.00006057,0.00032311,-0.00093984,0.001
 04247,0.00102087,-0.09953514,0.17924665,-0.00001768,-0.00059274,0.0000
 5325,-0.00124501,0.00127812,0.00076848,-0.01228028,0.02563424,-0.03063
 302,-0.08267267,0.14555766,-0.19354070,-0.00084939,-0.00026554,0.00161
 102,0.00043909,0.00026272,0.00057066,0.00013208,0.00006211,-0.00003262
 ,0.00004155,0.00000587,-0.00001818,-0.00009454,0.00000251,-0.00004559,
 -0.00003704,-0.00004452,-0.00008987,0.00010397,0.00015442,0.00024370,0
 .00028672,-0.00003270,0.00097410,0.00007690,-0.00144038,-0.00008460,0.
 00353371,-0.00167582,-0.00484384,0.09453680,-0.17267542,0.22795605,-0.
 00006594,-0.00033901,-0.00164628,-0.00024538,-0.00071093,-0.00134663,-
 0.02073741,-0.00597530,0.00117409,-0.37792955,-0.07871617,-0.04229781,
 -0.00033205,-0.00006019,0.00363089,0.00047843,0.00024637,0.00030356,0.
 00000391,-0.00003740,0.00006165,0.00001216,-0.00000533,-0.00004237,-0.
 00000620,0.00000528,-0.00000481,0.00002661,-0.00001506,0.00004919,0.00
 019668,-0.00016064,-0.00044079,-0.00052852,-0.00036541,-0.00047354,-0.
 00011380,0.00031964,0.00009287,0.00039829,0.00001949,-0.00008676,-0.01
 464812,-0.00771411,-0.00155736,0.41428610,0.00056260,-0.00099651,-0.00
 003246,0.00202605,0.00048842,-0.00001957,0.00845166,-0.00238371,-0.003
 97208,-0.13230232,-0.05268006,-0.00082626,-0.00008577,-0.00016471,-0.0
 0074026,-0.00042972,0.00002093,-0.00023486,0.00003151,0.00020150,0.000
 18943,0.00006667,-0.00004528,0.00001231,-0.00015707,0.00001802,-0.0000
 3693,-0.00011958,-0.00008724,0.00052685,-0.00041770,0.00058551,0.00078
 657,-0.00053647,0.00035331,0.00031496,0.00005140,-0.00021614,-0.000138
 13,-0.00033653,0.00001683,0.00019974,0.02883503,0.00230097,0.00436221,
 0.09380333,0.05214707,-0.00016379,0.00173693,-0.00088658,0.00260514,-0
 .00063396,0.00031545,0.03884542,0.00817133,0.00211180,-0.05769920,0.00
 136334,-0.06223141,0.00164537,-0.00182699,-0.00668069,-0.00071705,-0.0
 0054066,-0.00048691,0.00006199,0.00005944,0.00032191,0.00003028,0.0000
 0287,0.00002036,0.00000709,-0.00000338,0.00001327,-0.00084731,0.000230
 40,0.00126913,0.00010751,-0.00014705,-0.00056049,-0.00063266,0.0002020
 1,0.00023369,-0.00028152,-0.00006474,-0.00005622,-0.00048344,0.0006131
 0,0.00045823,-0.02721387,-0.00929456,-0.00332625,0.04293596,-0.0004425
 1,0.06897021,0.00068836,-0.00015468,-0.00064167,-0.00002653,0.00087973
 ,0.00185861,-0.01024258,0.00717291,0.02638499,-0.00627993,-0.00092064,
 -0.00253515,-0.12857196,0.03486036,0.11472566,0.00839064,-0.00533986,-
 0.01334729,0.00174107,0.00047401,-0.00240847,-0.00020056,0.00005750,0.
 00008151,-0.00003804,-0.00006473,-0.00002387,0.00002031,-0.00006103,-0
 .00005445,-0.00009116,0.00012373,0.00012643,0.00001488,-0.00078306,-0.
 00126704,0.00003873,-0.00020602,-0.00011737,0.00041522,0.00062989,-0.0
 0075342,0.00009981,-0.00007457,-0.00016271,-0.00062912,0.00010119,0.00
 200869,0.13567631,0.00056722,-0.00006629,0.00002061,-0.00067735,0.0004
 2460,0.00070360,-0.00209504,0.00205491,0.00171537,-0.00126899,0.000723
 26,0.00013775,0.03400520,-0.05872597,-0.05900074,0.00542307,0.00249292
 ,-0.01172864,0.00219785,-0.00708418,0.00243107,0.00033008,0.00038160,0
 .00019287,0.00047943,-0.00004779,0.00033497,-0.00002723,-0.00000001,0.
 00005860,0.00002441,0.00005937,0.00003889,-0.00028354,0.00005135,-0.00
 022267,0.00000966,-0.00020703,0.00009332,-0.00065128,0.00007722,-0.000
 04085,0.00020802,-0.00005694,-0.00038533,-0.00040326,0.00051445,0.0001
 0856,-0.03430563,0.05002886,-0.00005293,0.00030081,0.00024866,-0.00059
 533,-0.00066633,-0.00016551,-0.00179001,-0.00027712,0.00200922,-0.0002
 9505,-0.00021293,0.00097039,0.11145597,-0.05952089,-0.22775136,0.01643
 262,-0.00893152,-0.02044253,0.00187950,0.00359786,-0.00063396,-0.00030
 986,-0.00034370,0.00062519,-0.00042255,0.00010696,-0.00021153,0.000062
 54,0.00002762,0.00006469,-0.00002905,-0.00002159,-0.00002710,-0.000385
 22,0.00010194,0.00045313,0.00013798,0.00004689,-0.00007420,0.00094267,
 0.00013212,0.00002945,-0.00026866,-0.00023395,0.00013104,-0.00023071,-
 0.00037249,0.00004909,-0.12271859,0.07116921,0.24486383,-0.00020421,0.
 00002814,0.00005877,0.00017952,0.00011495,0.00045596,0.00028074,0.0008
 3503,-0.00061171,-0.00128580,-0.00132558,-0.00013488,0.01188389,-0.004
 43955,-0.01278349,-0.12671928,0.03771174,0.11931352,-0.01401825,0.0082
 9968,0.02420217,0.00125163,-0.00038104,0.00135442,0.00021788,-0.000039
 91,-0.00106784,0.00001306,0.00000899,0.00000227,0.00000160,-0.00001600
 ,-0.00001826,0.00002022,0.00021314,0.00023384,0.00003285,-0.00000417,0
 .00000183,-0.00029846,-0.00008951,0.00013812,-0.00062567,-0.00093939,-
 0.00024112,-0.00016085,0.00055887,-0.00008208,-0.00108535,-0.00212863,
 -0.00270194,0.13437468,-0.00031709,-0.00015778,-0.00001310,-0.00045620
 ,0.00040944,0.00009602,0.00184439,-0.00596943,0.00188263,0.00009237,-0
 .00033986,0.00029142,0.00637444,0.00211661,-0.01197405,0.03737349,-0.0
 6517393,-0.06875342,-0.00391996,0.00302568,0.00446043,0.00007652,0.000
 10086,-0.00062431,-0.00043015,-0.00002164,0.00017496,-0.00008785,0.000
 00833,-0.00010026,-0.00000567,-0.00005685,-0.00005864,-0.00007971,-0.0
 0004740,0.00003115,-0.00005593,0.00003875,0.00001565,0.00109615,0.0002
 9926,0.00051379,-0.00139036,-0.00114879,-0.00019477,0.00013601,-0.0000
 4549,0.00045328,-0.00253115,0.00904442,-0.00504082,-0.03721314,0.05610
 274,-0.00004498,0.00019718,0.00026458,0.00034719,-0.00016121,-0.000370
 23,0.00193013,0.00255354,-0.00141474,0.00128430,0.00079463,0.00067907,
 0.01370535,-0.00866126,-0.01865267,0.11458637,-0.06837138,-0.23511076,
 -0.00196877,0.00058113,0.00258928,-0.00022859,-0.00005940,0.00053740,0
 .00041857,-0.00010762,-0.00008799,0.00001108,0.00001305,0.00007265,0.0
 0002322,-0.00000013,0.00000366,-0.00011540,0.00009929,0.00028386,0.000
 02294,-0.00003612,0.00000978,-0.00052368,-0.00016876,-0.00017269,0.000
 01913,-0.00038733,0.00031533,-0.00008438,0.00044846,0.00041570,-0.0017
 4091,-0.00530149,-0.00116889,-0.12707465,0.07859475,0.25102186,-0.0001
 2974,-0.00007470,-0.00000259,0.00025231,0.00029658,0.00021432,-0.00027
 099,0.00234904,-0.00209336,0.00005882,0.00010501,0.00006968,-0.0032126
 8,-0.00076513,0.00209046,-0.00977060,-0.03166413,-0.01026102,-0.057836
 92,-0.05852535,-0.00874391,0.00180582,0.01537577,-0.00151370,0.0017808
 0,-0.00005878,0.00081974,-0.00000187,-0.00001844,-0.00003179,0.0000281
 4,0.00001951,0.00003119,-0.00001102,-0.00000387,-0.00000265,0.00003669
 ,-0.00003124,0.00001308,-0.00102827,-0.00024670,-0.00004647,0.00010863
 ,-0.00010371,-0.00003757,-0.00000967,0.00000024,0.00002576,-0.00001308
 ,-0.00098724,0.00030005,0.00108624,0.00096049,0.00022653,0.06457703,-0
 .00003453,-0.00001735,0.00000086,-0.00000878,0.00000816,0.00001660,0.0
 0004725,-0.00014588,-0.00001255,-0.00005475,0.00001855,0.00000899,-0.0
 0021920,0.00032637,0.00120604,-0.00297061,-0.00031858,-0.00225381,-0.0
 5104038,-0.27072062,-0.06093255,-0.00364319,-0.02731506,0.00343353,0.0
 0047045,0.00240094,-0.00134406,-0.00000229,-0.00000396,-0.00000728,0.0
 0000316,-0.00000208,-0.00000429,-0.00000366,-0.00000091,0.00000645,-0.
 00000010,-0.00000028,-0.00000630,0.00004567,-0.00002458,0.00000486,0.0
 0003401,0.00001539,-0.00001082,0.00000084,-0.00001660,0.00000119,0.000
 03562,-0.00003886,0.00015257,-0.00043425,0.00047253,0.00000053,0.05781
 949,0.30274041,-0.00006268,-0.00003548,0.00000948,0.00009001,0.0000967
 4,0.00003881,-0.00011103,0.00063684,-0.00016235,-0.00014758,0.00000231
 ,-0.00002439,-0.00061606,-0.00015734,0.00062532,-0.00178127,-0.0019027
 0,-0.00089692,-0.01127783,-0.06780116,-0.06628165,0.00529508,0.0330642
 1,0.00228445,0.00132942,-0.00168810,0.00074589,-0.00000202,-0.00000377
 ,-0.00001806,0.00000882,0.00000185,0.00000356,-0.00000278,-0.00000306,
 0.00001830,0.00000643,-0.00001090,0.00000288,-0.00017711,-0.00003579,-
 0.00002916,0.00003991,0.00003285,-0.00000949,0.00000471,-0.00002796,0.
 00002320,0.00006988,-0.00053614,0.00056047,-0.00014537,0.00040647,0.00
 030794,0.01658475,0.05922966,0.07181570,0.00002220,-0.00005276,-0.0000
 7285,-0.00009428,0.00003382,0.00007521,-0.00005276,-0.00014389,-0.0001
 2933,-0.00035893,-0.00014937,-0.00020629,0.00211791,0.00110056,0.00218
 890,-0.01563416,0.00871144,0.02829188,-0.09461844,0.02416412,0.0918537
 8,0.00325225,0.00005476,-0.01586109,0.00391322,-0.00036698,0.00081660,
 -0.00000477,-0.00000122,-0.00001266,-0.00000491,0.00000619,0.00000969,
 0.00001722,-0.00003181,-0.00008318,0.00000278,0.00000945,0.00001388,-0
 .00006450,-0.00000772,-0.00000534,0.00014673,0.00027694,0.00002329,0.0
 0001053,-0.00011243,-0.00016013,0.00009359,-0.00057535,-0.00134834,-0.
 00471251,-0.00171307,-0.00072922,0.00367042,-0.00206856,-0.00583386,0.
 10203320,0.00005198,0.00003669,0.00000638,-0.00000546,-0.00005813,-0.0
 0003889,0.00003952,-0.00002807,0.00014419,-0.00002332,0.00002882,0.000
 01326,-0.00040805,-0.00015700,0.00092985,-0.00242869,0.00069589,0.0026
 0646,0.02659834,-0.06984022,-0.05611876,-0.00664586,0.00287452,0.02809
 308,-0.00099772,-0.00019754,-0.00353770,0.00000413,0.00000345,0.000013
 50,-0.00000201,0.00000012,-0.00000127,0.00000099,0.00000374,-0.0000084
 4,-0.00000554,-0.00000193,0.00000420,0.00006892,-0.00000100,0.00000679
 ,-0.00002198,-0.00003081,0.00000326,-0.00002014,-0.00000454,0.00001035
 ,0.00008431,0.00016885,0.00002277,-0.00069146,0.00144066,-0.00008329,0
 .01332232,-0.00621284,-0.02547925,-0.02782186,0.06889656,-0.00001936,0
 .00002562,0.00003840,0.00007792,-0.00001751,-0.00007283,0.00023651,0.0
 0022384,0.00034976,-0.00029503,0.00002969,0.00008560,-0.00182756,0.000
 20275,0.00063084,-0.00046251,-0.00054252,0.00182050,0.09194947,-0.0542
 4212,-0.23044749,0.00694949,0.00563833,-0.03458485,-0.00081555,-0.0010
 9348,0.00483844,0.00001057,0.00000236,-0.00000585,0.00000558,-0.000001
 91,-0.00000460,-0.00001194,0.00000311,0.00004186,0.00000193,-0.0000045
 1,-0.00000609,0.00004727,0.00000981,-0.00000568,-0.00001321,-0.0000138
 5,-0.00004993,-0.00005659,-0.00003553,0.00004749,0.00046846,0.00021780
 ,0.00067339,-0.00099972,-0.00008270,0.00055934,0.00444845,-0.00275031,
 -0.00622645,-0.09947667,0.05282124,0.26034336,0.00009698,0.00004057,0.
 00004120,-0.00005162,-0.00003815,-0.00017808,-0.00008490,-0.00007582,0
 .00015728,0.00006362,-0.00001925,-0.00005854,-0.00065408,-0.00090347,-
 0.00068833,0.00195354,0.00029270,0.00148639,0.00360589,0.01540379,0.00
 521903,-0.04019413,0.00457061,-0.00556788,-0.03500082,-0.04498376,-0.0
 1281792,0.00000542,0.00000085,0.00001846,0.00000002,-0.00000391,0.0000
 0196,0.00000467,-0.00000593,0.00002325,-0.00000149,-0.00002988,0.00001
 124,0.00014677,0.00002097,0.00001177,-0.00007826,0.00000081,0.00002126
 ,-0.00000610,0.00000903,0.00000784,-0.00000060,0.00015861,-0.00006310,
 -0.00023192,0.00024642,-0.00006425,-0.00112006,0.00202380,-0.00327140,
 0.00026522,-0.00109844,-0.00021750,0.07128185,-0.00003687,-0.00002859,
 -0.00000772,-0.00000579,0.00004512,0.00000896,0.00009175,-0.00017657,0
 .00011155,-0.00008281,-0.00001270,0.00000694,0.00035363,0.00034808,0.0
 0023508,0.00011392,0.00071771,-0.00020808,0.00013666,-0.02307426,-0.01
 164980,-0.02459674,-0.37639790,-0.08257093,-0.00126624,0.00429994,-0.0
 0194281,-0.00000571,-0.00000158,-0.00001354,0.00000379,-0.00000132,0.0
 0000354,-0.00000269,-0.00000298,0.00000207,-0.00000025,0.00000402,0.00
 000884,0.00001122,-0.00000090,-0.00000410,0.00003097,0.00002038,-0.000
 00507,-0.00000802,-0.00000674,0.00000106,0.00002210,0.00020526,-0.0000
 3741,-0.00006791,-0.00009810,0.00005546,0.00223084,-0.00116473,0.00421
 073,-0.00131228,0.00238277,-0.00039009,0.02439044,0.39294310,0.0001250
 1,0.00008060,-0.00003179,-0.00000325,-0.00015547,-0.00002264,-0.000235
 20,0.00007480,0.00005823,0.00019759,-0.00001910,-0.00004395,0.00014317
 ,-0.00049757,-0.00012738,0.00148136,-0.00032267,0.00143070,-0.00062787
 ,0.03661615,-0.00181333,-0.01850537,-0.13854361,-0.06437612,0.00270769
 ,0.00674289,0.00021604,0.00000973,0.00000068,0.00004667,-0.00001363,0.
 00000133,0.00000134,0.00001103,0.00000241,-0.00005677,-0.00000888,0.00
 002385,0.00000191,0.00006766,0.00000531,-0.00002269,0.00000688,-0.0000
 0118,0.00005047,0.00001511,0.00003852,-0.00002098,0.00004672,-0.000006
 77,-0.00020345,0.00010014,-0.00007848,-0.00008247,-0.00209094,0.003260
 70,-0.00278751,0.00064572,0.00059229,0.00197481,0.01592732,0.09218533,
 0.06580889\\-0.00001293,0.00000381,-0.00000722,0.00000937,-0.00000177,
 -0.00000051,0.00001770,-0.00000052,0.00001273,-0.00000080,0.00001049,-
 0.00000578,-0.00001913,-0.00000266,-0.00001176,0.00000977,0.00000640,0
 .00001616,0.00000409,0.00000204,-0.00001309,-0.00002532,-0.00000492,0.
 00000236,0.00002892,0.00000422,-0.00000097,0.00000400,0.00000307,0.000
 00422,0.00000204,-0.00000171,0.00000343,-0.00000207,-0.00000229,-0.000
 00164,0.00000211,0.00000109,0.00000005,0.00000083,0.00000100,-0.000000
 11,-0.00000090,-0.00000807,-0.00000026,-0.00000364,-0.00000205,0.00000
 205,0.00000276,-0.00000020,0.00000061,-0.00000885,-0.00000324,-0.00000
 699,-0.00000086,-0.00000140,0.00000430,-0.00000730,-0.00000403,0.00000
 266,0.00000018,0.00000072,-0.00000024\\\@


 ORIGINALITY CONSISTS NOT IN SAYING WHAT NO ONE HAS EVER SAID BEFORE, 
 BUT IN SAYING WHAT YOU THINK YOUR SELF.

                                    -- JAMES F. STEPHEN
 Job cpu time:       0 days  1 hours 56 minutes 37.3 seconds.
 Elapsed time:       0 days  0 hours 29 minutes 16.5 seconds.
 File lengths (MBytes):  RWF=    161 Int=      0 D2E=      0 Chk=      9 Scr=      1
 Normal termination of Gaussian 16 at Mon May 31 19:39:07 2021.
### All Done ###
