### Starting Gaussian ###
 Entering Gaussian System, Link 0=g16
 Initial command:
 /cluster/software/gaussian/gaussian-16-A.03/avx2/g16/l1.exe "/local/scratch/linjian/Gau-32394.inp" -scrdir="/local/scratch/linjian/"
 Entering Link 1 = /cluster/software/gaussian/gaussian-16-A.03/avx2/g16/l1.exe PID=     32395.
  
 Copyright (c) 1988,1990,1992,1993,1995,1998,2003,2009,2016,
            Gaussian, Inc.  All Rights Reserved.
  
 This is part of the Gaussian(R) 16 program.  It is based on
 the Gaussian(R) 09 system (copyright 2009, Gaussian, Inc.),
 the Gaussian(R) 03 system (copyright 2003, Gaussian, Inc.),
 the Gaussian(R) 98 system (copyright 1998, Gaussian, Inc.),
 the Gaussian(R) 94 system (copyright 1995, Gaussian, Inc.),
 the Gaussian 92(TM) system (copyright 1992, Gaussian, Inc.),
 the Gaussian 90(TM) system (copyright 1990, Gaussian, Inc.),
 the Gaussian 88(TM) system (copyright 1988, Gaussian, Inc.),
 the Gaussian 86(TM) system (copyright 1986, Carnegie Mellon
 University), and the Gaussian 82(TM) system (copyright 1983,
 Carnegie Mellon University). Gaussian is a federally registered
 trademark of Gaussian, Inc.
  
 This software contains proprietary and confidential information,
 including trade secrets, belonging to Gaussian, Inc.
  
 This software is provided under written license and may be
 used, copied, transmitted, or stored only in accord with that
 written license.
  
 The following legend is applicable only to US Government
 contracts under FAR:
  
                    RESTRICTED RIGHTS LEGEND
  
 Use, reproduction and disclosure by the US Government is
 subject to restrictions as set forth in subparagraphs (a)
 and (c) of the Commercial Computer Software - Restricted
 Rights clause in FAR 52.227-19.
  
 Gaussian, Inc.
 340 Quinnipiac St., Bldg. 40, Wallingford CT 06492
  
  
 ---------------------------------------------------------------
 Warning -- This program may not be used in any manner that
 competes with the business of Gaussian, Inc. or will provide
 assistance to any competitor of Gaussian, Inc.  The licensee
 of this program is prohibited from giving any competitor of
 Gaussian, Inc. access to this program.  By using this program,
 the user acknowledges that Gaussian, Inc. is engaged in the
 business of creating and licensing software in the field of
 computational chemistry and represents and warrants to the
 licensee that it is not a competitor of Gaussian, Inc. and that
 it will not use this program in any manner prohibited above.
 ---------------------------------------------------------------
  

 Cite this work as:
 Gaussian 16, Revision A.03,
 M. J. Frisch, G. W. Trucks, H. B. Schlegel, G. E. Scuseria, 
 M. A. Robb, J. R. Cheeseman, G. Scalmani, V. Barone, 
 G. A. Petersson, H. Nakatsuji, X. Li, M. Caricato, A. V. Marenich, 
 J. Bloino, B. G. Janesko, R. Gomperts, B. Mennucci, H. P. Hratchian, 
 J. V. Ortiz, A. F. Izmaylov, J. L. Sonnenberg, D. Williams-Young, 
 F. Ding, F. Lipparini, F. Egidi, J. Goings, B. Peng, A. Petrone, 
 T. Henderson, D. Ranasinghe, V. G. Zakrzewski, J. Gao, N. Rega, 
 G. Zheng, W. Liang, M. Hada, M. Ehara, K. Toyota, R. Fukuda, 
 J. Hasegawa, M. Ishida, T. Nakajima, Y. Honda, O. Kitao, H. Nakai, 
 T. Vreven, K. Throssell, J. A. Montgomery, Jr., J. E. Peralta, 
 F. Ogliaro, M. J. Bearpark, J. J. Heyd, E. N. Brothers, K. N. Kudin, 
 V. N. Staroverov, T. A. Keith, R. Kobayashi, J. Normand, 
 K. Raghavachari, A. P. Rendell, J. C. Burant, S. S. Iyengar, 
 J. Tomasi, M. Cossi, J. M. Millam, M. Klene, C. Adamo, R. Cammi, 
 J. W. Ochterski, R. L. Martin, K. Morokuma, O. Farkas, 
 J. B. Foresman, and D. J. Fox, Gaussian, Inc., Wallingford CT, 2016.
 
 ******************************************
 Gaussian 16:  ES64L-G16RevA.03 25-Dec-2016
                31-May-2021 
 ******************************************
 %chk=NCdNCCpNpdCNN.chk
 %NProcShared=20
 Will use up to   20 processors via shared memory.
 -----------------------------
 # opt freq b3lyp/6-31g(2df,p)
 -----------------------------
 1/18=20,19=15,26=3,38=1/1,3;
 2/9=110,12=2,17=6,18=5,40=1/2;
 3/5=1,6=6,7=104,11=2,25=1,30=1,71=1,74=-5/1,2,3;
 4//1;
 5/5=2,38=5/2;
 6/7=2,8=2,9=2,10=2,28=1/1;
 7//1,2,3,16;
 1/18=20,19=15,26=3/3(2);
 2/9=110/2;
 99//99;
 2/9=110/2;
 3/5=1,6=6,7=104,11=2,25=1,30=1,71=1,74=-5/1,2,3;
 4/5=5,16=3,69=1/1;
 5/5=2,38=5/2;
 7//1,2,3,16;
 1/18=20,19=15,26=3/3(-5);
 2/9=110/2;
 6/7=2,8=2,9=2,10=2,19=2,28=1/1;
 99/9=1/99;
 -------------------
 Title Card Required
 -------------------
 Symbolic Z-matrix:
 Charge =  0 Multiplicity = 1
 N                     1.20771   0.01023  -0.05385 
 C                     2.55409  -0.07885  -0.10444 
 N                     3.14406  -1.05682  -0.69145 
 C                     4.62236  -1.01769  -0.67179 
 C                     5.16152  -2.24067  -1.43123 
 N                     4.21762  -3.06921  -1.99671 
 C                     6.48554  -2.46417  -1.56368 
 N                     7.04451  -3.51101  -2.25536 
 N                     8.40614  -3.75937  -2.32261 
 H                     0.71363   0.76239   0.40624 
 H                     0.66655  -0.72256  -0.49589 
 H                     3.07069   0.75597   0.40013 
 H                     4.98486  -1.03598   0.36369 
 H                     4.98118  -0.10321  -1.16142 
 H                     3.2517   -2.84842  -1.75938 
 H                     4.46121  -3.94976  -2.4171 
 H                     7.20533  -1.77674  -1.12849 
 H                     6.39128  -4.22446  -2.57592 
 H                     8.95643  -3.00524  -1.91138 
 H                     8.6932   -3.80082  -3.30446 
 

 GradGradGradGradGradGradGradGradGradGradGradGradGradGradGradGradGradGrad
 Berny optimization.
 Initialization pass.
                           ----------------------------
                           !    Initial Parameters    !
                           ! (Angstroms and Degrees)  !
 --------------------------                            --------------------------
 ! Name  Definition              Value          Derivative Info.                !
 --------------------------------------------------------------------------------
 ! R1    R(1,2)                  1.3503         estimate D2E/DX2                !
 ! R2    R(1,10)                 1.0107         estimate D2E/DX2                !
 ! R3    R(1,11)                 1.0125         estimate D2E/DX2                !
 ! R4    R(2,3)                  1.2842         estimate D2E/DX2                !
 ! R5    R(2,12)                 1.1038         estimate D2E/DX2                !
 ! R6    R(3,4)                  1.4789         estimate D2E/DX2                !
 ! R7    R(4,5)                  1.5372         estimate D2E/DX2                !
 ! R8    R(4,13)                 1.0973         estimate D2E/DX2                !
 ! R9    R(4,14)                 1.0976         estimate D2E/DX2                !
 ! R10   R(5,6)                  1.3774         estimate D2E/DX2                !
 ! R11   R(5,7)                  1.3493         estimate D2E/DX2                !
 ! R12   R(6,15)                 1.0189         estimate D2E/DX2                !
 ! R13   R(6,16)                 1.0057         estimate D2E/DX2                !
 ! R14   R(7,8)                  1.3736         estimate D2E/DX2                !
 ! R15   R(7,17)                 1.0863         estimate D2E/DX2                !
 ! R16   R(8,9)                  1.3857         estimate D2E/DX2                !
 ! R17   R(8,18)                 1.0191         estimate D2E/DX2                !
 ! R18   R(9,19)                 1.0201         estimate D2E/DX2                !
 ! R19   R(9,20)                 1.0238         estimate D2E/DX2                !
 ! A1    A(2,1,10)             123.6133         estimate D2E/DX2                !
 ! A2    A(2,1,11)             117.9575         estimate D2E/DX2                !
 ! A3    A(10,1,11)            118.4273         estimate D2E/DX2                !
 ! A4    A(1,2,3)              121.6995         estimate D2E/DX2                !
 ! A5    A(1,2,12)             113.556          estimate D2E/DX2                !
 ! A6    A(3,2,12)             124.7444         estimate D2E/DX2                !
 ! A7    A(2,3,4)              115.6577         estimate D2E/DX2                !
 ! A8    A(3,4,5)              108.8421         estimate D2E/DX2                !
 ! A9    A(3,4,13)             110.0189         estimate D2E/DX2                !
 ! A10   A(3,4,14)             110.0523         estimate D2E/DX2                !
 ! A11   A(5,4,13)             109.6992         estimate D2E/DX2                !
 ! A12   A(5,4,14)             109.1348         estimate D2E/DX2                !
 ! A13   A(13,4,14)            109.0782         estimate D2E/DX2                !
 ! A14   A(4,5,6)              116.1695         estimate D2E/DX2                !
 ! A15   A(4,5,7)              121.6309         estimate D2E/DX2                !
 ! A16   A(6,5,7)              122.1758         estimate D2E/DX2                !
 ! A17   A(5,6,15)             115.0679         estimate D2E/DX2                !
 ! A18   A(5,6,16)             122.1613         estimate D2E/DX2                !
 ! A19   A(15,6,16)            121.1132         estimate D2E/DX2                !
 ! A20   A(5,7,8)              125.0996         estimate D2E/DX2                !
 ! A21   A(5,7,17)             120.4016         estimate D2E/DX2                !
 ! A22   A(8,7,17)             114.48           estimate D2E/DX2                !
 ! A23   A(7,8,9)              124.1178         estimate D2E/DX2                !
 ! A24   A(7,8,18)             115.5382         estimate D2E/DX2                !
 ! A25   A(9,8,18)             119.2829         estimate D2E/DX2                !
 ! A26   A(8,9,19)             112.2097         estimate D2E/DX2                !
 ! A27   A(8,9,20)             109.227          estimate D2E/DX2                !
 ! A28   A(19,9,20)            105.3838         estimate D2E/DX2                !
 ! D1    D(10,1,2,3)           179.492          estimate D2E/DX2                !
 ! D2    D(10,1,2,12)           -0.4492         estimate D2E/DX2                !
 ! D3    D(11,1,2,3)            -0.0003         estimate D2E/DX2                !
 ! D4    D(11,1,2,12)         -179.9415         estimate D2E/DX2                !
 ! D5    D(1,2,3,4)            179.7359         estimate D2E/DX2                !
 ! D6    D(12,2,3,4)            -0.3297         estimate D2E/DX2                !
 ! D7    D(2,3,4,5)           -179.1257         estimate D2E/DX2                !
 ! D8    D(2,3,4,13)            60.6488         estimate D2E/DX2                !
 ! D9    D(2,3,4,14)           -59.5707         estimate D2E/DX2                !
 ! D10   D(3,4,5,6)              2.1689         estimate D2E/DX2                !
 ! D11   D(3,4,5,7)           -179.5702         estimate D2E/DX2                !
 ! D12   D(13,4,5,6)           122.5918         estimate D2E/DX2                !
 ! D13   D(13,4,5,7)           -59.1473         estimate D2E/DX2                !
 ! D14   D(14,4,5,6)          -117.9555         estimate D2E/DX2                !
 ! D15   D(14,4,5,7)            60.3054         estimate D2E/DX2                !
 ! D16   D(4,5,6,15)            -7.0291         estimate D2E/DX2                !
 ! D17   D(4,5,6,16)          -172.4918         estimate D2E/DX2                !
 ! D18   D(7,5,6,15)           174.7203         estimate D2E/DX2                !
 ! D19   D(7,5,6,16)             9.2576         estimate D2E/DX2                !
 ! D20   D(4,5,7,8)           -178.1771         estimate D2E/DX2                !
 ! D21   D(4,5,7,17)             0.1569         estimate D2E/DX2                !
 ! D22   D(6,5,7,8)             -0.0212         estimate D2E/DX2                !
 ! D23   D(6,5,7,17)           178.3128         estimate D2E/DX2                !
 ! D24   D(5,7,8,9)           -176.6203         estimate D2E/DX2                !
 ! D25   D(5,7,8,18)            -8.5259         estimate D2E/DX2                !
 ! D26   D(17,7,8,9)             4.9585         estimate D2E/DX2                !
 ! D27   D(17,7,8,18)          173.0529         estimate D2E/DX2                !
 ! D28   D(7,8,9,19)            -8.0578         estimate D2E/DX2                !
 ! D29   D(7,8,9,20)          -124.5366         estimate D2E/DX2                !
 ! D30   D(18,8,9,19)         -175.7352         estimate D2E/DX2                !
 ! D31   D(18,8,9,20)           67.7859         estimate D2E/DX2                !
 --------------------------------------------------------------------------------
 Trust Radius=3.00D-01 FncErr=1.00D-07 GrdErr=1.00D-06 EigMax=2.50D+02 EigMin=1.00D-04
 Number of steps in this run=     88 maximum allowed number of steps=    120.
 GradGradGradGradGradGradGradGradGradGradGradGradGradGradGradGradGradGrad

                          Input orientation:                          
 ---------------------------------------------------------------------
 Center     Atomic      Atomic             Coordinates (Angstroms)
 Number     Number       Type             X           Y           Z
 ---------------------------------------------------------------------
      1          7           0        1.207710    0.010230   -0.053850
      2          6           0        2.554090   -0.078850   -0.104440
      3          7           0        3.144060   -1.056820   -0.691450
      4          6           0        4.622360   -1.017690   -0.671790
      5          6           0        5.161520   -2.240670   -1.431230
      6          7           0        4.217620   -3.069210   -1.996710
      7          6           0        6.485540   -2.464170   -1.563680
      8          7           0        7.044510   -3.511010   -2.255360
      9          7           0        8.406140   -3.759370   -2.322610
     10          1           0        0.713630    0.762390    0.406240
     11          1           0        0.666550   -0.722560   -0.495890
     12          1           0        3.070690    0.755970    0.400130
     13          1           0        4.984860   -1.035980    0.363690
     14          1           0        4.981180   -0.103210   -1.161420
     15          1           0        3.251700   -2.848420   -1.759380
     16          1           0        4.461210   -3.949760   -2.417100
     17          1           0        7.205330   -1.776740   -1.128490
     18          1           0        6.391280   -4.224460   -2.575920
     19          1           0        8.956430   -3.005240   -1.911380
     20          1           0        8.693200   -3.800820   -3.304460
 ---------------------------------------------------------------------
                    Distance matrix (angstroms):
                    1          2          3          4          5
     1  N    0.000000
     2  C    1.350272   0.000000
     3  N    2.300996   1.284161   0.000000
     4  C    3.619158   2.341164   1.478948   0.000000
     5  C    4.753561   3.637654   2.453349   1.537245   0.000000
     6  N    4.724110   3.910278   2.627917   2.475472   1.377386
     7  C    6.021439   4.824462   3.729197   2.521748   1.349268
     8  N    7.163380   6.047318   4.866454   3.819836   2.416321
     9  N    8.436501   7.260372   6.136281   4.955704   3.691689
    10  H    1.010714   2.087049   3.228225   4.428205   5.672600
    11  H    1.012539   2.032339   2.507594   3.970702   4.835729
    12  H    2.057406   1.103807   2.117342   2.588931   4.087212
    13  H    3.941542   2.654032   2.121862   1.097251   2.168922
    14  H    3.934292   2.647370   2.122558   1.097617   2.161956
    15  H    3.906227   3.300910   2.088514   2.532416   2.030875
    16  H    5.643734   4.895860   3.616885   3.416008   2.093648
    17  H    6.349768   5.056238   4.147674   2.730653   2.117556
    18  H    7.152820   6.165900   4.912190   4.127731   2.599625
    19  H    8.519750   7.267651   6.250457   4.926571   3.900827
    20  H    9.006838   7.860144   6.719398   5.590036   4.291366
                    6          7          8          9         10
     6  N    0.000000
     7  C    2.386849   0.000000
     8  N    2.872872   1.373588   0.000000
     9  N    4.257491   2.437667   1.385728   0.000000
    10  H    5.721300   6.899726   8.088640   9.331005   0.000000
    11  H    4.513239   6.167173   7.179802   8.512366   1.738140
    12  H    4.657499   5.087932   6.407027   7.501242   2.357077
    13  H    3.208453   2.829580   4.150585   5.132077   4.634582
    14  H    3.174569   2.828258   4.131239   5.142589   4.628045
    15  H    1.018860   3.262463   3.882065   5.264533   4.916265
    16  H    1.005700   2.652021   2.625281   3.950652   6.649809
    17  H    3.369079   1.086300   2.074462   2.607430   7.137559
    18  H    2.528811   2.032766   1.019058   2.083299   8.123894
    19  H    4.740010   2.553223   2.007377   1.020118   9.354686
    20  H    4.719775   3.112991   1.975545   1.023792   9.912907
                   11         12         13         14         15
    11  H    0.000000
    12  H    2.961215   0.000000
    13  H    4.414172   2.622300   0.000000
    14  H    4.409371   2.612776   1.787745   0.000000
    15  H    3.577525   4.205696   3.285758   3.299217   0.000000
    16  H    5.339037   5.658111   4.061664   4.079589   1.763082
    17  H    6.653354   5.083950   2.775935   2.783636   4.144600
    18  H    7.025835   6.684899   4.559137   4.579726   3.523803
    19  H    8.714147   7.357426   4.982700   4.978637   5.708909
    20  H    9.043830   8.130249   5.903512   5.660745   5.736224
                   16         17         18         19         20
    16  H    0.000000
    17  H    3.729977   0.000000
    18  H    1.955979   2.957882   0.000000
    19  H    4.621133   2.277824   2.916866   0.000000
    20  H    4.326584   3.323477   2.451342   1.625703   0.000000
 Stoichiometry    C4H11N5
 Framework group  C1[X(C4H11N5)]
 Deg. of freedom    54
 Full point group                 C1      NOp   1
 Largest Abelian subgroup         C1      NOp   1
 Largest concise Abelian subgroup C1      NOp   1
                         Standard orientation:                         
 ---------------------------------------------------------------------
 Center     Atomic      Atomic             Coordinates (Angstroms)
 Number     Number       Type             X           Y           Z
 ---------------------------------------------------------------------
      1          7           0       -4.227590    0.179181    0.016990
      2          6           0       -3.064659   -0.506972    0.012605
      3          7           0       -1.928466    0.090975   -0.011832
      4          6           0       -0.740792   -0.790329   -0.007294
      5          6           0        0.524862    0.082116   -0.016432
      6          7           0        0.323973    1.444281    0.020230
      7          6           0        1.759462   -0.462165   -0.023203
      8          7           0        2.935457    0.247080    0.004211
      9          7           0        4.193073   -0.329972   -0.070969
     10          1           0       -5.137149   -0.261402    0.028484
     11          1           0       -4.182085    1.190559    0.000327
     12          1           0       -3.198752   -1.602454    0.030736
     13          1           0       -0.750108   -1.437790   -0.893109
     14          1           0       -0.739927   -1.416086    0.894476
     15          1           0       -0.647534    1.739754   -0.063109
     16          1           0        1.078113    2.099877   -0.093339
     17          1           0        1.884525   -1.541240   -0.024881
     18          1           0        2.842657    1.256015   -0.104956
     19          1           0        4.154115   -1.347909   -0.016860
     20          1           0        4.747781   -0.036037    0.737766
 ---------------------------------------------------------------------
 Rotational constants (GHZ):           7.3100610           0.5366200           0.5021738
 Standard basis: 6-31G(2df,p) (6D, 7F)
 There are   334 symmetry adapted cartesian basis functions of A   symmetry.
 There are   307 symmetry adapted basis functions of A   symmetry.
   307 basis functions,   473 primitive gaussians,   334 cartesian basis functions
    35 alpha electrons       35 beta electrons
       nuclear repulsion energy       436.3444584447 Hartrees.
 NAtoms=   20 NActive=   20 NUniq=   20 SFac= 1.00D+00 NAtFMM=   60 NAOKFM=F Big=F
 Integral buffers will be    131072 words long.
 Raffenetti 2 integral format.
 Two-electron integral symmetry is turned on.
 One-electron integrals computed using PRISM.
 PrsmSu:  requested number of processors reduced to:  13 ShMem   1 Linda.
 NBasis=   307 RedAO= T EigKep=  2.34D-04  NBF=   307
 NBsUse=   307 1.00D-06 EigRej= -1.00D+00 NBFU=   307
 ExpMin= 1.61D-01 ExpMax= 4.17D+03 ExpMxC= 6.27D+02 IAcc=3 IRadAn=         5 AccDes= 0.00D+00
 Harris functional with IExCor=  402 and IRadAn=       5 diagonalized for initial guess.
 HarFok:  IExCor=  402 AccDes= 0.00D+00 IRadAn=         5 IDoV= 1 UseB2=F ITyADJ=14
 ICtDFT=  3500011 ScaDFX=  1.000000  1.000000  1.000000  1.000000
 FoFCou: FMM=F IPFlag=           0 FMFlag=      100000 FMFlg1=           0
         NFxFlg=           0 DoJE=T BraDBF=F KetDBF=T FulRan=T
         wScrn=  0.000000 ICntrl=       500 IOpCl=  0 I1Cent=   200000004 NGrid=           0
         NMat0=    1 NMatS0=      1 NMatT0=    0 NMatD0=    1 NMtDS0=    0 NMtDT0=    0
 Petite list used in FoFCou.
 Requested convergence on RMS density matrix=1.00D-08 within 128 cycles.
 Requested convergence on MAX density matrix=1.00D-06.
 Requested convergence on             energy=1.00D-06.
 No special actions if energy rises.
 Integral accuracy reduced to 1.0D-05 until final iterations.
 Initial convergence to 1.0D-05 achieved.  Increase integral accuracy.
 SCF Done:  E(RB3LYP) =  -432.728600369     A.U. after   14 cycles
            NFock= 14  Conv=0.61D-08     -V/T= 2.0075

 **********************************************************************

            Population analysis using the SCF density.

 **********************************************************************

 Orbital symmetries:
       Occupied  (A) (A) (A) (A) (A) (A) (A) (A) (A) (A) (A) (A)
                 (A) (A) (A) (A) (A) (A) (A) (A) (A) (A) (A) (A)
                 (A) (A) (A) (A) (A) (A) (A) (A) (A) (A) (A)
       Virtual   (A) (A) (A) (A) (A) (A) (A) (A) (A) (A) (A) (A)
                 (A) (A) (A) (A) (A) (A) (A) (A) (A) (A) (A) (A)
                 (A) (A) (A) (A) (A) (A) (A) (A) (A) (A) (A) (A)
                 (A) (A) (A) (A) (A) (A) (A) (A) (A) (A) (A) (A)
                 (A) (A) (A) (A) (A) (A) (A) (A) (A) (A) (A) (A)
                 (A) (A) (A) (A) (A) (A) (A) (A) (A) (A) (A) (A)
                 (A) (A) (A) (A) (A) (A) (A) (A) (A) (A) (A) (A)
                 (A) (A) (A) (A) (A) (A) (A) (A) (A) (A) (A) (A)
                 (A) (A) (A) (A) (A) (A) (A) (A) (A) (A) (A) (A)
                 (A) (A) (A) (A) (A) (A) (A) (A) (A) (A) (A) (A)
                 (A) (A) (A) (A) (A) (A) (A) (A) (A) (A) (A) (A)
                 (A) (A) (A) (A) (A) (A) (A) (A) (A) (A) (A) (A)
                 (A) (A) (A) (A) (A) (A) (A) (A) (A) (A) (A) (A)
                 (A) (A) (A) (A) (A) (A) (A) (A) (A) (A) (A) (A)
                 (A) (A) (A) (A) (A) (A) (A) (A) (A) (A) (A) (A)
                 (A) (A) (A) (A) (A) (A) (A) (A) (A) (A) (A) (A)
                 (A) (A) (A) (A) (A) (A) (A) (A) (A) (A) (A) (A)
                 (A) (A) (A) (A) (A) (A) (A) (A) (A) (A) (A) (A)
                 (A) (A) (A) (A) (A) (A) (A) (A) (A) (A) (A) (A)
                 (A) (A) (A) (A) (A) (A) (A) (A) (A) (A) (A) (A)
                 (A) (A) (A) (A) (A) (A) (A) (A) (A) (A) (A) (A)
                 (A) (A) (A) (A) (A) (A) (A) (A) (A) (A) (A) (A)
                 (A) (A) (A) (A) (A) (A) (A) (A)
 The electronic state is 1-A.
 Alpha  occ. eigenvalues --  -14.34751 -14.32830 -14.32206 -14.29163 -14.28661
 Alpha  occ. eigenvalues --  -10.24669 -10.19343 -10.16233 -10.15397  -0.95557
 Alpha  occ. eigenvalues --   -0.94327  -0.87665  -0.84673  -0.77174  -0.70370
 Alpha  occ. eigenvalues --   -0.64101  -0.59443  -0.55544  -0.53377  -0.51839
 Alpha  occ. eigenvalues --   -0.48239  -0.47078  -0.45314  -0.43158  -0.42706
 Alpha  occ. eigenvalues --   -0.41493  -0.36600  -0.35969  -0.35245  -0.33126
 Alpha  occ. eigenvalues --   -0.28189  -0.24813  -0.22243  -0.20640  -0.10234
 Alpha virt. eigenvalues --    0.03123   0.07595   0.07916   0.09852   0.10592
 Alpha virt. eigenvalues --    0.10678   0.13223   0.14792   0.16174   0.17918
 Alpha virt. eigenvalues --    0.18669   0.20239   0.22182   0.22539   0.26915
 Alpha virt. eigenvalues --    0.28195   0.31694   0.35580   0.35704   0.38395
 Alpha virt. eigenvalues --    0.43131   0.43948   0.45833   0.49972   0.51135
 Alpha virt. eigenvalues --    0.52448   0.54352   0.54919   0.56043   0.57310
 Alpha virt. eigenvalues --    0.57715   0.58595   0.60440   0.61998   0.63112
 Alpha virt. eigenvalues --    0.64605   0.65932   0.67497   0.69225   0.70814
 Alpha virt. eigenvalues --    0.72053   0.74366   0.74847   0.75555   0.76225
 Alpha virt. eigenvalues --    0.76650   0.77030   0.77962   0.78535   0.79512
 Alpha virt. eigenvalues --    0.80120   0.82144   0.83059   0.83554   0.84488
 Alpha virt. eigenvalues --    0.85742   0.89196   0.89419   0.90974   0.93319
 Alpha virt. eigenvalues --    0.95347   0.96134   0.99042   1.00801   1.01219
 Alpha virt. eigenvalues --    1.02877   1.04102   1.07799   1.10592   1.12158
 Alpha virt. eigenvalues --    1.16111   1.19772   1.23082   1.24100   1.25506
 Alpha virt. eigenvalues --    1.29397   1.32102   1.33375   1.36294   1.38936
 Alpha virt. eigenvalues --    1.40373   1.42052   1.43569   1.44477   1.47356
 Alpha virt. eigenvalues --    1.48471   1.51681   1.56527   1.57141   1.58243
 Alpha virt. eigenvalues --    1.61836   1.63328   1.66538   1.68797   1.69937
 Alpha virt. eigenvalues --    1.74450   1.76817   1.77980   1.79208   1.82581
 Alpha virt. eigenvalues --    1.83275   1.88532   1.91417   1.93046   1.94249
 Alpha virt. eigenvalues --    1.97107   2.01266   2.07510   2.09949   2.13281
 Alpha virt. eigenvalues --    2.15006   2.18703   2.18947   2.21044   2.22796
 Alpha virt. eigenvalues --    2.30115   2.32980   2.34780   2.35625   2.39271
 Alpha virt. eigenvalues --    2.43925   2.47056   2.47198   2.48398   2.56403
 Alpha virt. eigenvalues --    2.60794   2.62590   2.63993   2.71176   2.75755
 Alpha virt. eigenvalues --    2.77709   2.81041   2.82563   2.83237   2.86219
 Alpha virt. eigenvalues --    2.88482   2.89849   2.91188   2.92649   2.93349
 Alpha virt. eigenvalues --    2.96704   2.98240   3.00894   3.01853   3.05471
 Alpha virt. eigenvalues --    3.07430   3.10471   3.10931   3.11511   3.13428
 Alpha virt. eigenvalues --    3.16515   3.18034   3.21775   3.23260   3.25555
 Alpha virt. eigenvalues --    3.26186   3.29105   3.34360   3.35673   3.37218
 Alpha virt. eigenvalues --    3.40032   3.41127   3.45984   3.47971   3.49838
 Alpha virt. eigenvalues --    3.54694   3.55593   3.61820   3.62616   3.66995
 Alpha virt. eigenvalues --    3.71028   3.72909   3.76106   3.77408   3.81203
 Alpha virt. eigenvalues --    3.84990   3.85926   3.89534   3.90510   3.93344
 Alpha virt. eigenvalues --    3.93508   3.95738   4.02242   4.03790   4.07264
 Alpha virt. eigenvalues --    4.08653   4.09934   4.11212   4.13054   4.13913
 Alpha virt. eigenvalues --    4.14575   4.17339   4.18397   4.20030   4.22186
 Alpha virt. eigenvalues --    4.24726   4.27856   4.28721   4.30759   4.32690
 Alpha virt. eigenvalues --    4.33807   4.35228   4.36335   4.36888   4.41154
 Alpha virt. eigenvalues --    4.41279   4.41566   4.42452   4.46915   4.47817
 Alpha virt. eigenvalues --    4.49081   4.50908   4.54857   4.56119   4.56854
 Alpha virt. eigenvalues --    4.58615   4.59519   4.60632   4.61832   4.64141
 Alpha virt. eigenvalues --    4.66222   4.67728   4.71002   4.71151   4.73238
 Alpha virt. eigenvalues --    4.74588   4.76341   4.77006   4.82305   4.83438
 Alpha virt. eigenvalues --    4.84672   4.84981   4.86381   4.90198   4.95129
 Alpha virt. eigenvalues --    4.97543   4.99429   5.02963   5.10548   5.11863
 Alpha virt. eigenvalues --    5.12888   5.16840   5.22807   5.26922   5.29596
 Alpha virt. eigenvalues --    5.31045   5.38768   5.44247   5.49148   5.53886
 Alpha virt. eigenvalues --    5.64608   5.70500   5.71634   5.77603   5.89272
 Alpha virt. eigenvalues --    5.92202   6.01233   6.24645   7.26660   9.89491
 Alpha virt. eigenvalues --   10.26023  10.45237  11.17391  11.24915  11.29904
 Alpha virt. eigenvalues --   11.44116  11.47013  11.49079  12.03279  12.99968
 Alpha virt. eigenvalues --   14.65790  16.15863
          Condensed to atoms (all electrons):
               1          2          3          4          5          6
     1  N    6.552215   0.387056  -0.039768   0.005016  -0.000036   0.000062
     2  C    0.387056   4.578623   0.694759  -0.091973   0.002949  -0.000086
     3  N   -0.039768   0.694759   6.339569   0.373626  -0.039456  -0.024148
     4  C    0.005016  -0.091973   0.373626   5.004194   0.395652  -0.035607
     5  C   -0.000036   0.002949  -0.039456   0.395652   4.525614   0.413915
     6  N    0.000062  -0.000086  -0.024148  -0.035607   0.413915   6.603676
     7  C   -0.000000  -0.000115   0.001580  -0.069170   0.611380  -0.030759
     8  N    0.000000   0.000000  -0.000034   0.002231  -0.017253  -0.008156
     9  N   -0.000000  -0.000000   0.000000  -0.000122   0.002772   0.000194
    10  H    0.352909  -0.027849   0.002259  -0.000305   0.000001  -0.000000
    11  H    0.320675  -0.012789   0.004577  -0.000462  -0.000004  -0.000082
    12  H   -0.074496   0.357655  -0.052713  -0.013345   0.000131  -0.000038
    13  H   -0.000312  -0.007248  -0.026126   0.338428  -0.021920   0.000911
    14  H   -0.000313  -0.007261  -0.025888   0.337457  -0.024383   0.000737
    15  H   -0.000560   0.000153   0.053641  -0.019119  -0.036011   0.323818
    16  H   -0.000001  -0.000034   0.000490   0.007129  -0.037880   0.350023
    17  H   -0.000000  -0.000007   0.000238  -0.012066  -0.026031   0.003982
    18  H   -0.000000   0.000000   0.000013  -0.000297  -0.006807   0.003410
    19  H   -0.000000  -0.000000   0.000000  -0.000030   0.000296   0.000010
    20  H   -0.000000   0.000000  -0.000000   0.000002   0.000132  -0.000023
               7          8          9         10         11         12
     1  N   -0.000000   0.000000  -0.000000   0.352909   0.320675  -0.074496
     2  C   -0.000115   0.000000  -0.000000  -0.027849  -0.012789   0.357655
     3  N    0.001580  -0.000034   0.000000   0.002259   0.004577  -0.052713
     4  C   -0.069170   0.002231  -0.000122  -0.000305  -0.000462  -0.013345
     5  C    0.611380  -0.017253   0.002772   0.000001  -0.000004   0.000131
     6  N   -0.030759  -0.008156   0.000194  -0.000000  -0.000082  -0.000038
     7  C    4.959177   0.371059  -0.055057  -0.000000   0.000001   0.000029
     8  N    0.371059   6.464628   0.296820   0.000000  -0.000000  -0.000000
     9  N   -0.055057   0.296820   6.564171  -0.000000   0.000000   0.000000
    10  H   -0.000000   0.000000  -0.000000   0.436541  -0.026007  -0.000191
    11  H    0.000001  -0.000000   0.000000  -0.026007   0.447781   0.008134
    12  H    0.000029  -0.000000   0.000000  -0.000191   0.008134   0.674129
    13  H   -0.002248   0.000077   0.000008   0.000014   0.000057   0.006722
    14  H   -0.001051  -0.000070  -0.000006   0.000013   0.000057   0.006930
    15  H    0.007531   0.000105   0.000001   0.000001   0.000589   0.000338
    16  H   -0.013375   0.001691  -0.000023   0.000000   0.000001   0.000001
    17  H    0.348475  -0.042197  -0.005635   0.000000   0.000000   0.000010
    18  H   -0.049069   0.350570  -0.031367  -0.000000   0.000000   0.000000
    19  H   -0.006098  -0.039966   0.345647  -0.000000  -0.000000  -0.000000
    20  H    0.002406  -0.070863   0.339070   0.000000  -0.000000  -0.000000
              13         14         15         16         17         18
     1  N   -0.000312  -0.000313  -0.000560  -0.000001  -0.000000  -0.000000
     2  C   -0.007248  -0.007261   0.000153  -0.000034  -0.000007   0.000000
     3  N   -0.026126  -0.025888   0.053641   0.000490   0.000238   0.000013
     4  C    0.338428   0.337457  -0.019119   0.007129  -0.012066  -0.000297
     5  C   -0.021920  -0.024383  -0.036011  -0.037880  -0.026031  -0.006807
     6  N    0.000911   0.000737   0.323818   0.350023   0.003982   0.003410
     7  C   -0.002248  -0.001051   0.007531  -0.013375   0.348475  -0.049069
     8  N    0.000077  -0.000070   0.000105   0.001691  -0.042197   0.350570
     9  N    0.000008  -0.000006   0.000001  -0.000023  -0.005635  -0.031367
    10  H    0.000014   0.000013   0.000001   0.000000   0.000000  -0.000000
    11  H    0.000057   0.000057   0.000589   0.000001   0.000000   0.000000
    12  H    0.006722   0.006930   0.000338   0.000001   0.000010   0.000000
    13  H    0.651392  -0.048357   0.001243  -0.000120   0.002157   0.000022
    14  H   -0.048357   0.653495   0.001212  -0.000172   0.002475  -0.000008
    15  H    0.001243   0.001212   0.449363  -0.025887  -0.000143  -0.000140
    16  H   -0.000120  -0.000172  -0.025887   0.488671  -0.000200   0.005733
    17  H    0.002157   0.002475  -0.000143  -0.000200   0.654322   0.006707
    18  H    0.000022  -0.000008  -0.000140   0.005733   0.006707   0.488819
    19  H    0.000000   0.000000   0.000000   0.000004   0.008454   0.004837
    20  H    0.000001  -0.000002  -0.000000   0.000043  -0.000073   0.000364
              19         20
     1  N   -0.000000  -0.000000
     2  C   -0.000000   0.000000
     3  N    0.000000  -0.000000
     4  C   -0.000030   0.000002
     5  C    0.000296   0.000132
     6  N    0.000010  -0.000023
     7  C   -0.006098   0.002406
     8  N   -0.039966  -0.070863
     9  N    0.345647   0.339070
    10  H   -0.000000   0.000000
    11  H   -0.000000  -0.000000
    12  H   -0.000000  -0.000000
    13  H    0.000000   0.000001
    14  H    0.000000  -0.000002
    15  H    0.000000  -0.000000
    16  H    0.000004   0.000043
    17  H    0.008454  -0.000073
    18  H    0.004837   0.000364
    19  H    0.479909  -0.036613
    20  H   -0.036613   0.535990
 Mulliken charges:
               1
     1  N   -0.502448
     2  C    0.126168
     3  N   -0.262619
     4  C   -0.221239
     5  C    0.256936
     6  N   -0.601838
     7  C   -0.074697
     8  N   -0.308642
     9  N   -0.456474
    10  H    0.262614
    11  H    0.257472
    12  H    0.086705
    13  H    0.105299
    14  H    0.105133
    15  H    0.243865
    16  H    0.223905
    17  H    0.059530
    18  H    0.227215
    19  H    0.243549
    20  H    0.229566
 Sum of Mulliken charges =  -0.00000
 Mulliken charges with hydrogens summed into heavy atoms:
               1
     1  N    0.017638
     2  C    0.212873
     3  N   -0.262619
     4  C   -0.010807
     5  C    0.256936
     6  N   -0.134068
     7  C   -0.015167
     8  N   -0.081428
     9  N    0.016642
 Electronic spatial extent (au):  <R**2>=           2136.1774
 Charge=             -0.0000 electrons
 Dipole moment (field-independent basis, Debye):
    X=             -3.2162    Y=             -0.4181    Z=              0.7716  Tot=              3.3338
 Quadrupole moment (field-independent basis, Debye-Ang):
   XX=            -33.0667   YY=            -45.4686   ZZ=            -58.7510
   XY=              0.6868   XZ=              5.2077   YZ=             -0.8171
 Traceless Quadrupole moment (field-independent basis, Debye-Ang):
   XX=             12.6954   YY=              0.2935   ZZ=            -12.9889
   XY=              0.6868   XZ=              5.2077   YZ=             -0.8171
 Octapole moment (field-independent basis, Debye-Ang**2):
  XXX=           -105.0765  YYY=             11.6369  ZZZ=              1.0562  XYY=              5.3829
  XXY=             -5.4593  XXZ=             28.5577  XZZ=              0.2986  YZZ=             -0.4356
  YYZ=             -1.4407  XYZ=             -0.6390
 Hexadecapole moment (field-independent basis, Debye-Ang**3):
 XXXX=          -1772.7215 YYYY=           -212.3027 ZZZZ=            -64.7028 XXXY=            -32.9541
 XXXZ=            138.3648 YYYX=             -9.9506 YYYZ=             -2.8726 ZZZX=              5.9030
 ZZZY=             -0.5281 XXYY=           -344.4521 XXZZ=           -441.9668 YYZZ=            -54.2854
 XXYZ=             -3.3379 YYXZ=             -0.8268 ZZXY=              1.3770
 N-N= 4.363444584447D+02 E-N=-1.881647376979D+03  KE= 4.295136472477D+02
 PrsmSu:  requested number of processors reduced to:  13 ShMem   1 Linda.
 Calling FoFJK, ICntrl=      2127 FMM=F ISym2X=0 I1Cent= 0 IOpClX= 0 NMat=1 NMatS=1 NMatT=0.
 ***** Axes restored to original set *****
 -------------------------------------------------------------------
 Center     Atomic                   Forces (Hartrees/Bohr)
 Number     Number              X              Y              Z
 -------------------------------------------------------------------
      1        7          -0.018960866    0.001225210    0.000695839
      2        6           0.012460331   -0.010422077   -0.005931031
      3        7           0.003819783    0.018681308    0.011633431
      4        6          -0.009468110   -0.014499724   -0.008777526
      5        6           0.018885577    0.005841698    0.005770919
      6        7          -0.021579268    0.000107802   -0.006678540
      7        6          -0.004239918    0.021391756    0.009992777
      8        7          -0.034567142    0.000259879   -0.013938735
      9        7           0.029386804   -0.023241398   -0.005495950
     10        1           0.006097758   -0.005106099   -0.003101038
     11        1           0.002199547    0.004353792    0.002671651
     12        1          -0.000755682   -0.003052125   -0.002051235
     13        1           0.001457989    0.001974265    0.000031705
     14        1           0.000993596    0.001313193    0.002129412
     15        1           0.010177219   -0.006799615   -0.002748603
     16        1          -0.004774332    0.003093738    0.005025722
     17        1          -0.001391988    0.000353740    0.000394934
     18        1           0.022075795   -0.001583438    0.007243607
     19        1          -0.011173991   -0.000789742    0.001904576
     20        1          -0.000643102    0.006897838    0.001228087
 -------------------------------------------------------------------
 Cartesian Forces:  Max     0.034567142 RMS     0.010753852

 GradGradGradGradGradGradGradGradGradGradGradGradGradGradGradGradGradGrad
 Berny optimization.
 FormGI is forming the generalized inverse of G from B-inverse, IUseBI=4.
 Internal  Forces:  Max     0.020694584 RMS     0.006690363
 Search for a local minimum.
 Step number   1 out of a maximum of   88
 All quantities printed in internal units (Hartrees-Bohrs-Radians)
 Mixed Optimization -- RFO/linear search
 Second derivative matrix not updated -- first step.
 ITU=  0
     Eigenvalues ---    0.00273   0.00647   0.01484   0.01522   0.01837
     Eigenvalues ---    0.01991   0.02041   0.02234   0.02350   0.02350
     Eigenvalues ---    0.02421   0.02685   0.02760   0.03224   0.05927
     Eigenvalues ---    0.06204   0.07247   0.11066   0.13774   0.15826
     Eigenvalues ---    0.15997   0.16000   0.16000   0.16000   0.16000
     Eigenvalues ---    0.16000   0.16000   0.16000   0.22000   0.22001
     Eigenvalues ---    0.22055   0.22082   0.24989   0.24993   0.25000
     Eigenvalues ---    0.28764   0.33265   0.33947   0.33988   0.34690
     Eigenvalues ---    0.35244   0.43738   0.44319   0.44489   0.44520
     Eigenvalues ---    0.45550   0.45853   0.46700   0.48070   0.49583
     Eigenvalues ---    0.50293   0.54964   0.55177   0.71791
 RFO step:  Lambda=-1.52741461D-02 EMin= 2.73265387D-03
 Linear search not attempted -- first point.
 Iteration  1 RMS(Cart)=  0.10812208 RMS(Int)=  0.00684099
 Iteration  2 RMS(Cart)=  0.00865532 RMS(Int)=  0.00111346
 Iteration  3 RMS(Cart)=  0.00006220 RMS(Int)=  0.00111170
 Iteration  4 RMS(Cart)=  0.00000022 RMS(Int)=  0.00111170
 Variable       Old X    -DE/DX   Delta X   Delta X   Delta X     New X
                                 (Linear)    (Quad)   (Total)
    R1        2.55164   0.01067   0.00000   0.01889   0.01889   2.57054
    R2        1.90997  -0.00819   0.00000  -0.01729  -0.01729   1.89268
    R3        1.91342  -0.00549   0.00000  -0.01167  -0.01167   1.90175
    R4        2.42671  -0.01391   0.00000  -0.01897  -0.01897   2.40775
    R5        2.08589  -0.00360   0.00000  -0.01035  -0.01035   2.07555
    R6        2.79481  -0.00506   0.00000  -0.01397  -0.01397   2.78083
    R7        2.90497  -0.00498   0.00000  -0.01643  -0.01643   2.88854
    R8        2.07350   0.00048   0.00000   0.00135   0.00135   2.07485
    R9        2.07420   0.00047   0.00000   0.00132   0.00132   2.07552
   R10        2.60288   0.01506   0.00000   0.02946   0.02946   2.63234
   R11        2.54975  -0.00122   0.00000  -0.00215  -0.00215   2.54760
   R12        1.92537  -0.01176   0.00000  -0.02554  -0.02554   1.89982
   R13        1.90050  -0.00597   0.00000  -0.01237  -0.01237   1.88813
   R14        2.59570   0.02069   0.00000   0.03993   0.03993   2.63564
   R15        2.05281  -0.00054   0.00000  -0.00147  -0.00147   2.05134
   R16        2.61865   0.02045   0.00000   0.04123   0.04123   2.65988
   R17        1.92574  -0.01532   0.00000  -0.03329  -0.03329   1.89245
   R18        1.92774  -0.00584   0.00000  -0.01275  -0.01275   1.91500
   R19        1.93469  -0.00164   0.00000  -0.00362  -0.00362   1.93107
    A1        2.15746  -0.00361   0.00000  -0.02060  -0.02060   2.13686
    A2        2.05875   0.00264   0.00000   0.01505   0.01505   2.07380
    A3        2.06695   0.00097   0.00000   0.00554   0.00554   2.07249
    A4        2.12406   0.00444   0.00000   0.01888   0.01888   2.14293
    A5        1.98193  -0.00112   0.00000  -0.00319  -0.00319   1.97874
    A6        2.17720  -0.00332   0.00000  -0.01569  -0.01569   2.16151
    A7        2.01861   0.00685   0.00000   0.02583   0.02583   2.04444
    A8        1.89965   0.00839   0.00000   0.04125   0.04099   1.94064
    A9        1.92019  -0.00222   0.00000  -0.00671  -0.00682   1.91337
   A10        1.92078  -0.00206   0.00000  -0.00231  -0.00270   1.91808
   A11        1.91461  -0.00177   0.00000  -0.00698  -0.00708   1.90753
   A12        1.90476  -0.00074   0.00000   0.00230   0.00202   1.90678
   A13        1.90377  -0.00159   0.00000  -0.02740  -0.02751   1.87626
   A14        2.02754  -0.00680   0.00000  -0.02553  -0.02558   2.00196
   A15        2.12286  -0.00652   0.00000  -0.02445  -0.02449   2.09837
   A16        2.13237   0.01333   0.00000   0.05044   0.05040   2.18277
   A17        2.00831   0.00246   0.00000   0.00755   0.00605   2.01436
   A18        2.13212   0.00129   0.00000   0.00088  -0.00061   2.13150
   A19        2.11382  -0.00454   0.00000  -0.03261  -0.03421   2.07961
   A20        2.18340   0.00674   0.00000   0.02877   0.02868   2.21208
   A21        2.10140  -0.00477   0.00000  -0.02214  -0.02223   2.07918
   A22        1.99805  -0.00195   0.00000  -0.00605  -0.00613   1.99192
   A23        2.16626  -0.00188   0.00000  -0.01154  -0.01298   2.15329
   A24        2.01652   0.01593   0.00000   0.08468   0.08231   2.09883
   A25        2.08188  -0.01471   0.00000  -0.09155  -0.09234   1.98954
   A26        1.95843  -0.01658   0.00000  -0.10781  -0.10945   1.84898
   A27        1.90637  -0.00117   0.00000  -0.02069  -0.02224   1.88413
   A28        1.83929   0.00327   0.00000  -0.00871  -0.01276   1.82653
    D1        3.13273   0.00003   0.00000   0.00065   0.00065   3.13338
    D2       -0.00784  -0.00005   0.00000  -0.00132  -0.00132  -0.00916
    D3       -0.00001   0.00008   0.00000   0.00198   0.00198   0.00198
    D4       -3.14057  -0.00000   0.00000   0.00001   0.00001  -3.14056
    D5        3.13698   0.00017   0.00000   0.00338   0.00338   3.14037
    D6       -0.00575   0.00026   0.00000   0.00558   0.00558  -0.00018
    D7       -3.12633  -0.00037   0.00000  -0.00150  -0.00155  -3.12788
    D8        1.05852  -0.00206   0.00000  -0.01446  -0.01443   1.04409
    D9       -1.03970   0.00263   0.00000   0.02522   0.02524  -1.01446
   D10        0.03786   0.00017   0.00000   0.01077   0.01109   0.04894
   D11       -3.13409   0.00089   0.00000   0.02843   0.02830  -3.10579
   D12        2.13963   0.00154   0.00000   0.02372   0.02395   2.16358
   D13       -1.03232   0.00226   0.00000   0.04139   0.04117  -0.99115
   D14       -2.05871  -0.00191   0.00000  -0.01250  -0.01238  -2.07109
   D15        1.05253  -0.00119   0.00000   0.00516   0.00484   1.05737
   D16       -0.12268  -0.00151   0.00000  -0.03589  -0.03548  -0.15816
   D17       -3.01055   0.00258   0.00000   0.07284   0.07275  -2.93780
   D18        3.04944  -0.00186   0.00000  -0.05223  -0.05214   2.99730
   D19        0.16158   0.00223   0.00000   0.05650   0.05608   0.21766
   D20       -3.10978  -0.00094   0.00000  -0.02672  -0.02680  -3.13658
   D21        0.00274   0.00011   0.00000  -0.00092  -0.00114   0.00160
   D22       -0.00037  -0.00055   0.00000  -0.00941  -0.00920  -0.00957
   D23        3.11215   0.00050   0.00000   0.01638   0.01647   3.12861
   D24       -3.08261   0.00370   0.00000   0.08560   0.08788  -2.99473
   D25       -0.14880  -0.00151   0.00000  -0.02639  -0.02853  -0.17734
   D26        0.08654   0.00276   0.00000   0.06144   0.06359   0.15013
   D27        3.02034  -0.00245   0.00000  -0.05055  -0.05283   2.96752
   D28       -0.14063  -0.00007   0.00000   0.04644   0.05077  -0.08986
   D29       -2.17357   0.00647   0.00000   0.13414   0.13491  -2.03866
   D30       -3.06716   0.00186   0.00000   0.14242   0.14165  -2.92551
   D31        1.18309   0.00840   0.00000   0.23012   0.22579   1.40887
         Item               Value     Threshold  Converged?
 Maximum Force            0.020695     0.000450     NO 
 RMS     Force            0.006690     0.000300     NO 
 Maximum Displacement     0.352953     0.001800     NO 
 RMS     Displacement     0.110131     0.001200     NO 
 Predicted change in Energy=-8.905751D-03
 GradGradGradGradGradGradGradGradGradGradGradGradGradGradGradGradGradGrad

                          Input orientation:                          
 ---------------------------------------------------------------------
 Center     Atomic      Atomic             Coordinates (Angstroms)
 Number     Number       Type             X           Y           Z
 ---------------------------------------------------------------------
      1          7           0        1.221718    0.040704    0.020348
      2          6           0        2.572008   -0.075633   -0.095918
      3          7           0        3.131290   -1.050591   -0.695963
      4          6           0        4.601872   -1.051284   -0.749417
      5          6           0        5.126404   -2.266562   -1.513893
      6          7           0        4.137688   -3.086015   -2.053633
      7          6           0        6.453396   -2.469739   -1.637450
      8          7           0        7.077580   -3.522747   -2.305891
      9          7           0        8.463281   -3.763102   -2.248898
     10          1           0        0.787756    0.805889    0.499200
     11          1           0        0.636902   -0.672621   -0.382055
     12          1           0        3.122640    0.749666    0.375272
     13          1           0        5.008007   -1.061355    0.270621
     14          1           0        4.958600   -0.134553   -1.237936
     15          1           0        3.197751   -2.874559   -1.766372
     16          1           0        4.341523   -3.991505   -2.423561
     17          1           0        7.140739   -1.760914   -1.186356
     18          1           0        6.541367   -4.305498   -2.626293
     19          1           0        8.858294   -2.991087   -1.724605
     20          1           0        8.840795   -3.654882   -3.192299
 ---------------------------------------------------------------------
                    Distance matrix (angstroms):
                    1          2          3          4          5
     1  N    0.000000
     2  C    1.360270   0.000000
     3  N    2.313113   1.274124   0.000000
     4  C    3.634614   2.345059   1.471553   0.000000
     5  C    4.787896   3.651816   2.475495   1.528548   0.000000
     6  N    4.751910   3.917448   2.645573   2.461012   1.392975
     7  C    6.034988   4.813859   3.733199   2.495749   1.348131
     8  N    7.238832   6.088247   4.927132   3.828821   2.452009
     9  N    8.488737   7.275977   6.180570   4.951048   3.730230
    10  H    1.001564   2.077210   3.219796   4.422173   5.684749
    11  H    1.006364   2.045215   2.542316   3.999916   4.896666
    12  H    2.059637   1.098332   2.094886   2.587755   4.084318
    13  H    3.951349   2.653317   2.111035   1.097964   2.156625
    14  H    3.946933   2.646412   2.114692   1.098317   2.156333
    15  H    3.949155   3.319029   2.115904   2.515966   2.037917
    16  H    5.653723   4.887040   3.619149   3.393441   2.102133
    17  H    6.303711   4.990243   4.101308   2.672141   2.102500
    18  H    7.361579   6.328536   5.094038   4.227791   2.719709
    19  H    8.399638   7.118278   6.133694   4.778175   3.807406
    20  H    9.056975   7.854699   6.753701   5.542100   4.305947
                    6          7          8          9         10
     6  N    0.000000
     7  C    2.432182   0.000000
     8  N    2.982840   1.394720   0.000000
     9  N    4.382617   2.467041   1.407546   0.000000
    10  H    5.734624   6.884366   8.134342   9.345662   0.000000
    11  H    4.568824   6.215888   7.301144   8.619071   1.727819
    12  H    4.652134   5.050699   6.409657   7.468185   2.338846
    13  H    3.202945   2.777306   4.120679   5.058293   4.620538
    14  H    3.170234   2.801271   4.136479   5.145017   4.614977
    15  H    1.005343   3.283250   3.970429   5.361730   4.948392
    16  H    0.999154   2.719145   2.778414   4.131775   6.647314
    17  H    3.395052   1.085523   2.088398   2.624285   7.056201
    18  H    2.755495   2.086998   1.001439   2.032332   8.306566
    19  H    4.733011   2.462302   1.947177   1.013373   9.192167
    20  H    4.872309   3.085740   1.977905   1.021878   9.918522
                   11         12         13         14         15
    11  H    0.000000
    12  H    2.962320   0.000000
    13  H    4.436628   2.616364   0.000000
    14  H    4.438370   2.599045   1.771199   0.000000
    15  H    3.650043   4.210378   3.273236   3.299616   0.000000
    16  H    5.376520   5.638958   4.035913   4.081981   1.728491
    17  H    6.643130   4.988669   2.675950   2.722029   4.138089
    18  H    7.286777   6.800866   4.611699   4.672202   3.737222
    19  H    8.646908   7.162433   4.746525   4.858420   5.661897
    20  H    9.170345   8.051392   5.780005   5.593182   5.872489
                   16         17         18         19         20
    16  H    0.000000
    17  H    3.787060   0.000000
    18  H    2.231369   2.984556   0.000000
    19  H    4.678739   2.180146   2.812271   0.000000
    20  H    4.576868   3.240542   2.455816   1.610917   0.000000
 Stoichiometry    C4H11N5
 Framework group  C1[X(C4H11N5)]
 Deg. of freedom    54
 Full point group                 C1      NOp   1
 Largest Abelian subgroup         C1      NOp   1
 Largest concise Abelian subgroup C1      NOp   1
                         Standard orientation:                         
 ---------------------------------------------------------------------
 Center     Atomic      Atomic             Coordinates (Angstroms)
 Number     Number       Type             X           Y           Z
 ---------------------------------------------------------------------
      1          7           0       -4.256093    0.109080   -0.032516
      2          6           0       -3.057047   -0.532308    0.002757
      3          7           0       -1.943195    0.086191   -0.010890
      4          6           0       -0.720677   -0.731733    0.032946
      5          6           0        0.531257    0.145257    0.030023
      6          7           0        0.282136    1.515637    0.049466
      7          6           0        1.755436   -0.419384    0.025106
      8          7           0        2.981194    0.246015    0.027567
      9          7           0        4.216223   -0.405443   -0.149898
     10          1           0       -5.128623   -0.382657   -0.028500
     11          1           0       -4.267408    1.114575   -0.072792
     12          1           0       -3.148980   -1.625983    0.044689
     13          1           0       -0.695052   -1.403512   -0.835144
     14          1           0       -0.722035   -1.357930    0.935263
     15          1           0       -0.678792    1.781354   -0.079866
     16          1           0        1.000490    2.188746   -0.121410
     17          1           0        1.838089   -1.501750    0.021742
     18          1           0        3.018211    1.235957   -0.119146
     19          1           0        4.006205   -1.396320   -0.181212
     20          1           0        4.762225   -0.283835    0.705279
 ---------------------------------------------------------------------
 Rotational constants (GHZ):           7.0082774           0.5312566           0.4963007
 Standard basis: 6-31G(2df,p) (6D, 7F)
 There are   334 symmetry adapted cartesian basis functions of A   symmetry.
 There are   307 symmetry adapted basis functions of A   symmetry.
   307 basis functions,   473 primitive gaussians,   334 cartesian basis functions
    35 alpha electrons       35 beta electrons
       nuclear repulsion energy       434.3880618661 Hartrees.
 NAtoms=   20 NActive=   20 NUniq=   20 SFac= 1.00D+00 NAtFMM=   60 NAOKFM=F Big=F
 Integral buffers will be    131072 words long.
 Raffenetti 2 integral format.
 Two-electron integral symmetry is turned on.
 One-electron integrals computed using PRISM.
 PrsmSu:  requested number of processors reduced to:  13 ShMem   1 Linda.
 NBasis=   307 RedAO= T EigKep=  2.51D-04  NBF=   307
 NBsUse=   307 1.00D-06 EigRej= -1.00D+00 NBFU=   307
 Initial guess from the checkpoint file:  "NCdNCCpNpdCNN.chk"
 B after Tr=     0.000000   -0.000000    0.000000
         Rot=    0.999998   -0.001556    0.000054   -0.000997 Ang=  -0.21 deg.
 ExpMin= 1.61D-01 ExpMax= 4.17D+03 ExpMxC= 6.27D+02 IAcc=2 IRadAn=         4 AccDes= 0.00D+00
 Harris functional with IExCor=  402 and IRadAn=       4 diagonalized for initial guess.
 HarFok:  IExCor=  402 AccDes= 0.00D+00 IRadAn=         4 IDoV= 1 UseB2=F ITyADJ=14
 ICtDFT=  3500011 ScaDFX=  1.000000  1.000000  1.000000  1.000000
 FoFCou: FMM=F IPFlag=           0 FMFlag=      100000 FMFlg1=           0
         NFxFlg=           0 DoJE=T BraDBF=F KetDBF=T FulRan=T
         wScrn=  0.000000 ICntrl=       500 IOpCl=  0 I1Cent=   200000004 NGrid=           0
         NMat0=    1 NMatS0=      1 NMatT0=    0 NMatD0=    1 NMtDS0=    0 NMtDT0=    0
 Petite list used in FoFCou.
 Requested convergence on RMS density matrix=1.00D-08 within 128 cycles.
 Requested convergence on MAX density matrix=1.00D-06.
 Requested convergence on             energy=1.00D-06.
 No special actions if energy rises.
 Integral accuracy reduced to 1.0D-05 until final iterations.
 Initial convergence to 1.0D-05 achieved.  Increase integral accuracy.
 SCF Done:  E(RB3LYP) =  -432.738419760     A.U. after   12 cycles
            NFock= 12  Conv=0.77D-08     -V/T= 2.0075
 PrsmSu:  requested number of processors reduced to:  13 ShMem   1 Linda.
 Calling FoFJK, ICntrl=      2127 FMM=F ISym2X=0 I1Cent= 0 IOpClX= 0 NMat=1 NMatS=1 NMatT=0.
 ***** Axes restored to original set *****
 -------------------------------------------------------------------
 Center     Atomic                   Forces (Hartrees/Bohr)
 Number     Number              X              Y              Z
 -------------------------------------------------------------------
      1        7          -0.003440111   -0.001498464   -0.000783955
      2        6           0.003919582   -0.004310258   -0.002751275
      3        7           0.003349139    0.004571947    0.003057919
      4        6          -0.006405346   -0.002325129   -0.001592022
      5        6           0.004253360   -0.003932954    0.001543676
      6        7           0.000004642    0.007282547   -0.005584884
      7        6          -0.003032818    0.002376830    0.002169236
      8        7          -0.015697598    0.006515578   -0.012960574
      9        7           0.009495227   -0.006963849    0.001402510
     10        1           0.001236855    0.000623115    0.000339116
     11        1           0.000182927    0.000414280    0.000270311
     12        1          -0.000270544    0.000644050    0.000290882
     13        1           0.001207671    0.000801566    0.000293121
     14        1           0.000544109    0.001071350    0.000591856
     15        1           0.000020528   -0.001724961    0.001727545
     16        1           0.000755483   -0.003160180    0.002406505
     17        1          -0.000006218    0.000337090   -0.000693761
     18        1           0.000739659   -0.005018328    0.006575220
     19        1           0.002768551   -0.000436834    0.004485487
     20        1           0.000374903    0.004732604   -0.000786914
 -------------------------------------------------------------------
 Cartesian Forces:  Max     0.015697598 RMS     0.004150698

 GradGradGradGradGradGradGradGradGradGradGradGradGradGradGradGradGradGrad
 Berny optimization.
 Using GEDIIS/GDIIS optimizer.
 FormGI is forming the generalized inverse of G from B-inverse, IUseBI=4.
 Internal  Forces:  Max     0.013104534 RMS     0.002414565
 Search for a local minimum.
 Step number   2 out of a maximum of   88
 All quantities printed in internal units (Hartrees-Bohrs-Radians)
 Mixed Optimization -- RFO/linear search
 Update second derivatives using D2CorX and points    1    2
 DE= -9.82D-03 DEPred=-8.91D-03 R= 1.10D+00
 TightC=F SS=  1.41D+00  RLast= 4.15D-01 DXNew= 5.0454D-01 1.2438D+00
 Trust test= 1.10D+00 RLast= 4.15D-01 DXMaxT set to 5.05D-01
 ITU=  1  0
 Use linear search instead of GDIIS.
     Eigenvalues ---    0.00273   0.00647   0.01192   0.01573   0.01853
     Eigenvalues ---    0.01991   0.02038   0.02350   0.02350   0.02385
     Eigenvalues ---    0.02426   0.02681   0.02762   0.03224   0.05838
     Eigenvalues ---    0.06955   0.07162   0.11377   0.13964   0.15014
     Eigenvalues ---    0.15925   0.16000   0.16000   0.16000   0.16000
     Eigenvalues ---    0.16000   0.16000   0.17957   0.21819   0.22005
     Eigenvalues ---    0.22034   0.22689   0.24884   0.24999   0.25836
     Eigenvalues ---    0.28788   0.33299   0.33946   0.33986   0.34450
     Eigenvalues ---    0.35244   0.43559   0.43866   0.44487   0.44754
     Eigenvalues ---    0.45375   0.45682   0.46385   0.47241   0.49879
     Eigenvalues ---    0.52746   0.54739   0.56737   0.71186
 RFO step:  Lambda=-6.84811994D-03 EMin= 2.72797239D-03
 Quartic linear search produced a step of  0.39602.
 Iteration  1 RMS(Cart)=  0.09796753 RMS(Int)=  0.02280576
 Iteration  2 RMS(Cart)=  0.02865197 RMS(Int)=  0.00256903
 Iteration  3 RMS(Cart)=  0.00092907 RMS(Int)=  0.00244046
 Iteration  4 RMS(Cart)=  0.00000144 RMS(Int)=  0.00244046
 Iteration  5 RMS(Cart)=  0.00000000 RMS(Int)=  0.00244046
 Variable       Old X    -DE/DX   Delta X   Delta X   Delta X     New X
                                 (Linear)    (Quad)   (Total)
    R1        2.57054   0.00195   0.00748   0.00308   0.01057   2.58111
    R2        1.89268   0.00010  -0.00685   0.00163  -0.00522   1.88747
    R3        1.90175  -0.00051  -0.00462  -0.00051  -0.00513   1.89662
    R4        2.40775  -0.00511  -0.00751  -0.00770  -0.01521   2.39254
    R5        2.07555   0.00047  -0.00410   0.00264  -0.00146   2.07409
    R6        2.78083  -0.00496  -0.00553  -0.01698  -0.02251   2.75832
    R7        2.88854  -0.00026  -0.00651   0.00023  -0.00628   2.88226
    R8        2.07485   0.00071   0.00053   0.00254   0.00307   2.07793
    R9        2.07552   0.00081   0.00052   0.00291   0.00343   2.07895
   R10        2.63234  -0.00140   0.01167  -0.00588   0.00579   2.63813
   R11        2.54760  -0.00552  -0.00085  -0.01261  -0.01346   2.53414
   R12        1.89982   0.00011  -0.01012   0.00232  -0.00780   1.89202
   R13        1.88813   0.00213  -0.00490   0.00676   0.00186   1.88999
   R14        2.63564   0.00046   0.01581  -0.00191   0.01390   2.64954
   R15        2.05134  -0.00007  -0.00058  -0.00014  -0.00072   2.05062
   R16        2.65988   0.01310   0.01633   0.03152   0.04785   2.70773
   R17        1.89245   0.00142  -0.01319   0.00667  -0.00651   1.88593
   R18        1.91500   0.00307  -0.00505   0.00980   0.00475   1.91975
   R19        1.93107   0.00137  -0.00143   0.00426   0.00282   1.93389
    A1        2.13686  -0.00188  -0.00816  -0.01264  -0.02080   2.11606
    A2        2.07380   0.00107   0.00596   0.00689   0.01285   2.08665
    A3        2.07249   0.00081   0.00219   0.00574   0.00793   2.08042
    A4        2.14293   0.00033   0.00748   0.00025   0.00773   2.15066
    A5        1.97874  -0.00077  -0.00126  -0.00541  -0.00667   1.97207
    A6        2.16151   0.00044  -0.00621   0.00516  -0.00106   2.16045
    A7        2.04444   0.00175   0.01023   0.00659   0.01682   2.06126
    A8        1.94064   0.00012   0.01623  -0.00084   0.01520   1.95584
    A9        1.91337   0.00027  -0.00270   0.00343   0.00068   1.91405
   A10        1.91808   0.00011  -0.00107   0.00381   0.00246   1.92054
   A11        1.90753  -0.00015  -0.00280  -0.00154  -0.00440   1.90313
   A12        1.90678   0.00052   0.00080   0.00520   0.00579   1.91257
   A13        1.87626  -0.00091  -0.01090  -0.01040  -0.02135   1.85491
   A14        2.00196   0.00070  -0.01013   0.00567  -0.00448   1.99748
   A15        2.09837  -0.00050  -0.00970  -0.00045  -0.01017   2.08820
   A16        2.18277  -0.00020   0.01996  -0.00532   0.01463   2.19740
   A17        2.01436   0.00043   0.00240  -0.01255  -0.01716   1.99720
   A18        2.13150  -0.00181  -0.00024  -0.02917  -0.03628   2.09522
   A19        2.07961  -0.00017  -0.01355  -0.01437  -0.03617   2.04344
   A20        2.21208  -0.00050   0.01136  -0.00536   0.00597   2.21805
   A21        2.07918   0.00030  -0.00880   0.00383  -0.00501   2.07417
   A22        1.99192   0.00020  -0.00243   0.00151  -0.00096   1.99096
   A23        2.15329  -0.00330  -0.00514  -0.02735  -0.03948   2.11381
   A24        2.09883   0.00314   0.03259  -0.00245   0.02027   2.11909
   A25        1.98954  -0.00102  -0.03657  -0.01740  -0.06016   1.92938
   A26        1.84898   0.00393  -0.04334   0.04024  -0.00377   1.84521
   A27        1.88413  -0.00212  -0.00881  -0.01529  -0.02475   1.85938
   A28        1.82653  -0.00081  -0.00505  -0.00477  -0.01162   1.81491
    D1        3.13338   0.00001   0.00026   0.00010   0.00036   3.13373
    D2       -0.00916  -0.00002  -0.00052  -0.00042  -0.00094  -0.01010
    D3        0.00198   0.00004   0.00078   0.00117   0.00195   0.00393
    D4       -3.14056   0.00001   0.00000   0.00065   0.00066  -3.13991
    D5        3.14037   0.00012   0.00134   0.00342   0.00476  -3.13806
    D6       -0.00018   0.00015   0.00221   0.00399   0.00620   0.00602
    D7       -3.12788  -0.00011  -0.00061   0.00927   0.00863  -3.11925
    D8        1.04409  -0.00018  -0.00571   0.00947   0.00375   1.04784
    D9       -1.01446   0.00070   0.01000   0.01782   0.02786  -0.98660
   D10        0.04894   0.00046   0.00439   0.04246   0.04701   0.09596
   D11       -3.10579   0.00038   0.01121   0.03399   0.04520  -3.06059
   D12        2.16358   0.00077   0.00948   0.04519   0.05475   2.21833
   D13       -0.99115   0.00069   0.01630   0.03672   0.05294  -0.93821
   D14       -2.07109  -0.00011  -0.00490   0.03476   0.02986  -2.04123
   D15        1.05737  -0.00019   0.00192   0.02629   0.02804   1.08541
   D16       -0.15816  -0.00209  -0.01405  -0.07863  -0.09064  -0.24880
   D17       -2.93780   0.00259   0.02881   0.09324   0.12013  -2.81767
   D18        2.99730  -0.00201  -0.02065  -0.06974  -0.08847   2.90883
   D19        0.21766   0.00267   0.02221   0.10213   0.12231   0.33997
   D20       -3.13658   0.00024  -0.01061   0.01580   0.00515  -3.13143
   D21        0.00160   0.00016  -0.00045   0.00745   0.00692   0.00852
   D22       -0.00957   0.00016  -0.00364   0.00649   0.00293  -0.00664
   D23        3.12861   0.00008   0.00652  -0.00186   0.00470   3.13331
   D24       -2.99473   0.00309   0.03480   0.12168   0.15867  -2.83606
   D25       -0.17734  -0.00154  -0.01130  -0.06051  -0.07395  -0.25129
   D26        0.15013   0.00316   0.02518   0.12967   0.15699   0.30711
   D27        2.96752  -0.00147  -0.02092  -0.05252  -0.07563   2.89188
   D28       -0.08986   0.00194   0.02011   0.10690   0.13212   0.04226
   D29       -2.03866   0.00198   0.05343   0.10041   0.15735  -1.88131
   D30       -2.92551   0.00557   0.05609   0.27615   0.32873  -2.59679
   D31        1.40887   0.00561   0.08941   0.26965   0.35396   1.76283
         Item               Value     Threshold  Converged?
 Maximum Force            0.013105     0.000450     NO 
 RMS     Force            0.002415     0.000300     NO 
 Maximum Displacement     0.506098     0.001800     NO 
 RMS     Displacement     0.120809     0.001200     NO 
 Predicted change in Energy=-5.057895D-03
 GradGradGradGradGradGradGradGradGradGradGradGradGradGradGradGradGradGrad

                          Input orientation:                          
 ---------------------------------------------------------------------
 Center     Atomic      Atomic             Coordinates (Angstroms)
 Number     Number       Type             X           Y           Z
 ---------------------------------------------------------------------
      1          7           0        1.244847    0.014011    0.098027
      2          6           0        2.593939   -0.081278   -0.092893
      3          7           0        3.142791   -1.051612   -0.693028
      4          6           0        4.595922   -1.041816   -0.830372
      5          6           0        5.106791   -2.255436   -1.600082
      6          7           0        4.102869   -3.070390   -2.126304
      7          6           0        6.427076   -2.448116   -1.734337
      8          7           0        7.063717   -3.496045   -2.414303
      9          7           0        8.444636   -3.799017   -2.181107
     10          1           0        0.843695    0.790217    0.581961
     11          1           0        0.643781   -0.713084   -0.244560
     12          1           0        3.147225    0.769424    0.325226
     13          1           0        5.061682   -1.026570    0.165588
     14          1           0        4.920510   -0.120655   -1.336727
     15          1           0        3.189859   -2.894977   -1.754717
     16          1           0        4.311402   -4.010344   -2.397007
     17          1           0        7.108780   -1.735151   -1.282132
     18          1           0        6.566301   -4.317001   -2.687429
     19          1           0        8.749235   -3.155111   -1.456790
     20          1           0        8.954551   -3.493441   -3.014114
 ---------------------------------------------------------------------
                    Distance matrix (angstroms):
                    1          2          3          4          5
     1  N    0.000000
     2  C    1.365862   0.000000
     3  N    2.315926   1.266076   0.000000
     4  C    3.634061   2.339754   1.459641   0.000000
     5  C    4.790467   3.648700   2.475730   1.525226   0.000000
     6  N    4.757044   3.917451   2.655465   2.457164   1.396037
     7  C    6.022883   4.794705   3.717671   2.479507   1.341008
     8  N    7.245105   6.085104   4.930690   3.823884   2.455937
     9  N    8.459941   7.239674   6.154037   4.923336   3.723095
    10  H    0.998804   2.068401   3.209949   4.407974   5.675500
    11  H    1.003650   2.055553   2.561401   4.008823   4.912713
    12  H    2.059444   1.097562   2.086392   2.591278   4.086134
    13  H    3.956716   2.655211   2.102377   1.099591   2.151682
    14  H    3.948057   2.638485   2.107443   1.100132   2.159016
    15  H    3.959538   3.321699   2.127767   2.503125   2.026710
    16  H    5.641311   4.867872   3.608780   3.368598   2.085050
    17  H    6.272967   4.953117   4.067350   2.645610   2.092785
    18  H    7.405018   6.360238   5.134279   4.249457   2.750007
    19  H    8.293167   7.014009   6.036576   4.701959   3.754643
    20  H    9.023701   7.786770   6.717628   5.456816   4.282219
                    6          7          8          9         10
     6  N    0.000000
     7  C    2.437786   0.000000
     8  N    3.005120   1.402077   0.000000
     9  N    4.402822   2.468823   1.432867   0.000000
    10  H    5.732469   6.857563   8.126396   9.298920   0.000000
    11  H    4.589460   6.219025   7.325861   8.609677   1.727141
    12  H    4.654828   5.035056   6.406103   7.430674   2.317886
    13  H    3.217031   2.737665   4.094177   4.963649   4.611452
    14  H    3.161156   2.800877   4.140986   5.163603   4.596897
    15  H    1.001216   3.267977   3.975313   5.348998   4.954311
    16  H    1.000139   2.712151   2.800007   4.144260   6.629074
    17  H    3.395731   1.085140   2.093941   2.617673   7.007396
    18  H    2.817338   2.102498   0.997993   2.013160   8.337913
    19  H    4.695119   2.443214   1.968257   1.015889   9.067506
    20  H    4.950354   3.019713   1.983692   1.023373   9.852282
                   11         12         13         14         15
    11  H    0.000000
    12  H    2.964746   0.000000
    13  H    4.447960   2.629871   0.000000
    14  H    4.453562   2.588217   1.759989   0.000000
    15  H    3.677465   4.213765   3.268369   3.296472   0.000000
    16  H    5.381115   5.622459   4.004087   4.077363   1.707173
    17  H    6.627020   4.954837   2.605492   2.719946   4.114180
    18  H    7.350651   6.829194   4.607659   4.705565   3.780537
    19  H    8.551689   7.068243   4.556406   4.886868   5.573427
    20  H    9.190741   7.940293   5.599142   5.519312   5.930929
                   16         17         18         19         20
    16  H    0.000000
    17  H    3.774224   0.000000
    18  H    2.294112   2.989163   0.000000
    19  H    4.616253   2.176668   2.762184   0.000000
    20  H    4.712414   3.081918   2.547296   1.606824   0.000000
 Stoichiometry    C4H11N5
 Framework group  C1[X(C4H11N5)]
 Deg. of freedom    54
 Full point group                 C1      NOp   1
 Largest Abelian subgroup         C1      NOp   1
 Largest concise Abelian subgroup C1      NOp   1
                         Standard orientation:                         
 ---------------------------------------------------------------------
 Center     Atomic      Atomic             Coordinates (Angstroms)
 Number     Number       Type             X           Y           Z
 ---------------------------------------------------------------------
      1          7           0       -4.250472    0.085726   -0.107783
      2          6           0       -3.041787   -0.541053    0.000876
      3          7           0       -1.936151    0.075375   -0.022233
      4          6           0       -0.709987   -0.707242    0.098529
      5          6           0        0.535286    0.173352    0.085653
      6          7           0        0.273260    1.544578    0.084750
      7          6           0        1.749797   -0.395153    0.093834
      8          7           0        2.989694    0.259425    0.095614
      9          7           0        4.192187   -0.431475   -0.264630
     10          1           0       -5.105140   -0.430917   -0.092539
     11          1           0       -4.283082    1.083088   -0.215116
     12          1           0       -3.131636   -1.629280    0.111924
     13          1           0       -0.648092   -1.428229   -0.729388
     14          1           0       -0.731737   -1.301580    1.024045
     15          1           0       -0.674179    1.784983   -0.132045
     16          1           0        0.982959    2.189855   -0.198487
     17          1           0        1.820877   -1.477936    0.101460
     18          1           0        3.065484    1.230671   -0.121013
     19          1           0        3.903273   -1.370514   -0.523018
     20          1           0        4.721801   -0.564965    0.600808
 ---------------------------------------------------------------------
 Rotational constants (GHZ):           6.7633901           0.5337962           0.4986996
 Standard basis: 6-31G(2df,p) (6D, 7F)
 There are   334 symmetry adapted cartesian basis functions of A   symmetry.
 There are   307 symmetry adapted basis functions of A   symmetry.
   307 basis functions,   473 primitive gaussians,   334 cartesian basis functions
    35 alpha electrons       35 beta electrons
       nuclear repulsion energy       434.4040541889 Hartrees.
 NAtoms=   20 NActive=   20 NUniq=   20 SFac= 1.00D+00 NAtFMM=   60 NAOKFM=F Big=F
 Integral buffers will be    131072 words long.
 Raffenetti 2 integral format.
 Two-electron integral symmetry is turned on.
 One-electron integrals computed using PRISM.
 PrsmSu:  requested number of processors reduced to:  13 ShMem   1 Linda.
 NBasis=   307 RedAO= T EigKep=  2.59D-04  NBF=   307
 NBsUse=   307 1.00D-06 EigRej= -1.00D+00 NBFU=   307
 Initial guess from the checkpoint file:  "NCdNCCpNpdCNN.chk"
 B after Tr=    -0.000000    0.000000   -0.000000
         Rot=    1.000000   -0.000240    0.000008    0.000044 Ang=  -0.03 deg.
 ExpMin= 1.61D-01 ExpMax= 4.17D+03 ExpMxC= 6.27D+02 IAcc=2 IRadAn=         4 AccDes= 0.00D+00
 Harris functional with IExCor=  402 and IRadAn=       4 diagonalized for initial guess.
 HarFok:  IExCor=  402 AccDes= 0.00D+00 IRadAn=         4 IDoV= 1 UseB2=F ITyADJ=14
 ICtDFT=  3500011 ScaDFX=  1.000000  1.000000  1.000000  1.000000
 FoFCou: FMM=F IPFlag=           0 FMFlag=      100000 FMFlg1=           0
         NFxFlg=           0 DoJE=T BraDBF=F KetDBF=T FulRan=T
         wScrn=  0.000000 ICntrl=       500 IOpCl=  0 I1Cent=   200000004 NGrid=           0
         NMat0=    1 NMatS0=      1 NMatT0=    0 NMatD0=    1 NMtDS0=    0 NMtDT0=    0
 Petite list used in FoFCou.
 Requested convergence on RMS density matrix=1.00D-08 within 128 cycles.
 Requested convergence on MAX density matrix=1.00D-06.
 Requested convergence on             energy=1.00D-06.
 No special actions if energy rises.
 Integral accuracy reduced to 1.0D-05 until final iterations.
 Initial convergence to 1.0D-05 achieved.  Increase integral accuracy.
 SCF Done:  E(RB3LYP) =  -432.745723170     A.U. after   12 cycles
            NFock= 12  Conv=0.82D-08     -V/T= 2.0074
 PrsmSu:  requested number of processors reduced to:  13 ShMem   1 Linda.
 Calling FoFJK, ICntrl=      2127 FMM=F ISym2X=0 I1Cent= 0 IOpClX= 0 NMat=1 NMatS=1 NMatT=0.
 ***** Axes restored to original set *****
 -------------------------------------------------------------------
 Center     Atomic                   Forces (Hartrees/Bohr)
 Number     Number              X              Y              Z
 -------------------------------------------------------------------
      1        7           0.004104096   -0.000948480   -0.000944138
      2        6          -0.003322648    0.001798376    0.001031058
      3        7           0.001475691   -0.004607185   -0.001739498
      4        6          -0.000977595    0.003766254    0.001128320
      5        6          -0.004454249   -0.004022891    0.003589615
      6        7           0.006136334    0.007146190   -0.009508451
      7        6           0.001190885   -0.005274732    0.002460094
      8        7           0.007558454    0.008465116   -0.013081091
      9        7          -0.003398993    0.003750350   -0.001649812
     10        1          -0.001191228    0.002169333    0.001317292
     11        1          -0.000754642   -0.001251036   -0.000599927
     12        1           0.000075622    0.001437131    0.000763422
     13        1           0.000934946   -0.000284029   -0.000200381
     14        1          -0.000055904    0.000183758   -0.000547041
     15        1          -0.004424493    0.000052201    0.004438116
     16        1           0.001717902   -0.004818538    0.002381480
     17        1           0.000668745    0.000576507   -0.002011620
     18        1          -0.007092911   -0.005891925    0.006431868
     19        1           0.002081551   -0.003277188    0.005353179
     20        1          -0.000271561    0.001030787    0.001387515
 -------------------------------------------------------------------
 Cartesian Forces:  Max     0.013081091 RMS     0.003940940

 GradGradGradGradGradGradGradGradGradGradGradGradGradGradGradGradGradGrad
 Berny optimization.
 Using GEDIIS/GDIIS optimizer.
 FormGI is forming the generalized inverse of G from B-inverse, IUseBI=4.
 Internal  Forces:  Max     0.007642743 RMS     0.002281473
 Search for a local minimum.
 Step number   3 out of a maximum of   88
 All quantities printed in internal units (Hartrees-Bohrs-Radians)
 Mixed Optimization -- RFO/linear search
 Update second derivatives using D2CorX and points    2    3
 DE= -7.30D-03 DEPred=-5.06D-03 R= 1.44D+00
 TightC=F SS=  1.41D+00  RLast= 6.40D-01 DXNew= 8.4853D-01 1.9210D+00
 Trust test= 1.44D+00 RLast= 6.40D-01 DXMaxT set to 8.49D-01
 ITU=  1  1  0
 Use linear search instead of GDIIS.
     Eigenvalues ---    0.00184   0.00350   0.00651   0.01598   0.01974
     Eigenvalues ---    0.02017   0.02094   0.02350   0.02350   0.02461
     Eigenvalues ---    0.02682   0.02770   0.02994   0.03225   0.05668
     Eigenvalues ---    0.07108   0.07612   0.11555   0.14049   0.15557
     Eigenvalues ---    0.15930   0.15997   0.16000   0.16000   0.16000
     Eigenvalues ---    0.16000   0.16465   0.18186   0.21984   0.22016
     Eigenvalues ---    0.22223   0.22698   0.24916   0.25022   0.26837
     Eigenvalues ---    0.29088   0.33352   0.33945   0.33990   0.34998
     Eigenvalues ---    0.35244   0.43788   0.44447   0.44579   0.45218
     Eigenvalues ---    0.45639   0.46195   0.46654   0.49846   0.51354
     Eigenvalues ---    0.53848   0.56139   0.61224   0.78182
 RFO step:  Lambda=-6.00656067D-03 EMin= 1.84433717D-03
 Quartic linear search produced a step of  1.37335.
 Iteration  1 RMS(Cart)=  0.13474062 RMS(Int)=  0.08116975
 Iteration  2 RMS(Cart)=  0.09391778 RMS(Int)=  0.03386613
 Iteration  3 RMS(Cart)=  0.04702957 RMS(Int)=  0.01378030
 Iteration  4 RMS(Cart)=  0.00253965 RMS(Int)=  0.01368085
 Iteration  5 RMS(Cart)=  0.00006572 RMS(Int)=  0.01368083
 Iteration  6 RMS(Cart)=  0.00000285 RMS(Int)=  0.01368083
 Iteration  7 RMS(Cart)=  0.00000012 RMS(Int)=  0.01368083
 Variable       Old X    -DE/DX   Delta X   Delta X   Delta X     New X
                                 (Linear)    (Quad)   (Total)
    R1        2.58111  -0.00217   0.01451  -0.00244   0.01207   2.59317
    R2        1.88747   0.00280  -0.00716   0.00508  -0.00208   1.88539
    R3        1.89662   0.00156  -0.00704   0.00274  -0.00431   1.89232
    R4        2.39254   0.00367  -0.02089   0.00530  -0.01559   2.37695
    R5        2.07409   0.00144  -0.00200   0.00366   0.00166   2.07575
    R6        2.75832  -0.00039  -0.03092  -0.00079  -0.03170   2.72662
    R7        2.88226   0.00181  -0.00862   0.00586  -0.00276   2.87950
    R8        2.07793   0.00021   0.00422   0.00064   0.00486   2.08279
    R9        2.07895   0.00039   0.00471   0.00136   0.00607   2.08502
   R10        2.63813  -0.00284   0.00795  -0.00066   0.00728   2.64541
[...]
 7378,-0.00013757,-0.00167755,0.00181424,0.00112949,-0.00122729,-0.0027
 9191,-0.00734193,-0.01580515,0.03663767,0.03166306,0.00129704,-0.00102
 482,-0.00393588,-0.11920281,0.03574578,0.01542768,0.45965477,0.0007661
 1,0.00013622,-0.00020528,-0.00078616,0.00028109,0.00000240,0.00158095,
 -0.00103902,-0.00034363,-0.00129266,0.00450039,0.00046676,0.01427613,-
 0.00930596,-0.01583995,-0.00035213,-0.00013547,0.00616612,0.07129993,-
 0.16244950,-0.11464791,-0.02471708,0.45817469,0.00089871,0.00028967,-0
 .00053988,-0.00157381,0.00031481,0.00077367,0.00011720,0.00139594,0.00
 041347,-0.00347590,-0.00555041,0.01288755,0.00583653,-0.00823243,-0.00
 695898,0.00247422,0.00359549,0.00303335,0.02023733,-0.08165385,-0.1410
 1994,0.20787016,0.19419487,0.42995124,-0.00000393,0.00002231,-0.000061
 08,-0.00005866,-0.00001685,0.00019965,-0.00013549,0.00046603,0.0000016
 6,-0.00129350,-0.00092203,0.00245391,0.00383508,0.00104550,-0.00274819
 ,0.00054293,0.00060989,0.00131044,-0.02157541,0.02741459,-0.00674574,-
 0.12351796,0.04439518,-0.02974876,0.61675047,0.00111262,0.00019198,-0.
 00030034,-0.00129952,0.00052914,-0.00000909,0.00146184,-0.00155485,-0.
 00061246,-0.00037947,0.00332487,-0.00177363,-0.00855761,-0.00379316,-0
 .00156528,0.00357191,0.00109236,0.00471093,0.02428096,-0.03098022,0.01
 836580,0.04808849,-0.10393058,0.01273717,0.06777718,0.23196856,0.00043
 136,0.00011127,-0.00013097,-0.00049387,0.00016219,0.00005113,0.0004176
 5,-0.00036376,-0.00028768,0.00025337,0.00015798,0.00070062,-0.00105749
 ,-0.00339679,-0.00135469,0.00177918,-0.00009755,0.00041623,0.01625669,
 -0.00559851,0.00976965,-0.07650157,0.06324546,-0.11177386,-0.04475130,
 -0.08293488,0.51288344,-0.19028657,0.19988497,0.04028782,-0.02166908,0
 .02365388,-0.00184756,-0.00195165,-0.00159417,0.00536841,-0.00064113,0
 .00009164,0.00069212,-0.00019520,-0.00004237,-0.00000528,0.00012824,-0
 .00011424,-0.00013927,-0.00009832,0.00005044,0.00007251,0.00012563,-0.
 00004195,-0.00015265,-0.00001180,-0.00006362,-0.00003442,0.21570777,0.
 22733092,-0.28157316,-0.00224393,-0.01386272,0.00547342,-0.00077548,-0
 .00072895,-0.00101801,0.00026309,-0.00017946,0.00182410,0.00164440,-0.
 00031634,-0.00017094,0.00029019,-0.00004586,-0.00005830,-0.00012049,-0
 .00002847,0.00006526,0.00005859,0.00001081,-0.00000913,-0.00007225,-0.
 00001472,0.00000545,-0.00000445,-0.21945402,0.28680676,0.05811216,-0.0
 1279158,-0.05239454,0.00330037,-0.02200192,0.00033703,0.00336383,0.000
 82855,-0.00246257,0.00100729,0.00104824,0.00338826,-0.00021371,0.00008
 101,0.00010471,0.00000697,-0.00020434,-0.00026628,-0.00009149,0.000047
 92,0.00003720,0.00012761,-0.00007660,-0.00014376,-0.00001023,-0.000082
 10,-0.00003799,-0.04408652,0.01155609,0.04703881,-0.05860249,0.0591060
 5,-0.03550650,0.00675093,-0.02268890,0.03007932,0.00291262,-0.00105882
 ,-0.00368773,-0.00120505,-0.00006992,-0.00017900,0.00008706,0.00026575
 ,-0.00013233,0.00002370,-0.00004382,-0.00014847,-0.00008917,0.00001899
 ,-0.00002368,0.00009583,-0.00005157,-0.00004017,0.00000358,-0.00009331
 ,-0.00002243,-0.00156366,0.00720269,-0.02171133,0.05507999,0.05053847,
 -0.15121346,0.17383980,-0.00853629,-0.00391767,0.01069238,0.00307203,-
 0.00190047,-0.00196570,-0.00062281,-0.00123411,-0.00025310,0.00033470,
 0.00045444,-0.00038367,0.00008170,-0.00025948,-0.00017868,-0.00012539,
 -0.00008791,-0.00004556,0.00013706,-0.00009286,-0.00004922,0.00000204,
 -0.00012758,-0.00005311,-0.00150324,-0.01171115,0.02091185,-0.04364757
 ,0.16709193,-0.02206198,0.20513945,-0.31286078,-0.00715355,0.01153624,
 -0.01703589,-0.00258603,-0.00268239,0.00123813,0.00034333,-0.00006459,
 0.00052997,0.00008202,0.00010223,-0.00002865,-0.00006072,-0.00007476,-
 0.00011307,-0.00004532,-0.00001550,-0.00003248,-0.00003699,0.00000129,
 0.00003025,-0.00000284,0.00002396,0.00001084,0.00077548,-0.00998228,0.
 00580409,0.02739066,-0.20530070,0.32118745,0.00270056,-0.01971309,0.02
 323163,-0.06037808,0.01789241,-0.01459279,-0.00636194,0.02989231,-0.01
 358262,0.00266906,0.00165439,-0.00743160,0.00060033,-0.00009920,0.0004
 0775,-0.00013762,-0.00009919,0.00017415,-0.00006017,-0.00016174,0.0000
 6506,0.00005398,0.00000141,-0.00010593,-0.00002769,0.00002773,-0.00001
 141,0.00039668,-0.00026546,-0.00060880,-0.00363642,-0.00040682,0.00346
 287,0.06417796,0.00015006,-0.00232017,0.00737229,0.01579004,-0.1730460
 4,0.11349219,0.01690672,-0.00815950,0.02541008,-0.00618882,-0.00166498
 ,-0.00227209,0.00062240,0.00050726,0.00010757,-0.00018865,0.00014135,-
 0.00013454,-0.00014153,-0.00008212,-0.00015458,0.00006090,-0.00002538,
 0.00007944,0.00002585,-0.00007183,-0.00000868,-0.00128684,0.00017166,0
 .00009078,0.00050461,0.00281275,0.00154568,-0.02661826,0.18104940,0.00
 075014,0.01647085,-0.01246546,-0.01031098,0.11412361,-0.16413975,0.000
 23807,0.01740300,0.00727610,0.00069432,-0.00694388,-0.00039121,0.00071
 607,0.00016674,0.00007004,-0.00014371,-0.00008415,0.00029011,0.0000607
 0,-0.00020094,-0.00011498,-0.00009310,0.00005393,0.00006719,0.00000810
 ,0.00008910,0.00001535,-0.00112571,-0.00035556,-0.00082276,0.00422218,
 0.00268968,0.00095514,0.00756851,-0.14358403,0.16925482,-0.00267909,0.
 00097400,0.00177880,0.00170110,-0.00478441,-0.00002078,-0.02882819,-0.
 00695444,-0.00434917,-0.18429776,-0.07136404,-0.10657641,0.00711015,0.
 00245336,0.00373795,-0.00006768,0.00222312,0.00093807,-0.00080120,0.00
 218836,0.00190296,0.00084529,-0.00055475,-0.00027625,-0.00000110,0.000
 00548,-0.00002729,0.00017710,0.00022119,0.00080341,-0.00009870,0.00019
 221,0.00002157,-0.00035949,-0.00068524,-0.00060389,0.21300770,-0.00097
 135,-0.00010261,-0.00011961,0.00138212,-0.00087471,-0.00038751,-0.0051
 8155,0.00048533,-0.00087048,-0.06927870,-0.08196488,-0.04971763,-0.022
 13510,-0.01390180,-0.01737382,0.00359324,-0.00382325,-0.00198585,-0.00
 165374,0.00008094,0.00080360,0.00045020,0.00013830,0.00026418,-0.00006
 914,-0.00003871,0.00004881,0.00016853,0.00009902,0.00024135,-0.0000026
 4,0.00001303,-0.00011373,-0.00007228,0.00026052,0.00014350,0.07773456,
 0.09090037,0.00154881,-0.00087550,-0.00106637,0.00094709,0.00200533,0.
 00086483,0.02090797,0.00841943,0.01221919,-0.10588151,-0.05313644,-0.1
 2583280,-0.01342544,-0.00388331,-0.00844102,0.00248546,-0.00335034,-0.
 00009954,-0.00076178,0.00033077,0.00021356,0.00056558,0.00014919,0.000
 22386,-0.00001656,-0.00009578,-0.00003007,-0.00017398,-0.00032922,-0.0
 0077760,0.00013649,0.00005867,0.00009144,0.00017543,0.00005021,0.00015
 053,0.10837341,0.05836478,0.13371295,-0.00071089,0.00031665,-0.0000664
 2,0.00453178,-0.00767401,0.00565556,-0.00333184,-0.01534591,0.02384907
 ,-0.06727225,0.04333156,-0.04950855,-0.00618217,0.00920911,-0.00581783
 ,0.00081846,-0.00062391,0.00014354,0.00191205,0.00100541,-0.00064004,-
 0.00153668,0.00034872,0.00257324,0.00051756,0.00017412,0.00020492,-0.0
 0014502,0.00008361,-0.00007339,0.00017152,0.00034437,-0.00028238,0.000
 50056,0.00108194,-0.00186124,-0.00580232,0.01582607,-0.01511383,0.0765
 5071,-0.00102038,0.00025573,-0.00055286,0.00389098,0.00083621,-0.00297
 006,-0.00486117,-0.00456313,0.01317084,0.04157832,-0.14935013,0.101941
 70,0.01512540,-0.02160801,0.01550242,-0.00047436,0.00243232,0.00019501
 ,-0.00365142,-0.00101969,0.00054775,0.00284960,-0.00073678,-0.00352064
 ,-0.00073430,0.00017866,-0.00019054,-0.00000197,0.00008451,0.00011783,
 0.00045428,-0.00017378,-0.00008654,-0.00181793,0.00077157,0.00018212,-
 0.00302838,0.00829646,-0.00770658,-0.04843574,0.16496108,0.00204832,-0
 .00042762,0.00029634,-0.00693244,0.00285792,0.00063027,0.00937327,0.01
 682921,-0.02088103,-0.04626971,0.09933823,-0.15050438,0.00482983,-0.01
 100845,0.01142370,0.00019853,0.00104620,0.00021697,-0.00117970,-0.0006
 7055,0.00108311,0.00143112,-0.00022331,-0.00192930,-0.00034948,0.00015
 531,-0.00014749,0.00003916,-0.00005933,-0.00014049,-0.00057268,-0.0000
 9088,0.00027310,0.00158228,-0.00214006,0.00035405,-0.00611941,0.011837
 73,-0.01114512,0.04167658,-0.11763738,0.17035345,-0.00095580,-0.000355
 18,0.00024622,0.00129443,0.00041067,-0.00011211,0.00033761,0.00144469,
 -0.00010398,0.00023008,0.00089312,0.00120417,-0.03380099,-0.00422977,0
 .01125219,-0.30107863,0.01097725,0.16669600,0.00050766,-0.00303721,-0.
 00034962,0.00033980,-0.00099735,-0.00023421,0.00001977,-0.00023499,-0.
 00000595,0.00004823,0.00006539,0.00012049,0.00009153,0.00013002,0.0001
 4013,-0.00011753,0.00007687,-0.00015901,-0.00022345,0.00037705,0.00023
 702,-0.00002076,-0.00006476,-0.00000376,0.34039843,-0.00157408,-0.0006
 8350,0.00037309,0.00401504,-0.00143784,-0.00102213,-0.00050080,0.00157
 658,0.00111375,-0.00302503,-0.00087724,0.00048048,-0.01482820,0.003353
 98,0.01582898,-0.01038610,-0.05526483,-0.01896317,-0.00286466,-0.00373
 462,-0.00365969,0.00007657,0.00006533,0.00035595,0.00021973,0.00093914
 ,0.00026676,0.00020465,0.00002183,0.00021079,0.00005764,0.00026654,-0.
 00000423,-0.00015143,-0.00031333,-0.00006606,0.00027622,0.00027178,0.0
 0030956,0.00016925,-0.00049346,-0.00010075,-0.00466934,0.05640783,-0.0
 0188565,-0.00045297,0.00046989,0.00367952,-0.00141099,-0.00074475,-0.0
 0115385,0.00206819,0.00068817,-0.00081101,-0.00101427,0.00070466,-0.02
 370179,0.00220734,0.00590402,0.20767436,-0.02976210,-0.13842791,-0.001
 18435,-0.00237327,-0.00098285,0.00056557,-0.00045489,-0.00056688,-0.00
 017205,-0.00065814,-0.00026623,0.00021362,0.00009737,0.00027994,0.0001
 4794,0.00012818,-0.00003600,-0.00037729,0.00014067,-0.00044870,0.00015
 511,0.00018340,-0.00025118,0.00012737,0.00054306,-0.00021589,-0.183145
 27,0.02540158,0.13872173,-0.00015332,-0.00009646,0.00004954,0.00060259
 ,-0.00011268,-0.00011510,0.00024302,0.00082543,0.00065906,-0.00436838,
 -0.00160778,-0.00221617,0.01200057,-0.02861745,-0.00428301,-0.08851707
 ,0.09013036,0.02562139,-0.00051437,-0.00244701,-0.00112617,0.00078158,
 0.00125661,-0.00079626,-0.00004881,0.00078502,-0.00043548,0.00002733,0
 .00000431,0.00002183,0.00001843,0.00004409,0.00000867,-0.00002644,-0.0
 0007134,0.00000251,0.00028798,-0.00110086,-0.00076063,-0.00013507,0.00
 016289,0.00018217,-0.00619875,0.03340258,0.00111315,0.08806707,0.00013
 949,0.00001010,-0.00003934,0.00007124,0.00007302,0.00010050,-0.0000992
 2,0.00051060,0.00059410,-0.00400142,-0.00032115,-0.00081406,0.00568395
 ,-0.01938394,-0.00035363,0.09126749,-0.39274717,-0.07976276,0.00249935
 ,0.00062951,-0.00198189,-0.00165901,0.00061785,0.00200828,0.00082455,0
 .00001304,0.00047072,-0.00000420,-0.00000581,-0.00001674,-0.00000635,-
 0.00001726,-0.00000949,-0.00003147,-0.00002581,-0.00003568,0.00064063,
 -0.00054813,-0.00061893,0.00003518,0.00033126,0.00028808,-0.00203344,-
 0.00101655,0.00483122,-0.09328070,0.41092682,-0.00007449,-0.00004534,0
 .00001244,-0.00006717,0.00003418,-0.00014977,-0.00055377,0.00008566,0.
 00022148,-0.00279516,-0.00234550,-0.00032857,-0.00125221,-0.02347538,-
 0.01086250,0.01544525,-0.02948136,-0.01711825,0.00262882,0.00214126,0.
 00224434,0.00210058,0.00040532,-0.00133388,-0.00065836,-0.00035511,-0.
 00002401,0.00002417,0.00001067,0.00000366,0.00002183,-0.00003206,-0.00
 000191,0.00000993,0.00002272,-0.00002772,0.00021920,-0.00110116,-0.000
 02232,0.00008682,-0.00049535,-0.00003240,0.00506909,-0.02020801,-0.005
 11398,-0.02122084,0.07513883,0.03327509,0.00013529,-0.00000368,-0.0000
 6339,-0.00005605,0.00011550,0.00005469,0.00041185,0.00040674,0.0003551
 5,-0.00038494,-0.00242825,-0.00108053,-0.01771608,-0.02104522,-0.01419
 860,-0.00359603,0.00326250,0.00170961,-0.17719538,-0.10689129,-0.08413
 421,0.01108407,0.01028704,0.00832037,0.00170338,-0.00094206,0.00013980
 ,-0.00001353,-0.00001887,-0.00003914,-0.00000904,-0.00002361,-0.000013
 47,-0.00001387,-0.00001926,-0.00000457,0.00011214,0.00105333,0.0008828
 4,0.00008399,0.00015876,0.00018705,-0.00072762,-0.00037925,-0.00140873
 ,0.00031324,0.00031453,0.00035042,0.18666322,-0.00030796,-0.00006517,0
 .00006341,0.00041901,-0.00012738,0.00003843,-0.00061832,0.00071896,0.0
 0059106,0.00164922,-0.00222540,0.00247219,0.00367175,0.00400098,0.0040
 4495,0.00053980,0.00182591,-0.00613711,-0.11048833,-0.13826813,-0.0857
 2778,-0.01200986,-0.01631000,-0.01696370,-0.00070883,0.00275195,0.0012
 1546,0.00000745,-0.00001207,0.00000887,0.00001445,0.00004109,-0.000007
 59,-0.00002209,0.00000174,-0.00002534,0.00046351,0.00058981,0.00013705
 ,0.00032596,-0.00024461,-0.00006159,0.00100881,0.00102797,0.00006061,0
 .00042833,-0.00005505,0.00035725,0.11382618,0.15109158,0.00027556,-0.0
 0004188,-0.00004441,-0.00016920,0.00018293,-0.00010366,0.00095370,-0.0
 0072574,-0.00006085,0.00084876,0.00391153,-0.00308834,0.00104145,-0.00
 019560,-0.00058225,0.00282747,-0.00185166,0.00881082,-0.08133701,-0.08
 293506,-0.09023519,-0.01213010,-0.01428806,-0.01488227,0.00082525,0.00
 036417,0.00047029,0.00001374,0.00000462,-0.00002650,-0.00002290,-0.000
 02816,0.00001439,0.00003348,-0.00002778,0.00003525,-0.00019948,-0.0003
 2181,0.00004712,-0.00057426,0.00028204,0.00000139,-0.00080181,-0.00092
 503,0.00012895,-0.00004383,0.00000388,-0.00105825,0.08677654,0.1006462
 4,0.09912875,0.00015432,0.00002727,-0.00004086,-0.00020816,0.00006688,
 0.00001629,0.00013306,-0.00026602,-0.00001292,-0.00002500,0.00037471,-
 0.00040279,0.00196130,0.00128628,0.00060620,-0.00150605,0.00057683,-0.
 00036546,0.00773159,0.00867585,0.01570360,-0.19811605,-0.12078152,-0.1
 6937363,-0.01931592,-0.00421576,-0.00646827,-0.00001542,-0.00000067,-0
 .00001429,-0.00001314,-0.00000681,0.00000936,0.00001725,-0.00000738,0.
 00001504,-0.00008488,-0.00010232,-0.00009333,-0.00012311,0.00003906,-0
 .00001039,-0.00012495,-0.00027037,0.00031110,-0.00236816,-0.00077134,0
 .00113173,-0.00017775,0.00128530,0.00121995,0.21468623,0.00003961,-0.0
 0001965,-0.00000572,0.00003187,0.00006610,-0.00003005,0.00020019,0.000
 12872,0.00019140,-0.00016289,-0.00014434,-0.00007029,-0.00176041,-0.00
 003610,-0.00078716,0.00057163,0.00101541,0.00191102,-0.02252212,-0.014
 43719,-0.01035112,-0.12256514,-0.15538349,-0.14080490,0.02521261,0.006
 40009,0.02234791,0.00000009,-0.00000417,-0.00001446,-0.00000314,-0.000
 00134,0.00000124,-0.00000539,-0.00002345,0.00000131,0.00005909,0.00022
 264,0.00019770,0.00005592,-0.00005918,0.00000540,0.00013657,0.00025164
 ,0.00032856,0.00061270,0.00101900,-0.00092803,0.00294563,-0.00308238,-
 0.00409439,0.11204495,0.16542695,-0.00030541,-0.00006717,0.00009608,0.
 00048001,-0.00015668,-0.00003883,-0.00024463,0.00033053,0.00006677,0.0
 0001678,-0.00028325,-0.00047270,-0.00275945,0.00038210,-0.00009437,-0.
 00067707,0.00062211,0.00043316,-0.01120316,-0.01619546,-0.01479920,-0.
 13436520,-0.11179648,-0.14009014,-0.01636468,0.00045846,-0.01117204,0.
 00003709,0.00000875,0.00003646,0.00002096,0.00001094,-0.00001628,-0.00
 001147,0.00001257,-0.00003360,0.00021439,0.00011679,0.00011769,-0.0000
 4118,0.00024557,0.00014003,-0.00007692,0.00071014,-0.00001206,0.003006
 52,0.00024123,0.00038245,0.00198012,-0.00099756,0.00072996,0.16187848,
 0.12583149,0.16900335,0.00005788,0.00000554,-0.00003099,-0.00011308,0.
 00004152,0.00002339,-0.00000083,-0.00006075,-0.00001723,-0.00001196,-0
 .00013099,0.00029928,-0.00141830,-0.00034646,0.00025793,-0.00005909,-0
 .00006764,-0.00000262,0.00390612,-0.00280163,-0.00189778,0.00484320,0.
 00799241,-0.02889109,-0.10691198,-0.00754562,0.11131615,-0.00000791,-0
 .00000073,-0.00000278,-0.00000577,0.00000914,0.00000873,0.00000391,-0.
 00000602,0.00001523,-0.00000487,-0.00002763,-0.00002812,0.00007259,-0.
 00008237,-0.00007531,-0.00002929,0.00004689,-0.00004568,-0.00015339,0.
 00026805,-0.00032792,-0.00020633,-0.00006297,0.00013804,-0.00009086,0.
 00191260,-0.00226999,0.11360445,-0.00030153,-0.00008016,0.00009149,0.0
 0036216,-0.00009875,-0.00005504,-0.00029045,0.00020560,0.00010363,0.00
 000315,0.00000298,-0.00017017,0.00293655,0.00059978,-0.00013624,-0.001
 06346,-0.00046540,-0.00060147,-0.00506439,0.00415393,0.00230269,0.0037
 8022,-0.01580569,0.03423873,0.00956122,-0.01786332,-0.01148364,0.00002
 582,0.00000541,0.00002693,0.00002437,0.00004337,-0.00000278,-0.0000002
 8,0.00001025,-0.00000894,-0.00005001,-0.00009419,-0.00001594,-0.000131
 61,0.00003069,0.00003347,0.00004932,-0.00019814,0.00005045,-0.00022591
 ,0.00009467,0.00009974,-0.00012643,-0.00113375,0.00020897,-0.00045769,
 -0.00024719,-0.00085209,0.00146529,0.03513782,-0.00021694,-0.00006408,
 0.00008768,0.00029028,-0.00006432,-0.00008256,-0.00016385,0.00002569,0
 .00009123,0.00016371,0.00030777,-0.00115025,0.00134027,0.00127770,0.00
 156186,-0.00070010,-0.00049079,-0.00073923,-0.00174910,-0.00320992,0.0
 0432255,-0.00396595,0.00047405,-0.02020625,0.12284452,0.04333738,-0.35
 306951,0.00002051,0.00000624,0.00002035,0.00001231,0.00002654,-0.00000
 428,0.00001244,-0.00000638,-0.00000943,0.00002132,0.00000324,0.0000165
 9,-0.00024535,0.00033532,0.00018830,0.00002826,-0.00012114,0.00007683,
 -0.00001176,-0.00011976,0.00012327,0.00019088,0.00045555,0.00025266,0.
 00141539,0.00300675,-0.00319437,-0.11737636,-0.03858220,0.37289405,0.0
 0013268,0.00002591,-0.00004271,-0.00016706,0.00006289,0.00002978,0.000
 15306,-0.00009258,-0.00005286,-0.00025884,0.00016279,0.00018968,-0.000
 69828,0.00000692,-0.00030800,0.00062637,0.00023144,0.00064583,-0.00108
 755,-0.00087110,0.00036455,-0.01830998,-0.00262933,-0.01365909,-0.3504
 7053,-0.12395337,-0.00098965,-0.00001170,-0.00000265,-0.00001229,-0.00
 001175,-0.00001328,0.00000045,-0.00000103,-0.00000607,0.00001134,0.000
 00727,0.00001020,-0.00000491,0.00010088,-0.00008651,-0.00003542,0.0000
 1024,0.00018068,-0.00010209,0.00014196,0.00014269,-0.00013790,-0.00041
 056,0.00057859,0.00032466,-0.00251429,0.00319563,0.00068481,-0.0134744
 8,-0.01049635,-0.00191047,0.38624359,-0.00018809,-0.00003346,0.0000737
 9,0.00026080,-0.00009072,-0.00006409,-0.00021618,0.00011198,0.00005042
 ,0.00047246,-0.00021384,-0.00017384,0.00030663,-0.00073470,0.00006455,
 -0.00062956,-0.00017483,-0.00083655,0.00415678,0.00083478,0.00076991,0
 .03610691,0.00130997,0.00737286,-0.17511082,-0.08903499,0.01610536,0.0
 0001915,0.00000531,0.00001751,0.00001719,0.00001391,-0.00000551,-0.000
 00362,0.00000612,-0.00001926,-0.00001044,-0.00000994,-0.00001068,-0.00
 009669,0.00007028,0.00002838,0.00005228,-0.00016311,0.00008601,-0.0000
 9211,-0.00010499,0.00017166,-0.00049230,-0.00052603,-0.00016921,0.0025
 0273,-0.00109209,0.00137799,-0.00060864,-0.00429792,-0.00659765,0.1335
 5352,0.09412425,-0.00021591,-0.00004849,0.00007140,0.00028928,-0.00009
 239,-0.00003747,-0.00022442,0.00017388,0.00006694,0.00014061,-0.000149
 89,-0.00022251,-0.00015113,0.00034114,0.00002431,-0.00060928,0.0000323
 0,-0.00004212,0.00095299,-0.00092622,-0.00016802,-0.02284130,-0.007283
 28,-0.00793543,-0.02601424,0.00814451,-0.04602301,0.00002075,0.0000029
 8,0.00002200,0.00001552,0.00002280,-0.00000547,-0.00000162,0.00000393,
 -0.00001497,0.00000649,-0.00001576,0.00000825,-0.00009264,0.00009628,0
 .00003540,-0.00000091,0.00001910,0.00009222,0.00034440,0.00007541,-0.0
 0018917,-0.00000482,-0.00017041,0.00046213,-0.00552521,0.00326334,-0.0
 0108237,0.03890710,0.01475241,-0.00117947,0.01500433,-0.01824164,0.056
 11737\\0.00000874,0.00001268,-0.00002223,-0.00006770,-0.00000684,0.000
 02483,0.00002113,0.00001797,-0.00001337,0.00001903,0.00000110,-0.00000
 662,0.00001497,-0.00003612,-0.00000007,-0.00000839,0.00000235,-0.00002
 429,-0.00000322,0.00000293,-0.00000432,-0.00001473,0.00001878,-0.00001
 878,0.00000910,-0.00001548,0.00001956,-0.00001540,0.00001323,0.0000153
 1,-0.00000021,-0.00001238,0.00000973,0.00001200,-0.00000810,-0.0000019
 5,0.00000479,0.00000591,-0.00000054,0.00000734,0.00000028,0.00000947,0
 .00000127,0.00001026,0.00001138,0.00001110,-0.00001241,0.00000067,-0.0
 0000194,0.00000803,0.00000418,0.00000380,-0.00000197,0.00000499,0.0000
 0040,0.00000042,-0.00000607,-0.00000207,-0.00000065,-0.00000188\\\@


 ALL THINGS ARE POSSIBLE EXCEPT SKIING THROUGH A REVOLVING DOOR.
 Job cpu time:       0 days  1 hours 44 minutes 17.1 seconds.
 Elapsed time:       0 days  0 hours 26 minutes  5.6 seconds.
 File lengths (MBytes):  RWF=    148 Int=      0 D2E=      0 Chk=      9 Scr=      1
 Normal termination of Gaussian 16 at Mon May 31 14:47:23 2021.
### All Done ###
