### Starting Gaussian ###
 Entering Gaussian System, Link 0=g16
 Initial command:
 /cluster/software/gaussian/gaussian-16-A.03/avx2/g16/l1.exe "/local/scratch/linjian/Gau-20634.inp" -scrdir="/local/scratch/linjian/"
 Entering Link 1 = /cluster/software/gaussian/gaussian-16-A.03/avx2/g16/l1.exe PID=     20635.
  
 Copyright (c) 1988,1990,1992,1993,1995,1998,2003,2009,2016,
            Gaussian, Inc.  All Rights Reserved.
  
 This is part of the Gaussian(R) 16 program.  It is based on
 the Gaussian(R) 09 system (copyright 2009, Gaussian, Inc.),
 the Gaussian(R) 03 system (copyright 2003, Gaussian, Inc.),
 the Gaussian(R) 98 system (copyright 1998, Gaussian, Inc.),
 the Gaussian(R) 94 system (copyright 1995, Gaussian, Inc.),
 the Gaussian 92(TM) system (copyright 1992, Gaussian, Inc.),
 the Gaussian 90(TM) system (copyright 1990, Gaussian, Inc.),
 the Gaussian 88(TM) system (copyright 1988, Gaussian, Inc.),
 the Gaussian 86(TM) system (copyright 1986, Carnegie Mellon
 University), and the Gaussian 82(TM) system (copyright 1983,
 Carnegie Mellon University). Gaussian is a federally registered
 trademark of Gaussian, Inc.
  
 This software contains proprietary and confidential information,
 including trade secrets, belonging to Gaussian, Inc.
  
 This software is provided under written license and may be
 used, copied, transmitted, or stored only in accord with that
 written license.
  
 The following legend is applicable only to US Government
 contracts under FAR:
  
                    RESTRICTED RIGHTS LEGEND
  
 Use, reproduction and disclosure by the US Government is
 subject to restrictions as set forth in subparagraphs (a)
 and (c) of the Commercial Computer Software - Restricted
 Rights clause in FAR 52.227-19.
  
 Gaussian, Inc.
 340 Quinnipiac St., Bldg. 40, Wallingford CT 06492
  
  
 ---------------------------------------------------------------
 Warning -- This program may not be used in any manner that
 competes with the business of Gaussian, Inc. or will provide
 assistance to any competitor of Gaussian, Inc.  The licensee
 of this program is prohibited from giving any competitor of
 Gaussian, Inc. access to this program.  By using this program,
 the user acknowledges that Gaussian, Inc. is engaged in the
 business of creating and licensing software in the field of
 computational chemistry and represents and warrants to the
 licensee that it is not a competitor of Gaussian, Inc. and that
 it will not use this program in any manner prohibited above.
 ---------------------------------------------------------------
  

 Cite this work as:
 Gaussian 16, Revision A.03,
 M. J. Frisch, G. W. Trucks, H. B. Schlegel, G. E. Scuseria, 
 M. A. Robb, J. R. Cheeseman, G. Scalmani, V. Barone, 
 G. A. Petersson, H. Nakatsuji, X. Li, M. Caricato, A. V. Marenich, 
 J. Bloino, B. G. Janesko, R. Gomperts, B. Mennucci, H. P. Hratchian, 
 J. V. Ortiz, A. F. Izmaylov, J. L. Sonnenberg, D. Williams-Young, 
 F. Ding, F. Lipparini, F. Egidi, J. Goings, B. Peng, A. Petrone, 
 T. Henderson, D. Ranasinghe, V. G. Zakrzewski, J. Gao, N. Rega, 
 G. Zheng, W. Liang, M. Hada, M. Ehara, K. Toyota, R. Fukuda, 
 J. Hasegawa, M. Ishida, T. Nakajima, Y. Honda, O. Kitao, H. Nakai, 
 T. Vreven, K. Throssell, J. A. Montgomery, Jr., J. E. Peralta, 
 F. Ogliaro, M. J. Bearpark, J. J. Heyd, E. N. Brothers, K. N. Kudin, 
 V. N. Staroverov, T. A. Keith, R. Kobayashi, J. Normand, 
 K. Raghavachari, A. P. Rendell, J. C. Burant, S. S. Iyengar, 
 J. Tomasi, M. Cossi, J. M. Millam, M. Klene, C. Adamo, R. Cammi, 
 J. W. Ochterski, R. L. Martin, K. Morokuma, O. Farkas, 
 J. B. Foresman, and D. J. Fox, Gaussian, Inc., Wallingford CT, 2016.
 
 ******************************************
 Gaussian 16:  ES64L-G16RevA.03 25-Dec-2016
                31-May-2021 
 ******************************************
 %chk=NCdNCdCCCCN.chk
 %NProcShared=20
 Will use up to   20 processors via shared memory.
 -----------------------------
 # opt freq b3lyp/6-31g(2df,p)
 -----------------------------
 1/18=20,19=15,26=3,38=1/1,3;
 2/9=110,12=2,17=6,18=5,40=1/2;
 3/5=1,6=6,7=104,11=2,25=1,30=1,71=1,74=-5/1,2,3;
 4//1;
 5/5=2,38=5/2;
 6/7=2,8=2,9=2,10=2,28=1/1;
 7//1,2,3,16;
 1/18=20,19=15,26=3/3(2);
 2/9=110/2;
 99//99;
 2/9=110/2;
 3/5=1,6=6,7=104,11=2,25=1,30=1,71=1,74=-5/1,2,3;
 4/5=5,16=3,69=1/1;
 5/5=2,38=5/2;
 7//1,2,3,16;
 1/18=20,19=15,26=3/3(-5);
 2/9=110/2;
 6/7=2,8=2,9=2,10=2,19=2,28=1/1;
 99/9=1/99;
 -------------------
 Title Card Required
 -------------------
 Symbolic Z-matrix:
 Charge =  0 Multiplicity = 1
 N                     1.11342   0.09518  -0.03676 
 C                     2.46551   0.14275   0.01794 
 N                     3.10547   0.90334   0.83991 
 C                     4.47333   0.85973   0.79443 
 C                     5.21005   1.6211    1.61903 
 C                     6.71395   1.64402   1.6458 
 C                     7.25822   2.61879   2.70038 
 C                     8.7873    2.63103   2.71546 
 N                     9.27819   3.55516   3.73258 
 H                     0.60747  -0.50175  -0.67528 
 H                     0.58824   0.67961   0.60157 
 H                     2.94669  -0.53337  -0.71194 
 H                     4.96834   0.20116   0.0826 
 H                     4.68254   2.26563   2.31887 
 H                     7.09066   1.93961   0.65916 
 H                     7.08977   0.63687   1.86263 
 H                     6.88415   2.3347    3.69292 
 H                     6.88411   3.63053   2.49496 
 H                     9.17538   2.9317    1.73612 
 H                     9.17053   1.62843   2.93318 
 H                     8.96212   4.50092   3.52051 
 H                     10.29669   3.58153   3.70825 
 

 GradGradGradGradGradGradGradGradGradGradGradGradGradGradGradGradGradGrad
 Berny optimization.
 Initialization pass.
                           ----------------------------
                           !    Initial Parameters    !
                           ! (Angstroms and Degrees)  !
 --------------------------                            --------------------------
 ! Name  Definition              Value          Derivative Info.                !
 --------------------------------------------------------------------------------
 ! R1    R(1,2)                  1.354          estimate D2E/DX2                !
 ! R2    R(1,10)                 1.01           estimate D2E/DX2                !
 ! R3    R(1,11)                 1.0123         estimate D2E/DX2                !
 ! R4    R(2,3)                  1.2898         estimate D2E/DX2                !
 ! R5    R(2,12)                 1.1052         estimate D2E/DX2                !
 ! R6    R(3,4)                  1.3693         estimate D2E/DX2                !
 ! R7    R(4,5)                  1.3425         estimate D2E/DX2                !
 ! R8    R(4,13)                 1.0888         estimate D2E/DX2                !
 ! R9    R(5,6)                  1.5043         estimate D2E/DX2                !
 ! R10   R(5,14)                 1.0879         estimate D2E/DX2                !
 ! R11   R(6,7)                  1.5358         estimate D2E/DX2                !
 ! R12   R(6,15)                 1.0967         estimate D2E/DX2                !
 ! R13   R(6,16)                 1.0966         estimate D2E/DX2                !
 ! R14   R(7,8)                  1.5292         estimate D2E/DX2                !
 ! R15   R(7,17)                 1.0981         estimate D2E/DX2                !
 ! R16   R(7,18)                 1.0981         estimate D2E/DX2                !
 ! R17   R(8,9)                  1.4593         estimate D2E/DX2                !
 ! R18   R(8,19)                 1.0955         estimate D2E/DX2                !
 ! R19   R(8,20)                 1.0952         estimate D2E/DX2                !
 ! R20   R(9,21)                 1.0195         estimate D2E/DX2                !
 ! R21   R(9,22)                 1.0191         estimate D2E/DX2                !
 ! A1    A(2,1,10)             123.1305         estimate D2E/DX2                !
 ! A2    A(2,1,11)             118.1823         estimate D2E/DX2                !
 ! A3    A(10,1,11)            118.6836         estimate D2E/DX2                !
 ! A4    A(1,2,3)              122.8134         estimate D2E/DX2                !
 ! A5    A(1,2,12)             112.7427         estimate D2E/DX2                !
 ! A6    A(3,2,12)             124.4439         estimate D2E/DX2                !
 ! A7    A(2,3,4)              117.1089         estimate D2E/DX2                !
 ! A8    A(3,4,5)              120.6445         estimate D2E/DX2                !
 ! A9    A(3,4,13)             119.6791         estimate D2E/DX2                !
 ! A10   A(5,4,13)             119.6765         estimate D2E/DX2                !
 ! A11   A(4,5,6)              124.6229         estimate D2E/DX2                !
 ! A12   A(4,5,14)             117.7125         estimate D2E/DX2                !
 ! A13   A(6,5,14)             117.6645         estimate D2E/DX2                !
 ! A14   A(5,6,7)              112.098          estimate D2E/DX2                !
 ! A15   A(5,6,15)             109.3597         estimate D2E/DX2                !
 ! A16   A(5,6,16)             109.3984         estimate D2E/DX2                !
 ! A17   A(7,6,15)             108.9635         estimate D2E/DX2                !
 ! A18   A(7,6,16)             109.0078         estimate D2E/DX2                !
 ! A19   A(15,6,16)            107.9206         estimate D2E/DX2                !
 ! A20   A(6,7,8)              111.4828         estimate D2E/DX2                !
 ! A21   A(6,7,17)             109.6179         estimate D2E/DX2                !
 ! A22   A(6,7,18)             109.6096         estimate D2E/DX2                !
 ! A23   A(8,7,17)             109.4989         estimate D2E/DX2                !
 ! A24   A(8,7,18)             109.5809         estimate D2E/DX2                !
 ! A25   A(17,7,18)            106.9422         estimate D2E/DX2                !
 ! A26   A(7,8,9)              110.3837         estimate D2E/DX2                !
 ! A27   A(7,8,19)             110.3407         estimate D2E/DX2                !
 ! A28   A(7,8,20)             110.1526         estimate D2E/DX2                !
 ! A29   A(9,8,19)             109.276          estimate D2E/DX2                !
 ! A30   A(9,8,20)             108.8724         estimate D2E/DX2                !
 ! A31   A(19,8,20)            107.7588         estimate D2E/DX2                !
 ! A32   A(8,9,21)             109.7674         estimate D2E/DX2                !
 ! A33   A(8,9,22)             109.629          estimate D2E/DX2                !
 ! A34   A(21,9,22)            106.3121         estimate D2E/DX2                !
 ! D1    D(10,1,2,3)          -179.6964         estimate D2E/DX2                !
 ! D2    D(10,1,2,12)            0.3736         estimate D2E/DX2                !
 ! D3    D(11,1,2,3)            -0.4054         estimate D2E/DX2                !
 ! D4    D(11,1,2,12)          179.6645         estimate D2E/DX2                !
 ! D5    D(1,2,3,4)           -179.9401         estimate D2E/DX2                !
 ! D6    D(12,2,3,4)            -0.0184         estimate D2E/DX2                !
 ! D7    D(2,3,4,5)           -179.9436         estimate D2E/DX2                !
 ! D8    D(2,3,4,13)             0.0554         estimate D2E/DX2                !
 ! D9    D(3,4,5,6)            179.9967         estimate D2E/DX2                !
 ! D10   D(3,4,5,14)             0.1298         estimate D2E/DX2                !
 ! D11   D(13,4,5,6)            -0.0023         estimate D2E/DX2                !
 ! D12   D(13,4,5,14)         -179.8692         estimate D2E/DX2                !
 ! D13   D(4,5,6,7)            179.9831         estimate D2E/DX2                !
 ! D14   D(4,5,6,15)            59.025          estimate D2E/DX2                !
 ! D15   D(4,5,6,16)           -58.9764         estimate D2E/DX2                !
 ! D16   D(14,5,6,7)            -0.1499         estimate D2E/DX2                !
 ! D17   D(14,5,6,15)         -121.108          estimate D2E/DX2                !
 ! D18   D(14,5,6,16)          120.8906         estimate D2E/DX2                !
 ! D19   D(5,6,7,8)           -179.9952         estimate D2E/DX2                !
 ! D20   D(5,6,7,17)            58.599          estimate D2E/DX2                !
 ! D21   D(5,6,7,18)           -58.4917         estimate D2E/DX2                !
 ! D22   D(15,6,7,8)           -58.8086         estimate D2E/DX2                !
 ! D23   D(15,6,7,17)          179.7856         estimate D2E/DX2                !
 ! D24   D(15,6,7,18)           62.6949         estimate D2E/DX2                !
 ! D25   D(16,6,7,8)            58.7393         estimate D2E/DX2                !
 ! D26   D(16,6,7,17)          -62.6665         estimate D2E/DX2                !
 ! D27   D(16,6,7,18)         -179.7572         estimate D2E/DX2                !
 ! D28   D(6,7,8,9)           -179.5064         estimate D2E/DX2                !
 ! D29   D(6,7,8,19)            59.6069         estimate D2E/DX2                !
 ! D30   D(6,7,8,20)           -59.2457         estimate D2E/DX2                !
 ! D31   D(17,7,8,9)           -58.0314         estimate D2E/DX2                !
 ! D32   D(17,7,8,19)         -178.9181         estimate D2E/DX2                !
 ! D33   D(17,7,8,20)           62.2293         estimate D2E/DX2                !
 ! D34   D(18,7,8,9)            58.9735         estimate D2E/DX2                !
 ! D35   D(18,7,8,19)          -61.9132         estimate D2E/DX2                !
 ! D36   D(18,7,8,20)          179.2341         estimate D2E/DX2                !
 ! D37   D(7,8,9,21)           -61.3886         estimate D2E/DX2                !
 ! D38   D(7,8,9,22)          -177.8147         estimate D2E/DX2                !
 ! D39   D(19,8,9,21)           60.1313         estimate D2E/DX2                !
 ! D40   D(19,8,9,22)          -56.2949         estimate D2E/DX2                !
 ! D41   D(20,8,9,21)          177.585          estimate D2E/DX2                !
 ! D42   D(20,8,9,22)           61.1588         estimate D2E/DX2                !
 --------------------------------------------------------------------------------
 Trust Radius=3.00D-01 FncErr=1.00D-07 GrdErr=1.00D-06 EigMax=2.50D+02 EigMin=1.00D-04
 Number of steps in this run=    107 maximum allowed number of steps=    132.
 GradGradGradGradGradGradGradGradGradGradGradGradGradGradGradGradGradGrad

                          Input orientation:                          
 ---------------------------------------------------------------------
 Center     Atomic      Atomic             Coordinates (Angstroms)
 Number     Number       Type             X           Y           Z
 ---------------------------------------------------------------------
      1          7           0        1.113420    0.095180   -0.036760
      2          6           0        2.465510    0.142750    0.017940
      3          7           0        3.105470    0.903340    0.839910
      4          6           0        4.473330    0.859730    0.794430
      5          6           0        5.210050    1.621100    1.619030
      6          6           0        6.713950    1.644020    1.645800
      7          6           0        7.258220    2.618790    2.700380
      8          6           0        8.787300    2.631030    2.715460
      9          7           0        9.278190    3.555160    3.732580
     10          1           0        0.607470   -0.501750   -0.675280
     11          1           0        0.588240    0.679610    0.601570
     12          1           0        2.946690   -0.533370   -0.711940
     13          1           0        4.968340    0.201160    0.082600
     14          1           0        4.682540    2.265630    2.318870
     15          1           0        7.090660    1.939610    0.659160
     16          1           0        7.089770    0.636870    1.862630
     17          1           0        6.884150    2.334700    3.692920
     18          1           0        6.884110    3.630530    2.494960
     19          1           0        9.175380    2.931700    1.736120
     20          1           0        9.170530    1.628430    2.933180
     21          1           0        8.962120    4.500920    3.520510
     22          1           0       10.296690    3.581530    3.708250
 ---------------------------------------------------------------------
                    Distance matrix (angstroms):
                    1          2          3          4          5
     1  N    0.000000
     2  C    1.354032   0.000000
     3  N    2.321624   1.289837   0.000000
     4  C    3.544631   2.268995   1.369310   0.000000
     5  C    4.674660   3.504498   2.356155   1.342537   0.000000
     6  C    6.049450   4.790927   3.770835   2.521967   1.504313
     7  C    7.184644   6.024643   4.863070   3.805595   2.521845
     8  C    8.537780   7.309800   6.227824   5.043629   3.875414
     9  N    9.635500   8.476774   7.314517   6.243777   4.975685
    10  H    1.009960   2.085245   3.241926   4.354142   5.563640
    11  H    1.012343   2.037887   2.538367   3.894042   4.825221
    12  H    2.052272   1.105168   2.120751   2.557442   3.898456
    13  H    3.858223   2.504346   2.129991   1.088784   2.106008
    14  H    4.795671   3.836160   2.555446   2.084284   1.087870
    15  H    6.293936   5.003187   4.121682   2.834582   2.135297
    16  H    6.294273   5.003081   4.122088   2.834868   2.135743
    17  H    7.226845   6.150976   4.946401   4.048312   2.759140
    18  H    7.225591   6.150143   4.945187   4.047344   2.758177
    19  H    8.728353   7.466776   6.462294   5.223898   4.177945
    20  H    8.722868   7.460775   6.456972   5.218126   4.172822
    21  H    9.678161   8.571323   7.377571   6.390541   5.097746
    22  H   10.512478   9.315094   8.192296   7.057625   5.837982
                    6          7          8          9         10
     6  C    0.000000
     7  C    1.535756   0.000000
     8  C    2.533208   1.529203   0.000000
     9  N    3.818695   2.454079   1.459288   0.000000
    10  H    6.876106   8.084883   9.392606  10.538934   0.000000
    11  H    6.288468   7.256311   8.689140   9.674050   1.739634
    12  H    4.948961   6.337928   7.474839   8.749727   2.339721
    13  H    2.751835   4.235712   5.236475   6.568598   4.481702
    14  H    2.228463   2.627622   4.140031   4.978098   5.764505
    15  H    1.096696   2.157763   2.754091   4.103803   7.054978
    16  H    1.096634   2.158288   2.754197   4.099062   7.053911
    17  H    2.167189   1.098076   2.159912   2.687475   8.156184
    18  H    2.167083   1.098077   2.160961   2.696109   8.156125
    19  H    2.779373   2.168689   1.095498   2.094069   9.540048
    20  H    2.773513   2.166088   1.095205   2.088760   9.533344
    21  H    4.090316   2.668015   2.043320   1.019478  10.603374
    22  H    4.565487   3.342898   2.041406   1.019132  11.391641
                   11         12         13         14         15
    11  H    0.000000
    12  H    2.959546   0.000000
    13  H    4.436611   2.293010   0.000000
    14  H    4.714644   4.475867   3.056897   0.000000
    15  H    6.623623   5.016775   2.803368   2.942782   0.000000
    16  H    6.622839   5.016272   2.803358   2.942069   1.773548
    17  H    7.206542   6.567512   4.610502   2.596126   3.066340
    18  H    7.206305   6.567004   4.609798   2.596319   2.504403
    19  H    8.949753   7.536331   5.281019   4.579177   2.547576
    20  H    8.943845   7.529705   5.274591   4.574435   3.097396
    21  H    9.656319   8.913086   6.801282   4.975466   4.272001
    22  H   10.598424   9.512780   7.277606   5.931328   4.719267
                   16         17         18         19         20
    16  H    0.000000
    17  H    2.504969   0.000000
    18  H    3.066617   1.764733   0.000000
    19  H    3.103549   3.071679   2.512791   0.000000
    20  H    2.541423   2.510688   3.070531   1.769601   0.000000
    21  H    4.602732   3.006691   2.475370   2.385787   2.939318
    22  H    4.728813   3.633215   3.622178   2.359854   2.384024
                   21         22
    21  H    0.000000
    22  H    1.631441   0.000000
 Stoichiometry    C6H13N3
 Framework group  C1[X(C6H13N3)]
 Deg. of freedom    60
 Full point group                 C1      NOp   1
 Largest Abelian subgroup         C1      NOp   1
 Largest concise Abelian subgroup C1      NOp   1
                         Standard orientation:                         
 ---------------------------------------------------------------------
 Center     Atomic      Atomic             Coordinates (Angstroms)
 Number     Number       Type             X           Y           Z
 ---------------------------------------------------------------------
      1          7           0       -4.878256   -0.367297   -0.001833
      2          6           0       -3.684465    0.271331    0.018583
      3          7           0       -2.556699   -0.353827   -0.013084
      4          6           0       -1.419633    0.408640    0.014031
      5          6           0       -0.207853   -0.168443   -0.017120
      6          6           0        1.096459    0.580606    0.008485
      7          6           0        2.306295   -0.364207   -0.038107
      8          6           0        3.623932    0.411408   -0.011308
      9          7           0        4.755992   -0.507682   -0.068206
     10          1           0       -5.764027    0.117495    0.018295
     11          1           0       -4.878769   -1.378489   -0.050090
     12          1           0       -3.788712    1.370552    0.065950
     13          1           0       -1.499005    1.493498    0.061299
     14          1           0       -0.165786   -1.254380   -0.066444
     15          1           0        1.150946    1.184613    0.922240
     16          1           0        1.142105    1.261939   -0.849599
     17          1           0        2.260377   -0.977409   -0.947857
     18          1           0        2.268051   -1.054282    0.815184
     19          1           0        3.692704    1.013834    0.901089
     20          1           0        3.677867    1.093264   -0.866667
     21          1           0        4.741440   -1.123345    0.744249
     22          1           0        5.627139    0.018344   -0.013171
 ---------------------------------------------------------------------
 Rotational constants (GHZ):          12.7017608           0.3774393           0.3694346
 Standard basis: 6-31G(2df,p) (6D, 7F)
 There are   344 symmetry adapted cartesian basis functions of A   symmetry.
 There are   317 symmetry adapted basis functions of A   symmetry.
   317 basis functions,   487 primitive gaussians,   344 cartesian basis functions
    35 alpha electrons       35 beta electrons
       nuclear repulsion energy       409.8570599931 Hartrees.
 NAtoms=   22 NActive=   22 NUniq=   22 SFac= 1.00D+00 NAtFMM=   60 NAOKFM=F Big=F
 Integral buffers will be    131072 words long.
 Raffenetti 2 integral format.
 Two-electron integral symmetry is turned on.
 One-electron integrals computed using PRISM.
 PrsmSu:  requested number of processors reduced to:  13 ShMem   1 Linda.
 NBasis=   317 RedAO= T EigKep=  2.89D-04  NBF=   317
 NBsUse=   317 1.00D-06 EigRej= -1.00D+00 NBFU=   317
 ExpMin= 1.61D-01 ExpMax= 4.17D+03 ExpMxC= 6.27D+02 IAcc=3 IRadAn=         5 AccDes= 0.00D+00
 Harris functional with IExCor=  402 and IRadAn=       5 diagonalized for initial guess.
 HarFok:  IExCor=  402 AccDes= 0.00D+00 IRadAn=         5 IDoV= 1 UseB2=F ITyADJ=14
 ICtDFT=  3500011 ScaDFX=  1.000000  1.000000  1.000000  1.000000
 FoFCou: FMM=F IPFlag=           0 FMFlag=      100000 FMFlg1=           0
         NFxFlg=           0 DoJE=T BraDBF=F KetDBF=T FulRan=T
         wScrn=  0.000000 ICntrl=       500 IOpCl=  0 I1Cent=   200000004 NGrid=           0
         NMat0=    1 NMatS0=      1 NMatT0=    0 NMatD0=    1 NMtDS0=    0 NMtDT0=    0
 Petite list used in FoFCou.
 Requested convergence on RMS density matrix=1.00D-08 within 128 cycles.
 Requested convergence on MAX density matrix=1.00D-06.
 Requested convergence on             energy=1.00D-06.
 No special actions if energy rises.
 Integral accuracy reduced to 1.0D-05 until final iterations.
 Initial convergence to 1.0D-05 achieved.  Increase integral accuracy.
 SCF Done:  E(RB3LYP) =  -400.716651773     A.U. after   14 cycles
            NFock= 14  Conv=0.57D-08     -V/T= 2.0080

 **********************************************************************

            Population analysis using the SCF density.

 **********************************************************************

 Orbital symmetries:
       Occupied  (A) (A) (A) (A) (A) (A) (A) (A) (A) (A) (A) (A)
                 (A) (A) (A) (A) (A) (A) (A) (A) (A) (A) (A) (A)
                 (A) (A) (A) (A) (A) (A) (A) (A) (A) (A) (A)
       Virtual   (A) (A) (A) (A) (A) (A) (A) (A) (A) (A) (A) (A)
                 (A) (A) (A) (A) (A) (A) (A) (A) (A) (A) (A) (A)
                 (A) (A) (A) (A) (A) (A) (A) (A) (A) (A) (A) (A)
                 (A) (A) (A) (A) (A) (A) (A) (A) (A) (A) (A) (A)
                 (A) (A) (A) (A) (A) (A) (A) (A) (A) (A) (A) (A)
                 (A) (A) (A) (A) (A) (A) (A) (A) (A) (A) (A) (A)
                 (A) (A) (A) (A) (A) (A) (A) (A) (A) (A) (A) (A)
                 (A) (A) (A) (A) (A) (A) (A) (A) (A) (A) (A) (A)
                 (A) (A) (A) (A) (A) (A) (A) (A) (A) (A) (A) (A)
                 (A) (A) (A) (A) (A) (A) (A) (A) (A) (A) (A) (A)
                 (A) (A) (A) (A) (A) (A) (A) (A) (A) (A) (A) (A)
                 (A) (A) (A) (A) (A) (A) (A) (A) (A) (A) (A) (A)
                 (A) (A) (A) (A) (A) (A) (A) (A) (A) (A) (A) (A)
                 (A) (A) (A) (A) (A) (A) (A) (A) (A) (A) (A) (A)
                 (A) (A) (A) (A) (A) (A) (A) (A) (A) (A) (A) (A)
                 (A) (A) (A) (A) (A) (A) (A) (A) (A) (A) (A) (A)
                 (A) (A) (A) (A) (A) (A) (A) (A) (A) (A) (A) (A)
                 (A) (A) (A) (A) (A) (A) (A) (A) (A) (A) (A) (A)
                 (A) (A) (A) (A) (A) (A) (A) (A) (A) (A) (A) (A)
                 (A) (A) (A) (A) (A) (A) (A) (A) (A) (A) (A) (A)
                 (A) (A) (A) (A) (A) (A) (A) (A) (A) (A) (A) (A)
                 (A) (A) (A) (A) (A) (A) (A) (A) (A) (A) (A) (A)
                 (A) (A) (A) (A) (A) (A) (A) (A) (A) (A) (A) (A)
                 (A) (A) (A) (A) (A) (A)
 The electronic state is 1-A.
 Alpha  occ. eigenvalues --  -14.35173 -14.29492 -14.29416 -10.24917 -10.19119
 Alpha  occ. eigenvalues --  -10.18151 -10.16855 -10.16671 -10.15116  -0.94757
 Alpha  occ. eigenvalues --   -0.87539  -0.86746  -0.77762  -0.71854  -0.65128
 Alpha  occ. eigenvalues --   -0.60415  -0.57584  -0.55914  -0.51772  -0.48249
 Alpha  occ. eigenvalues --   -0.47372  -0.45402  -0.44317  -0.42236  -0.40193
 Alpha  occ. eigenvalues --   -0.38692  -0.37953  -0.35326  -0.32850  -0.32508
 Alpha  occ. eigenvalues --   -0.32021  -0.28933  -0.24786  -0.22114  -0.18390
 Alpha virt. eigenvalues --    0.00915   0.07571   0.08544   0.08972   0.10580
 Alpha virt. eigenvalues --    0.11769   0.13368   0.14700   0.16114   0.16695
 Alpha virt. eigenvalues --    0.17609   0.19066   0.19756   0.20960   0.22508
 Alpha virt. eigenvalues --    0.22894   0.24629   0.26029   0.28904   0.30996
 Alpha virt. eigenvalues --    0.33135   0.39436   0.41903   0.43752   0.47616
 Alpha virt. eigenvalues --    0.48673   0.48905   0.51285   0.52787   0.54066
 Alpha virt. eigenvalues --    0.55578   0.56034   0.57153   0.57319   0.59703
 Alpha virt. eigenvalues --    0.60321   0.61528   0.62292   0.63046   0.64563
 Alpha virt. eigenvalues --    0.66148   0.67661   0.69704   0.71910   0.72433
 Alpha virt. eigenvalues --    0.72845   0.73959   0.75712   0.75919   0.77025
 Alpha virt. eigenvalues --    0.77613   0.77853   0.78822   0.79307   0.80438
 Alpha virt. eigenvalues --    0.80642   0.82051   0.83923   0.84635   0.85690
 Alpha virt. eigenvalues --    0.86417   0.87029   0.88218   0.88443   0.90013
 Alpha virt. eigenvalues --    0.92659   0.95467   0.97041   0.98409   1.02949
 Alpha virt. eigenvalues --    1.05757   1.06255   1.10056   1.11971   1.16127
 Alpha virt. eigenvalues --    1.18210   1.21793   1.22133   1.22781   1.26053
 Alpha virt. eigenvalues --    1.28935   1.32120   1.33017   1.34074   1.38278
 Alpha virt. eigenvalues --    1.39238   1.40423   1.44161   1.48124   1.49246
 Alpha virt. eigenvalues --    1.52679   1.53582   1.55384   1.57246   1.58389
 Alpha virt. eigenvalues --    1.59019   1.59890   1.62538   1.63577   1.67882
 Alpha virt. eigenvalues --    1.72572   1.74385   1.76299   1.78049   1.82567
 Alpha virt. eigenvalues --    1.85726   1.88156   1.88688   1.89487   1.92325
 Alpha virt. eigenvalues --    1.94415   1.95712   2.01285   2.02334   2.06387
 Alpha virt. eigenvalues --    2.15431   2.18045   2.19106   2.21065   2.21734
 Alpha virt. eigenvalues --    2.23277   2.23729   2.28724   2.31512   2.34466
 Alpha virt. eigenvalues --    2.35256   2.39256   2.40896   2.44099   2.48649
 Alpha virt. eigenvalues --    2.52535   2.55708   2.58873   2.60541   2.63512
 Alpha virt. eigenvalues --    2.65563   2.70173   2.72182   2.75272   2.77751
 Alpha virt. eigenvalues --    2.80377   2.81208   2.83343   2.83569   2.84835
 Alpha virt. eigenvalues --    2.85639   2.86630   2.88836   2.90115   2.92234
 Alpha virt. eigenvalues --    2.93141   2.95181   2.96351   2.97859   3.01234
 Alpha virt. eigenvalues --    3.04060   3.05086   3.07174   3.08275   3.08608
 Alpha virt. eigenvalues --    3.10982   3.12054   3.12859   3.14525   3.19080
 Alpha virt. eigenvalues --    3.20470   3.23737   3.26549   3.29673   3.30723
 Alpha virt. eigenvalues --    3.34831   3.36057   3.38802   3.40771   3.42457
 Alpha virt. eigenvalues --    3.47225   3.47592   3.48852   3.50220   3.52366
 Alpha virt. eigenvalues --    3.54111   3.56702   3.61939   3.63983   3.66476
 Alpha virt. eigenvalues --    3.70350   3.72620   3.74142   3.78611   3.80057
 Alpha virt. eigenvalues --    3.83941   3.85800   3.88563   3.90253   3.91556
 Alpha virt. eigenvalues --    3.92892   3.96310   3.98180   4.06059   4.07986
 Alpha virt. eigenvalues --    4.09267   4.12397   4.14278   4.17097   4.17605
 Alpha virt. eigenvalues --    4.22258   4.25302   4.25529   4.25981   4.28322
 Alpha virt. eigenvalues --    4.32575   4.33584   4.35236   4.40564   4.40675
 Alpha virt. eigenvalues --    4.41522   4.43032   4.43249   4.43853   4.45110
 Alpha virt. eigenvalues --    4.46480   4.48774   4.50519   4.52639   4.54000
 Alpha virt. eigenvalues --    4.57599   4.58366   4.59821   4.62091   4.62431
 Alpha virt. eigenvalues --    4.64665   4.65284   4.67307   4.67934   4.69595
 Alpha virt. eigenvalues --    4.70360   4.71931   4.72664   4.74712   4.76419
 Alpha virt. eigenvalues --    4.78390   4.79589   4.83325   4.86248   4.87370
 Alpha virt. eigenvalues --    4.91124   4.95007   4.95323   4.96394   4.98328
 Alpha virt. eigenvalues --    4.98940   5.05933   5.07873   5.09054   5.10160
 Alpha virt. eigenvalues --    5.13399   5.24742   5.28487   5.30251   5.40634
 Alpha virt. eigenvalues --    5.41736   5.47661   5.51260   5.53699   5.60397
 Alpha virt. eigenvalues --    5.67198   5.80989   5.91002   6.09898   6.30617
 Alpha virt. eigenvalues --    9.54665  10.01088  10.24044  10.73243  11.32471
 Alpha virt. eigenvalues --   11.38645  11.44632  11.57124  11.77111  12.20676
 Alpha virt. eigenvalues --   12.60807  13.91473
          Condensed to atoms (all electrons):
               1          2          3          4          5          6
     1  N    6.557039   0.377936  -0.031278   0.002196  -0.000074   0.000000
     2  C    0.377936   4.614276   0.676518  -0.107105   0.001772  -0.000264
     3  N   -0.031278   0.676518   6.271489   0.478178  -0.011966   0.002544
     4  C    0.002196  -0.107105   0.478178   4.619966   0.661145  -0.016076
     5  C   -0.000074   0.001772  -0.011966   0.661145   4.880850   0.392622
     6  C    0.000000  -0.000264   0.002544  -0.016076   0.392622   4.919212
     7  C   -0.000000   0.000001  -0.000052   0.000568  -0.028311   0.397436
     8  C    0.000000  -0.000000   0.000000  -0.000127   0.001077  -0.034544
     9  N   -0.000000   0.000000  -0.000000   0.000000  -0.000039   0.002168
    10  H    0.354306  -0.027471   0.002020  -0.000232   0.000001  -0.000000
    11  H    0.324314  -0.014212   0.004010   0.000188  -0.000019   0.000000
    12  H   -0.075198   0.362922  -0.062556  -0.004265  -0.000224   0.000047
    13  H   -0.000823  -0.008290  -0.075495   0.354643  -0.059398  -0.008208
    14  H   -0.000024   0.000320  -0.008528  -0.007507   0.341461  -0.069166
    15  H   -0.000000   0.000016  -0.000059  -0.006445  -0.024776   0.352450
    16  H   -0.000000   0.000017  -0.000066  -0.006133  -0.025354   0.354791
    17  H    0.000000   0.000000  -0.000003   0.000344   0.000386  -0.031560
    18  H    0.000000   0.000000  -0.000006   0.000477   0.000208  -0.035047
    19  H    0.000000   0.000000   0.000000   0.000011   0.000172   0.003093
    20  H    0.000000   0.000000  -0.000000   0.000010   0.000100  -0.005445
    21  H    0.000000  -0.000000  -0.000000   0.000000   0.000003  -0.000296
    22  H    0.000000  -0.000000  -0.000000  -0.000000   0.000001  -0.000299
               7          8          9         10         11         12
     1  N   -0.000000   0.000000  -0.000000   0.354306   0.324314  -0.075198
     2  C    0.000001  -0.000000   0.000000  -0.027471  -0.014212   0.362922
     3  N   -0.000052   0.000000  -0.000000   0.002020   0.004010  -0.062556
     4  C    0.000568  -0.000127   0.000000  -0.000232   0.000188  -0.004265
     5  C   -0.028311   0.001077  -0.000039   0.000001  -0.000019  -0.000224
     6  C    0.397436  -0.034544   0.002168  -0.000000   0.000000   0.000047
     7  C    4.805378   0.418056  -0.037244   0.000000   0.000000   0.000000
     8  C    0.418056   4.820356   0.386594  -0.000000  -0.000000  -0.000000
     9  N   -0.037244   0.386594   6.552531   0.000000   0.000000   0.000000
    10  H    0.000000  -0.000000   0.000000   0.432299  -0.025887  -0.000413
    11  H    0.000000  -0.000000   0.000000  -0.025887   0.439878   0.007715
    12  H    0.000000  -0.000000   0.000000  -0.000413   0.007715   0.665726
    13  H    0.000171  -0.000001   0.000000   0.000026   0.000088   0.018938
    14  H   -0.004703   0.000061   0.000004   0.000000   0.000013   0.000073
    15  H   -0.031237  -0.004046   0.000006   0.000000  -0.000000  -0.000000
    16  H   -0.031277  -0.004469   0.000071   0.000000  -0.000000  -0.000000
    17  H    0.362799  -0.031720   0.003845   0.000000  -0.000000  -0.000000
    18  H    0.367866  -0.039811  -0.001944   0.000000  -0.000000  -0.000000
    19  H   -0.045163   0.373976  -0.048282   0.000000  -0.000000  -0.000000
    20  H   -0.018257   0.354157  -0.021824   0.000000  -0.000000  -0.000000
    21  H   -0.003167  -0.053732   0.340712  -0.000000   0.000000   0.000000
    22  H    0.005212  -0.043976   0.336323  -0.000000   0.000000  -0.000000
              13         14         15         16         17         18
     1  N   -0.000823  -0.000024  -0.000000  -0.000000   0.000000   0.000000
     2  C   -0.008290   0.000320   0.000016   0.000017   0.000000   0.000000
     3  N   -0.075495  -0.008528  -0.000059  -0.000066  -0.000003  -0.000006
     4  C    0.354643  -0.007507  -0.006445  -0.006133   0.000344   0.000477
     5  C   -0.059398   0.341461  -0.024776  -0.025354   0.000386   0.000208
     6  C   -0.008208  -0.069166   0.352450   0.354791  -0.031560  -0.035047
     7  C    0.000171  -0.004703  -0.031237  -0.031277   0.362799   0.367866
     8  C   -0.000001   0.000061  -0.004046  -0.004469  -0.031720  -0.039811
     9  N    0.000000   0.000004   0.000006   0.000071   0.003845  -0.001944
    10  H    0.000026   0.000000   0.000000   0.000000   0.000000   0.000000
    11  H    0.000088   0.000013  -0.000000  -0.000000  -0.000000  -0.000000
    12  H    0.018938   0.000073  -0.000000  -0.000000  -0.000000  -0.000000
    13  H    0.708201   0.009064   0.002273   0.002268   0.000014   0.000016
    14  H    0.009064   0.643662   0.004519   0.004448   0.002983   0.002899
    15  H    0.002273   0.004519   0.642910  -0.041414   0.006229  -0.005963
    16  H    0.002268   0.004448  -0.041414   0.639510  -0.005753   0.006322
    17  H    0.000014   0.002983   0.006229  -0.005753   0.626507  -0.042795
    18  H    0.000016   0.002899  -0.005963   0.006322  -0.042795   0.653210
    19  H   -0.000000   0.000013   0.005696  -0.000620   0.006854  -0.006974
    20  H    0.000000   0.000011  -0.000685   0.005059  -0.006334   0.006139
    21  H    0.000000   0.000001   0.000001   0.000017  -0.000480   0.005838
    22  H    0.000000   0.000000   0.000001   0.000005  -0.000133  -0.000010
              19         20         21         22
     1  N    0.000000   0.000000   0.000000   0.000000
     2  C    0.000000   0.000000  -0.000000  -0.000000
     3  N    0.000000  -0.000000  -0.000000  -0.000000
     4  C    0.000011   0.000010   0.000000  -0.000000
     5  C    0.000172   0.000100   0.000003   0.000001
     6  C    0.003093  -0.005445  -0.000296  -0.000299
     7  C   -0.045163  -0.018257  -0.003167   0.005212
     8  C    0.373976   0.354157  -0.053732  -0.043976
     9  N   -0.048282  -0.021824   0.340712   0.336323
    10  H    0.000000   0.000000  -0.000000  -0.000000
    11  H   -0.000000  -0.000000   0.000000   0.000000
    12  H   -0.000000  -0.000000   0.000000  -0.000000
    13  H   -0.000000   0.000000   0.000000   0.000000
    14  H    0.000013   0.000011   0.000001   0.000000
    15  H    0.005696  -0.000685   0.000001   0.000001
    16  H   -0.000620   0.005059   0.000017   0.000005
    17  H    0.006854  -0.006334  -0.000480  -0.000133
    18  H   -0.006974   0.006139   0.005838  -0.000010
    19  H    0.699859  -0.052205  -0.005718  -0.004670
    20  H   -0.052205   0.635594   0.006838  -0.002245
    21  H   -0.005718   0.006838   0.523249  -0.031876
    22  H   -0.004670  -0.002245  -0.031876   0.522877
 Mulliken charges:
               1
     1  N   -0.508392
     2  C    0.123565
     3  N   -0.244749
     4  C    0.030164
     5  C   -0.129637
     6  C   -0.223456
     7  C   -0.158077
     8  C   -0.141851
     9  N   -0.512921
    10  H    0.265351
    11  H    0.263913
    12  H    0.087235
    13  H    0.056515
    14  H    0.080397
    15  H    0.100525
    16  H    0.102579
    17  H    0.108817
    18  H    0.089577
    19  H    0.073959
    20  H    0.099088
    21  H    0.218608
    22  H    0.218790
 Sum of Mulliken charges =  -0.00000
 Mulliken charges with hydrogens summed into heavy atoms:
               1
     1  N    0.020871
     2  C    0.210800
     3  N   -0.244749
     4  C    0.086679
     5  C   -0.049240
     6  C   -0.020351
     7  C    0.040317
     8  C    0.031196
     9  N   -0.075523
 Electronic spatial extent (au):  <R**2>=           2892.8302
 Charge=              0.0000 electrons
 Dipole moment (field-independent basis, Debye):
    X=             -2.9003    Y=              1.4887    Z=              1.0693  Tot=              3.4310
 Quadrupole moment (field-independent basis, Debye-Ang):
   XX=            -29.0121   YY=            -53.8215   ZZ=            -57.8631
   XY=              1.5016   XZ=              5.2580   YZ=             -1.5946
 Traceless Quadrupole moment (field-independent basis, Debye-Ang):
   XX=             17.8868   YY=             -6.9226   ZZ=            -10.9642
   XY=              1.5016   XZ=              5.2580   YZ=             -1.5946
 Octapole moment (field-independent basis, Debye-Ang**2):
  XXX=           -144.4796  YYY=             -4.9444  ZZZ=              0.8688  XYY=            -13.9858
  XXY=             15.1540  XXZ=             26.6830  XZZ=              4.9163  YZZ=             -0.2427
  YYZ=              1.4553  XYZ=             -9.2349
 Hexadecapole moment (field-independent basis, Debye-Ang**3):
 XXXX=          -2294.6633 YYYY=           -166.5371 ZZZZ=            -79.7437 XXXY=            103.6376
 XXXZ=            131.5004 YYYX=             12.4029 YYYZ=             -2.8836 ZZZX=              5.0705
 ZZZY=             -1.7660 XXYY=           -562.2142 XXZZ=           -625.6816 YYZZ=            -40.8089
 XXYZ=            -36.3902 YYXZ=              8.8047 ZZXY=             -0.5900
 N-N= 4.098570599931D+02 E-N=-1.751116348001D+03  KE= 3.975533909810D+02
 PrsmSu:  requested number of processors reduced to:  13 ShMem   1 Linda.
 Calling FoFJK, ICntrl=      2127 FMM=F ISym2X=0 I1Cent= 0 IOpClX= 0 NMat=1 NMatS=1 NMatT=0.
 ***** Axes restored to original set *****
 -------------------------------------------------------------------
 Center     Atomic                   Forces (Hartrees/Bohr)
 Number     Number              X              Y              Z
 -------------------------------------------------------------------
      1        7          -0.011087921    0.002600727    0.002777371
      2        6           0.006530599    0.001208566    0.001272287
      3        7          -0.021816458   -0.012341372   -0.013270289
      4        6           0.012966168    0.012339125    0.013303515
      5        6          -0.001265364   -0.003751809   -0.003931071
      6        6          -0.004969054    0.005024641    0.003575990
      7        6           0.004455164   -0.007056529   -0.003646859
      8        6          -0.001839730    0.009716569    0.001662508
      9        7           0.004606081    0.002554689    0.010900396
     10        1           0.005634950    0.003708777    0.004066864
     11        1           0.001765757   -0.003269672   -0.003577119
     12        1           0.000851420    0.003103011    0.003349395
     13        1           0.001108051   -0.003867303   -0.004220418
     14        1          -0.000604888   -0.000506954   -0.000604193
     15        1           0.003175488   -0.002218131   -0.000902457
     16        1           0.003252644   -0.000515875   -0.001830597
     17        1           0.001365957    0.001274544   -0.000614501
     18        1          -0.000195456    0.000128431    0.000064697
     19        1          -0.002511097   -0.005737096   -0.009235222
     20        1           0.000189800   -0.000668347    0.000540366
     21        1           0.001454136   -0.002896474   -0.000283886
     22        1          -0.003066246    0.001170483    0.000603224
 -------------------------------------------------------------------
 Cartesian Forces:  Max     0.021816458 RMS     0.005819180

 GradGradGradGradGradGradGradGradGradGradGradGradGradGradGradGradGradGrad
 Berny optimization.
 FormGI is forming the generalized inverse of G from B-inverse, IUseBI=4.
 Internal  Forces:  Max     0.017764532 RMS     0.003544950
 Search for a local minimum.
 Step number   1 out of a maximum of  107
 All quantities printed in internal units (Hartrees-Bohrs-Radians)
 Mixed Optimization -- RFO/linear search
 Second derivative matrix not updated -- first step.
 ITU=  0
     Eigenvalues ---    0.00293   0.00380   0.00709   0.00908   0.01565
     Eigenvalues ---    0.02098   0.02300   0.02300   0.02598   0.02627
     Eigenvalues ---    0.02849   0.03149   0.03626   0.04187   0.04434
     Eigenvalues ---    0.04506   0.04846   0.05458   0.05476   0.08121
     Eigenvalues ---    0.09166   0.09253   0.12048   0.12630   0.12765
     Eigenvalues ---    0.16000   0.16000   0.16000   0.16000   0.16000
     Eigenvalues ---    0.16000   0.16000   0.21894   0.21933   0.21983
     Eigenvalues ---    0.22000   0.22000   0.22000   0.25000   0.28898
     Eigenvalues ---    0.29497   0.31929   0.33117   0.33896   0.33896
     Eigenvalues ---    0.34050   0.34057   0.34185   0.34218   0.34954
     Eigenvalues ---    0.35060   0.37054   0.44421   0.44477   0.45583
     Eigenvalues ---    0.45979   0.51109   0.54172   0.56640   0.70096
 RFO step:  Lambda=-5.18380676D-03 EMin= 2.92969058D-03
 Linear search not attempted -- first point.
 Iteration  1 RMS(Cart)=  0.03322711 RMS(Int)=  0.00058422
 Iteration  2 RMS(Cart)=  0.00070685 RMS(Int)=  0.00028959
 Iteration  3 RMS(Cart)=  0.00000097 RMS(Int)=  0.00028959
 Variable       Old X    -DE/DX   Delta X   Delta X   Delta X     New X
                                 (Linear)    (Quad)   (Total)
    R1        2.55875   0.00344   0.00000   0.00630   0.00630   2.56504
    R2        1.90855  -0.00759   0.00000  -0.01631  -0.01631   1.89223
    R3        1.91305  -0.00506   0.00000  -0.01097  -0.01097   1.90208
    R4        2.43744  -0.01120   0.00000  -0.01585  -0.01585   2.42159
    R5        2.08847  -0.00374   0.00000  -0.01112  -0.01112   2.07735
    R6        2.58762   0.01776   0.00000   0.03441   0.03441   2.62203
    R7        2.53703  -0.00203   0.00000  -0.00355  -0.00355   2.53348
    R8        2.05750   0.00560   0.00000   0.01579   0.01579   2.07330
    R9        2.84274   0.00594   0.00000   0.01831   0.01831   2.86105
   R10        2.05578  -0.00040   0.00000  -0.00111  -0.00111   2.05466
   R11        2.90216   0.00061   0.00000   0.00208   0.00208   2.90424
   R12        2.07246   0.00130   0.00000   0.00377   0.00377   2.07623
   R13        2.07234   0.00123   0.00000   0.00355   0.00355   2.07589
   R14        2.88978  -0.00109   0.00000  -0.00364  -0.00364   2.88613
   R15        2.07506  -0.00135   0.00000  -0.00392  -0.00392   2.07114
   R16        2.07507   0.00017   0.00000   0.00050   0.00050   2.07557
   R17        2.75766   0.00935   0.00000   0.02489   0.02489   2.78255
   R18        2.07019   0.00579   0.00000   0.01669   0.01669   2.08688
   R19        2.06964   0.00079   0.00000   0.00226   0.00226   2.07190
   R20        1.92653  -0.00308   0.00000  -0.00685  -0.00685   1.91968
   R21        1.92588  -0.00305   0.00000  -0.00678  -0.00678   1.91910
    A1        2.14903  -0.00334   0.00000  -0.02022  -0.02022   2.12882
    A2        2.06267   0.00263   0.00000   0.01591   0.01591   2.07858
    A3        2.07142   0.00071   0.00000   0.00428   0.00428   2.07570
    A4        2.14350  -0.00204   0.00000  -0.00907  -0.00907   2.13443
    A5        1.96773   0.00390   0.00000   0.02195   0.02195   1.98968
    A6        2.17196  -0.00186   0.00000  -0.01288  -0.01288   2.15908
    A7        2.04394   0.00541   0.00000   0.02119   0.02119   2.06512
    A8        2.10564   0.00937   0.00000   0.04162   0.04162   2.14727
    A9        2.08879  -0.00635   0.00000  -0.03087  -0.03087   2.05792
   A10        2.08875  -0.00302   0.00000  -0.01075  -0.01075   2.07800
   A11        2.17508   0.00155   0.00000   0.00688   0.00688   2.18196
   A12        2.05447  -0.00171   0.00000  -0.00911  -0.00911   2.04536
   A13        2.05363   0.00016   0.00000   0.00223   0.00223   2.05586
   A14        1.95648   0.00160   0.00000   0.01455   0.01442   1.97090
   A15        1.90869   0.00070   0.00000   0.01446   0.01442   1.92310
   A16        1.90936   0.00090   0.00000   0.01405   0.01409   1.92345
   A17        1.90177  -0.00056   0.00000  -0.00324  -0.00350   1.89827
   A18        1.90255  -0.00108   0.00000  -0.00884  -0.00905   1.89350
   A19        1.88357  -0.00171   0.00000  -0.03304  -0.03318   1.85039
   A20        1.94574   0.00603   0.00000   0.03013   0.03009   1.97584
   A21        1.91319  -0.00065   0.00000   0.00564   0.00566   1.91886
   A22        1.91305  -0.00212   0.00000  -0.00927  -0.00922   1.90383
   A23        1.91112  -0.00267   0.00000  -0.01303  -0.01328   1.89784
   A24        1.91255  -0.00161   0.00000  -0.00780  -0.00782   1.90473
   A25        1.86649   0.00078   0.00000  -0.00729  -0.00739   1.85910
   A26        1.92656   0.00094   0.00000   0.01031   0.00973   1.93629
   A27        1.92581  -0.00498   0.00000  -0.02703  -0.02875   1.89706
   A28        1.92252  -0.00011   0.00000  -0.02365  -0.02418   1.89834
   A29        1.90723   0.00725   0.00000   0.08747   0.08766   1.99488
   A30        1.90018  -0.00237   0.00000  -0.02614  -0.02593   1.87425
   A31        1.88075  -0.00068   0.00000  -0.02081  -0.02134   1.85940
   A32        1.91580  -0.00137   0.00000  -0.01019  -0.01018   1.90563
   A33        1.91339   0.00201   0.00000   0.01031   0.01032   1.92370
   A34        1.85550  -0.00072   0.00000  -0.00833  -0.00830   1.84720
    D1       -3.13629   0.00007   0.00000   0.00238   0.00238  -3.13391
    D2        0.00652   0.00004   0.00000   0.00147   0.00147   0.00799
    D3       -0.00708   0.00001   0.00000   0.00039   0.00039  -0.00668
    D4        3.13574  -0.00002   0.00000  -0.00051  -0.00052   3.13522
    D5       -3.14055  -0.00002   0.00000  -0.00057  -0.00056  -3.14111
    D6       -0.00032   0.00002   0.00000   0.00047   0.00046   0.00014
    D7       -3.14061   0.00002   0.00000   0.00062   0.00062  -3.13999
    D8        0.00097   0.00001   0.00000   0.00026   0.00026   0.00122
    D9        3.14153  -0.00002   0.00000  -0.00056  -0.00056   3.14098
   D10        0.00226  -0.00004   0.00000  -0.00135  -0.00135   0.00092
   D11       -0.00004  -0.00001   0.00000  -0.00019  -0.00019  -0.00023
   D12       -3.13931  -0.00003   0.00000  -0.00099  -0.00098  -3.14029
   D13        3.14130   0.00016   0.00000   0.00135   0.00136  -3.14053
   D14        1.03018  -0.00067   0.00000  -0.01396  -0.01406   1.01612
   D15       -1.02933   0.00046   0.00000   0.00936   0.00944  -1.01989
   D16       -0.00262   0.00017   0.00000   0.00213   0.00214  -0.00048
   D17       -2.11373  -0.00065   0.00000  -0.01318  -0.01328  -2.12701
   D18        2.10994   0.00048   0.00000   0.01013   0.01022   2.12016
   D19       -3.14151  -0.00012   0.00000   0.00334   0.00340  -3.13811
   D20        1.02275  -0.00028   0.00000  -0.00389  -0.00399   1.01876
   D21       -1.02087   0.00039   0.00000   0.00706   0.00704  -1.01383
   D22       -1.02640   0.00142   0.00000   0.02874   0.02875  -0.99765
   D23        3.13785   0.00126   0.00000   0.02151   0.02137  -3.12397
   D24        1.09423   0.00193   0.00000   0.03246   0.03240   1.12663
   D25        1.02519  -0.00156   0.00000  -0.01776  -0.01760   1.00759
   D26       -1.09374  -0.00172   0.00000  -0.02499  -0.02498  -1.11872
   D27       -3.13736  -0.00105   0.00000  -0.01404  -0.01396   3.13187
   D28       -3.13298   0.00255   0.00000   0.03882   0.03860  -3.09438
   D29        1.04034  -0.00388   0.00000  -0.05969  -0.05911   0.98123
   D30       -1.03403   0.00013   0.00000  -0.00234  -0.00258  -1.03662
   D31       -1.01284   0.00388   0.00000   0.05685   0.05651  -0.95633
   D32       -3.12271  -0.00255   0.00000  -0.04166  -0.04120   3.11927
   D33        1.08611   0.00147   0.00000   0.01568   0.01532   1.10143
   D34        1.02928   0.00235   0.00000   0.03597   0.03575   1.06503
   D35       -1.08059  -0.00409   0.00000  -0.06254  -0.06196  -1.14255
   D36        3.12823  -0.00007   0.00000  -0.00520  -0.00543   3.12279
   D37       -1.07143  -0.00041   0.00000  -0.03494  -0.03561  -1.10704
   D38       -3.10345   0.00009   0.00000  -0.02496  -0.02561  -3.12907
   D39        1.04949  -0.00128   0.00000  -0.00507  -0.00420   1.04529
   D40       -0.98253  -0.00078   0.00000   0.00491   0.00579  -0.97674
   D41        3.09944   0.00065   0.00000   0.00457   0.00434   3.10379
   D42        1.06742   0.00116   0.00000   0.01455   0.01434   1.08176
         Item               Value     Threshold  Converged?
 Maximum Force            0.017765     0.000450     NO 
 RMS     Force            0.003545     0.000300     NO 
 Maximum Displacement     0.111519     0.001800     NO 
 RMS     Displacement     0.032912     0.001200     NO 
 Predicted change in Energy=-2.691464D-03
 GradGradGradGradGradGradGradGradGradGradGradGradGradGradGradGradGradGrad

                          Input orientation:                          
 ---------------------------------------------------------------------
 Center     Atomic      Atomic             Coordinates (Angstroms)
 Number     Number       Type             X           Y           Z
 ---------------------------------------------------------------------
      1          7           0        1.082670    0.073825   -0.046609
      2          6           0        2.438047    0.124773    0.006250
      3          7           0        3.063094    0.888723    0.823444
      4          6           0        4.450451    0.875621    0.806822
      5          6           0        5.198206    1.634333    1.620817
      6          6           0        6.711923    1.655253    1.641650
      7          6           0        7.282860    2.626826    2.686644
      8          6           0        8.809669    2.656640    2.709852
      9          7           0        9.302503    3.552671    3.769278
     10          1           0        0.599178   -0.529736   -0.682693
     11          1           0        0.546405    0.650573    0.580205
     12          1           0        2.938823   -0.542639   -0.709440
     13          1           0        4.949209    0.210109    0.091242
     14          1           0        4.672597    2.281582    2.318660
     15          1           0        7.100908    1.931999    0.652089
     16          1           0        7.102426    0.649978    1.850596
     17          1           0        6.920760    2.356855    3.685250
     18          1           0        6.906150    3.637764    2.480609
     19          1           0        9.174236    2.906072    1.697716
     20          1           0        9.178765    1.649075    2.934970
     21          1           0        9.005417    4.502969    3.567707
     22          1           0       10.317835    3.573405    3.767263
 ---------------------------------------------------------------------
                    Distance matrix (angstroms):
                    1          2          3          4          5
     1  N    0.000000
     2  C    1.357363   0.000000
     3  N    2.311520   1.281448   0.000000
     4  C    3.565553   2.292261   1.387519   0.000000
     5  C    4.706711   3.536111   2.398009   1.340661   0.000000
     6  C    6.086018   4.825238   3.817196   2.533578   1.514004
     7  C    7.240914   6.075935   4.929396   3.824001   2.542992
     8  C    8.600902   7.370033   6.301364   5.079009   3.908167
     9  N    9.707162   8.545854   7.396268   6.283720   5.014095
    10  H    1.001326   2.069894   3.217352   4.361879   5.580360
    11  H    1.006535   2.045531   2.539607   3.917088   4.867229
    12  H    2.065109   1.099285   2.100946   2.568177   3.908212
    13  H    3.871395   2.514049   2.134026   1.097142   2.104760
    14  H    4.832831   3.871986   2.601198   2.076471   1.087282
    15  H    6.337205   5.042365   4.173935   2.857411   2.155762
    16  H    6.337885   5.043201   4.174715   2.858906   2.155876
    17  H    7.295361   6.213852   5.022643   4.072079   2.784082
    18  H    7.280207   6.198993   5.007246   4.057272   2.769486
    19  H    8.748584   7.481506   6.494622   5.218292   4.175170
    20  H    8.770289   7.505876   6.514454   5.242537   4.191904
    21  H    9.769878   8.659268   7.476962   6.444211   5.149204
    22  H   10.586830   9.387724   8.276767   7.104115   5.880292
                    6          7          8          9         10
     6  C    0.000000
     7  C    1.536859   0.000000
     8  C    2.558197   1.527277   0.000000
     9  N    3.852025   2.471486   1.472460   0.000000
    10  H    6.895099   8.123294   9.437930  10.594052   0.000000
    11  H    6.336376   7.329562   8.765913   9.760205   1.729400
    12  H    4.959298   6.359996   7.509579   8.793571   2.339833
    13  H    2.756694   4.245298   5.267426   6.606953   4.479857
    14  H    2.238187   2.658586   4.172417   5.015574   5.788296
    15  H    1.098694   2.157615   2.771165   4.146138   7.079143
    16  H    1.098512   2.153940   2.771226   4.116710   7.078242
    17  H    2.170751   1.096000   2.146916   2.666408   8.208151
    18  H    2.161465   1.098343   2.153727   2.722207   8.194659
    19  H    2.762368   2.152501   1.104330   2.173915   9.539536
    20  H    2.785323   2.147584   1.096402   2.082080   9.562636
    21  H    4.132711   2.695068   2.045279   1.015853  10.679835
    22  H    4.604362   3.357801   2.057461   1.015547  11.449462
                   11         12         13         14         15
    11  H    0.000000
    12  H    2.968265   0.000000
    13  H    4.451716   2.291151   0.000000
    14  H    4.765278   4.489052   3.054326   0.000000
    15  H    6.678976   5.029964   2.812341   2.965866   0.000000
    16  H    6.677971   5.031074   2.815164   2.963998   1.754992
    17  H    7.292812   6.601227   4.627356   2.632009   3.068065
    18  H    7.278819   6.587250   4.613840   2.618057   2.508197
    19  H    8.987523   7.521196   5.263063   4.586973   2.518104
    20  H    9.003308   7.551305   5.295899   4.591890   3.099851
    21  H    9.763248   8.975283   6.853268   5.026730   4.328726
    22  H   10.685558   9.562035   7.324414   5.969588   4.769397
                   16         17         18         19         20
    16  H    0.000000
    17  H    2.512446   0.000000
    18  H    3.059789   1.758438   0.000000
    19  H    3.066876   3.054518   2.508487   0.000000
    20  H    2.546614   2.482430   3.053868   1.763762   0.000000
    21  H    4.627676   2.994230   2.517396   2.464842   2.928330
    22  H    4.749621   3.609271   3.646809   2.456863   2.386052
                   21         22
    21  H    0.000000
    22  H    1.620603   0.000000
 Stoichiometry    C6H13N3
 Framework group  C1[X(C6H13N3)]
 Deg. of freedom    60
 Full point group                 C1      NOp   1
 Largest Abelian subgroup         C1      NOp   1
 Largest concise Abelian subgroup C1      NOp   1
                         Standard orientation:                         
 ---------------------------------------------------------------------
 Center     Atomic      Atomic             Coordinates (Angstroms)
 Number     Number       Type             X           Y           Z
 ---------------------------------------------------------------------
      1          7           0       -4.911233   -0.361702   -0.006201
      2          6           0       -3.714148    0.277954    0.010039
      3          7           0       -2.599725   -0.354359   -0.008693
      4          6           0       -1.424279    0.382630    0.010844
      5          6           0       -0.207992   -0.180989   -0.007862
      6          6           0        1.101735    0.578257    0.011324
      7          6           0        2.329651   -0.345443   -0.019278
      8          6           0        3.654631    0.413783    0.004758
      9          7           0        4.794372   -0.513571   -0.090860
     10          1           0       -5.779251    0.137427    0.002047
     11          1           0       -4.928269   -1.367533   -0.039791
     12          1           0       -3.793224    1.373964    0.040659
     13          1           0       -1.504364    1.476381    0.042718
     14          1           0       -0.164054   -1.266886   -0.040695
     15          1           0        1.159046    1.212771    0.906442
     16          1           0        1.157460    1.260425   -0.847902
     17          1           0        2.301153   -0.975594   -0.915556
     18          1           0        2.288832   -1.025644    0.842126
     19          1           0        3.672835    1.065805    0.895870
     20          1           0        3.697342    1.076435   -0.867690
     21          1           0        4.801787   -1.118630    0.725110
     22          1           0        5.669223    0.001345   -0.062014
 ---------------------------------------------------------------------
 Rotational constants (GHZ):          12.8051169           0.3714173           0.3637161
 Standard basis: 6-31G(2df,p) (6D, 7F)
 There are   344 symmetry adapted cartesian basis functions of A   symmetry.
 There are   317 symmetry adapted basis functions of A   symmetry.
   317 basis functions,   487 primitive gaussians,   344 cartesian basis functions
    35 alpha electrons       35 beta electrons
       nuclear repulsion energy       407.9771321604 Hartrees.
 NAtoms=   22 NActive=   22 NUniq=   22 SFac= 1.00D+00 NAtFMM=   60 NAOKFM=F Big=F
 Integral buffers will be    131072 words long.
 Raffenetti 2 integral format.
 Two-electron integral symmetry is turned on.
 One-electron integrals computed using PRISM.
 PrsmSu:  requested number of processors reduced to:  13 ShMem   1 Linda.
 NBasis=   317 RedAO= T EigKep=  2.95D-04  NBF=   317
 NBsUse=   317 1.00D-06 EigRej= -1.00D+00 NBFU=   317
 Initial guess from the checkpoint file:  "NCdNCdCCCCN.chk"
 B after Tr=     0.000000    0.000000   -0.000000
         Rot=    0.999993    0.003729    0.000054   -0.000014 Ang=   0.43 deg.
 ExpMin= 1.61D-01 ExpMax= 4.17D+03 ExpMxC= 6.27D+02 IAcc=2 IRadAn=         4 AccDes= 0.00D+00
 Harris functional with IExCor=  402 and IRadAn=       4 diagonalized for initial guess.
 HarFok:  IExCor=  402 AccDes= 0.00D+00 IRadAn=         4 IDoV= 1 UseB2=F ITyADJ=14
 ICtDFT=  3500011 ScaDFX=  1.000000  1.000000  1.000000  1.000000
 FoFCou: FMM=F IPFlag=           0 FMFlag=      100000 FMFlg1=           0
         NFxFlg=           0 DoJE=T BraDBF=F KetDBF=T FulRan=T
         wScrn=  0.000000 ICntrl=       500 IOpCl=  0 I1Cent=   200000004 NGrid=           0
         NMat0=    1 NMatS0=      1 NMatT0=    0 NMatD0=    1 NMtDS0=    0 NMtDT0=    0
 Petite list used in FoFCou.
 Requested convergence on RMS density matrix=1.00D-08 within 128 cycles.
 Requested convergence on MAX density matrix=1.00D-06.
 Requested convergence on             energy=1.00D-06.
 No special actions if energy rises.
 Integral accuracy reduced to 1.0D-05 until final iterations.
 Initial convergence to 1.0D-05 achieved.  Increase integral accuracy.
 SCF Done:  E(RB3LYP) =  -400.719008310     A.U. after   11 cycles
            NFock= 11  Conv=0.32D-08     -V/T= 2.0082
 PrsmSu:  requested number of processors reduced to:  13 ShMem   1 Linda.
 Calling FoFJK, ICntrl=      2127 FMM=F ISym2X=0 I1Cent= 0 IOpClX= 0 NMat=1 NMatS=1 NMatT=0.
 ***** Axes restored to original set *****
 -------------------------------------------------------------------
 Center     Atomic                   Forces (Hartrees/Bohr)
 Number     Number              X              Y              Z
 -------------------------------------------------------------------
      1        7          -0.001635609    0.000818472    0.000688873
      2        6           0.003434182    0.001840690    0.002097126
      3        7          -0.002403542   -0.001089067   -0.001146655
      4        6           0.003436033    0.001845298    0.001933339
      5        6          -0.001091892   -0.001511005   -0.001671525
      6        6          -0.001588470    0.001693241    0.001674392
      7        6          -0.000781134   -0.000675353   -0.000342923
      8        6           0.000397021    0.000169851    0.002302901
      9        7          -0.002238039   -0.001524780   -0.002320397
     10        1           0.000351370   -0.000675394   -0.000639378
     11        1           0.000591916   -0.000220105   -0.000213137
     12        1          -0.000269159   -0.000029236   -0.000068568
     13        1          -0.000269908   -0.000885835   -0.000970233
     14        1           0.000320697    0.000435294    0.000474393
     15        1           0.000317617   -0.000690247   -0.000582580
     16        1           0.000267889   -0.000654360   -0.000734403
     17        1          -0.000249138    0.000272270    0.000212104
     18        1          -0.000639712    0.000608346    0.000196595
     19        1           0.000987207    0.000663720    0.000082894
     20        1           0.001000202   -0.000686083   -0.000306293
     21        1          -0.000013150    0.000854981   -0.000113636
     22        1           0.000075620   -0.000560699   -0.000552891
 -------------------------------------------------------------------
 Cartesian Forces:  Max     0.003436033 RMS     0.001203658

 GradGradGradGradGradGradGradGradGradGradGradGradGradGradGradGradGradGrad
 Berny optimization.
 Using GEDIIS/GDIIS optimizer.
 FormGI is forming the generalized inverse of G from B-inverse, IUseBI=4.
 Internal  Forces:  Max     0.003733292 RMS     0.000904828
 Search for a local minimum.
 Step number   2 out of a maximum of  107
 All quantities printed in internal units (Hartrees-Bohrs-Radians)
 Mixed Optimization -- En-DIIS/RFO-DIIS
 Update second derivatives using D2CorX and points    1    2
 DE= -2.36D-03 DEPred=-2.69D-03 R= 8.76D-01
 TightC=F SS=  1.41D+00  RLast= 2.09D-01 DXNew= 5.0454D-01 6.2745D-01
 Trust test= 8.76D-01 RLast= 2.09D-01 DXMaxT set to 5.05D-01
 ITU=  1  0
 Use linear search instead of GDIIS.
     Eigenvalues ---    0.00293   0.00380   0.00709   0.00907   0.01559
     Eigenvalues ---    0.02098   0.02300   0.02300   0.02602   0.02619
     Eigenvalues ---    0.02849   0.03149   0.03457   0.04032   0.04508
     Eigenvalues ---    0.04532   0.04786   0.05365   0.05624   0.08418
     Eigenvalues ---    0.09265   0.09466   0.12244   0.12746   0.12892
     Eigenvalues ---    0.15690   0.16000   0.16000   0.16000   0.16000
     Eigenvalues ---    0.16000   0.16267   0.21488   0.21912   0.21939
     Eigenvalues ---    0.21981   0.22000   0.22645   0.25692   0.28970
     Eigenvalues ---    0.29504   0.32421   0.33064   0.33779   0.33910
     Eigenvalues ---    0.33947   0.34053   0.34107   0.34258   0.34775
     Eigenvalues ---    0.35068   0.38608   0.44439   0.44548   0.45401
     Eigenvalues ---    0.46125   0.50383   0.54107   0.57078   0.68927
 RFO step:  Lambda=-2.20977218D-04 EMin= 2.92941748D-03
 Quartic linear search produced a step of -0.07662.
 Iteration  1 RMS(Cart)=  0.01457884 RMS(Int)=  0.00005444
 Iteration  2 RMS(Cart)=  0.00009966 RMS(Int)=  0.00001701
 Iteration  3 RMS(Cart)=  0.00000001 RMS(Int)=  0.00001701
 Variable       Old X    -DE/DX   Delta X   Delta X   Delta X     New X
                                 (Linear)    (Quad)   (Total)
    R1        2.56504   0.00070  -0.00048   0.00194   0.00146   2.56650
    R2        1.89223   0.00064   0.00125  -0.00064   0.00061   1.89284
    R3        1.90208  -0.00057   0.00084  -0.00247  -0.00162   1.90045
    R4        2.42159  -0.00343   0.00121  -0.00640  -0.00518   2.41640
    R5        2.07735  -0.00006   0.00085  -0.00149  -0.00064   2.07671
    R6        2.62203  -0.00005  -0.00264   0.00398   0.00135   2.62338
    R7        2.53348  -0.00373   0.00027  -0.00650  -0.00623   2.52725
    R8        2.07330   0.00105  -0.00121   0.00464   0.00343   2.07673
    R9        2.86105  -0.00248  -0.00140  -0.00499  -0.00639   2.85466
   R10        2.05466   0.00041   0.00009   0.00094   0.00103   2.05569
   R11        2.90424  -0.00167  -0.00016  -0.00508  -0.00524   2.89900
   R12        2.07623   0.00046  -0.00029   0.00170   0.00141   2.07764
   R13        2.07589   0.00055  -0.00027   0.00192   0.00165   2.07754
   R14        2.88613   0.00017   0.00028   0.00011   0.00039   2.88652
   R15        2.07114   0.00021   0.00030   0.00010   0.00040   2.07154
   R16        2.07557   0.00074  -0.00004   0.00208   0.00204   2.07761
   R17        2.78255  -0.00363  -0.00191  -0.00607  -0.00798   2.77457
   R18        2.08688   0.00040  -0.00128   0.00306   0.00178   2.08866
   R19        2.07190   0.00090  -0.00017   0.00271   0.00253   2.07443
   R20        1.91968   0.00083   0.00052   0.00090   0.00143   1.92111
   R21        1.91910   0.00007   0.00052  -0.00067  -0.00015   1.91896
    A1        2.12882  -0.00074   0.00155  -0.00668  -0.00514   2.12368
    A2        2.07858   0.00005  -0.00122   0.00217   0.00095   2.07953
    A3        2.07570   0.00069  -0.00033   0.00448   0.00415   2.07985
    A4        2.13443   0.00057   0.00069   0.00130   0.00200   2.13643
    A5        1.98968  -0.00057  -0.00168  -0.00020  -0.00188   1.98780
    A6        2.15908  -0.00000   0.00099  -0.00110  -0.00011   2.15896
    A7        2.06512  -0.00279  -0.00162  -0.00778  -0.00940   2.05573
    A8        2.14727  -0.00041  -0.00319   0.00324   0.00006   2.14732
    A9        2.05792  -0.00066   0.00237  -0.00783  -0.00546   2.05246
   A10        2.07800   0.00107   0.00082   0.00458   0.00540   2.08340
   A11        2.18196  -0.00096  -0.00053  -0.00319  -0.00371   2.17824
   A12        2.04536   0.00109   0.00070   0.00442   0.00512   2.05048
   A13        2.05586  -0.00013  -0.00017  -0.00124  -0.00141   2.05446
   A14        1.97090  -0.00116  -0.00111  -0.00204  -0.00314   1.96777
   A15        1.92310   0.00025  -0.00110   0.00202   0.00092   1.92402
   A16        1.92345   0.00022  -0.00108   0.00238   0.00130   1.92475
   A17        1.89827   0.00064   0.00027   0.00359   0.00388   1.90215
   A18        1.89350   0.00075   0.00069   0.00421   0.00492   1.89842
   A19        1.85039  -0.00066   0.00254  -0.01068  -0.00813   1.84226
   A20        1.97584  -0.00071  -0.00231   0.00122  -0.00108   1.97476
   A21        1.91886   0.00030  -0.00043   0.00243   0.00199   1.92085
   A22        1.90383   0.00009   0.00071  -0.00146  -0.00076   1.90307
   A23        1.89784   0.00026   0.00102   0.00030   0.00133   1.89917
   A24        1.90473   0.00041   0.00060   0.00161   0.00221   1.90694
   A25        1.85910  -0.00033   0.00057  -0.00446  -0.00388   1.85522
   A26        1.93629  -0.00144  -0.00075  -0.00506  -0.00577   1.93052
   A27        1.89706   0.00120   0.00220   0.00213   0.00443   1.90149
   A28        1.89834   0.00082   0.00185   0.00613   0.00802   1.90636
   A29        1.99488  -0.00057  -0.00672  -0.00005  -0.00678   1.98810
   A30        1.87425   0.00055   0.00199   0.00141   0.00340   1.87764
   A31        1.85940  -0.00045   0.00164  -0.00411  -0.00245   1.85695
   A32        1.90563   0.00046   0.00078   0.00059   0.00137   1.90699
   A33        1.92370  -0.00138  -0.00079  -0.00754  -0.00834   1.91536
   A34        1.84720   0.00026   0.00064  -0.00120  -0.00058   1.84662
    D1       -3.13391   0.00003  -0.00018   0.00160   0.00142  -3.13249
    D2        0.00799   0.00006  -0.00011   0.00241   0.00230   0.01029
    D3       -0.00668  -0.00003  -0.00003  -0.00119  -0.00122  -0.00790
    D4        3.13522  -0.00001   0.00004  -0.00038  -0.00034   3.13488
    D5       -3.14111   0.00003   0.00004   0.00091   0.00096  -3.14016
    D6        0.00014   0.00000  -0.00004   0.00003  -0.00001   0.00013
    D7       -3.13999   0.00001  -0.00005   0.00041   0.00036  -3.13963
    D8        0.00122   0.00001  -0.00002   0.00037   0.00035   0.00158
    D9        3.14098  -0.00001   0.00004  -0.00019  -0.00015   3.14082
   D10        0.00092  -0.00001   0.00010  -0.00055  -0.00045   0.00046
   D11       -0.00023  -0.00001   0.00001  -0.00016  -0.00014  -0.00038
   D12       -3.14029  -0.00001   0.00008  -0.00052  -0.00044  -3.14074
   D13       -3.14053  -0.00005  -0.00010  -0.00216  -0.00226   3.14040
   D14        1.01612  -0.00026   0.00108  -0.00683  -0.00574   1.01038
   D15       -1.01989   0.00027  -0.00072   0.00358   0.00285  -1.01704
   D16       -0.00048  -0.00005  -0.00016  -0.00179  -0.00195  -0.00243
   D17       -2.12701  -0.00025   0.00102  -0.00646  -0.00544  -2.13245
   D18        2.12016   0.00027  -0.00078   0.00394   0.00315   2.12332
   D19       -3.13811   0.00002  -0.00026   0.00880   0.00854  -3.12957
   D20        1.01876  -0.00004   0.00031   0.00580   0.00611   1.02487
   D21       -1.01383   0.00014  -0.00054   0.01063   0.01010  -1.00373
   D22       -0.99765   0.00002  -0.00220   0.01259   0.01039  -0.98727
   D23       -3.12397  -0.00004  -0.00164   0.00958   0.00796  -3.11601
   D24        1.12663   0.00014  -0.00248   0.01442   0.01195   1.13857
   D25        1.00759  -0.00002   0.00135   0.00411   0.00545   1.01305
   D26       -1.11872  -0.00008   0.00191   0.00111   0.00302  -1.11570
   D27        3.13187   0.00010   0.00107   0.00595   0.00701   3.13889
   D28       -3.09438  -0.00049  -0.00296  -0.01120  -0.01414  -3.10852
   D29        0.98123   0.00039   0.00453  -0.00912  -0.00462   0.97660
   D30       -1.03662  -0.00016   0.00020  -0.00870  -0.00849  -1.04511
   D31       -0.95633  -0.00039  -0.00433  -0.00705  -0.01135  -0.96769
   D32        3.11927   0.00049   0.00316  -0.00497  -0.00183   3.11744
   D33        1.10143  -0.00007  -0.00117  -0.00454  -0.00570   1.09573
   D34        1.06503  -0.00042  -0.00274  -0.01131  -0.01404   1.05100
   D35       -1.14255   0.00045   0.00475  -0.00923  -0.00452  -1.14706
   D36        3.12279  -0.00010   0.00042  -0.00881  -0.00838   3.11441
   D37       -1.10704  -0.00002   0.00273  -0.00902  -0.00626  -1.11330
   D38       -3.12907   0.00019   0.00196  -0.00365  -0.00165  -3.13072
   D39        1.04529   0.00001   0.00032  -0.01024  -0.00996   1.03532
   D40       -0.97674   0.00021  -0.00044  -0.00486  -0.00536  -0.98210
   D41        3.10379  -0.00052  -0.00033  -0.01443  -0.01475   3.08904
   D42        1.08176  -0.00032  -0.00110  -0.00906  -0.01014   1.07162
         Item               Value     Threshold  Converged?
 Maximum Force            0.003733     0.000450     NO 
 RMS     Force            0.000905     0.000300     NO 
 Maximum Displacement     0.049686     0.001800     NO 
 RMS     Displacement     0.014603     0.001200     NO 
 Predicted change in Energy=-1.269127D-04
 GradGradGradGradGradGradGradGradGradGradGradGradGradGradGradGradGradGrad

                          Input orientation:                          
 ---------------------------------------------------------------------
 Center     Atomic      Atomic             Coordinates (Angstroms)
 Number     Number       Type             X           Y           Z
 ---------------------------------------------------------------------
      1          7           0        1.091949    0.077578   -0.053992
      2          6           0        2.447260    0.135762    0.011392
      3          7           0        3.061603    0.898359    0.833657
      4          6           0        4.449652    0.882922    0.817250
      5          6           0        5.196766    1.635565    1.632042
      6          6           0        6.707226    1.649764    1.649142
      7          6           0        7.279495    2.617025    2.693331
      8          6           0        8.806537    2.651045    2.707003
      9          7           0        9.293954    3.557840    3.753840
     10          1           0        0.621941   -0.529583   -0.697222
     11          1           0        0.546534    0.648052    0.569278
     12          1           0        2.956168   -0.526748   -0.702597
     13          1           0        4.942878    0.216158    0.096236
     14          1           0        4.676806    2.283714    2.334118
     15          1           0        7.096256    1.922632    0.657693
     16          1           0        7.095525    0.641204    1.850834
     17          1           0        6.922973    2.344508    3.693485
     18          1           0        6.896013    3.627926    2.493948
     19          1           0        9.169024    2.901174    1.693264
     20          1           0        9.188465    1.647164    2.933705
     21          1           0        8.995934    4.506287    3.541414
     22          1           0       10.309172    3.578323    3.744497
 ---------------------------------------------------------------------
                    Distance matrix (angstroms):
                    1          2          3          4          5
     1  N    0.000000
     2  C    1.358135   0.000000
     3  N    2.311090   1.278706   0.000000
     4  C    3.561153   2.284125   1.388232   0.000000
     5  C    4.703144   3.526428   2.395791   1.337362   0.000000
     6  C    6.074848   4.808506   3.810537   2.525219   1.510624
     7  C    7.230650   6.058048   4.919636   3.812454   2.535223
     8  C    8.588405   7.350740   6.291710   5.067532   3.900922
     9  N    9.689412   8.520196   7.378517   6.264664   4.998411
    10  H    1.001647   2.067996   3.214740   4.352030   5.571567
    11  H    1.005676   2.046079   2.541283   3.918033   4.871274
    12  H    2.064270   1.098948   2.098123   2.554916   3.891840
    13  H    3.856349   2.498353   2.132694   1.098958   2.106627
    14  H    4.839556   3.870352   2.603742   2.077187   1.087826
    15  H    6.321584   5.022327   4.166356   2.847976   2.154025
    16  H    6.323683   5.024478   4.168130   2.850854   2.154509
    17  H    7.292695   6.202288   5.017982   4.065253   2.780636
    18  H    7.265268   6.176543   4.990972   4.041169   2.756777
    19  H    8.732969   7.460449   6.484658   5.207035   4.169454
    20  H    8.771745   7.501206   6.519920   5.245931   4.198586
    21  H    9.747482   8.628307   7.454219   6.420166   5.130343
    22  H   10.566027   9.359324   8.257267   7.082932   5.862889
                    6          7          8          9         10
     6  C    0.000000
     7  C    1.534085   0.000000
     8  C    2.555140   1.527483   0.000000
     9  N    3.842092   2.463302   1.468237   0.000000
    10  H    6.876458   8.106788   9.417683  10.569900   0.000000
    11  H    6.334324   7.329476   8.764103   9.753238   1.731050
    12  H    4.933388   6.332992   7.480011   8.758494   2.334235
    13  H    2.753120   4.238967   5.260480   6.593692   4.456030
    14  H    2.234657   2.648418   4.162771   4.995705   5.791855
    15  H    1.099442   2.158606   2.766825   4.133994   7.054495
    16  H    1.099385   2.155809   2.774896   4.118408   7.054830
    17  H    2.169920   1.096212   2.148238   2.664089   8.200104
    18  H    2.159273   1.099424   2.156338   2.709679   8.175110
    19  H    2.761960   2.156663   1.105273   2.166285   9.515101
    20  H    2.794039   2.154664   1.097743   2.081930   9.555479
    21  H    4.120510   2.689744   2.043046   1.016609  10.651281
    22  H    4.591717   3.347833   2.047962   1.015467  11.421304
                   11         12         13         14         15
    11  H    0.000000
    12  H    2.967180   0.000000
    13  H    4.442763   2.266508   0.000000
    14  H    4.780083   4.481175   3.058382   0.000000
    15  H    6.673172   4.999017   2.804340   2.965555   0.000000
    16  H    6.673209   5.001839   2.809478   2.963377   1.750898
    17  H    7.300521   6.580668   4.625025   2.626184   3.069860
    18  H    7.273230   6.557560   4.604771   2.599486   2.513952
    19  H    8.982608   7.489351   5.255485   4.579517   2.515218
    20  H    9.015082   7.535921   5.303208   4.595625   3.103781
    21  H    9.752534   8.934307   6.833866   5.005224   4.312761
    22  H   10.676029   9.523388   7.308288   5.948842   4.753157
                   16         17         18         19         20
    16  H    0.000000
    17  H    2.515230   0.000000
    18  H    3.061684   1.756922   0.000000
    19  H    3.071106   3.058678   2.517110   0.000000
    20  H    2.562218   2.489178   3.061395   1.763976   0.000000
    21  H    4.626931   2.998930   2.505668   2.453978   2.929328
    22  H    4.747647   3.604337   3.635380   2.442545   2.375445
                   21         22
    21  H    0.000000
    22  H    1.620788   0.000000
 Stoichiometry    C6H13N3
 Framework group  C1[X(C6H13N3)]
 Deg. of freedom    60
 Full point group                 C1      NOp   1
 Largest Abelian subgroup         C1      NOp   1
 Largest concise Abelian subgroup C1      NOp   1
                         Standard orientation:                         
 ---------------------------------------------------------------------
 Center     Atomic      Atomic             Coordinates (Angstroms)
 Number     Number       Type             X           Y           Z
 ---------------------------------------------------------------------
      1          7           0       -4.905764   -0.350176   -0.000533
[...]
 ,-0.00027452,0.00052107,0.08935725,0.00589208,-0.24629293,0.00402903,-
 0.00106511,-0.03801589,0.00706273,0.00151073,0.00312183,-0.00105174,-0
 .00016292,0.00031112,0.00000995,-0.00000070,-0.00004451,-0.00005659,0.
 00004214,-0.00002000,0.00003637,-0.00000646,-0.00001455,-0.00002716,-0
 .00002562,0.00000879,0.00076830,0.00063993,0.00014760,-0.00072950,-0.0
 0011117,0.00110905,-0.09844263,-0.00608469,0.27761850,-0.00097993,0.00
 006700,-0.00170221,0.00356350,0.00086750,0.01023172,-0.02596622,-0.004
 61698,0.02599570,-0.08747846,-0.00456471,0.08250965,0.00748609,-0.0002
 8060,-0.01606280,0.00164813,0.00099676,-0.00189063,0.00006392,-0.00007
 877,-0.00004634,0.00002118,0.00002836,0.00002384,-0.00000861,-0.000012
 55,0.00000465,-0.00019681,-0.00009401,-0.00015429,0.00070407,0.0000395
 3,-0.00002726,0.00047375,0.00007056,-0.00274987,0.10245041,-0.00003658
 ,-0.00040951,-0.00025225,0.00060340,-0.00072977,0.00174864,-0.00529449
 ,0.00780665,0.00354645,-0.00461452,-0.04325945,0.00669017,0.00066157,0
 .00641388,-0.00329847,0.00108961,-0.00550010,0.00000353,-0.00064291,0.
 00021210,-0.00029364,0.00008893,-0.00020703,-0.00014790,-0.00009490,-0
 .00002007,0.00002260,-0.00003616,-0.00002661,0.00000492,0.00002968,0.0
 0013036,-0.00000935,0.00017574,-0.00030519,-0.00039688,0.00923904,0.02
 618500,0.00126051,-0.00023721,0.00082374,-0.00582097,-0.00052430,0.002
 69963,0.00758882,0.00077221,-0.00319310,0.07813871,0.00622517,-0.26273
 575,0.01316304,0.00109816,-0.02234214,0.00217184,0.00036807,0.00033095
 ,-0.00028182,-0.00001949,0.00015000,-0.00001943,-0.00008799,-0.0000387
 4,-0.00002251,0.00001198,0.00003784,0.00003288,0.00016045,-0.00009670,
 -0.00033787,0.00004115,-0.00038579,0.00208109,0.00031320,0.00117289,-0
 .09375358,-0.00740483,0.28550785,-0.00016066,0.00003718,0.00018321,0.0
 0004881,0.00006199,-0.00048928,0.00137034,0.00128586,0.00053615,0.0095
 6077,-0.00022816,-0.01837422,-0.10107889,-0.00636231,0.10493496,-0.009
 73509,-0.00118200,0.02753658,0.00097180,0.00125021,0.00116624,-0.00000
 373,-0.00003496,-0.00022208,-0.00005279,-0.00010816,-0.00012634,0.0000
 4256,-0.00006492,0.00005037,-0.00007213,0.00000792,-0.00004766,-0.0001
 4672,-0.00007166,0.00034637,-0.00155520,-0.00173773,-0.00275280,0.1050
 3687,-0.00012844,0.00005957,0.00012217,0.00018221,-0.00066832,-0.00005
 043,0.00122660,-0.00673898,0.00028074,0.00087479,0.00725578,-0.0032542
 3,-0.00648360,-0.03838787,0.00814143,-0.00144435,0.00092994,0.00358334
 ,0.00073760,0.00090157,0.00082562,-0.00002044,0.00003765,-0.00007657,0
 .00003166,-0.00002385,-0.00001022,-0.00001710,0.00031155,-0.00005434,0
 .00003101,-0.00023195,-0.00002493,-0.00012783,0.00039749,0.00005966,-0
 .00167827,0.00943048,-0.00066335,0.00842859,0.02518006,-0.00000171,-0.
 00004493,0.00010685,-0.00041919,-0.00002522,0.00025898,0.00166113,0.00
 053876,0.00251414,0.01470668,0.00122295,-0.02324725,0.09897491,0.00778
 316,-0.27909041,-0.00151639,-0.00081448,0.00068005,0.00005797,0.000009
 12,0.00036560,-0.00011845,0.00016302,0.00025308,0.00009900,0.00007360,
 -0.00000605,-0.00001209,0.00001840,-0.00001877,-0.00004790,-0.00000302
 ,-0.00005649,0.00025158,0.00003525,0.00036961,-0.00299072,-0.00082457,
 -0.00323929,-0.11113063,-0.00816458,0.29963187,-0.00029711,0.00005705,
 -0.00003606,0.00026841,0.00001668,0.00010583,0.00015465,0.00002402,-0.
 00097634,0.00168278,0.00025462,0.00247111,-0.01198031,0.00032847,0.033
 28943,-0.07019835,0.00329582,0.06881663,0.00186338,-0.00009949,-0.0083
 6357,0.00091091,0.00030682,-0.00101989,-0.00003426,-0.00008881,-0.0000
 0866,0.00001800,-0.00004743,0.00004200,0.00001010,-0.00002076,-0.00000
 831,-0.00006695,0.00000873,-0.00006360,-0.00001631,-0.00002453,-0.0014
 0500,-0.00553669,-0.00087565,-0.00035492,0.07873630,-0.00012518,0.0000
 3805,-0.00001135,0.00013312,-0.00001730,0.00006096,-0.00004910,-0.0002
 0467,-0.00013193,0.00027054,-0.00035796,0.00024777,-0.00188810,-0.0004
 9063,0.00507061,0.00368244,-0.04763566,-0.00654355,0.00781810,-0.00266
 417,-0.02976324,0.00134157,0.00077874,-0.00049920,0.00001622,0.0000390
 8,0.00025937,0.00000556,0.00000484,0.00001189,0.00001048,-0.00000839,-
 0.00000804,-0.00000317,-0.00002169,-0.00001173,0.00003877,0.00018290,-
 0.00014887,-0.00123274,0.00154473,-0.00035263,-0.00056118,0.05144970,0
 .00033330,-0.00005536,0.00005894,-0.00014562,0.00001241,-0.00019696,0.
 00016591,0.00006712,0.00060129,-0.00244619,-0.00030988,0.00040017,0.00
 173484,0.00043727,-0.00240466,0.07128502,-0.00688741,-0.27533104,0.003
 31557,-0.00120637,-0.01343351,0.00087290,0.00051193,-0.00030659,-0.000
 38518,-0.00005691,0.00056192,-0.00000744,0.00003724,-0.00004161,-0.000
 01173,0.00001846,0.00001950,0.00000835,-0.00000236,0.00001544,0.000507
 19,0.00007316,0.00081663,0.00006178,-0.00017578,0.00095091,-0.07826792
 ,0.01095666,0.30161862,-0.00167012,0.00044984,-0.00028433,0.00134009,-
 0.00035007,0.00133713,-0.00183822,-0.00282304,-0.00194285,-0.00154876,
 0.00152709,0.00339618,-0.02109708,0.02128595,-0.02017813,-0.09797655,0
 .08612917,-0.05485700,0.00380078,-0.00590502,0.00407808,0.00084423,-0.
 00099107,0.00063261,-0.00017520,0.00004375,-0.00004712,0.00004345,-0.0
 0004603,0.00013081,0.00011086,-0.00016122,-0.00012613,0.00001127,0.000
 05289,-0.00006118,-0.00013093,0.00066486,-0.00011233,0.00108220,-0.000
 65074,0.00065334,0.00450251,-0.00739204,0.00456183,0.11260962,-0.00005
 506,0.00009110,-0.00000678,-0.00004389,-0.00009447,-0.00001477,0.00004
 050,-0.00075862,0.00001373,-0.00080377,0.00008339,-0.00052739,-0.00266
 063,0.00583723,-0.00322374,0.08343894,-0.17284949,0.08830968,0.0129583
 9,-0.02715168,0.01479742,0.00203420,0.00014197,0.00119555,-0.00038741,
 0.00082683,-0.00033463,0.00000242,0.00002596,-0.00000102,0.00000468,-0
 .00002227,-0.00000527,0.00000214,-0.00002039,-0.00000107,-0.00003995,0
 .00018797,-0.00001255,0.00060219,0.00027600,0.00002839,-0.00097338,0.0
 0067404,-0.00039713,-0.09078681,0.19539566,-0.00003127,-0.00001110,-0.
 00003554,0.00018421,0.00001051,0.00024757,-0.00054698,-0.00039070,-0.0
 0002460,0.00006157,0.00045046,0.00087751,-0.00156529,-0.00275224,0.000
 72730,-0.05244978,0.08892525,-0.10827098,0.00547000,-0.01146504,0.0060
 9863,0.00025960,0.00013124,0.00024622,0.00017367,-0.00009031,-0.000052
 33,-0.00000782,0.00003095,-0.00000240,0.00001969,0.00000187,-0.0000034
 4,0.00002382,-0.00004056,-0.00002648,-0.00006605,0.00064010,0.00029110
 ,-0.00047925,-0.00020475,0.00035579,-0.01444800,0.02216332,-0.01543333
 ,0.06373630,-0.09555603,0.11380762,0.00007706,-0.00000325,0.00001153,-
 0.00006652,-0.00000677,-0.00005428,0.00006487,-0.00001856,0.00012421,-
 0.00010381,0.00003182,-0.00014311,0.00096742,0.00043738,-0.00099012,0.
 00221195,-0.00049561,-0.00911848,-0.07361487,0.00417505,0.07541602,-0.
 01433716,0.00061306,0.03413175,0.00234272,0.00139954,0.00013622,-0.000
 00195,0.00000985,-0.00000782,-0.00000310,0.00000309,0.00000423,0.00000
 612,-0.00000495,0.00000763,-0.00006205,0.00000009,0.00009659,0.0000288
 3,-0.00009677,0.00026610,-0.00009444,-0.00213574,-0.00082104,0.0001326
 5,0.00026157,0.00051469,0.08305817,0.00004449,-0.00000054,0.00000768,-
 0.00002791,-0.00001273,-0.00005563,0.00000220,-0.00003293,0.00013494,-
 0.00030570,-0.00000549,-0.00007913,0.00153599,0.00125884,0.00007291,0.
 00856959,-0.00338115,-0.02961099,0.00442065,-0.04794208,-0.00742077,-0
 .00148744,-0.00069020,0.00334563,0.00019253,0.00053597,0.00080553,-0.0
 0000090,0.00000606,-0.00000851,0.00000044,0.00000389,0.00000472,0.0000
 0784,0.00000068,0.00000196,0.00001203,-0.00008111,0.00019119,-0.000555
 90,-0.00004168,0.00036759,-0.00176792,-0.00494657,-0.00266803,0.000517
 33,0.00133773,0.00051270,-0.00200834,0.05199482,-0.00010812,0.00002070
 ,0.00000137,0.00008986,0.00000146,-0.00004388,-0.00011838,0.00007505,0
 .00003818,-0.00047464,-0.00002815,0.00020517,0.00122845,0.00075819,0.0
 0042901,0.00370555,-0.00138741,-0.01403459,0.07531484,-0.00807364,-0.2
 6727932,-0.00020970,-0.00048430,-0.00161193,-0.00041229,0.00061948,0.0
 0124928,0.00000256,-0.00001492,0.00000488,0.00000512,-0.00001545,-0.00
 001281,0.00000118,0.00000181,0.00001928,0.00012249,-0.00008506,0.00020
 845,-0.00093436,-0.00031706,0.00024568,-0.00070543,-0.00288334,0.00046
 097,0.00002683,-0.00021999,0.00092548,-0.08457878,0.01281694,0.2924542
 2,0.00015855,-0.00002797,0.00002706,-0.00012480,-0.00000695,-0.0001164
 5,0.00006772,0.00008729,0.00013908,0.00000933,0.00020065,-0.00033263,0
 .00120777,-0.00021048,0.00096415,0.00308584,-0.00777464,0.00490649,-0.
 09343700,0.08187933,-0.05481497,-0.01772467,0.02656722,-0.01820167,0.0
 0304857,-0.00002363,0.00079633,-0.00000396,0.00001707,-0.00001564,-0.0
 0000804,0.00001070,0.00001131,-0.00000093,-0.00000227,0.00000636,0.000
 01266,-0.00006196,0.00000188,0.00001780,-0.00007994,0.00002721,0.00013
 099,0.00067350,0.00004189,-0.00015257,-0.00209771,-0.00087136,0.004246
 69,-0.00801841,0.00553960,0.10424142,0.00000907,0.00003246,-0.00000760
 ,-0.00007215,-0.00005146,-0.00002583,-0.00000545,-0.00008468,-0.000084
 07,-0.00067797,0.00036042,-0.00039006,0.00186717,0.00156618,0.00054057
 ,0.01068373,-0.02326582,0.01407434,0.08313813,-0.19015676,0.09894783,-
 0.00182057,0.00171699,-0.00208524,-0.00029462,0.00127082,0.00001365,-0
 .00000257,-0.00000032,-0.00000114,0.00000154,-0.00001560,0.00000116,0.
 00000079,-0.00001722,-0.00000559,0.00000555,-0.00001428,-0.00006932,-0
 .00011142,-0.00017373,0.00002133,0.00030488,0.00137804,-0.00013826,-0.
 00170901,-0.00452468,-0.00268842,-0.00080651,0.00126617,-0.00077763,-0
 .08997497,0.21003808,0.00005872,-0.00001176,0.00000422,-0.00005078,-0.
 00000948,-0.00001150,0.00007416,-0.00007821,-0.00001290,0.00005279,0.0
 0017951,0.00002092,0.00086956,0.00026086,0.00032197,0.00548790,-0.0117
 1104,0.00664656,-0.05536602,0.09953663,-0.11686205,0.00076638,-0.00053
 497,0.00013701,0.00027098,-0.00015092,-0.00013431,-0.00000048,0.000010
 50,-0.00000429,-0.00000247,0.00001070,0.00000429,-0.00000475,0.0000034
 4,-0.00000449,0.00004234,-0.00000254,-0.00003840,-0.00007167,0.0000477
 5,-0.00002568,0.00051046,0.00058034,0.00101670,-0.00074062,-0.00338502
 ,0.00013382,-0.01307259,0.02293152,-0.01632239,0.06111366,-0.10647819,
 0.12293680,-0.00005786,0.00000600,-0.00001615,0.00004552,0.00000406,0.
 00007274,-0.00001523,-0.00001183,-0.00008271,0.00008381,0.00000720,0.0
 0000257,-0.00008191,0.00012084,-0.00028518,0.00134576,0.00117114,0.001
 11812,-0.01347548,-0.00080283,0.03268302,-0.07539711,0.00238802,0.0779
 3357,0.00385279,-0.00238679,-0.00941807,0.00000084,-0.00000816,0.00000
 684,0.00000358,-0.00000165,-0.00000051,0.00000093,0.00000467,-0.000010
 96,-0.00002887,0.00000411,-0.00006031,0.00025382,0.00004742,-0.0001230
 6,0.00003552,-0.00060698,-0.00092406,-0.00007008,-0.00014156,-0.000127
 44,-0.00661792,-0.00100174,-0.00010973,0.00161670,0.00039125,-0.000277
 99,0.08276757,-0.00003505,0.00000316,-0.00000396,0.00003209,0.00000475
 ,0.00002237,-0.00001360,-0.00000370,-0.00002466,0.00003482,-0.00000411
 ,0.00000925,-0.00002146,-0.00007366,-0.00006886,0.00003026,0.00044938,
 0.00087296,-0.00100404,-0.00028647,0.00374384,-0.00107670,-0.04929490,
 0.00665700,0.01158048,-0.00673043,-0.03467012,0.00000128,-0.00000277,0
 .00000328,0.00000217,-0.00000121,-0.00000185,0.00000007,0.00000152,-0.
 00000055,-0.00000887,0.00000547,-0.00001327,0.00005085,-0.00003168,-0.
 00005664,-0.00016629,0.00008753,-0.00033363,-0.00000448,0.00003891,0.0
 0010418,-0.00112346,0.00052470,-0.00060071,0.00008764,0.00018325,-0.00
 071919,0.00122852,0.05865639,0.00008176,-0.00000805,0.00001973,-0.0000
 5887,-0.00000744,-0.00007886,0.00004905,-0.00001185,0.00009954,0.00003
 116,0.00002266,-0.00010510,-0.00003079,0.00014868,0.00056088,-0.000247
 89,0.00000334,0.00020847,0.00066276,0.00040528,-0.00021110,0.07646202,
 -0.00025514,-0.27058303,0.00427783,-0.00607129,-0.01346673,-0.00000085
 ,0.00001108,-0.00000993,-0.00000379,0.00000219,0.00000303,-0.00000244,
 -0.00000336,0.00000942,0.00000698,0.00000865,0.00002440,-0.00016413,-0
 .00007721,-0.00005979,0.00028105,0.00053312,0.00048300,0.00003499,-0.0
 0006193,-0.00000658,-0.00030141,-0.00035780,0.00156992,0.00036627,-0.0
 0023500,0.00080215,-0.08491209,0.00627390,0.29667800,-0.00016747,0.000
 00651,-0.00001522,0.00016752,0.00002644,0.00008662,-0.00006737,0.00003
 210,-0.00005070,0.00023058,-0.00007693,0.00001858,0.00022614,-0.000464
 00,0.00033488,0.00084981,0.00204101,0.00000150,-0.01785657,0.02484456,
 -0.01929974,-0.09464836,0.07256060,-0.04910348,0.00664298,-0.00967109,
 0.00374837,0.00000629,-0.00001793,0.00001553,0.00000834,-0.00000267,-0
 .00001078,0.00000049,0.00001171,-0.00000067,-0.00000650,0.00000724,0.0
 0001931,-0.00000241,0.00006634,-0.00001971,-0.00002146,-0.00015719,-0.
 00002667,0.00017817,-0.00137717,0.00015035,0.00169459,0.00002833,0.000
 65412,-0.00668217,-0.00101429,0.00031109,0.00515860,-0.00740812,0.0056
 8447,0.10315304,-0.00009419,0.00003854,-0.00001244,0.00007702,-0.00001
 795,0.00005179,-0.00004292,-0.00007276,-0.00005432,-0.00001880,0.00000
 628,0.00004056,0.00000580,0.00040995,-0.00015664,-0.00012361,0.0007177
 9,-0.00013804,-0.00097416,0.00190380,-0.00056702,0.07454703,-0.1684957
 9,0.08558975,0.00715234,-0.03806953,0.00569416,0.00000532,-0.00001113,
 0.00000884,0.00000817,-0.00001671,-0.00000522,0.00000304,-0.00000610,-
 0.00000296,-0.00000213,0.00001477,0.00000373,0.00000717,-0.00002724,0.
 00001338,-0.00001901,0.00002530,-0.00005710,0.00006693,0.00057380,0.00
 013867,0.00023059,0.00010172,-0.00018060,-0.00121721,0.00038208,-0.000
 52337,0.00101002,0.00047103,0.00211330,-0.08022342,0.19936334,-0.00001
 494,-0.00001236,0.00000141,0.00002611,0.00001815,-0.00000034,-0.000017
 16,0.00004091,0.00001258,0.00005815,-0.00002785,-0.00005418,0.00006527
 ,-0.00034489,0.00009069,-0.00004694,0.00054462,-0.00017203,0.00101894,
 0.00055601,0.00015684,-0.04972304,0.08488216,-0.11337576,0.00543793,-0
 .01562511,0.00980933,0.00000047,-0.00000085,0.00000050,0.00000051,0.00
 000472,0.00000012,-0.00000051,0.00000512,0.00000164,-0.00000111,-0.000
 00590,0.00001186,0.00001199,0.00002736,-0.00000921,-0.00001095,0.00011
 112,0.00002908,-0.00025081,-0.00058153,0.00016517,-0.00040941,-0.00063
 009,0.00090837,-0.00005200,-0.00059189,0.00145040,-0.01392497,0.022519
 87,-0.01633930,0.05619967,-0.09170655,0.11480855,-0.00021216,0.0000289
 0,-0.00003059,0.00018957,0.00001792,0.00013317,-0.00017669,0.00001397,
 -0.00015536,0.00007390,-0.00002279,0.00013841,0.00004035,-0.00028075,-
 0.00024215,-0.00061088,0.00062388,0.00044525,0.00070159,-0.00358966,-0
 .00202335,-0.00848603,0.00642610,-0.00083349,-0.41587092,-0.06498244,0
 .03033266,0.00000753,-0.00002567,0.00002076,0.00001363,-0.00001382,-0.
 00001290,0.00000402,0.00000390,-0.00000859,-0.00000237,-0.00001915,-0.
 00000142,-0.00002407,0.00000932,0.00001465,-0.00001314,-0.00004521,-0.
 00008779,0.00000709,-0.00015378,0.00001483,0.00039624,0.00020037,-0.00
 002960,0.00042884,0.00007473,0.00016527,0.00041981,0.00000721,-0.00034
 753,0.00125579,0.00038686,0.00100477,0.43444615,-0.00000334,-0.0000109
 6,-0.00000420,-0.00000822,0.00001250,0.00000959,-0.00005477,0.00005949
 ,-0.00003817,-0.00006207,-0.00004020,0.00009496,-0.00006423,-0.0004752
 0,-0.00038223,-0.00183267,0.00051013,-0.00002221,0.00086229,-0.0057621
 6,-0.00270786,-0.03851233,-0.01012120,0.00100890,-0.02157490,-0.031710
 38,-0.01852332,-0.00000305,-0.00000171,0.00000036,-0.00000193,0.000002
 90,-0.00000278,-0.00000045,0.00000145,0.00000027,0.00000495,-0.0000242
 0,-0.00000460,-0.00000906,0.00000196,0.00002287,0.00000168,0.00003420,
 -0.00003473,0.00004064,0.00007386,0.00013162,0.00034009,-0.00004122,0.
 00017934,-0.00006430,0.00016349,-0.00029261,0.00059195,0.00135982,-0.0
 0001681,-0.00018558,0.00109315,0.00096233,0.05949074,0.04650363,-0.000
 27425,0.00004111,-0.00004252,0.00023268,0.00001827,0.00016731,-0.00020
 075,0.00002258,-0.00020659,0.00003684,-0.00000978,0.00013354,0.0001428
 3,-0.00038648,-0.00031039,-0.00132186,-0.00017626,0.00082126,-0.000214
 21,-0.00367526,-0.00178344,-0.01677782,0.00277557,0.00031206,-0.001707
 13,-0.02118392,-0.04653386,0.00000829,-0.00003602,0.00002754,0.0000163
 6,-0.00001936,-0.00001530,0.00000486,0.00000314,-0.00001144,-0.0000032
 4,-0.00001632,-0.00001137,-0.00000977,0.00000853,0.00002017,0.00002694
 ,0.00009733,-0.00005206,0.00001357,-0.00005422,-0.00000601,-0.00020537
 ,-0.00004031,0.00040046,0.00048453,0.00001946,0.00007211,-0.00014879,0
 .00027161,-0.00016310,0.00082081,-0.00055373,0.00033745,-0.02338095,0.
 01678114,0.05036590,0.00007746,-0.00000080,0.00001290,-0.00007978,-0.0
 0001052,-0.00006421,0.00004305,0.00001625,0.00006540,-0.00005911,0.000
 00004,-0.00002504,-0.00003182,0.00001575,0.00001523,-0.00040560,-0.000
 34841,0.00023895,0.00188653,0.00015361,-0.00221885,0.00271979,0.003497
 17,-0.00874483,-0.06920220,-0.01594450,0.07614295,-0.00000337,0.000006
 17,-0.00000724,-0.00000543,-0.00000242,0.00000093,-0.00000052,-0.00000
 676,0.00000667,0.00000854,-0.00000134,0.00001338,-0.00004541,-0.000032
 41,0.00002220,-0.00005452,0.00020631,0.00023507,-0.00000343,0.00017609
 ,-0.00001549,-0.00032550,-0.00035753,0.00099037,-0.00013872,0.00001268
 ,-0.00013591,0.00015922,-0.00219332,-0.00186853,-0.00012003,-0.0007848
 3,0.00062802,-0.01258827,0.00104455,0.04245642,0.07816912,0.00012812,-
 0.00002795,0.00001684,-0.00011535,-0.00000292,-0.00007132,0.00010540,-
 0.00000143,0.00008326,-0.00003766,-0.00000149,-0.00004644,-0.00005358,
 0.00002157,0.00019430,0.00015109,-0.00013669,0.00012866,0.00100441,0.0
 0140306,-0.00016654,0.00973529,-0.00785232,-0.03941435,-0.02555918,-0.
 03126818,0.01076524,-0.00000542,0.00001689,-0.00001160,-0.00000988,0.0
 0001460,0.00000736,-0.00000217,0.00000091,0.00000321,0.00000678,0.0000
 0775,0.00000047,-0.00003298,-0.00000148,-0.00001175,0.00004565,0.00010
 987,0.00020870,0.00004110,-0.00014286,-0.00004171,-0.00080217,0.000145
 13,0.00059528,0.00003707,-0.00005344,0.00033606,-0.00201368,-0.0053570
 0,-0.00241632,0.00097354,0.00161567,-0.00014533,0.00184938,-0.00162937
 ,0.00611290,0.01455423,0.04313968,0.00002297,0.00000302,0.00000610,-0.
 00001992,-0.00000936,-0.00002683,0.00001120,0.00000896,0.00002811,-0.0
 0000946,0.00000782,-0.00002640,-0.00003379,0.00000223,0.00007684,-0.00
 017959,-0.00019170,0.00037041,0.00007712,0.00045872,0.00036999,0.00297
 899,0.00514409,-0.01687695,0.11185729,-0.02836534,-0.39205979,-0.00000
 036,0.00000283,-0.00000307,-0.00000074,-0.00000230,0.00000062,-0.00000
 054,-0.00000310,0.00000403,0.00000354,-0.00000053,0.00000594,-0.000025
 45,-0.00002314,0.00000019,0.00012522,0.00026140,0.00016662,-0.00000118
 ,0.00003833,-0.00001453,-0.00100656,-0.00032206,0.00018418,-0.00002110
 ,-0.00004009,-0.00013091,-0.00139484,-0.00398482,0.00056499,0.00048168
 ,0.00030382,0.00216682,-0.00511606,0.00283814,-0.00352171,-0.10774841,
 0.02387307,0.40871536\\-0.00000540,-0.00002507,0.00000530,0.00001317,0
 .00000615,0.00000464,0.00000444,0.00000723,-0.00000999,-0.00000728,-0.
 00000799,-0.00000118,-0.00000425,-0.00000390,0.00000679,0.00000841,0.0
 0001687,-0.00000088,-0.00000236,-0.00001826,-0.00000144,-0.00000349,-0
 .00002128,-0.00000602,0.00001433,0.00002321,0.00002069,-0.00000218,0.0
 0000922,-0.00000620,-0.00000323,0.00000821,0.00000281,-0.00000049,-0.0
 0000100,-0.00000030,0.00000038,0.00000334,0.00000102,0.00000185,0.0000
 0134,-0.00000114,-0.00000440,-0.00000338,-0.00000048,-0.00000149,-0.00
 000340,0.00000039,0.00000314,0.00000305,-0.00000169,-0.00000099,0.0000
 0195,-0.00000161,-0.00000418,-0.00000772,-0.00000185,-0.00000247,0.000
 01251,-0.00000416,-0.00000622,-0.00000194,0.00000143,0.00000273,0.0000
 0087,-0.00000614\\\@


 SOME THINGS ARE EASY, THEY ARE ONLY HARD TO DO.
            -- A. EINSTEIN TO J. O. HIRSCHFELDER
 THE ONLY TROUBLE WITH A SURE THING IS THE UNCERTAINTY.
     -- FROM A TEABAG (BELONGING TO W.H.?)
 Job cpu time:       0 days  1 hours 37 minutes 20.0 seconds.
 Elapsed time:       0 days  0 hours 24 minutes 21.9 seconds.
 File lengths (MBytes):  RWF=    168 Int=      0 D2E=      0 Chk=      9 Scr=      1
 Normal termination of Gaussian 16 at Mon May 31 16:10:53 2021.
### All Done ###
