### Starting Gaussian ###
 Entering Gaussian System, Link 0=g16
 Initial command:
 /cluster/software/gaussian/gaussian-16-A.03/avx2/g16/l1.exe "/local/scratch/cz9n3/Gau-6088.inp" -scrdir="/local/scratch/cz9n3/"
 Entering Link 1 = /cluster/software/gaussian/gaussian-16-A.03/avx2/g16/l1.exe PID=      6089.
  
 Copyright (c) 1988,1990,1992,1993,1995,1998,2003,2009,2016,
            Gaussian, Inc.  All Rights Reserved.
  
 This is part of the Gaussian(R) 16 program.  It is based on
 the Gaussian(R) 09 system (copyright 2009, Gaussian, Inc.),
 the Gaussian(R) 03 system (copyright 2003, Gaussian, Inc.),
 the Gaussian(R) 98 system (copyright 1998, Gaussian, Inc.),
 the Gaussian(R) 94 system (copyright 1995, Gaussian, Inc.),
 the Gaussian 92(TM) system (copyright 1992, Gaussian, Inc.),
 the Gaussian 90(TM) system (copyright 1990, Gaussian, Inc.),
 the Gaussian 88(TM) system (copyright 1988, Gaussian, Inc.),
 the Gaussian 86(TM) system (copyright 1986, Carnegie Mellon
 University), and the Gaussian 82(TM) system (copyright 1983,
 Carnegie Mellon University). Gaussian is a federally registered
 trademark of Gaussian, Inc.
  
 This software contains proprietary and confidential information,
 including trade secrets, belonging to Gaussian, Inc.
  
 This software is provided under written license and may be
 used, copied, transmitted, or stored only in accord with that
 written license.
  
 The following legend is applicable only to US Government
 contracts under FAR:
  
                    RESTRICTED RIGHTS LEGEND
  
 Use, reproduction and disclosure by the US Government is
 subject to restrictions as set forth in subparagraphs (a)
 and (c) of the Commercial Computer Software - Restricted
 Rights clause in FAR 52.227-19.
  
 Gaussian, Inc.
 340 Quinnipiac St., Bldg. 40, Wallingford CT 06492
  
  
 ---------------------------------------------------------------
 Warning -- This program may not be used in any manner that
 competes with the business of Gaussian, Inc. or will provide
 assistance to any competitor of Gaussian, Inc.  The licensee
 of this program is prohibited from giving any competitor of
 Gaussian, Inc. access to this program.  By using this program,
 the user acknowledges that Gaussian, Inc. is engaged in the
 business of creating and licensing software in the field of
 computational chemistry and represents and warrants to the
 licensee that it is not a competitor of Gaussian, Inc. and that
 it will not use this program in any manner prohibited above.
 ---------------------------------------------------------------
  

 Cite this work as:
 Gaussian 16, Revision A.03,
 M. J. Frisch, G. W. Trucks, H. B. Schlegel, G. E. Scuseria, 
 M. A. Robb, J. R. Cheeseman, G. Scalmani, V. Barone, 
 G. A. Petersson, H. Nakatsuji, X. Li, M. Caricato, A. V. Marenich, 
 J. Bloino, B. G. Janesko, R. Gomperts, B. Mennucci, H. P. Hratchian, 
 J. V. Ortiz, A. F. Izmaylov, J. L. Sonnenberg, D. Williams-Young, 
 F. Ding, F. Lipparini, F. Egidi, J. Goings, B. Peng, A. Petrone, 
 T. Henderson, D. Ranasinghe, V. G. Zakrzewski, J. Gao, N. Rega, 
 G. Zheng, W. Liang, M. Hada, M. Ehara, K. Toyota, R. Fukuda, 
 J. Hasegawa, M. Ishida, T. Nakajima, Y. Honda, O. Kitao, H. Nakai, 
 T. Vreven, K. Throssell, J. A. Montgomery, Jr., J. E. Peralta, 
 F. Ogliaro, M. J. Bearpark, J. J. Heyd, E. N. Brothers, K. N. Kudin, 
 V. N. Staroverov, T. A. Keith, R. Kobayashi, J. Normand, 
 K. Raghavachari, A. P. Rendell, J. C. Burant, S. S. Iyengar, 
 J. Tomasi, M. Cossi, J. M. Millam, M. Klene, C. Adamo, R. Cammi, 
 J. W. Ochterski, R. L. Martin, K. Morokuma, O. Farkas, 
 J. B. Foresman, and D. J. Fox, Gaussian, Inc., Wallingford CT, 2016.
 
 ******************************************
 Gaussian 16:  ES64L-G16RevA.03 25-Dec-2016
                 1-Jun-2021 
 ******************************************
 %chk=NCN1CCCdNC1.chk
 %NProcShared=20
 Will use up to   20 processors via shared memory.
 -----------------------------
 # opt freq b3lyp/6-31g(2df,p)
 -----------------------------
 1/18=20,19=15,26=3,38=1/1,3;
 2/9=110,12=2,17=6,18=5,40=1/2;
 3/5=1,6=6,7=104,11=2,25=1,30=1,71=1,74=-5/1,2,3;
 4//1;
 5/5=2,38=5/2;
 6/7=2,8=2,9=2,10=2,28=1/1;
 7//1,2,3,16;
 1/18=20,19=15,26=3/3(2);
 2/9=110/2;
 99//99;
 2/9=110/2;
 3/5=1,6=6,7=104,11=2,25=1,30=1,71=1,74=-5/1,2,3;
 4/5=5,16=3,69=1/1;
 5/5=2,38=5/2;
 7//1,2,3,16;
 1/18=20,19=15,26=3/3(-5);
 2/9=110/2;
 6/7=2,8=2,9=2,10=2,19=2,28=1/1;
 99/9=1/99;
 -------------------
 Title Card Required
 -------------------
 Symbolic Z-matrix:
 Charge =  0 Multiplicity = 1
 N                     0.98261  -0.16949  -0.04051 
 C                     2.42428  -0.039    -0.131 
 N                     2.9526    1.03677   0.68564 
 C                     2.1879    2.26468   0.72042 
 C                     2.81692   3.54326   0.24305 
 C                     4.26046   3.44528  -0.05417 
 N                     4.98396   2.39164   0.05649 
 C                     4.39758   1.1432    0.50212 
 H                     0.69867  -0.91794  -0.66844 
 H                     0.54787   0.65256  -0.44752 
 H                     2.70265   0.11395  -1.17766 
 H                     2.85499  -0.98961   0.20735 
 H                     1.78784   2.39971   1.73426 
 H                     1.29143   2.20238   0.10368 
 H                     2.6621    4.34409   0.97272 
 H                     2.33195   3.85722  -0.68986 
 H                     4.73723   4.36657  -0.4209 
 H                     4.90424   0.83419   1.42503 
 H                     4.72857   0.40549  -0.24296 
 

 GradGradGradGradGradGradGradGradGradGradGradGradGradGradGradGradGradGrad
 Berny optimization.
 Initialization pass.
                           ----------------------------
                           !    Initial Parameters    !
                           ! (Angstroms and Degrees)  !
 --------------------------                            --------------------------
 ! Name  Definition              Value          Derivative Info.                !
 --------------------------------------------------------------------------------
 ! R1    R(1,2)                  1.4504         estimate D2E/DX2                !
 ! R2    R(1,9)                  1.0174         estimate D2E/DX2                !
 ! R3    R(1,10)                 1.0151         estimate D2E/DX2                !
 ! R4    R(2,3)                  1.4503         estimate D2E/DX2                !
 ! R5    R(2,11)                 1.0938         estimate D2E/DX2                !
 ! R6    R(2,12)                 1.0971         estimate D2E/DX2                !
 ! R7    R(3,4)                  1.447          estimate D2E/DX2                !
 ! R8    R(3,8)                  1.4605         estimate D2E/DX2                !
 ! R9    R(4,5)                  1.5028         estimate D2E/DX2                !
 ! R10   R(4,13)                 1.0982         estimate D2E/DX2                !
 ! R11   R(4,14)                 1.0899         estimate D2E/DX2                !
 ! R12   R(5,6)                  1.4771         estimate D2E/DX2                !
 ! R13   R(5,15)                 1.0944         estimate D2E/DX2                !
 ! R14   R(5,16)                 1.0973         estimate D2E/DX2                !
 ! R15   R(6,7)                  1.2829         estimate D2E/DX2                !
 ! R16   R(6,17)                 1.1003         estimate D2E/DX2                !
 ! R17   R(7,8)                  1.4495         estimate D2E/DX2                !
 ! R18   R(8,18)                 1.0972         estimate D2E/DX2                !
 ! R19   R(8,19)                 1.0995         estimate D2E/DX2                !
 ! A1    A(2,1,9)              107.7634         estimate D2E/DX2                !
 ! A2    A(2,1,10)             109.1368         estimate D2E/DX2                !
 ! A3    A(9,1,10)             103.2239         estimate D2E/DX2                !
 ! A4    A(1,2,3)              113.1852         estimate D2E/DX2                !
 ! A5    A(1,2,11)             108.9809         estimate D2E/DX2                !
 ! A6    A(1,2,12)             107.0394         estimate D2E/DX2                !
 ! A7    A(3,2,11)             110.0227         estimate D2E/DX2                !
 ! A8    A(3,2,12)             109.0289         estimate D2E/DX2                !
 ! A9    A(11,2,12)            108.443          estimate D2E/DX2                !
 ! A10   A(2,3,4)              116.7747         estimate D2E/DX2                !
 ! A11   A(2,3,8)              110.1039         estimate D2E/DX2                !
 ! A12   A(4,3,8)              117.6491         estimate D2E/DX2                !
 ! A13   A(3,4,5)              119.5486         estimate D2E/DX2                !
 ! A14   A(3,4,13)             108.6046         estimate D2E/DX2                !
 ! A15   A(3,4,14)             111.8746         estimate D2E/DX2                !
 ! A16   A(5,4,13)             109.9446         estimate D2E/DX2                !
 ! A17   A(5,4,14)             102.3079         estimate D2E/DX2                !
 ! A18   A(13,4,14)            103.2842         estimate D2E/DX2                !
 ! A19   A(4,5,6)              114.6172         estimate D2E/DX2                !
 ! A20   A(4,5,15)             110.5839         estimate D2E/DX2                !
 ! A21   A(4,5,16)             109.1782         estimate D2E/DX2                !
 ! A22   A(6,5,15)             108.7206         estimate D2E/DX2                !
 ! A23   A(6,5,16)             106.2503         estimate D2E/DX2                !
 ! A24   A(15,5,16)            107.1545         estimate D2E/DX2                !
 ! A25   A(5,6,7)              126.0345         estimate D2E/DX2                !
 ! A26   A(5,6,17)             115.7861         estimate D2E/DX2                !
 ! A27   A(7,6,17)             118.1689         estimate D2E/DX2                !
 ! A28   A(6,7,8)              120.3811         estimate D2E/DX2                !
 ! A29   A(3,8,7)              120.1091         estimate D2E/DX2                !
 ! A30   A(3,8,18)             109.3077         estimate D2E/DX2                !
 ! A31   A(3,8,19)             109.5178         estimate D2E/DX2                !
 ! A32   A(7,8,18)             108.3217         estimate D2E/DX2                !
 ! A33   A(7,8,19)             104.3453         estimate D2E/DX2                !
 ! A34   A(18,8,19)            104.0059         estimate D2E/DX2                !
 ! D1    D(9,1,2,3)            177.8122         estimate D2E/DX2                !
 ! D2    D(9,1,2,11)            55.0466         estimate D2E/DX2                !
 ! D3    D(9,1,2,12)           -62.0395         estimate D2E/DX2                !
 ! D4    D(10,1,2,3)            66.3785         estimate D2E/DX2                !
 ! D5    D(10,1,2,11)          -56.3871         estimate D2E/DX2                !
 ! D6    D(10,1,2,12)         -173.4731         estimate D2E/DX2                !
 ! D7    D(1,2,3,4)            -40.0939         estimate D2E/DX2                !
 ! D8    D(1,2,3,8)           -177.6721         estimate D2E/DX2                !
 ! D9    D(11,2,3,4)            82.0921         estimate D2E/DX2                !
 ! D10   D(11,2,3,8)           -55.4861         estimate D2E/DX2                !
 ! D11   D(12,2,3,4)          -159.1009         estimate D2E/DX2                !
 ! D12   D(12,2,3,8)            63.3209         estimate D2E/DX2                !
 ! D13   D(2,3,4,5)           -119.5092         estimate D2E/DX2                !
 ! D14   D(2,3,4,13)           113.2935         estimate D2E/DX2                !
 ! D15   D(2,3,4,14)            -0.0605         estimate D2E/DX2                !
 ! D16   D(8,3,4,5)             14.8356         estimate D2E/DX2                !
 ! D17   D(8,3,4,13)          -112.3618         estimate D2E/DX2                !
 ! D18   D(8,3,4,14)           134.2842         estimate D2E/DX2                !
 ! D19   D(2,3,8,7)            122.8539         estimate D2E/DX2                !
 ! D20   D(2,3,8,18)          -111.1166         estimate D2E/DX2                !
 ! D21   D(2,3,8,19)             2.2283         estimate D2E/DX2                !
 ! D22   D(4,3,8,7)            -14.3104         estimate D2E/DX2                !
 ! D23   D(4,3,8,18)           111.7191         estimate D2E/DX2                !
 ! D24   D(4,3,8,19)          -134.9359         estimate D2E/DX2                !
 ! D25   D(3,4,5,6)             -8.0692         estimate D2E/DX2                !
 ! D26   D(3,4,5,15)          -131.381          estimate D2E/DX2                !
 ! D27   D(3,4,5,16)           110.9606         estimate D2E/DX2                !
 ! D28   D(13,4,5,6)           118.5037         estimate D2E/DX2                !
 ! D29   D(13,4,5,15)           -4.8082         estimate D2E/DX2                !
 ! D30   D(13,4,5,16)         -122.4666         estimate D2E/DX2                !
 ! D31   D(14,4,5,6)          -132.2661         estimate D2E/DX2                !
 ! D32   D(14,4,5,15)          104.422          estimate D2E/DX2                !
 ! D33   D(14,4,5,16)          -13.2364         estimate D2E/DX2                !
 ! D34   D(4,5,6,7)              0.2527         estimate D2E/DX2                !
 ! D35   D(4,5,6,17)           179.0437         estimate D2E/DX2                !
 ! D36   D(15,5,6,7)           124.5582         estimate D2E/DX2                !
 ! D37   D(15,5,6,17)          -56.6507         estimate D2E/DX2                !
 ! D38   D(16,5,6,7)          -120.4073         estimate D2E/DX2                !
 ! D39   D(16,5,6,17)           58.3837         estimate D2E/DX2                !
 ! D40   D(5,6,7,8)              0.3493         estimate D2E/DX2                !
 ! D41   D(17,6,7,8)          -178.4159         estimate D2E/DX2                !
 ! D42   D(6,7,8,3)              6.8265         estimate D2E/DX2                !
 ! D43   D(6,7,8,18)          -119.661          estimate D2E/DX2                !
 ! D44   D(6,7,8,19)           129.984          estimate D2E/DX2                !
 --------------------------------------------------------------------------------
 Trust Radius=3.00D-01 FncErr=1.00D-07 GrdErr=1.00D-06 EigMax=2.50D+02 EigMin=1.00D-04
 Number of steps in this run=    107 maximum allowed number of steps=    114.
 GradGradGradGradGradGradGradGradGradGradGradGradGradGradGradGradGradGrad

                          Input orientation:                          
 ---------------------------------------------------------------------
 Center     Atomic      Atomic             Coordinates (Angstroms)
 Number     Number       Type             X           Y           Z
 ---------------------------------------------------------------------
      1          7           0        0.982610   -0.169490   -0.040510
      2          6           0        2.424280   -0.039000   -0.131000
      3          7           0        2.952600    1.036770    0.685640
      4          6           0        2.187900    2.264680    0.720420
      5          6           0        2.816920    3.543260    0.243050
      6          6           0        4.260460    3.445280   -0.054170
      7          7           0        4.983960    2.391640    0.056490
      8          6           0        4.397580    1.143200    0.502120
      9          1           0        0.698670   -0.917940   -0.668440
     10          1           0        0.547870    0.652560   -0.447520
     11          1           0        2.702650    0.113950   -1.177660
     12          1           0        2.854990   -0.989610    0.207350
     13          1           0        1.787840    2.399710    1.734260
     14          1           0        1.291430    2.202380    0.103680
     15          1           0        2.662100    4.344090    0.972720
     16          1           0        2.331950    3.857220   -0.689860
     17          1           0        4.737230    4.366570   -0.420900
     18          1           0        4.904240    0.834190    1.425030
     19          1           0        4.728570    0.405490   -0.242960
 ---------------------------------------------------------------------
                    Distance matrix (angstroms):
                    1          2          3          4          5
     1  N    0.000000
     2  C    1.450389   0.000000
     3  N    2.421408   1.450277   0.000000
     4  C    2.820802   2.467333   1.446976   0.000000
     5  C    4.150857   3.623074   2.548880   1.502769   0.000000
     6  C    4.879657   3.939247   2.838791   2.507850   1.477074
     7  N    4.751799   3.534844   2.521493   2.876608   2.461117
     8  C    3.698597   2.385865   1.460471   2.487581   2.885462
     9  H    1.017396   2.009753   3.276374   3.778334   5.021962
    10  H    1.015097   2.024686   2.685963   2.579285   3.739201
    11  H    2.081342   1.093792   2.094268   2.914329   3.713710
    12  H    2.059087   1.097110   2.084348   3.361347   4.533170
    13  H    3.224747   3.135531   2.076987   1.098250   2.142526
    14  H    2.396232   2.522342   2.111116   1.089912   2.035805
    15  H    4.921354   4.526172   3.332442   2.147665   1.094402
    16  H    4.296134   3.937179   3.198772   2.132094   1.097309
    17  H    5.900653   4.984258   3.936611   3.495660   2.192318
    18  H    4.305155   3.055142   2.096815   3.149806   3.618431
    19  H    3.795234   2.349438   2.101162   3.292369   3.706240
                    6          7          8          9         10
     6  C    0.000000
     7  N    1.282909   0.000000
     8  C    2.372305   1.449493   0.000000
     9  H    5.665807   5.462834   4.393227   0.000000
    10  H    4.662331   4.791380   3.995349   1.593115   0.000000
    11  H    3.845356   3.451865   2.598808   2.310852   2.338008
    12  H    4.659612   3.998515   2.648651   2.328489   2.906610
    13  H    3.225763   3.609731   3.147655   4.238639   3.057813
    14  H    3.222554   3.697678   3.305871   3.268628   1.805172
    15  H    2.101694   3.169002   3.671383   5.851275   4.484913
    16  H    2.071943   3.120596   3.612969   5.046802   3.675801
    17  H    1.100262   2.046735   3.370080   6.655621   5.598689
    18  H    3.069247   2.074827   1.097249   5.013920   4.745249
    19  H    3.081411   2.024768   1.099507   4.262933   4.192987
                   11         12         13         14         15
    11  H    0.000000
    12  H    1.777443   0.000000
    13  H    3.813247   3.867525   0.000000
    14  H    2.827528   3.555878   1.715853   0.000000
    15  H    4.745510   5.391786   2.263821   2.687171   0.000000
    16  H    3.793078   4.956846   2.880408   2.109712   1.763580
    17  H    4.774618   5.711934   4.148753   4.102736   2.499769
    18  H    3.484213   3.001402   3.501203   4.082929   4.189412
    19  H    2.250114   2.378946   4.066227   3.893957   4.610938
                   16         17         18         19
    16  H    0.000000
    17  H    2.473287   0.000000
    18  H    4.497571   3.989117   0.000000
    19  H    4.225866   3.965084   1.731137   0.000000
 Stoichiometry    C5H11N3
 Framework group  C1[X(C5H11N3)]
 Deg. of freedom    51
 Full point group                 C1      NOp   1
 Largest Abelian subgroup         C1      NOp   1
 Largest concise Abelian subgroup C1      NOp   1
                         Standard orientation:                         
 ---------------------------------------------------------------------
 Center     Atomic      Atomic             Coordinates (Angstroms)
 Number     Number       Type             X           Y           Z
 ---------------------------------------------------------------------
      1          7           0       -2.714930    0.440955   -0.145811
      2          6           0       -1.708767   -0.597890   -0.255643
      3          7           0       -0.505433   -0.309561    0.500769
      4          6           0       -0.034702    1.058549    0.480188
      5          6           0        1.331182    1.364185   -0.066862
      6          6           0        2.152225    0.174744   -0.371606
      7          7           0        1.797067   -1.047937   -0.214228
      8          6           0        0.480000   -1.368463    0.299218
      9          1           0       -3.502076    0.173959   -0.732505
     10          1           0       -2.370420    1.286193   -0.590004
     11          1           0       -1.461705   -0.743703   -1.311143
     12          1           0       -2.158509   -1.522732    0.126523
     13          1           0       -0.136846    1.479456    1.489424
     14          1           0       -0.675975    1.699581   -0.124589
     15          1           0        1.886796    2.007234    0.622701
     16          1           0        1.226738    1.915073   -1.010101
     17          1           0        3.150236    0.376146   -0.788724
     18          1           0        0.601509   -1.933315    1.232027
     19          1           0        0.083693   -2.108839   -0.410499
 ---------------------------------------------------------------------
 Rotational constants (GHZ):           3.9678705           1.5457228           1.2159949
 Standard basis: 6-31G(2df,p) (6D, 7F)
 There are   303 symmetry adapted cartesian basis functions of A   symmetry.
 There are   279 symmetry adapted basis functions of A   symmetry.
   279 basis functions,   429 primitive gaussians,   303 cartesian basis functions
    31 alpha electrons       31 beta electrons
       nuclear repulsion energy       395.0324589414 Hartrees.
 NAtoms=   19 NActive=   19 NUniq=   19 SFac= 1.00D+00 NAtFMM=   60 NAOKFM=F Big=F
 Integral buffers will be    131072 words long.
 Raffenetti 2 integral format.
 Two-electron integral symmetry is turned on.
 One-electron integrals computed using PRISM.
 PrsmSu:  requested number of processors reduced to:  13 ShMem   1 Linda.
 NBasis=   279 RedAO= T EigKep=  2.84D-04  NBF=   279
 NBsUse=   279 1.00D-06 EigRej= -1.00D+00 NBFU=   279
 ExpMin= 1.61D-01 ExpMax= 4.17D+03 ExpMxC= 6.27D+02 IAcc=3 IRadAn=         5 AccDes= 0.00D+00
 Harris functional with IExCor=  402 and IRadAn=       5 diagonalized for initial guess.
 HarFok:  IExCor=  402 AccDes= 0.00D+00 IRadAn=         5 IDoV= 1 UseB2=F ITyADJ=14
 ICtDFT=  3500011 ScaDFX=  1.000000  1.000000  1.000000  1.000000
 FoFCou: FMM=F IPFlag=           0 FMFlag=      100000 FMFlg1=           0
         NFxFlg=           0 DoJE=T BraDBF=F KetDBF=T FulRan=T
         wScrn=  0.000000 ICntrl=       500 IOpCl=  0 I1Cent=   200000004 NGrid=           0
         NMat0=    1 NMatS0=      1 NMatT0=    0 NMatD0=    1 NMtDS0=    0 NMtDT0=    0
 Petite list used in FoFCou.
 Requested convergence on RMS density matrix=1.00D-08 within 128 cycles.
 Requested convergence on MAX density matrix=1.00D-06.
 Requested convergence on             energy=1.00D-06.
 No special actions if energy rises.
 Integral accuracy reduced to 1.0D-05 until final iterations.
 Initial convergence to 1.0D-05 achieved.  Increase integral accuracy.
 SCF Done:  E(RB3LYP) =  -361.368169264     A.U. after   13 cycles
            NFock= 13  Conv=0.77D-08     -V/T= 2.0073

 **********************************************************************

            Population analysis using the SCF density.

 **********************************************************************

 Orbital symmetries:
       Occupied  (A) (A) (A) (A) (A) (A) (A) (A) (A) (A) (A) (A)
                 (A) (A) (A) (A) (A) (A) (A) (A) (A) (A) (A) (A)
                 (A) (A) (A) (A) (A) (A) (A)
       Virtual   (A) (A) (A) (A) (A) (A) (A) (A) (A) (A) (A) (A)
                 (A) (A) (A) (A) (A) (A) (A) (A) (A) (A) (A) (A)
                 (A) (A) (A) (A) (A) (A) (A) (A) (A) (A) (A) (A)
                 (A) (A) (A) (A) (A) (A) (A) (A) (A) (A) (A) (A)
                 (A) (A) (A) (A) (A) (A) (A) (A) (A) (A) (A) (A)
                 (A) (A) (A) (A) (A) (A) (A) (A) (A) (A) (A) (A)
                 (A) (A) (A) (A) (A) (A) (A) (A) (A) (A) (A) (A)
                 (A) (A) (A) (A) (A) (A) (A) (A) (A) (A) (A) (A)
                 (A) (A) (A) (A) (A) (A) (A) (A) (A) (A) (A) (A)
                 (A) (A) (A) (A) (A) (A) (A) (A) (A) (A) (A) (A)
                 (A) (A) (A) (A) (A) (A) (A) (A) (A) (A) (A) (A)
                 (A) (A) (A) (A) (A) (A) (A) (A) (A) (A) (A) (A)
                 (A) (A) (A) (A) (A) (A) (A) (A) (A) (A) (A) (A)
                 (A) (A) (A) (A) (A) (A) (A) (A) (A) (A) (A) (A)
                 (A) (A) (A) (A) (A) (A) (A) (A) (A) (A) (A) (A)
                 (A) (A) (A) (A) (A) (A) (A) (A) (A) (A) (A) (A)
                 (A) (A) (A) (A) (A) (A) (A) (A) (A) (A) (A) (A)
                 (A) (A) (A) (A) (A) (A) (A) (A) (A) (A) (A) (A)
                 (A) (A) (A) (A) (A) (A) (A) (A) (A) (A) (A) (A)
                 (A) (A) (A) (A) (A) (A) (A) (A) (A) (A) (A) (A)
                 (A) (A) (A) (A) (A) (A) (A) (A)
 The electronic state is 1-A.
 Alpha  occ. eigenvalues --  -14.31672 -14.31195 -14.30944 -10.22799 -10.22581
 Alpha  occ. eigenvalues --  -10.22115 -10.20685 -10.19026  -0.95016  -0.90103
 Alpha  occ. eigenvalues --   -0.85196  -0.78653  -0.68287  -0.66476  -0.60987
 Alpha  occ. eigenvalues --   -0.51728  -0.51386  -0.49029  -0.47654  -0.45788
 Alpha  occ. eigenvalues --   -0.44554  -0.42602  -0.40446  -0.39260  -0.37791
 Alpha  occ. eigenvalues --   -0.36664  -0.34719  -0.27895  -0.25514  -0.24024
 Alpha  occ. eigenvalues --   -0.19517
 Alpha virt. eigenvalues --    0.00755   0.06311   0.09924   0.10510   0.12122
 Alpha virt. eigenvalues --    0.13297   0.15355   0.16336   0.16958   0.17133
 Alpha virt. eigenvalues --    0.18435   0.19149   0.21407   0.22956   0.24175
 Alpha virt. eigenvalues --    0.25784   0.28065   0.31793   0.33753   0.38074
 Alpha virt. eigenvalues --    0.43541   0.46238   0.47404   0.49865   0.50071
 Alpha virt. eigenvalues --    0.51009   0.52481   0.53140   0.55692   0.57057
 Alpha virt. eigenvalues --    0.57464   0.60082   0.61815   0.62089   0.63066
 Alpha virt. eigenvalues --    0.65153   0.67880   0.70228   0.71538   0.71985
 Alpha virt. eigenvalues --    0.72774   0.74648   0.75936   0.76536   0.77408
 Alpha virt. eigenvalues --    0.79356   0.80176   0.80239   0.81567   0.82504
 Alpha virt. eigenvalues --    0.84240   0.85449   0.87201   0.87478   0.89262
 Alpha virt. eigenvalues --    0.91075   0.91650   0.95473   0.96039   1.02671
 Alpha virt. eigenvalues --    1.09002   1.10782   1.15410   1.16199   1.18239
 Alpha virt. eigenvalues --    1.22294   1.24006   1.24677   1.27856   1.30903
 Alpha virt. eigenvalues --    1.33343   1.34661   1.36479   1.38780   1.41627
 Alpha virt. eigenvalues --    1.43331   1.46665   1.48819   1.50499   1.53803
 Alpha virt. eigenvalues --    1.55486   1.56426   1.59834   1.62758   1.64274
 Alpha virt. eigenvalues --    1.65823   1.68710   1.69560   1.71692   1.74478
 Alpha virt. eigenvalues --    1.77622   1.81448   1.83458   1.87838   1.90962
 Alpha virt. eigenvalues --    1.93896   1.97903   2.02996   2.04435   2.08896
 Alpha virt. eigenvalues --    2.11975   2.12811   2.17375   2.22232   2.23700
 Alpha virt. eigenvalues --    2.24344   2.27304   2.30137   2.34813   2.38186
 Alpha virt. eigenvalues --    2.40035   2.41986   2.47484   2.49977   2.51867
 Alpha virt. eigenvalues --    2.53689   2.56706   2.57522   2.58482   2.65891
 Alpha virt. eigenvalues --    2.66992   2.72162   2.72690   2.74890   2.79509
 Alpha virt. eigenvalues --    2.82207   2.84173   2.84889   2.87531   2.90737
 Alpha virt. eigenvalues --    2.92031   2.92835   2.95427   2.97662   2.98720
 Alpha virt. eigenvalues --    3.00563   3.05637   3.07760   3.10258   3.13610
 Alpha virt. eigenvalues --    3.16708   3.20500   3.23522   3.25112   3.27877
 Alpha virt. eigenvalues --    3.30256   3.31765   3.33884   3.35508   3.38268
 Alpha virt. eigenvalues --    3.40040   3.42330   3.44000   3.45041   3.47535
 Alpha virt. eigenvalues --    3.50178   3.51715   3.53465   3.58519   3.61786
 Alpha virt. eigenvalues --    3.69437   3.71669   3.72687   3.73831   3.81492
 Alpha virt. eigenvalues --    3.83757   3.84709   3.89489   3.94579   3.95625
 Alpha virt. eigenvalues --    3.97372   3.98537   4.02653   4.04372   4.06495
 Alpha virt. eigenvalues --    4.11109   4.16456   4.17643   4.23190   4.24798
 Alpha virt. eigenvalues --    4.27181   4.28082   4.31542   4.34274   4.35623
 Alpha virt. eigenvalues --    4.37848   4.41553   4.43589   4.45222   4.46995
 Alpha virt. eigenvalues --    4.48187   4.51048   4.52578   4.53770   4.54896
 Alpha virt. eigenvalues --    4.57860   4.61602   4.62123   4.62531   4.65164
 Alpha virt. eigenvalues --    4.66177   4.71530   4.73245   4.74067   4.77989
 Alpha virt. eigenvalues --    4.81836   4.82905   4.85681   4.86248   4.89038
 Alpha virt. eigenvalues --    4.91153   4.92235   4.94740   4.95461   4.97752
 Alpha virt. eigenvalues --    5.00883   5.02778   5.05114   5.10105   5.11425
 Alpha virt. eigenvalues --    5.12999   5.15443   5.21004   5.25324   5.26955
 Alpha virt. eigenvalues --    5.29983   5.31603   5.38839   5.46323   5.52174
 Alpha virt. eigenvalues --    5.54618   5.57550   5.66960   5.74037   5.76667
 Alpha virt. eigenvalues --    5.98073   6.38433   9.93911  10.38299  10.99672
 Alpha virt. eigenvalues --   11.17838  11.44572  11.48434  11.58549  12.03529
 Alpha virt. eigenvalues --   12.51860  14.21123  17.99014
          Condensed to atoms (all electrons):
               1          2          3          4          5          6
     1  N    6.557207   0.398600  -0.029947  -0.003399  -0.000256  -0.000015
     2  C    0.398600   4.853942   0.391498  -0.079089   0.005585   0.000488
     3  N   -0.029947   0.391498   6.175692   0.443666  -0.025304  -0.005910
     4  C   -0.003399  -0.079089   0.443666   4.837878   0.348221  -0.026322
     5  C   -0.000256   0.005585  -0.025304   0.348221   5.073023   0.386633
     6  C   -0.000015   0.000488  -0.005910  -0.026322   0.386633   4.683726
     7  N   -0.000052  -0.000068  -0.048109  -0.014935  -0.042715   0.715003
     8  C    0.001802  -0.060959   0.387194  -0.063929  -0.025738  -0.104533
     9  H    0.335979  -0.043519   0.004054   0.000185  -0.000026   0.000002
    10  H    0.339871  -0.061380  -0.001071  -0.000371  -0.000933   0.000010
    11  H   -0.065952   0.363795  -0.068721   0.001187   0.002319  -0.000264
    12  H   -0.012837   0.352260  -0.020753   0.004107  -0.000284   0.000026
    13  H    0.001273   0.004098  -0.032814   0.384584  -0.057549  -0.000639
    14  H   -0.006637  -0.016266  -0.031465   0.351884  -0.020053   0.001803
    15  H   -0.000007  -0.000089   0.001588  -0.022581   0.354827  -0.023863
    16  H    0.000093  -0.000122   0.001705  -0.027192   0.353780  -0.023729
    17  H   -0.000000   0.000013  -0.000164   0.003345  -0.081557   0.368879
    18  H   -0.000099   0.005008  -0.037015   0.000456   0.000629   0.000414
    19  H    0.000089  -0.016677  -0.034031   0.005541   0.001152  -0.001016
               7          8          9         10         11         12
     1  N   -0.000052   0.001802   0.335979   0.339871  -0.065952  -0.012837
     2  C   -0.000068  -0.060959  -0.043519  -0.061380   0.363795   0.352260
     3  N   -0.048109   0.387194   0.004054  -0.001071  -0.068721  -0.020753
     4  C   -0.014935  -0.063929   0.000185  -0.000371   0.001187   0.004107
     5  C   -0.042715  -0.025738  -0.000026  -0.000933   0.002319  -0.000284
     6  C    0.715003  -0.104533   0.000002   0.000010  -0.000264   0.000026
     7  N    6.245520   0.409001   0.000004   0.000011   0.001922  -0.000111
     8  C    0.409001   4.864032  -0.000187  -0.000344  -0.000634  -0.005116
     9  H    0.000004  -0.000187   0.509723  -0.028837  -0.001795  -0.003097
    10  H    0.000011  -0.000344  -0.028837   0.523981  -0.008547   0.007340
    11  H    0.001922  -0.000634  -0.001795  -0.008547   0.766753  -0.067825
    12  H   -0.000111  -0.005116  -0.003097   0.007340  -0.067825   0.638885
    13  H   -0.000464   0.001606  -0.000027  -0.000014  -0.000878   0.000020
    14  H    0.000744   0.005293   0.000034   0.005098   0.005389  -0.000255
    15  H    0.000522   0.000436   0.000000   0.000016  -0.000015   0.000005
    16  H    0.000404   0.000734  -0.000003  -0.000022  -0.000154   0.000004
    17  H   -0.027068   0.006878   0.000000  -0.000000   0.000010  -0.000000
    18  H   -0.028139   0.355672   0.000002  -0.000000  -0.000899   0.002059
    19  H   -0.014918   0.345812  -0.000035  -0.000026   0.014853  -0.003139
              13         14         15         16         17         18
     1  N    0.001273  -0.006637  -0.000007   0.000093  -0.000000  -0.000099
     2  C    0.004098  -0.016266  -0.000089  -0.000122   0.000013   0.005008
     3  N   -0.032814  -0.031465   0.001588   0.001705  -0.000164  -0.037015
     4  C    0.384584   0.351884  -0.022581  -0.027192   0.003345   0.000456
     5  C   -0.057549  -0.020053   0.354827   0.353780  -0.081557   0.000629
     6  C   -0.000639   0.001803  -0.023863  -0.023729   0.368879   0.000414
     7  N   -0.000464   0.000744   0.000522   0.000404  -0.027068  -0.028139
     8  C    0.001606   0.005293   0.000436   0.000734   0.006878   0.355672
     9  H   -0.000027   0.000034   0.000000  -0.000003   0.000000   0.000002
    10  H   -0.000014   0.005098   0.000016  -0.000022  -0.000000  -0.000000
    11  H   -0.000878   0.005389  -0.000015  -0.000154   0.000010  -0.000899
    12  H    0.000020  -0.000255   0.000005   0.000004  -0.000000   0.002059
    13  H    0.656816  -0.057721  -0.009674   0.006043  -0.000166   0.000778
    14  H   -0.057721   0.688121   0.004080  -0.019347  -0.000182  -0.000340
    15  H   -0.009674   0.004080   0.610926  -0.037811  -0.000308   0.000195
    16  H    0.006043  -0.019347  -0.037811   0.628319   0.000874  -0.000042
    17  H   -0.000166  -0.000182  -0.000308   0.000874   0.629764  -0.000244
    18  H    0.000778  -0.000340   0.000195  -0.000042  -0.000244   0.638651
    19  H   -0.000381   0.000132  -0.000042   0.000108  -0.000175  -0.053352
              19
     1  N    0.000089
     2  C   -0.016677
     3  N   -0.034031
     4  C    0.005541
     5  C    0.001152
     6  C   -0.001016
     7  N   -0.014918
     8  C    0.345812
     9  H   -0.000035
    10  H   -0.000026
    11  H    0.014853
    12  H   -0.003139
    13  H   -0.000381
    14  H    0.000132
    15  H   -0.000042
    16  H    0.000108
    17  H   -0.000175
    18  H   -0.053352
    19  H    0.644179
 Mulliken charges:
               1
     1  N   -0.515711
     2  C   -0.097116
     3  N   -0.070092
     4  C   -0.143236
     5  C   -0.271754
     6  C    0.029308
     7  N   -0.196552
     8  C   -0.117019
     9  H    0.227542
    10  H    0.225219
    11  H    0.059456
    12  H    0.108711
    13  H    0.105108
    14  H    0.089689
    15  H    0.121794
    16  H    0.116359
    17  H    0.100102
    18  H    0.116265
    19  H    0.111928
 Sum of Mulliken charges =  -0.00000
 Mulliken charges with hydrogens summed into heavy atoms:
               1
     1  N   -0.062951
     2  C    0.071051
     3  N   -0.070092
     4  C    0.051561
     5  C   -0.033601
     6  C    0.129410
     7  N   -0.196552
     8  C    0.111174
 Electronic spatial extent (au):  <R**2>=           1018.9712
 Charge=             -0.0000 electrons
 Dipole moment (field-independent basis, Debye):
    X=             -0.5952    Y=              1.6976    Z=             -1.5575  Tot=              2.3795
 Quadrupole moment (field-independent basis, Debye-Ang):
   XX=            -50.4482   YY=            -47.4564   ZZ=            -49.6096
   XY=              5.6299   XZ=              5.4581   YZ=             -2.0242
 Traceless Quadrupole moment (field-independent basis, Debye-Ang):
   XX=             -1.2768   YY=              1.7150   ZZ=             -0.4382
   XY=              5.6299   XZ=              5.4581   YZ=             -2.0242
 Octapole moment (field-independent basis, Debye-Ang**2):
  XXX=            -12.2546  YYY=              2.8482  ZZZ=             -0.5098  XYY=             -8.6070
  XXY=              8.0015  XXZ=            -15.2000  XZZ=             -0.5847  YZZ=              1.6902
  YYZ=              0.8980  XYZ=              1.2926
 Hexadecapole moment (field-independent basis, Debye-Ang**3):
 XXXX=           -823.6851 YYYY=           -363.0009 ZZZZ=           -113.1476 XXXY=             36.4902
 XXXZ=             45.9532 YYYX=              4.3997 YYYZ=             -6.0507 ZZZX=              5.5251
 ZZZY=             -2.5135 XXYY=           -211.8788 XXZZ=           -159.3418 YYZZ=            -76.4961
 XXYZ=            -11.9846 YYXZ=              7.3661 ZZXY=             -0.4270
 N-N= 3.950324589414D+02 E-N=-1.629954349577D+03  KE= 3.587366760415D+02
 PrsmSu:  requested number of processors reduced to:  13 ShMem   1 Linda.
 Calling FoFJK, ICntrl=      2127 FMM=F ISym2X=0 I1Cent= 0 IOpClX= 0 NMat=1 NMatS=1 NMatT=0.
 ***** Axes restored to original set *****
 -------------------------------------------------------------------
 Center     Atomic                   Forces (Hartrees/Bohr)
 Number     Number              X              Y              Z
 -------------------------------------------------------------------
      1        7          -0.011504961   -0.002502722    0.003876981
      2        6          -0.006324533   -0.000466259   -0.004633931
      3        7           0.006147621   -0.001871768   -0.005679397
      4        6          -0.023683025   -0.005750412    0.013246267
      5        6           0.006787664    0.012083396   -0.007564204
      6        6           0.021591650   -0.017975019    0.001325410
      7        7          -0.006158216    0.018448763   -0.000070752
      8        6           0.002078411    0.000635169    0.000122280
      9        1           0.000942536   -0.002842594    0.003300135
     10        1          -0.001015604   -0.000293612    0.000368466
     11        1           0.009549826   -0.001382268   -0.011195547
     12        1           0.002355010    0.001076225   -0.000470512
     13        1           0.001657710    0.002272911    0.001829820
     14        1          -0.002895311   -0.008680618    0.001358047
     15        1          -0.001367434    0.003174377   -0.001268004
     16        1          -0.000730719    0.005405678    0.000972034
     17        1           0.001574380   -0.004879178    0.002252785
     18        1           0.003784661    0.004651264    0.002664141
     19        1          -0.002789666   -0.001103333   -0.000434018
 -------------------------------------------------------------------
 Cartesian Forces:  Max     0.023683025 RMS     0.007197571

 GradGradGradGradGradGradGradGradGradGradGradGradGradGradGradGradGradGrad
 Berny optimization.
 FormGI is forming the generalized inverse of G from B-inverse, IUseBI=4.
 Internal  Forces:  Max     0.026801882 RMS     0.005611785
 Search for a local minimum.
 Step number   1 out of a maximum of  107
 All quantities printed in internal units (Hartrees-Bohrs-Radians)
 Mixed Optimization -- RFO/linear search
 Second derivative matrix not updated -- first step.
 ITU=  0
     Eigenvalues ---    0.00861   0.00983   0.01025   0.01027   0.01501
     Eigenvalues ---    0.01693   0.02197   0.03341   0.03780   0.04708
     Eigenvalues ---    0.05023   0.05177   0.05657   0.05929   0.06730
     Eigenvalues ---    0.07368   0.09887   0.10167   0.10230   0.10651
     Eigenvalues ---    0.12293   0.12698   0.13374   0.13424   0.15998
     Eigenvalues ---    0.16000   0.16000   0.18403   0.20122   0.21890
     Eigenvalues ---    0.22066   0.23144   0.31418   0.33586   0.33653
     Eigenvalues ---    0.33737   0.33876   0.33981   0.33988   0.34004
     Eigenvalues ---    0.34309   0.34378   0.34823   0.36219   0.37273
     Eigenvalues ---    0.38194   0.38194   0.38209   0.44756   0.45130
     Eigenvalues ---    0.69578
 RFO step:  Lambda=-1.48256115D-02 EMin= 8.61282707D-03
 Linear search not attempted -- first point.
 Iteration  1 RMS(Cart)=  0.10759221 RMS(Int)=  0.00447890
 Iteration  2 RMS(Cart)=  0.00702895 RMS(Int)=  0.00066844
 Iteration  3 RMS(Cart)=  0.00002638 RMS(Int)=  0.00066815
 Iteration  4 RMS(Cart)=  0.00000002 RMS(Int)=  0.00066815
 Variable       Old X    -DE/DX   Delta X   Delta X   Delta X     New X
                                 (Linear)    (Quad)   (Total)
    R1        2.74084   0.01249   0.00000   0.03148   0.03148   2.77232
    R2        1.92260  -0.00021   0.00000  -0.00045  -0.00045   1.92215
    R3        1.91826   0.00005   0.00000   0.00011   0.00011   1.91837
    R4        2.74063   0.01187   0.00000   0.02990   0.02990   2.77053
    R5        2.06697   0.01295   0.00000   0.03611   0.03611   2.10308
    R6        2.07324  -0.00015   0.00000  -0.00043  -0.00043   2.07281
    R7        2.73439   0.00972   0.00000   0.02574   0.02608   2.76047
    R8        2.75989   0.00557   0.00000   0.01372   0.01401   2.77390
    R9        2.83982   0.02680   0.00000   0.08240   0.08250   2.92233
   R10        2.07539   0.00136   0.00000   0.00386   0.00386   2.07925
   R11        2.05964   0.00211   0.00000   0.00581   0.00581   2.06545
   R12        2.79127   0.01359   0.00000   0.03788   0.03758   2.82885
   R13        2.06812   0.00167   0.00000   0.00467   0.00467   2.07279
   R14        2.07361   0.00104   0.00000   0.00294   0.00294   2.07656
   R15        2.42435  -0.02335   0.00000  -0.03250  -0.03288   2.39147
   R16        2.07919  -0.00415   0.00000  -0.01182  -0.01182   2.06737
   R17        2.73914  -0.00254   0.00000  -0.00856  -0.00867   2.73048
   R18        2.07350   0.00268   0.00000   0.00756   0.00756   2.08105
   R19        2.07777   0.00019   0.00000   0.00055   0.00055   2.07832
    A1        1.88083  -0.00039   0.00000   0.00363   0.00351   1.88433
    A2        1.90480   0.00254   0.00000   0.02017   0.02005   1.92484
    A3        1.80160   0.00103   0.00000   0.01951   0.01923   1.82083
    A4        1.97545   0.00172   0.00000   0.01394   0.01161   1.98706
    A5        1.90208   0.00658   0.00000   0.07857   0.07672   1.97880
    A6        1.86819  -0.00204   0.00000  -0.03365  -0.03376   1.83443
    A7        1.92026  -0.00001   0.00000   0.02560   0.02255   1.94281
    A8        1.90291  -0.00429   0.00000  -0.05751  -0.05797   1.84494
    A9        1.89269  -0.00222   0.00000  -0.03111  -0.03022   1.86246
   A10        2.03810   0.00364   0.00000   0.03375   0.03257   2.07067
   A11        1.92168  -0.00067   0.00000   0.01447   0.01268   1.93436
   A12        2.05336  -0.00055   0.00000   0.01387   0.01290   2.06627
   A13        2.08652  -0.01199   0.00000  -0.05086  -0.05003   2.03648
   A14        1.89551   0.00566   0.00000   0.01674   0.01540   1.91090
   A15        1.95258  -0.00322   0.00000  -0.03154  -0.03049   1.92209
   A16        1.91890   0.00059   0.00000  -0.01064  -0.01151   1.90738
   A17        1.78561   0.01182   0.00000   0.07835   0.07794   1.86355
   A18        1.80265  -0.00157   0.00000   0.00682   0.00676   1.80941
   A19        2.00045  -0.00051   0.00000   0.00478   0.00462   2.00507
   A20        1.93005   0.00015   0.00000  -0.00340  -0.00368   1.92637
   A21        1.90552   0.00330   0.00000   0.03038   0.03040   1.93592
   A22        1.89753  -0.00027   0.00000  -0.01322  -0.01295   1.88458
   A23        1.85442  -0.00004   0.00000   0.01287   0.01204   1.86646
   A24        1.87020  -0.00284   0.00000  -0.03366  -0.03351   1.83669
   A25        2.19972   0.00530   0.00000   0.01718   0.01677   2.21648
   A26        2.02085   0.00106   0.00000   0.01278   0.01291   2.03376
   A27        2.06244  -0.00636   0.00000  -0.02962  -0.02949   2.03294
   A28        2.10105   0.00000   0.00000  -0.01328  -0.01361   2.08744
   A29        2.09630   0.00766   0.00000   0.02148   0.02190   2.11820
   A30        1.90778   0.00137   0.00000   0.01227   0.01215   1.91993
   A31        1.91145  -0.00462   0.00000  -0.01832  -0.01843   1.89302
   A32        1.89057  -0.00766   0.00000  -0.04959  -0.04943   1.84114
   A33        1.82117   0.00043   0.00000   0.01688   0.01660   1.83777
   A34        1.81525   0.00217   0.00000   0.01757   0.01776   1.83301
    D1        3.10341   0.00629   0.00000   0.13069   0.13164  -3.04813
    D2        0.96074   0.00031   0.00000   0.03083   0.02957   0.99031
    D3       -1.08279   0.00062   0.00000   0.04490   0.04544  -1.03736
    D4        1.15852   0.00407   0.00000   0.09652   0.09732   1.25584
    D5       -0.98414  -0.00191   0.00000  -0.00334  -0.00476  -0.98890
    D6       -3.02768  -0.00160   0.00000   0.01072   0.01111  -3.01657
    D7       -0.69977  -0.00555   0.00000  -0.11069  -0.11021  -0.80998
    D8       -3.10096  -0.00791   0.00000  -0.18598  -0.18641   2.99581
    D9        1.43278   0.00416   0.00000   0.01954   0.02016   1.45294
   D10       -0.96842   0.00181   0.00000  -0.05575  -0.05604  -1.02446
   D11       -2.77683  -0.00115   0.00000  -0.03799  -0.03772  -2.81455
   D12        1.10516  -0.00350   0.00000  -0.11328  -0.11392   0.99124
   D13       -2.08583  -0.00343   0.00000  -0.05003  -0.05067  -2.13650
   D14        1.97734   0.00047   0.00000  -0.00760  -0.00786   1.96948
   D15       -0.00106   0.00080   0.00000  -0.00855  -0.00820  -0.00925
   D16        0.25893  -0.00075   0.00000   0.03225   0.03213   0.29106
   D17       -1.96108   0.00315   0.00000   0.07468   0.07494  -1.88615
   D18        2.34370   0.00349   0.00000   0.07373   0.07460   2.41830
   D19        2.14421   0.00352   0.00000   0.05835   0.05794   2.20215
   D20       -1.93935   0.00039   0.00000   0.01735   0.01717  -1.92218
   D21        0.03889   0.00123   0.00000   0.03502   0.03477   0.07367
   D22       -0.24976  -0.00084   0.00000  -0.02709  -0.02735  -0.27712
   D23        1.94987  -0.00397   0.00000  -0.06809  -0.06813   1.88174
   D24       -2.35508  -0.00313   0.00000  -0.05042  -0.05052  -2.40560
   D25       -0.14083  -0.00109   0.00000  -0.03014  -0.03034  -0.17117
   D26       -2.29303  -0.00048   0.00000  -0.01342  -0.01367  -2.30670
   D27        1.93663   0.00089   0.00000   0.01123   0.01119   1.94781
   D28        2.06828  -0.00281   0.00000  -0.06074  -0.06047   2.00781
   D29       -0.08392  -0.00219   0.00000  -0.04402  -0.04379  -0.12771
   D30       -2.13744  -0.00082   0.00000  -0.01937  -0.01894  -2.15638
   D31       -2.30848   0.00108   0.00000  -0.02081  -0.02031  -2.32879
   D32        1.82251   0.00170   0.00000  -0.00409  -0.00364   1.81887
   D33       -0.23102   0.00307   0.00000   0.02056   0.02122  -0.20980
   D34        0.00441   0.00192   0.00000   0.01746   0.01810   0.02252
   D35        3.12490   0.00193   0.00000   0.03639   0.03681  -3.12147
   D36        2.17395   0.00154   0.00000   0.00605   0.00647   2.18042
   D37       -0.98874   0.00155   0.00000   0.02498   0.02518  -0.96356
   D38       -2.10150  -0.00190   0.00000  -0.03276  -0.03240  -2.13390
   D39        1.01899  -0.00189   0.00000  -0.01383  -0.01369   1.00530
   D40        0.00610  -0.00058   0.00000  -0.00191  -0.00179   0.00430
   D41       -3.11394  -0.00068   0.00000  -0.02172  -0.02096  -3.13490
   D42        0.11915   0.00007   0.00000   0.00468   0.00420   0.12334
   D43       -2.08848  -0.00093   0.00000   0.01699   0.01658  -2.07190
   D44        2.26865  -0.00053   0.00000   0.00928   0.00930   2.27795
         Item               Value     Threshold  Converged?
 Maximum Force            0.026802     0.000450     NO 
 RMS     Force            0.005612     0.000300     NO 
 Maximum Displacement     0.411540     0.001800     NO 
 RMS     Displacement     0.107291     0.001200     NO 
 Predicted change in Energy=-8.815403D-03
 GradGradGradGradGradGradGradGradGradGradGradGradGradGradGradGradGradGrad

                          Input orientation:                          
 ---------------------------------------------------------------------
 Center     Atomic      Atomic             Coordinates (Angstroms)
 Number     Number       Type             X           Y           Z
 ---------------------------------------------------------------------
      1          7           0        0.964320   -0.303237    0.013444
      2          6           0        2.387939   -0.027770   -0.209382
      3          7           0        2.912874    1.073831    0.603250
      4          6           0        2.144065    2.313381    0.682766
      5          6           0        2.864416    3.607104    0.236879
      6          6           0        4.334406    3.458524   -0.003834
      7          7           0        5.019474    2.399337    0.097754
      8          6           0        4.372642    1.164755    0.478769
      9          1           0        0.717592   -1.132069   -0.522067
     10          1           0        0.395720    0.434783   -0.389746
     11          1           0        2.649936    0.101204   -1.283287
     12          1           0        2.910827   -0.927645    0.136972
     13          1           0        1.763171    2.444006    1.706728
     14          1           0        1.237147    2.232911    0.078081
     15          1           0        2.721696    4.399676    0.981585
     16          1           0        2.426182    4.000347   -0.690925
     17          1           0        4.874518    4.362100   -0.301618
     18          1           0        4.850890    0.861472    1.423249
     19          1           0        4.706035    0.422242   -0.260879
 ---------------------------------------------------------------------
                    Distance matrix (angstroms):
                    1          2          3          4          5
     1  N    0.000000
     2  C    1.467047   0.000000
     3  N    2.457855   1.466101   0.000000
     4  C    2.947284   2.517218   1.460779   0.000000
     5  C    4.353281   3.693032   2.560088   1.546428   0.000000
     6  C    5.050607   3.998153   2.841843   2.565223   1.496960
     7  N    4.873940   3.593070   2.539736   2.935575   2.474335
     8  C    3.740079   2.415515   1.467885   2.515455   2.880682
     9  H    1.017157   2.026650   3.309319   3.918873   5.257814
    10  H    1.015156   2.053149   2.780375   2.781389   4.068260
    11  H    2.164806   1.112900   2.138729   3.002498   3.827303
    12  H    2.047934   1.096881   2.055073   3.374917   4.536087
    13  H    3.324563   3.189277   2.101632   1.100291   2.173935
    14  H    2.551599   2.552966   2.104122   1.092987   2.135797
    15  H    5.113028   4.596963   3.352750   2.185310   1.096871
    16  H    4.599349   4.056977   3.236704   2.193734   1.098867
    17  H    6.095432   5.046042   3.934406   3.552694   2.213709
    18  H    4.295291   3.085833   2.115042   3.159629   3.590550
    19  H    3.821257   2.361934   2.094448   3.321229   3.712503
                    6          7          8          9         10
     6  C    0.000000
     7  N    1.265510   0.000000
     8  C    2.344301   1.444907   0.000000
     9  H    5.867150   5.600106   4.431305   0.000000
    10  H    4.980481   5.047398   4.135588   1.605034   0.000000
    11  H    3.968128   3.578183   2.683970   2.415444   2.447689
    12  H    4.613555   3.939129   2.575241   2.299217   2.908505
    13  H    3.250618   3.632396   3.154949   4.341551   3.209689
    14  H    3.331944   3.786038   3.336591   3.457340   2.039639
    15  H    2.111315   3.172112   3.666492   6.072693   4.796988
    16  H    2.099282   3.148080   3.632833   5.411976   4.114211
    17  H    1.094005   2.008221   3.329250   6.893078   5.957451
    18  H    3.007990   2.037250   1.101247   4.984236   4.828825
    19  H    3.069722   2.033658   1.099798   4.288564   4.312259
                   11         12         13         14         15
    11  H    0.000000
    12  H    1.773057   0.000000
    13  H    3.900674   3.892207   0.000000
    14  H    2.897149   3.576840   1.724457   0.000000
    15  H    4.859183   5.397174   2.295484   2.777603   0.000000
    16  H    3.950225   5.020498   2.934368   2.264730   1.744730
    17  H    4.905882   5.659492   4.170494   4.231795   2.506524
    18  H    3.570370   2.935863   3.481203   4.092610   4.153001
    19  H    2.318604   2.281064   4.076696   3.927671   4.615333
                   16         17         18         19
    16  H    0.000000
    17  H    2.505349   0.000000
    18  H    4.494605   3.902579   0.000000
    19  H    4.264447   3.943670   1.746481   0.000000
 Stoichiometry    C5H11N3
 Framework group  C1[X(C5H11N3)]
 Deg. of freedom    51
 Full point group                 C1      NOp   1
 Largest Abelian subgroup         C1      NOp   1
 Largest concise Abelian subgroup C1      NOp   1
                         Standard orientation:                         
 ---------------------------------------------------------------------
 Center     Atomic      Atomic             Coordinates (Angstroms)
 Number     Number       Type             X           Y           Z
 ---------------------------------------------------------------------
      1          7           0       -2.828602    0.381665   -0.070865
      2          6           0       -1.733589   -0.566299   -0.304398
      3          7           0       -0.506704   -0.248043    0.432432
      4          6           0       -0.020520    1.129408    0.421112
      5          6           0        1.414288    1.355027   -0.109796
      6          6           0        2.207695    0.105107   -0.331372
      7          7           0        1.818492   -1.085698   -0.152423
      8          6           0        0.472450   -1.334767    0.310062
      9          1           0       -3.654952    0.030346   -0.548701
     10          1           0       -2.631489    1.266555   -0.527655
     11          1           0       -1.523671   -0.741419   -1.383200
     12          1           0       -2.088100   -1.519428    0.106717
     13          1           0       -0.105609    1.556992    1.431345
     14          1           0       -0.682143    1.756846   -0.181546
     15          1           0        1.979020    1.997216    0.577078
     16          1           0        1.398330    1.897717   -1.065170
     17          1           0        3.233686    0.234509   -0.688364
     18          1           0        0.584286   -1.851629    1.276028
     19          1           0        0.066389   -2.094023   -0.374191
 ---------------------------------------------------------------------
 Rotational constants (GHZ):           4.0520923           1.4653436           1.1610955
 Standard basis: 6-31G(2df,p) (6D, 7F)
 There are   303 symmetry adapted cartesian basis functions of A   symmetry.
 There are   279 symmetry adapted basis functions of A   symmetry.
   279 basis functions,   429 primitive gaussians,   303 cartesian basis functions
    31 alpha electrons       31 beta electrons
       nuclear repulsion energy       390.6489842997 Hartrees.
 NAtoms=   19 NActive=   19 NUniq=   19 SFac= 1.00D+00 NAtFMM=   60 NAOKFM=F Big=F
 Integral buffers will be    131072 words long.
 Raffenetti 2 integral format.
 Two-electron integral symmetry is turned on.
 One-electron integrals computed using PRISM.
 PrsmSu:  requested number of processors reduced to:  13 ShMem   1 Linda.
 NBasis=   279 RedAO= T EigKep=  2.90D-04  NBF=   279
 NBsUse=   279 1.00D-06 EigRej= -1.00D+00 NBFU=   279
 Initial guess from the checkpoint file:  "NCN1CCCdNC1.chk"
 B after Tr=    -0.000000   -0.000000   -0.000000
         Rot=    0.999907    0.013334   -0.000739    0.002902 Ang=   1.57 deg.
 ExpMin= 1.61D-01 ExpMax= 4.17D+03 ExpMxC= 6.27D+02 IAcc=2 IRadAn=         4 AccDes= 0.00D+00
 Harris functional with IExCor=  402 and IRadAn=       4 diagonalized for initial guess.
 HarFok:  IExCor=  402 AccDes= 0.00D+00 IRadAn=         4 IDoV= 1 UseB2=F ITyADJ=14
 ICtDFT=  3500011 ScaDFX=  1.000000  1.000000  1.000000  1.000000
 FoFCou: FMM=F IPFlag=           0 FMFlag=      100000 FMFlg1=           0
         NFxFlg=           0 DoJE=T BraDBF=F KetDBF=T FulRan=T
         wScrn=  0.000000 ICntrl=       500 IOpCl=  0 I1Cent=   200000004 NGrid=           0
         NMat0=    1 NMatS0=      1 NMatT0=    0 NMatD0=    1 NMtDS0=    0 NMtDT0=    0
 Petite list used in FoFCou.
 Requested convergence on RMS density matrix=1.00D-08 within 128 cycles.
 Requested convergence on MAX density matrix=1.00D-06.
 Requested convergence on             energy=1.00D-06.
 No special actions if energy rises.
 Integral accuracy reduced to 1.0D-05 until final iterations.
 Initial convergence to 1.0D-05 achieved.  Increase integral accuracy.
 SCF Done:  E(RB3LYP) =  -361.375481843     A.U. after   12 cycles
            NFock= 12  Conv=0.84D-08     -V/T= 2.0080
 PrsmSu:  requested number of processors reduced to:  13 ShMem   1 Linda.
 Calling FoFJK, ICntrl=      2127 FMM=F ISym2X=0 I1Cent= 0 IOpClX= 0 NMat=1 NMatS=1 NMatT=0.
 ***** Axes restored to original set *****
 -------------------------------------------------------------------
 Center     Atomic                   Forces (Hartrees/Bohr)
 Number     Number              X              Y              Z
 -------------------------------------------------------------------
      1        7           0.002391006    0.004910455    0.000079393
      2        6          -0.000526633   -0.001430943    0.003744107
      3        7           0.001364772    0.001355573   -0.008414403
      4        6          -0.004191911   -0.000374228    0.003025175
      5        6           0.000162885    0.000191498   -0.002903509
      6        6           0.002154913   -0.001750862    0.000903987
      7        7          -0.001863836    0.000263866   -0.000351524
      8        6           0.000027911   -0.005260616    0.003886340
      9        1           0.001438644   -0.000874407    0.002052666
     10        1          -0.000197072    0.001124952   -0.000653298
     11        1          -0.001689933    0.001646477   -0.000739031
     12        1           0.001613077   -0.000549002   -0.002828903
     13        1           0.002938902    0.001150271    0.000603072
     14        1          -0.000244608   -0.002400769   -0.001523424
     15        1          -0.000876169    0.000511133   -0.000087560
     16        1          -0.000878777   -0.000186836    0.000701120
     17        1          -0.000916737    0.001292621    0.000731414
     18        1           0.000408192    0.000459273    0.001134380
     19        1          -0.001114626   -0.000078453    0.000639997
 -------------------------------------------------------------------
 Cartesian Forces:  Max     0.008414403 RMS     0.002152033

 GradGradGradGradGradGradGradGradGradGradGradGradGradGradGradGradGradGrad
 Berny optimization.
 Using GEDIIS/GDIIS optimizer.
 FormGI is forming the generalized inverse of G from B-inverse, IUseBI=4.
 Internal  Forces:  Max     0.008603330 RMS     0.001865089
 Search for a local minimum.
 Step number   2 out of a maximum of  107
 All quantities printed in internal units (Hartrees-Bohrs-Radians)
 Mixed Optimization -- RFO/linear search
 Update second derivatives using D2CorX and points    1    2
 DE= -7.31D-03 DEPred=-8.82D-03 R= 8.30D-01
 TightC=F SS=  1.41D+00  RLast= 4.25D-01 DXNew= 5.0454D-01 1.2748D+00
 Trust test= 8.30D-01 RLast= 4.25D-01 DXMaxT set to 5.05D-01
 ITU=  1  0
 Use linear search instead of GDIIS.
     Eigenvalues ---    0.00859   0.00974   0.01024   0.01037   0.01486
     Eigenvalues ---    0.01683   0.01977   0.03491   0.03708   0.04634
     Eigenvalues ---    0.04801   0.05532   0.05546   0.06001   0.06857
     Eigenvalues ---    0.07311   0.09867   0.10098   0.10258   0.10347
     Eigenvalues ---    0.12297   0.12795   0.13005   0.13582   0.15976
     Eigenvalues ---    0.16000   0.16129   0.19245   0.20574   0.21555
     Eigenvalues ---    0.22118   0.24261   0.31587   0.33566   0.33699
     Eigenvalues ---    0.33748   0.33884   0.33951   0.33986   0.34005
     Eigenvalues ---    0.34271   0.34335   0.34818   0.36435   0.37346
     Eigenvalues ---    0.38111   0.38197   0.41450   0.44768   0.45173
     Eigenvalues ---    0.69484
 RFO step:  Lambda=-3.09158775D-03 EMin= 8.59237324D-03
 Quartic linear search produced a step of  0.02663.
 Iteration  1 RMS(Cart)=  0.05340740 RMS(Int)=  0.00152735
 Iteration  2 RMS(Cart)=  0.00216382 RMS(Int)=  0.00030000
 Iteration  3 RMS(Cart)=  0.00000339 RMS(Int)=  0.00029999
 Iteration  4 RMS(Cart)=  0.00000000 RMS(Int)=  0.00029999
 Variable       Old X    -DE/DX   Delta X   Delta X   Delta X     New X
                                 (Linear)    (Quad)   (Total)
    R1        2.77232  -0.00427   0.00084  -0.00767  -0.00684   2.76548
    R2        1.92215  -0.00072  -0.00001  -0.00166  -0.00167   1.92048
    R3        1.91837   0.00119   0.00000   0.00265   0.00265   1.92102
    R4        2.77053  -0.00563   0.00080  -0.01141  -0.01062   2.75991
    R5        2.10308   0.00051   0.00096   0.00547   0.00643   2.10950
    R6        2.07281   0.00033  -0.00001   0.00091   0.00090   2.07370
    R7        2.76047  -0.00124   0.00069  -0.00197  -0.00141   2.75907
    R8        2.77390  -0.00305   0.00037  -0.00827  -0.00781   2.76609
    R9        2.92233  -0.00104   0.00220   0.00587   0.00800   2.93033
   R10        2.07925  -0.00032   0.00010  -0.00052  -0.00041   2.07884
   R11        2.06545   0.00122   0.00015   0.00415   0.00430   2.06975
   R12        2.82885   0.00097   0.00100   0.00879   0.00976   2.83861
   R13        2.07279   0.00042   0.00012   0.00175   0.00187   2.07466
   R14        2.07656  -0.00031   0.00008  -0.00058  -0.00050   2.07606
   R15        2.39147   0.00096  -0.00088  -0.00144  -0.00227   2.38920
   R16        2.06737   0.00042  -0.00031  -0.00008  -0.00039   2.06698
   R17        2.73048   0.00062  -0.00023   0.00073   0.00058   2.73106
   R18        2.08105   0.00102   0.00020   0.00385   0.00405   2.08510
   R19        2.07832  -0.00072   0.00001  -0.00206  -0.00204   2.07628
    A1        1.88433  -0.00083   0.00009  -0.00188  -0.00180   1.88254
    A2        1.92484  -0.00054   0.00053   0.00158   0.00210   1.92695
    A3        1.82083   0.00127   0.00051   0.01615   0.01663   1.83746
    A4        1.98706  -0.00860   0.00031  -0.04054  -0.04034   1.94672
    A5        1.97880   0.00176   0.00204   0.00280   0.00449   1.98329
    A6        1.83443   0.00314  -0.00090   0.02251   0.02180   1.85622
    A7        1.94281   0.00284   0.00060   0.00432   0.00456   1.94737
    A8        1.84494   0.00273  -0.00154   0.01709   0.01579   1.86074
    A9        1.86246  -0.00128  -0.00080  -0.00094  -0.00188   1.86059
   A10        2.07067  -0.00613   0.00087  -0.01781  -0.01767   2.05300
   A11        1.93436   0.00314   0.00034   0.02697   0.02758   1.96194
   A12        2.06627   0.00369   0.00034   0.02088   0.02042   2.08668
   A13        2.03648  -0.00029  -0.00133  -0.01895  -0.02085   2.01563
   A14        1.91090   0.00076   0.00041   0.01058   0.01066   1.92156
   A15        1.92209  -0.00179  -0.00081  -0.02244  -0.02259   1.89950
   A16        1.90738  -0.00122  -0.00031  -0.00649  -0.00642   1.90097
   A17        1.86355   0.00148   0.00208   0.01903   0.02065   1.88420
   A18        1.80941   0.00123   0.00018   0.02328   0.02341   1.83282
   A19        2.00507  -0.00176   0.00012  -0.00714  -0.00738   1.99769
   A20        1.92637  -0.00017  -0.00010  -0.00676  -0.00703   1.91934
   A21        1.93592   0.00028   0.00081   0.00540   0.00646   1.94237
   A22        1.88458   0.00081  -0.00034  -0.00255  -0.00247   1.88212
   A23        1.86646   0.00146   0.00032   0.01934   0.01933   1.88578
   A24        1.83669  -0.00047  -0.00089  -0.00795  -0.00885   1.82784
   A25        2.21648   0.00052   0.00045   0.00646   0.00666   2.22315
   A26        2.03376  -0.00180   0.00034  -0.01037  -0.00996   2.02380
   A27        2.03294   0.00127  -0.00079   0.00394   0.00322   2.03617
   A28        2.08744   0.00106  -0.00036   0.00259   0.00206   2.08950
   A29        2.11820  -0.00335   0.00058  -0.01990  -0.01940   2.09881
   A30        1.91993   0.00073   0.00032   0.00766   0.00778   1.92772
   A31        1.89302   0.00017  -0.00049  -0.00395  -0.00427   1.88875
   A32        1.84114   0.00120  -0.00132  -0.00134  -0.00275   1.83838
   A33        1.83777   0.00149   0.00044   0.01233   0.01283   1.85060
   A34        1.83301   0.00020   0.00047   0.00935   0.00981   1.84282
    D1       -3.04813   0.00013   0.00351   0.05688   0.06056  -2.98757
    D2        0.99031   0.00228   0.00079   0.08492   0.08567   1.07598
    D3       -1.03736   0.00100   0.00121   0.07079   0.07189  -0.96547
    D4        1.25584  -0.00065   0.00259   0.03797   0.04073   1.29657
    D5       -0.98890   0.00151  -0.00013   0.06602   0.06584  -0.92306
    D6       -3.01657   0.00022   0.00030   0.05189   0.05205  -2.96451
    D7       -0.80998   0.00157  -0.00293  -0.04000  -0.04324  -0.85322
    D8        2.99581  -0.00111  -0.00496  -0.08990  -0.09480   2.90101
    D9        1.45294  -0.00093   0.00054  -0.06759  -0.06719   1.38574
   D10       -1.02446  -0.00361  -0.00149  -0.11749  -0.11876  -1.14321
   D11       -2.81455   0.00051  -0.00100  -0.05688  -0.05800  -2.87255
   D12        0.99124  -0.00216  -0.00303  -0.10678  -0.10956   0.88168
   D13       -2.13650  -0.00096  -0.00135   0.01976   0.01866  -2.11784
   D14        1.96948   0.00028  -0.00021   0.03431   0.03446   2.00394
   D15       -0.00925  -0.00065  -0.00022   0.01283   0.01310   0.00384
   D16        0.29106   0.00131   0.00086   0.07411   0.07520   0.36626
   D17       -1.88615   0.00255   0.00200   0.08866   0.09101  -1.79514
   D18        2.41830   0.00162   0.00199   0.06718   0.06964   2.48795
   D19        2.20215  -0.00153   0.00154  -0.01334  -0.01100   2.19115
   D20       -1.92218  -0.00191   0.00046  -0.02460  -0.02367  -1.94585
   D21        0.07367  -0.00119   0.00093  -0.01159  -0.01019   0.06348
   D22       -0.27712  -0.00003  -0.00073  -0.04666  -0.04760  -0.32472
   D23        1.88174  -0.00041  -0.00181  -0.05792  -0.06027   1.82147
   D24       -2.40560   0.00031  -0.00135  -0.04491  -0.04679  -2.45239
   D25       -0.17117  -0.00094  -0.00081  -0.05911  -0.05926  -0.23043
   D26       -2.30670  -0.00059  -0.00036  -0.04519  -0.04528  -2.35198
   D27        1.94781  -0.00008   0.00030  -0.03456  -0.03401   1.91381
   D28        2.00781  -0.00117  -0.00161  -0.06496  -0.06609   1.94173
   D29       -0.12771  -0.00083  -0.00117  -0.05104  -0.05211  -0.17982
   D30       -2.15638  -0.00031  -0.00050  -0.04041  -0.04084  -2.19722
   D31       -2.32879   0.00042  -0.00054  -0.03163  -0.03154  -2.36032
   D32        1.81887   0.00077  -0.00010  -0.01771  -0.01756   1.80131
   D33       -0.20980   0.00129   0.00056  -0.00708  -0.00628  -0.21609
   D34        0.02252   0.00105   0.00048   0.02445   0.02536   0.04787
   D35       -3.12147   0.00083   0.00098   0.04079   0.04179  -3.07968
   D36        2.18042   0.00023   0.00017   0.00866   0.00929   2.18971
   D37       -0.96356   0.00001   0.00067   0.02501   0.02572  -0.93784
   D38       -2.13390   0.00077  -0.00086   0.00762   0.00723  -2.12667
   D39        1.00530   0.00055  -0.00036   0.02396   0.02366   1.02896
   D40        0.00430  -0.00033  -0.00005   0.00473   0.00448   0.00878
   D41       -3.13490  -0.00011  -0.00056  -0.01159  -0.01203   3.13625
   D42        0.12334  -0.00063   0.00011   0.00240   0.00213   0.12548
   D43       -2.07190  -0.00019   0.00044   0.00843   0.00870  -2.06319
   D44        2.27795  -0.00148   0.00025  -0.00636  -0.00630   2.27165
         Item               Value     Threshold  Converged?
 Maximum Force            0.008603     0.000450     NO 
 RMS     Force            0.001865     0.000300     NO 
 Maximum Displacement     0.248246     0.001800     NO 
 RMS     Displacement     0.053463     0.001200     NO 
 Predicted change in Energy=-1.713590D-03
 GradGradGradGradGradGradGradGradGradGradGradGradGradGradGradGradGradGrad

                          Input orientation:                          
 ---------------------------------------------------------------------
 Center     Atomic      Atomic             Coordinates (Angstroms)
 Number     Number       Type             X           Y           Z
 ---------------------------------------------------------------------
      1          7           0        0.986891   -0.281494    0.056910
      2          6           0        2.388809   -0.005682   -0.259606
      3          7           0        2.922916    1.073293    0.567166
      4          6           0        2.138091    2.300233    0.668990
      5          6           0        2.857195    3.592864    0.203638
      6          6           0        4.339958    3.445653    0.013557
      7          7           0        5.029769    2.394124    0.143665
      8          6           0        4.383170    1.153240    0.505272
      9          1           0        0.716410   -1.127444   -0.437076
     10          1           0        0.388479    0.450145   -0.317256
     11          1           0        2.574771    0.178179   -1.344844
     12          1           0        2.949342   -0.911031    0.005606
     13          1           0        1.786932    2.439685    1.702140
     14          1           0        1.226580    2.187436    0.072308
     15          1           0        2.689695    4.397771    0.931214
     16          1           0        2.429657    3.971336   -0.734923
     17          1           0        4.880868    4.357299   -0.256094
     18          1           0        4.826448    0.864666    1.473619
     19          1           0        4.737870    0.404677   -0.216546
 ---------------------------------------------------------------------
                    Distance matrix (angstroms):
                    1          2          3          4          5
     1  N    0.000000
     2  C    1.463430   0.000000
     3  N    2.417437   1.460482   0.000000
     4  C    2.892269   2.498479   1.460035   0.000000
     5  C    4.304674   3.658349   2.546509   1.550663   0.000000
     6  C    5.013638   3.974081   2.818259   2.567060   1.502127
     7  N    4.848847   3.591151   2.522455   2.940508   2.482066
     8  C    3.714054   2.430147   1.463750   2.526416   2.893327
     9  H    1.016275   2.021574   3.274204   3.872148   5.222526
    10  H    1.016559   2.052418   2.755701   2.730687   4.030208
    11  H    2.167390   1.116302   2.139677   2.957927   3.760004
    12  H    2.061592   1.097356   2.062423   3.377932   4.509188
    13  H    3.278973   3.192259   2.108472   1.100072   2.172739
    14  H    2.480584   2.504138   2.088960   1.095264   2.156706
    15  H    5.055638   4.571541   3.352474   2.184650   1.097861
    16  H    4.560168   4.005529   3.215182   2.201946   1.098602
    17  H    6.064604   5.024537   3.911014   3.551073   2.211552
    18  H    4.250052   3.115070   2.118635   3.152070   3.596369
    19  H    3.823016   2.385024   2.086938   3.337089   3.725323
                    6          7          8          9         10
     6  C    0.000000
     7  N    1.264311   0.000000
     8  C    2.344954   1.445214   0.000000
     9  H    5.852041   5.598550   4.419804   0.000000
    10  H    4.969577   5.053026   4.138653   1.615760   0.000000
    11  H    3.954431   3.626718   2.764775   2.445854   2.431003
    12  H    4.573245   3.907849   2.562566   2.286654   2.918057
    13  H    3.221991   3.598182   3.134945   4.294959   3.160997
    14  H    3.358524   3.809470   3.349787   3.392369   1.967829
    15  H    2.114708   3.179746   3.684598   6.024456   4.736880
    16  H    2.117974   3.165454   3.646362   5.387159   4.091410
    17  H    1.093798   2.008989   3.330672   6.888967   5.954087
    18  H    3.004987   2.036997   1.103388   4.950926   4.803605
    19  H    3.075519   2.042757   1.098718   4.309080   4.350794
                   11         12         13         14         15
    11  H    0.000000
    12  H    1.774936   0.000000
    13  H    3.875463   3.931503   0.000000
    14  H    2.804113   3.545821   1.741832   0.000000
    15  H    4.795686   5.395141   2.289849   2.786397   0.000000
    16  H    3.844620   4.965477   2.949292   2.298111   1.739391
    17  H    4.895764   5.617346   4.133323   4.262625   2.492504
    18  H    3.672199   2.971815   3.430970   4.083190   4.164462
    19  H    2.450175   2.231428   4.065790   3.948521   4.632189
                   16         17         18         19
    16  H    0.000000
    17  H    2.527188   0.000000
    18  H    4.502628   3.897865   0.000000
    19  H    4.279909   3.955406   1.753879   0.000000
 Stoichiometry    C5H11N3
 Framework group  C1[X(C5H11N3)]
 Deg. of freedom    51
 Full point group                 C1      NOp   1
 Largest Abelian subgroup         C1      NOp   1
 Largest concise Abelian subgroup C1      NOp   1
                         Standard orientation:                         
 ---------------------------------------------------------------------
 Center     Atomic      Atomic             Coordinates (Angstroms)
 Number     Number       Type             X           Y           Z
 ---------------------------------------------------------------------
      1          7           0       -2.800677    0.360635   -0.019398
      2          6           0       -1.716623   -0.561047   -0.361388
      3          7           0       -0.501928   -0.263626    0.392976
      4          6           0       -0.045998    1.123073    0.422926
      5          6           0        1.383185    1.367598   -0.126800
      6          6           0        2.198363    0.120276   -0.316694
      7          7           0        1.829879   -1.073942   -0.125526
      8          6           0        0.481133   -1.345466    0.316970
      9          1           0       -3.651082    0.018028   -0.457857
     10          1           0       -2.634137    1.273404   -0.434739
     11          1           0       -1.513703   -0.626355   -1.457148
     12          1           0       -2.046999   -1.558099   -0.043696
     13          1           0       -0.106559    1.518847    1.447550
     14          1           0       -0.741466    1.736587   -0.159765
     15          1           0        1.936814    2.031352    0.550123
     16          1           0        1.355635    1.905264   -1.084445
     17          1           0        3.230749    0.268637   -0.646180
     18          1           0        0.589632   -1.837445    1.298626
     19          1           0        0.089844   -2.118291   -0.358911
 ---------------------------------------------------------------------
 Rotational constants (GHZ):           4.0514781           1.4840607           1.1722107
 Standard basis: 6-31G(2df,p) (6D, 7F)
 There are   303 symmetry adapted cartesian basis functions of A   symmetry.
 There are   279 symmetry adapted basis functions of A   symmetry.
   279 basis functions,   429 primitive gaussians,   303 cartesian basis functions
    31 alpha electrons       31 beta electrons
       nuclear repulsion energy       391.4883386858 Hartrees.
 NAtoms=   19 NActive=   19 NUniq=   19 SFac= 1.00D+00 NAtFMM=   60 NAOKFM=F Big=F
 Integral buffers will be    131072 words long.
 Raffenetti 2 integral format.
 Two-electron integral symmetry is turned on.
 One-electron integrals computed using PRISM.
 PrsmSu:  requested number of processors reduced to:  13 ShMem   1 Linda.
 NBasis=   279 RedAO= T EigKep=  2.92D-04  NBF=   279
 NBsUse=   279 1.00D-06 EigRej= -1.00D+00 NBFU=   279
 Initial guess from the checkpoint file:  "NCN1CCCdNC1.chk"
 B after Tr=     0.000000    0.000000    0.000000
         Rot=    0.999983   -0.004200    0.000154   -0.003929 Ang=  -0.66 deg.
 ExpMin= 1.61D-01 ExpMax= 4.17D+03 ExpMxC= 6.27D+02 IAcc=2 IRadAn=         4 AccDes= 0.00D+00
 Harris functional with IExCor=  402 and IRadAn=       4 diagonalized for initial guess.
 HarFok:  IExCor=  402 AccDes= 0.00D+00 IRadAn=         4 IDoV= 1 UseB2=F ITyADJ=14
 ICtDFT=  3500011 ScaDFX=  1.000000  1.000000  1.000000  1.000000
 FoFCou: FMM=F IPFlag=           0 FMFlag=      100000 FMFlg1=           0
         NFxFlg=           0 DoJE=T BraDBF=F KetDBF=T FulRan=T
         wScrn=  0.000000 ICntrl=       500 IOpCl=  0 I1Cent=   200000004 NGrid=           0
         NMat0=    1 NMatS0=      1 NMatT0=    0 NMatD0=    1 NMtDS0=    0 NMtDT0=    0
 Petite list used in FoFCou.
 Requested convergence on RMS density matrix=1.00D-08 within 128 cycles.
 Requested convergence on MAX density matrix=1.00D-06.
 Requested convergence on             energy=1.00D-06.
 No special actions if energy rises.
 Integral accuracy reduced to 1.0D-05 until final iterations.
 Initial convergence to 1.0D-05 achieved.  Increase integral accuracy.
 SCF Done:  E(RB3LYP) =  -361.377626461     A.U. after   11 cycles
            NFock= 11  Conv=0.84D-08     -V/T= 2.0080
 PrsmSu:  requested number of processors reduced to:  13 ShMem   1 Linda.
 Calling FoFJK, ICntrl=      2127 FMM=F ISym2X=0 I1Cent= 0 IOpClX= 0 NMat=1 NMatS=1 NMatT=0.
 ***** Axes restored to original set *****
 -------------------------------------------------------------------
 Center     Atomic                   Forces (Hartrees/Bohr)
 Number     Number              X              Y              Z
 -------------------------------------------------------------------
      1        7           0.001015692   -0.000139215   -0.001739022
      2        6          -0.000031611    0.003089062    0.003072885
      3        7           0.002076069   -0.001507796   -0.006031163
      4        6           0.001954816    0.000486258    0.000402953
      5        6          -0.001260390   -0.000985736   -0.000760050
      6        6          -0.001291708    0.000654493    0.001005843
      7        7           0.000743382   -0.001019332   -0.000868610
      8        6          -0.002954901   -0.001297494    0.004076405
      9        1          -0.000647934   -0.000425934    0.001056706
     10        1           0.000429134   -0.001504854   -0.000698627
     11        1          -0.002050811    0.000576053    0.000820408
     12        1          -0.000192358    0.000210141   -0.001640058
     13        1           0.001563071    0.000112186    0.000072922
     14        1           0.001169820    0.001052619    0.000950048
     15        1          -0.000324868    0.000291883   -0.000263798
     16        1           0.000343552   -0.001129942   -0.000246403
     17        1          -0.000347521    0.001067641    0.000037843
     18        1          -0.000036649    0.000269603    0.000032945
     19        1          -0.000156785    0.000200367    0.000718773
 -------------------------------------------------------------------
 Cartesian Forces:  Max     0.006031163 RMS     0.001498393

 GradGradGradGradGradGradGradGradGradGradGradGradGradGradGradGradGradGrad
 Berny optimization.
 Using GEDIIS/GDIIS optimizer.
 FormGI is forming the generalized inverse of G from B-inverse, IUseBI=4.
 Internal  Forces:  Max     0.003392658 RMS     0.000935073
 Search for a local minimum.
 Step number   3 out of a maximum of  107
 All quantities printed in internal units (Hartrees-Bohrs-Radians)
 Mixed Optimization -- En-DIIS/RFO-DIIS
 Update second derivatives using D2CorX and points    2    3
 DE= -2.14D-03 DEPred=-1.71D-03 R= 1.25D+00
 TightC=F SS=  1.41D+00  RLast= 3.58D-01 DXNew= 8.4853D-01 1.0739D+00
 Trust test= 1.25D+00 RLast= 3.58D-01 DXMaxT set to 8.49D-01
 ITU=  1  1  0
 Use linear search instead of GDIIS.
     Eigenvalues ---    0.00429   0.00905   0.01015   0.01028   0.01487
     Eigenvalues ---    0.01690   0.01811   0.03601   0.03741   0.04753
     Eigenvalues ---    0.04800   0.05647   0.05766   0.06122   0.06908
     Eigenvalues ---    0.07385   0.09940   0.10005   0.10098   0.10194
     Eigenvalues ---    0.12202   0.12707   0.13265   0.13360   0.15998
     Eigenvalues ---    0.16057   0.16148   0.19655   0.20819   0.21833
     Eigenvalues ---    0.23221   0.30211   0.31461   0.33566   0.33667
     Eigenvalues ---    0.33739   0.33878   0.33960   0.33983   0.34089
[...]
 589473,-0.00369829,0.03354156,-0.19044371,-0.03506453,-0.02291885,0.43
 883330,-0.00043156,-0.00134993,-0.00405706,0.00760667,-0.03379659,-0.0
 0925271,-0.02135599,-0.00037844,-0.07804611,0.05498996,0.04869606,0.55
 276279,0.00021529,0.00018432,0.00035776,-0.00009201,-0.00033111,-0.001
 52103,0.01219227,-0.00148006,-0.00412192,-0.11033325,-0.02179360,0.033
 87110,0.44365119,-0.00016422,-0.00013716,-0.00076504,0.00071625,0.0000
 7344,0.00398628,-0.01397281,-0.04322219,0.02013539,-0.02252366,-0.0953
 9649,0.02888209,-0.00198080,0.54969620,0.00022807,-0.00036963,-0.00078
 998,-0.00140851,-0.00024423,0.00449372,-0.00444523,0.00143056,0.006863
 44,0.03568006,0.02803140,-0.12411378,0.02850891,0.01839108,0.51633069,
 -0.00069919,0.00047939,-0.00049272,-0.00101387,-0.00095958,0.00028835,
 -0.00445914,0.00602604,-0.00045242,-0.02971971,-0.00815523,0.00776756,
 -0.17678436,0.02098859,0.01223001,0.56035590,0.00026816,0.00005935,0.0
 0007023,-0.00062413,-0.00133288,-0.00192624,0.01257133,0.00186092,-0.0
 0352010,-0.02069402,0.01468756,-0.00142077,0.01752666,-0.09536400,0.00
 298073,-0.05834884,0.75062365,0.00008823,-0.00019122,0.00021591,-0.000
 13893,0.00090995,0.00046346,-0.00620587,-0.00326405,0.00287295,0.02478
 545,-0.00876473,-0.00039736,0.00892067,0.00158037,-0.08447220,-0.04294
 039,-0.28612893,0.32796303,0.00088122,-0.00138220,-0.00021190,0.000612
 47,0.00350127,0.00821738,-0.04974898,-0.02329473,0.01470199,0.00651709
 ,-0.00520505,-0.00238119,-0.00792383,0.03823257,-0.01372775,-0.1632883
 6,0.12163106,-0.04266654,0.30603291,-0.00135021,-0.00042270,-0.0008450
 4,0.00138533,-0.00036421,0.00120734,-0.01581948,0.01116533,0.00302478,
 -0.00206682,-0.00811350,0.00088049,0.02569466,-0.00809967,0.01532703,0
 .16307362,-0.48290980,0.18723164,-0.10353701,0.67216588,-0.00042738,0.
 00043677,-0.00028519,0.00009855,-0.00162301,0.00054997,0.00837158,-0.0
 0495038,0.00888150,-0.00075380,0.00389230,-0.00090872,-0.00520994,0.01
 702284,0.02600233,-0.06491322,0.19486736,-0.14231503,0.02388443,-0.268
 14970,0.23139203,-0.00371776,0.00247888,-0.00047128,-0.02305875,-0.011
 68461,-0.01394486,-0.16445638,0.03368082,-0.04603682,-0.01733776,0.022
 23896,0.00400056,-0.00353279,-0.00229690,-0.00269942,0.01172615,0.0016
 3433,-0.00227871,-0.10685238,-0.04837905,0.02926683,0.41186640,0.00021
 743,-0.00239926,-0.00065584,-0.01396822,0.00757785,0.00541249,0.014377
 34,-0.10222865,-0.01342250,0.04354473,-0.01225988,0.00533325,-0.003785
 68,0.00192885,-0.00323080,-0.02418661,-0.04251337,0.03207324,-0.013099
 46,-0.12108850,0.01445805,-0.05744233,0.59103449,-0.00017415,-0.000551
 71,0.00167639,-0.03631981,0.00529471,-0.01420856,-0.01169663,-0.010938
 79,-0.08517636,0.00261279,0.00367249,0.00230438,-0.00021828,-0.0054046
 3,-0.00914987,0.01296409,0.02484387,-0.01289524,0.00805169,0.02027141,
 -0.09651736,0.04562789,0.05833120,0.56303820,-0.04501807,-0.07750559,-
 0.09456291,-0.00463128,0.01074378,-0.00079681,0.00002876,-0.00267091,-
 0.00095995,-0.00042192,0.00019526,-0.00049438,-0.00001200,-0.00012788,
 -0.00008088,0.00010236,-0.00005866,0.00002755,-0.00012809,-0.00013152,
 0.00012206,0.00088694,-0.00032148,-0.00037472,0.04563022,-0.04892707,-
 0.12329696,-0.13064703,-0.01017618,-0.01521965,-0.03567170,0.00131872,
 -0.00804259,0.00081765,-0.00159952,-0.00036995,-0.00103945,0.00010598,
 -0.00020530,-0.00025433,0.00005754,0.00005357,-0.00002488,-0.00030253,
 0.00011951,0.00007514,0.00076280,-0.00018290,0.00024141,0.05566475,0.1
 4089298,-0.05676819,-0.15114631,-0.33100822,-0.00096082,0.00798174,0.0
 0453309,-0.00020521,-0.00060475,-0.00034608,-0.00061133,0.00049775,0.0
 0108928,0.00008838,-0.00035221,-0.00007960,0.00002930,0.00004198,-0.00
 003544,-0.00023217,0.00001869,0.00009462,0.00051668,0.00001882,0.00012
 154,0.07050867,0.15583374,0.34730924,-0.20630263,-0.08489455,0.2128968
 5,-0.00251318,0.00783650,-0.00224546,-0.00036281,0.00057638,-0.0009046
 2,0.00031177,-0.00026427,-0.00041711,-0.00005767,0.00030689,0.00009156
 ,0.00001644,-0.00003913,-0.00003389,-0.00001722,0.00015489,-0.00011219
 ,-0.00085447,-0.00048401,-0.00010330,0.00239114,0.00315481,-0.01304009
 ,0.20340972,-0.06224589,-0.07403550,0.04544050,-0.02963449,-0.01439811
 ,0.03267732,0.00178689,0.00307471,-0.00066744,0.00024930,-0.00035368,-
 0.00015336,-0.00005064,0.00018251,0.00020525,0.00004164,-0.00005899,-0
 .00000778,0.00043856,0.00005715,-0.00004651,-0.00076949,0.00009696,0.0
 0000444,0.01491311,0.00491478,-0.01287786,0.07482587,0.08598541,0.1661
 7726,0.05138947,-0.22059217,0.00495783,0.00429677,-0.00455413,0.000045
 68,0.00049291,0.00155804,0.00026825,-0.00051816,-0.00018982,-0.0000507
 2,0.00015652,-0.00010382,-0.00002016,-0.00005147,0.00000748,0.00009136
 ,-0.00002905,-0.00019508,-0.00071725,-0.00015110,-0.00027170,0.0255631
 1,0.00971464,-0.02213063,-0.19542916,-0.06511892,0.24446820,0.00709216
 ,0.00427612,-0.00040244,-0.24637629,0.07019570,-0.02821898,-0.01641196
 ,0.00326897,-0.00678363,-0.00016792,0.00195158,0.00079875,-0.00029309,
 -0.00047566,0.00014888,-0.00025394,0.00047890,-0.00005407,0.00016354,-
 0.00034701,-0.00001392,0.00196761,-0.00107508,-0.00252366,0.00050933,0
 .00076934,0.00032512,0.00229752,0.00043215,-0.00010917,0.26798536,0.03
 035052,-0.03044247,0.00697382,0.07586003,-0.07558424,0.01316931,-0.012
 03935,0.00431357,-0.00319844,-0.00273991,0.00023402,-0.00133991,0.0002
 1598,0.00001793,-0.00031912,-0.00001887,0.00019771,-0.00018416,-0.0000
 0156,0.00026378,0.00017230,-0.00091550,-0.00100348,-0.00340065,-0.0001
 3633,0.00072537,0.00076233,-0.00034300,0.00194846,-0.00163234,-0.08459
 165,0.09526128,-0.00371140,0.00343939,0.00352622,-0.01978198,0.0102304
 4,-0.05748673,-0.03425726,0.00607530,-0.01167273,-0.00219643,0.0017660
 5,0.00063900,0.00036518,-0.00051162,-0.00002015,-0.00004944,0.00029946
 ,-0.00020200,-0.00096845,-0.00000542,0.00054163,0.00075866,-0.00312290
 ,-0.00450649,0.00027712,-0.00008643,-0.00004749,-0.00121465,0.00003926
 ,0.00026656,0.03752587,-0.00992105,0.06450300,0.00170014,-0.00057245,-
 0.00001406,-0.13376683,-0.02596428,0.10360750,0.01139754,0.00167949,-0
 .01228076,0.00002168,0.00083916,0.00000739,-0.00041386,-0.00030899,0.0
 0082569,0.00055405,-0.00107108,0.00010762,0.00091727,0.00025383,0.0005
 4242,0.00157008,0.00138873,-0.00089708,0.00000432,-0.00060573,0.000290
 64,0.00177398,-0.00015345,-0.00085965,-0.01773562,-0.00426697,0.023315
 52,0.13407855,-0.02128887,-0.01606143,0.03267562,-0.02062804,-0.058800
 70,0.03036321,0.00668841,0.00290860,-0.01845749,0.00019502,0.00254679,
 -0.00084847,-0.00020729,-0.00028915,0.00063770,-0.00027615,-0.00037544
 ,-0.00012127,-0.00032424,0.00003770,0.00055511,0.00211263,0.00015035,0
 .00098905,-0.00037895,0.00111790,-0.00015476,-0.00064890,-0.00761381,0
 .00131998,0.00666659,0.00414258,-0.00820366,0.02895239,0.07360376,0.00
 406148,0.00516383,-0.00396614,0.10139439,0.03762045,-0.18620687,0.0068
 7381,-0.00521500,-0.03589646,-0.00068730,0.00430501,-0.00076870,0.0003
 8155,-0.00072973,-0.00028524,-0.00019049,-0.00023429,0.00013934,-0.002
 01617,0.00010677,0.00073920,0.00538785,-0.00125729,0.00186753,0.000605
 65,0.00079236,0.00049671,0.00014560,0.00077273,0.00144133,-0.00093627,
 -0.00059560,0.00434576,-0.11405519,-0.03899714,0.21730011,0.00045305,-
 0.00001667,0.00010798,-0.00116841,0.00067712,-0.00065075,0.00198033,0.
 00418759,0.00726531,-0.06327664,-0.01400563,-0.05156547,0.00340974,0.0
 0309287,0.01879672,0.00122093,-0.00024085,0.00067273,-0.00022645,0.000
 22820,-0.00054429,0.00027546,0.00036896,0.00124689,0.00008555,0.000055
 57,-0.00004401,-0.00006615,0.00007731,-0.00001668,0.00082523,-0.000347
 99,0.00031000,0.00043388,-0.00023397,-0.00019080,0.06147118,-0.0000863
 8,-0.00078204,-0.00142652,0.00483988,-0.00363398,0.00004554,-0.0096233
 4,-0.02249332,-0.03413849,-0.01083546,-0.06132677,-0.05793291,0.002510
 74,0.00381345,0.01834230,0.00119176,-0.00062445,-0.00009107,0.00059419
 ,0.00071602,-0.00014962,-0.00243573,0.00114880,-0.00107199,-0.00021731
 ,-0.00045335,0.00019461,-0.00001621,0.00004053,-0.00002661,-0.00015323
 ,0.00006341,0.00029649,-0.00022864,-0.00041368,-0.00104077,0.01620901,
 0.08268147,0.00009512,-0.00004556,-0.00017877,0.00117529,0.00077629,0.
 00129311,-0.00146148,-0.00645943,0.00054756,-0.04952347,-0.06270687,-0
 .27095314,-0.00398729,-0.00300312,-0.02194002,-0.00138486,0.00085779,0
 .00009876,0.00074918,-0.00058448,-0.00004848,-0.00058650,0.00022139,0.
 00017080,-0.00000859,-0.00003690,0.00003524,-0.00000700,0.00002190,-0.
 00000245,0.00016401,-0.00000742,0.00010381,0.00005662,0.00000692,-0.00
 011974,0.05206424,0.06923623,0.29467059,0.00083633,-0.00026777,0.00033
 379,-0.00037778,-0.00140003,-0.00166580,-0.00750514,0.00623030,-0.0028
 3540,-0.29389999,0.03135550,-0.04028444,-0.01675307,0.00132983,-0.0024
 1464,0.00054200,-0.00358214,0.00242343,0.00020220,0.00000077,-0.000619
 54,0.00219230,0.00144525,0.00157156,0.00008731,0.00006933,0.00008936,-
 0.00011159,0.00003303,-0.00014919,0.00093424,0.00006641,0.00086404,-0.
 00007007,0.00003684,0.00022276,-0.00525025,0.00024696,-0.00117247,0.31
 965751,-0.00038339,0.00051063,0.00006791,0.00291441,0.00064647,0.00182
 872,0.03765895,-0.01057513,0.00760904,0.02384431,-0.05154733,0.0026152
 5,-0.01826367,0.00453900,-0.00280116,-0.00081003,-0.00316638,0.0029337
 3,0.00005106,0.00086106,-0.00044940,-0.00134608,-0.00734838,-0.0026613
 1,0.00003537,0.00005954,-0.00001621,0.00012342,-0.00006495,0.00007361,
 -0.00097964,0.00004796,-0.00066106,-0.00045055,-0.00003717,-0.00036356
 ,-0.00859200,0.00169721,-0.00068833,-0.03581959,0.06334032,-0.00010498
 ,0.00044129,-0.00004133,0.00184376,-0.00112523,0.00025847,0.00150549,-
 0.00091190,-0.00031077,-0.04295772,0.00496967,-0.05545241,0.02322519,-
 0.00229058,0.00224818,0.00133870,0.00432684,-0.00267245,-0.00004034,-0
 .00043867,0.00020031,0.00019280,-0.00004572,0.00049775,0.00016230,-0.0
 0001762,0.00000670,0.00001586,0.00003408,0.00000758,-0.00033509,-0.000
 22348,0.00003166,-0.00023224,-0.00003240,-0.00000171,-0.02876610,0.004
 12472,-0.00386877,0.04337067,-0.00734362,0.05716354,0.00006943,-0.0002
 1525,-0.00011175,0.00035276,0.00034704,0.00096779,-0.00105473,-0.00371
 408,0.00275535,0.00168000,-0.01570165,-0.00704348,-0.04542043,0.000637
 83,0.00412704,0.00078614,0.03503905,0.00867406,-0.00611091,-0.00090567
 ,-0.00359493,-0.00199379,-0.00026506,0.00147869,-0.00005000,-0.0000489
 0,-0.00006081,0.00005212,0.00003830,0.00000649,0.00010140,0.00001087,-
 0.00001894,-0.00006039,0.00021959,-0.00018232,0.00097980,0.00056726,-0
 .00025268,-0.00036612,0.00046795,-0.00028790,0.04920824,0.00001991,-0.
 00030180,-0.00024384,0.00053769,0.00103353,0.00142724,-0.00196628,-0.0
 0364008,0.00293395,0.00217670,-0.01377138,-0.00655234,-0.00023896,-0.2
 8138083,-0.06699754,0.00114623,-0.01189958,-0.00081377,0.00214095,0.00
 210548,-0.00083241,-0.00193651,0.00015775,-0.00057727,-0.00007185,-0.0
 0004463,-0.00006585,0.00006792,0.00008734,0.00002976,-0.00008268,-0.00
 000359,-0.00007067,0.00009015,0.00018337,-0.00027092,0.00049057,0.0007
 2741,0.00040289,-0.00050104,-0.00007506,0.00012169,-0.00255426,0.30803
 107,-0.00009025,0.00017683,0.00049067,-0.00013952,-0.00019159,-0.00152
 555,0.00216896,0.00495530,-0.00219431,-0.00259128,0.01938815,0.0064029
 2,0.00361167,-0.06790437,-0.06393441,-0.00213771,0.00122574,-0.0006834
 6,-0.00000997,-0.00014531,0.00010373,0.00164677,-0.00003624,0.00030265
 ,0.00006329,0.00014035,0.00007900,-0.00003964,-0.00013032,-0.00002745,
 0.00009084,0.00001275,0.00005196,-0.00016513,0.00013778,0.00047064,-0.
 00073711,-0.00017555,0.00082347,0.00023908,-0.00048503,0.00022480,-0.0
 0180978,0.07237670,0.06860370,-0.00014508,-0.00003610,0.00018651,0.000
 80613,-0.00042229,-0.00103077,0.00069627,0.00085204,-0.00097604,0.0066
 7039,0.00211007,0.02031072,-0.08105881,-0.00677901,-0.09174613,-0.0118
 2844,0.00112773,-0.03165780,-0.00232978,0.00219836,0.00604614,-0.00205
 972,-0.00142721,-0.00200043,0.00001954,0.00000667,0.00001742,-0.000020
 32,-0.00008087,0.00003203,-0.00015985,0.00009316,0.00005747,-0.0002799
 5,-0.00028766,0.00030761,-0.00159664,-0.00281918,0.00314790,0.00134773
 ,0.00060216,-0.00027977,0.00032003,-0.00020681,-0.00000622,0.08899608,
 -0.00002383,0.00007814,-0.00034510,0.00001505,-0.00033721,0.00068474,-
 0.00002774,0.00095677,-0.00068734,0.00675734,0.00146043,0.01690087,-0.
 00584551,-0.04415664,-0.00938807,0.00630002,-0.00156885,0.01275056,0.0
 0170585,-0.00116321,-0.00252310,0.00046880,0.00025572,0.00073655,0.000
 00301,-0.00005333,-0.00000836,0.00002659,0.00010419,0.00003379,-0.0001
 8997,0.00006935,-0.00000558,0.00019559,-0.00076921,-0.00036150,-0.0017
 0762,-0.00114933,0.00236833,0.00046657,0.00085478,-0.00085393,-0.01273
 236,-0.00218053,-0.02920539,0.00459496,0.04758630,0.00002553,-0.000033
 01,0.00043189,-0.00027325,0.00010424,-0.00078486,0.00002938,-0.0000590
 5,0.00082111,-0.00618252,-0.00277929,-0.01989717,-0.08514460,-0.010058
 97,-0.25757494,-0.00209122,0.00215552,0.00194620,-0.00029044,-0.001627
 24,0.00027586,0.00062705,0.00015487,0.00015548,0.00000542,0.00010019,0
 .00001631,-0.00000600,-0.00011288,-0.00003066,0.00021162,0.00002944,-0
 .00001684,-0.00029675,0.00014735,0.00058256,0.00256176,0.00299665,-0.0
 0133972,0.00010334,-0.00029178,0.00115103,-0.00398188,-0.00107407,-0.0
 0948820,0.09568528,0.01023688,0.28400173,0.00013270,-0.00021284,0.0000
 0120,0.00020637,0.00026738,0.00012562,0.00142460,-0.00031389,-0.000592
 47,-0.00461943,0.00514734,-0.00237797,-0.01664121,-0.01704068,0.014640
 90,-0.18289263,-0.10251840,0.07720914,0.01578438,0.00629014,-0.0072724
 0,0.00049184,0.00399010,0.00071227,-0.00004725,-0.00001955,-0.00000375
 ,-0.00000152,0.00002634,0.00000599,0.00008572,0.00001831,0.00006777,-0
 .00008346,-0.00005704,-0.00008775,-0.00005971,-0.00007143,0.00021674,-
 0.00095623,-0.00118552,0.00137749,0.00096719,0.00061101,0.00026894,-0.
 00003353,0.00006958,-0.00087996,0.18578676,-0.00006970,-0.00006083,-0.
 00008215,0.00018309,0.00035001,0.00029783,-0.00149224,0.00035465,-0.00
 048940,0.00265166,-0.00033560,0.00021295,0.00739054,0.00770186,-0.0023
 8577,-0.10021134,-0.12858066,0.06156306,-0.01623092,-0.03593071,0.0174
 3245,0.00459899,0.00319470,0.00639125,-0.00004696,0.00000846,-0.000014
 83,0.00002852,0.00002751,0.00003149,-0.00011913,0.00000781,-0.00010313
 ,-0.00001402,-0.00011784,-0.00017087,-0.00008196,-0.00010871,0.0001120
 3,0.00047351,0.00049242,-0.00054384,-0.00122185,0.00089752,-0.00002248
 ,0.00009276,0.00013835,0.00019981,0.10487879,0.15362465,0.00009409,0.0
 0011961,0.00012523,0.00017715,-0.00004267,-0.00075164,0.00090610,0.000
 59071,-0.00087678,0.00013729,0.00063803,0.00138314,0.00102930,0.001228
 12,0.00707136,0.07484592,0.06188817,-0.08927366,0.00446297,0.01373806,
 -0.01558909,0.00045642,0.00628185,0.01440334,0.00003619,-0.00001062,-0
 .00000979,0.00000012,-0.00002453,0.00003045,0.00002859,0.00002779,0.00
 006864,-0.00017463,-0.00006883,-0.00000132,-0.00021612,-0.00017975,0.0
 0019185,0.00005039,0.00007964,-0.00006436,-0.00074493,0.00020631,0.000
 34059,0.00232781,-0.00017347,-0.00058819,-0.08320120,-0.08365303,0.083
 78106,0.00077447,-0.00028727,0.00037414,-0.00393271,0.00542106,-0.0009
 5720,-0.01986614,-0.00434044,-0.03389247,0.00072009,-0.00304687,-0.001
 25731,-0.00002374,0.00087873,0.00094247,-0.00234803,-0.00099047,0.0013
 9631,0.00368337,-0.00246825,0.02063460,-0.04875055,0.00013538,-0.03557
 370,-0.00013938,0.00002567,0.00004300,-0.00000964,0.00003928,-0.000032
 13,-0.00094288,-0.00081626,-0.00141089,-0.00000310,-0.00016649,-0.0005
 3540,0.00031935,0.00064326,0.00064712,0.00013284,-0.00008355,0.0000908
 4,0.00037986,0.00019274,-0.00022048,0.00034734,-0.00007381,0.00000787,
 -0.00006906,-0.00105543,-0.00148136,0.06784259,-0.00048031,0.00028388,
 -0.00008176,0.00103719,-0.00046154,0.00016533,0.00144804,0.00227136,0.
 00634777,0.00005043,0.00029940,0.00139063,0.00044970,0.00027573,0.0012
 4108,-0.00343332,0.00054882,0.00130923,-0.00177282,-0.00550550,0.02959
 344,0.00118151,-0.04631112,-0.01904154,-0.00000572,-0.00004745,-0.0000
 5258,-0.00030710,0.00004840,-0.00006716,0.00001205,0.00009947,0.000317
 00,0.00028221,-0.00015363,0.00000795,-0.00005086,0.00004769,-0.0004060
 4,-0.00003429,0.00015401,-0.00014322,-0.00001986,0.00010771,-0.0001255
 4,0.00040394,-0.00017587,-0.00004235,-0.00024016,-0.00169126,-0.001831
 99,0.00582185,0.05038707,-0.00002759,0.00003679,0.00001460,0.00007489,
 0.00183461,0.00120624,-0.00731735,-0.00284686,-0.00156518,0.00041878,-
 0.00021035,-0.00039822,-0.00034229,-0.00038251,-0.00107461,0.00317636,
 -0.00222381,0.00028609,0.00288219,0.00791961,-0.01877594,-0.04139179,-
 0.01484173,-0.28520919,-0.00003143,-0.00002235,-0.00001278,-0.00012695
 ,0.00005816,-0.00002959,-0.00015269,-0.00019392,-0.00019821,0.00025656
 ,-0.00004110,0.00003483,-0.00031762,0.00070025,0.00013696,-0.00005953,
 0.00013731,0.00031497,0.00012491,-0.00000838,-0.00004613,-0.00040519,-
 0.00007833,0.00021491,0.00016412,0.00131863,0.00114328,0.04480742,0.01
 016211,0.31385909,-0.00044173,-0.00046034,0.00028020,0.00021807,0.0036
 4252,0.00067841,-0.01423218,0.03416471,0.00996453,-0.00659333,-0.00138
 343,-0.00174382,-0.00012838,-0.00051292,0.00030228,-0.00201629,-0.0021
 0954,0.00167101,0.00183156,-0.02427480,-0.00550500,-0.05836241,0.05058
 721,0.01561588,0.00070253,-0.00031171,0.00001781,0.00006451,0.00003307
 ,0.00023611,0.00037943,-0.00039789,0.00006778,-0.00003823,-0.00037388,
 -0.00049901,0.00018973,-0.00031613,0.00006812,-0.00064224,0.00221641,-
 0.00011897,0.00015941,0.00008453,-0.00014246,0.00030862,-0.00000252,-0
 .00011062,0.00052447,0.00024567,0.00126589,0.00188530,-0.00434247,-0.0
 0173279,0.07619114,-0.00253649,-0.00019556,-0.00088234,-0.00031182,-0.
 00085812,-0.00127536,0.00597761,-0.00598326,-0.00138998,0.00123070,0.0
 0118619,-0.00009940,-0.00010129,0.00002244,-0.00059650,-0.00290487,0.0
 0036283,-0.00075988,-0.00314499,-0.02389411,0.00021836,0.05804847,-0.2
 7020995,-0.07712847,0.00011790,0.00002402,-0.00005592,-0.00010460,-0.0
 0004290,0.00005588,-0.00003735,-0.00035893,0.00022816,-0.00004539,-0.0
 0005899,0.00046758,-0.00010966,0.00004962,-0.00006565,-0.00014945,-0.0
 0038898,-0.00004807,0.00005106,-0.00003369,0.00000823,-0.00002272,0.00
 005015,-0.00004631,0.00036051,0.00002767,0.00118658,0.00017086,-0.0001
 7718,-0.00131812,-0.05648849,0.30047877,-0.00089244,-0.00005723,-0.001
 21821,-0.00097895,0.00129817,0.00032700,-0.00439784,0.00681757,0.00249
 821,-0.00144007,0.00014825,-0.00014632,0.00023638,0.00002008,0.0005288
 9,0.00203234,0.00194793,-0.00104638,-0.00049627,0.02209909,0.00585371,
 0.01964512,-0.08552104,-0.07660327,-0.00006169,0.00009583,-0.00011168,
 0.00053009,-0.00011405,0.00034784,0.00023621,-0.00013166,0.00007240,-0
 .00003445,0.00009242,-0.00017182,0.00002332,0.00029650,0.00037892,-0.0
 0006742,0.00041624,0.00030679,-0.00004495,0.00000854,0.00000537,-0.000
 01652,-0.00008154,0.00012349,-0.00037468,-0.00009398,-0.00138414,0.006
 41717,-0.02874236,-0.00990112,-0.02031536,0.08150122,0.08014033\\0.000
 02185,-0.00000733,-0.00001655,-0.00000262,0.00002060,0.00007555,-0.000
 02701,0.00000189,-0.00004887,-0.00001128,-0.00004602,0.00002870,0.0000
 1269,-0.00003511,-0.00002498,0.00001229,-0.00000651,0.00000389,-0.0000
 2775,0.00001850,0.00000627,0.00001879,0.00000792,-0.00000142,0.0000007
 9,-0.00000028,0.00000560,0.00000217,0.00001191,-0.00000045,-0.00000862
 ,0.00000302,-0.00001214,0.00000791,-0.00000186,-0.00000396,-0.00000077
 ,0.00000325,-0.00000052,0.00000706,0.00000420,-0.00000472,-0.00000794,
 0.00001094,0.00001054,0.00000343,0.00001505,-0.00000217,-0.00000129,-0
 .00000501,-0.00000301,-0.00000164,0.00000099,0.00000037,0.00000192,0.0
 0000386,-0.00001212\\\@


 You don't have to suffer to be a poet.
 Adolescence is enough suffering for anyone.
                             -- John Ciardi
 Job cpu time:       0 days  1 hours 53 minutes 50.1 seconds.
 Elapsed time:       0 days  0 hours 28 minutes 47.9 seconds.
 File lengths (MBytes):  RWF=    117 Int=      0 D2E=      0 Chk=      8 Scr=      1
 Normal termination of Gaussian 16 at Wed Jun  2 00:56:48 2021.
### All Done ###
