### Starting Gaussian ###
 Entering Gaussian System, Link 0=g16
 Initial command:
 /cluster/software/gaussian/gaussian-16-A.03/avx2/g16/l1.exe "/local/scratch/linjian/Gau-13415.inp" -scrdir="/local/scratch/linjian/"
 Entering Link 1 = /cluster/software/gaussian/gaussian-16-A.03/avx2/g16/l1.exe PID=     13416.
  
 Copyright (c) 1988,1990,1992,1993,1995,1998,2003,2009,2016,
            Gaussian, Inc.  All Rights Reserved.
  
 This is part of the Gaussian(R) 16 program.  It is based on
 the Gaussian(R) 09 system (copyright 2009, Gaussian, Inc.),
 the Gaussian(R) 03 system (copyright 2003, Gaussian, Inc.),
 the Gaussian(R) 98 system (copyright 1998, Gaussian, Inc.),
 the Gaussian(R) 94 system (copyright 1995, Gaussian, Inc.),
 the Gaussian 92(TM) system (copyright 1992, Gaussian, Inc.),
 the Gaussian 90(TM) system (copyright 1990, Gaussian, Inc.),
 the Gaussian 88(TM) system (copyright 1988, Gaussian, Inc.),
 the Gaussian 86(TM) system (copyright 1986, Carnegie Mellon
 University), and the Gaussian 82(TM) system (copyright 1983,
 Carnegie Mellon University). Gaussian is a federally registered
 trademark of Gaussian, Inc.
  
 This software contains proprietary and confidential information,
 including trade secrets, belonging to Gaussian, Inc.
  
 This software is provided under written license and may be
 used, copied, transmitted, or stored only in accord with that
 written license.
  
 The following legend is applicable only to US Government
 contracts under FAR:
  
                    RESTRICTED RIGHTS LEGEND
  
 Use, reproduction and disclosure by the US Government is
 subject to restrictions as set forth in subparagraphs (a)
 and (c) of the Commercial Computer Software - Restricted
 Rights clause in FAR 52.227-19.
  
 Gaussian, Inc.
 340 Quinnipiac St., Bldg. 40, Wallingford CT 06492
  
  
 ---------------------------------------------------------------
 Warning -- This program may not be used in any manner that
 competes with the business of Gaussian, Inc. or will provide
 assistance to any competitor of Gaussian, Inc.  The licensee
 of this program is prohibited from giving any competitor of
 Gaussian, Inc. access to this program.  By using this program,
 the user acknowledges that Gaussian, Inc. is engaged in the
 business of creating and licensing software in the field of
 computational chemistry and represents and warrants to the
 licensee that it is not a competitor of Gaussian, Inc. and that
 it will not use this program in any manner prohibited above.
 ---------------------------------------------------------------
  

 Cite this work as:
 Gaussian 16, Revision A.03,
 M. J. Frisch, G. W. Trucks, H. B. Schlegel, G. E. Scuseria, 
 M. A. Robb, J. R. Cheeseman, G. Scalmani, V. Barone, 
 G. A. Petersson, H. Nakatsuji, X. Li, M. Caricato, A. V. Marenich, 
 J. Bloino, B. G. Janesko, R. Gomperts, B. Mennucci, H. P. Hratchian, 
 J. V. Ortiz, A. F. Izmaylov, J. L. Sonnenberg, D. Williams-Young, 
 F. Ding, F. Lipparini, F. Egidi, J. Goings, B. Peng, A. Petrone, 
 T. Henderson, D. Ranasinghe, V. G. Zakrzewski, J. Gao, N. Rega, 
 G. Zheng, W. Liang, M. Hada, M. Ehara, K. Toyota, R. Fukuda, 
 J. Hasegawa, M. Ishida, T. Nakajima, Y. Honda, O. Kitao, H. Nakai, 
 T. Vreven, K. Throssell, J. A. Montgomery, Jr., J. E. Peralta, 
 F. Ogliaro, M. J. Bearpark, J. J. Heyd, E. N. Brothers, K. N. Kudin, 
 V. N. Staroverov, T. A. Keith, R. Kobayashi, J. Normand, 
 K. Raghavachari, A. P. Rendell, J. C. Burant, S. S. Iyengar, 
 J. Tomasi, M. Cossi, J. M. Millam, M. Klene, C. Adamo, R. Cammi, 
 J. W. Ochterski, R. L. Martin, K. Morokuma, O. Farkas, 
 J. B. Foresman, and D. J. Fox, Gaussian, Inc., Wallingford CT, 2016.
 
 ******************************************
 Gaussian 16:  ES64L-G16RevA.03 25-Dec-2016
                31-May-2021 
 ******************************************
 %chk=NCNdNCNCpNpF.chk
 %NProcShared=20
 Will use up to   20 processors via shared memory.
 -----------------------------
 # opt freq b3lyp/6-31g(2df,p)
 -----------------------------
 1/18=20,19=15,26=3,38=1/1,3;
 2/9=110,12=2,17=6,18=5,40=1/2;
 3/5=1,6=6,7=104,11=2,25=1,30=1,71=1,74=-5/1,2,3;
 4//1;
 5/5=2,38=5/2;
 6/7=2,8=2,9=2,10=2,28=1/1;
 7//1,2,3,16;
 1/18=20,19=15,26=3/3(2);
 2/9=110/2;
 99//99;
 2/9=110/2;
 3/5=1,6=6,7=104,11=2,25=1,30=1,71=1,74=-5/1,2,3;
 4/5=5,16=3,69=1/1;
 5/5=2,38=5/2;
 7//1,2,3,16;
 1/18=20,19=15,26=3/3(-5);
 2/9=110/2;
 6/7=2,8=2,9=2,10=2,19=2,28=1/1;
 99/9=1/99;
 -------------------
 Title Card Required
 -------------------
 Symbolic Z-matrix:
 Charge =  0 Multiplicity = 1
 N                     0.96668   0.08198  -0.04126 
 C                     2.42213   0.11811  -0.07356 
 N                     2.90465   1.42628  -0.52099 
 N                     4.15265   1.49249  -0.58975 
 C                     4.59251   2.84777  -0.96491 
 N                     6.03758   2.99431  -0.87752 
 C                     6.51668   4.24002  -1.39856 
 N                     6.17997   5.28216  -0.48119 
 F                     7.86657   4.15602  -1.40875 
 H                     0.6619   -0.85696   0.20512 
 H                     0.62517   0.26386  -0.98194 
 H                     2.78204  -0.66512  -0.75047 
 H                     2.80072  -0.09889   0.93135 
 H                     4.11593   3.55706  -0.27803 
 H                     4.24291   3.06241  -1.98197 
 H                     6.45813   2.26674  -1.45227 
 H                     6.19032   4.45273  -2.42156 
 H                     6.51      4.9567    0.42543 
 H                     5.17561   5.35615  -0.40851 
 

 GradGradGradGradGradGradGradGradGradGradGradGradGradGradGradGradGradGrad
 Berny optimization.
 Initialization pass.
                           ----------------------------
                           !    Initial Parameters    !
                           ! (Angstroms and Degrees)  !
 --------------------------                            --------------------------
 ! Name  Definition              Value          Derivative Info.                !
 --------------------------------------------------------------------------------
 ! R1    R(1,2)                  1.4563         estimate D2E/DX2                !
 ! R2    R(1,10)                 1.0174         estimate D2E/DX2                !
 ! R3    R(1,11)                 1.0171         estimate D2E/DX2                !
 ! R4    R(2,3)                  1.4644         estimate D2E/DX2                !
 ! R5    R(2,12)                 1.096          estimate D2E/DX2                !
 ! R6    R(2,13)                 1.0956         estimate D2E/DX2                !
 ! R7    R(3,4)                  1.2516         estimate D2E/DX2                !
 ! R8    R(4,5)                  1.4734         estimate D2E/DX2                !
 ! R9    R(5,6)                  1.4551         estimate D2E/DX2                !
 ! R10   R(5,14)                 1.0964         estimate D2E/DX2                !
 ! R11   R(5,15)                 1.0967         estimate D2E/DX2                !
 ! R12   R(6,7)                  1.4328         estimate D2E/DX2                !
 ! R13   R(6,16)                 1.0181         estimate D2E/DX2                !
 ! R14   R(7,8)                  1.4286         estimate D2E/DX2                !
 ! R15   R(7,9)                  1.3525         estimate D2E/DX2                !
 ! R16   R(7,17)                 1.0947         estimate D2E/DX2                !
 ! R17   R(8,18)                 1.0182         estimate D2E/DX2                !
 ! R18   R(8,19)                 1.0097         estimate D2E/DX2                !
 ! A1    A(2,1,10)             109.1264         estimate D2E/DX2                !
 ! A2    A(2,1,11)             108.0965         estimate D2E/DX2                !
 ! A3    A(10,1,11)            106.7616         estimate D2E/DX2                !
 ! A4    A(1,2,3)              110.994          estimate D2E/DX2                !
 ! A5    A(1,2,12)             108.9156         estimate D2E/DX2                !
 ! A6    A(1,2,13)             108.6699         estimate D2E/DX2                !
 ! A7    A(3,2,12)             109.9678         estimate D2E/DX2                !
 ! A8    A(3,2,13)             110.0807         estimate D2E/DX2                !
 ! A9    A(12,2,13)            108.149          estimate D2E/DX2                !
 ! A10   A(2,3,4)              113.1159         estimate D2E/DX2                !
 ! A11   A(3,4,5)              111.1187         estimate D2E/DX2                !
 ! A12   A(4,5,6)              111.9507         estimate D2E/DX2                !
 ! A13   A(4,5,14)             107.8052         estimate D2E/DX2                !
 ! A14   A(4,5,15)             108.7228         estimate D2E/DX2                !
 ! A15   A(6,5,14)             109.2028         estimate D2E/DX2                !
 ! A16   A(6,5,15)             110.6445         estimate D2E/DX2                !
 ! A17   A(14,5,15)            108.411          estimate D2E/DX2                !
 ! A18   A(5,6,7)              113.4408         estimate D2E/DX2                !
 ! A19   A(5,6,16)             107.7188         estimate D2E/DX2                !
 ! A20   A(7,6,16)             106.1353         estimate D2E/DX2                !
 ! A21   A(6,7,8)              108.778          estimate D2E/DX2                !
 ! A22   A(6,7,9)              106.408          estimate D2E/DX2                !
 ! A23   A(6,7,17)             114.1487         estimate D2E/DX2                !
 ! A24   A(8,7,9)              106.5808         estimate D2E/DX2                !
 ! A25   A(8,7,17)             112.8351         estimate D2E/DX2                !
 ! A26   A(9,7,17)             107.6127         estimate D2E/DX2                !
 ! A27   A(7,8,18)             105.2001         estimate D2E/DX2                !
 ! A28   A(7,8,19)             109.5188         estimate D2E/DX2                !
 ! A29   A(18,8,19)            106.3638         estimate D2E/DX2                !
 ! D1    D(10,1,2,3)           175.8062         estimate D2E/DX2                !
 ! D2    D(10,1,2,12)           54.5977         estimate D2E/DX2                !
 ! D3    D(10,1,2,13)          -63.0059         estimate D2E/DX2                !
 ! D4    D(11,1,2,3)            60.0557         estimate D2E/DX2                !
 ! D5    D(11,1,2,12)          -61.1528         estimate D2E/DX2                !
 ! D6    D(11,1,2,13)         -178.7563         estimate D2E/DX2                !
 ! D7    D(1,2,3,4)           -178.623          estimate D2E/DX2                !
 ! D8    D(12,2,3,4)           -58.0351         estimate D2E/DX2                !
 ! D9    D(13,2,3,4)            61.0223         estimate D2E/DX2                !
 ! D10   D(2,3,4,5)           -176.5891         estimate D2E/DX2                !
 ! D11   D(3,4,5,6)            172.3717         estimate D2E/DX2                !
 ! D12   D(3,4,5,14)            52.246          estimate D2E/DX2                !
 ! D13   D(3,4,5,15)           -65.0834         estimate D2E/DX2                !
 ! D14   D(4,5,6,7)            172.378          estimate D2E/DX2                !
 ! D15   D(4,5,6,16)            55.2151         estimate D2E/DX2                !
 ! D16   D(14,5,6,7)           -68.3159         estimate D2E/DX2                !
 ! D17   D(14,5,6,16)          174.5213         estimate D2E/DX2                !
 ! D18   D(15,5,6,7)            50.9335         estimate D2E/DX2                !
 ! D19   D(15,5,6,16)          -66.2294         estimate D2E/DX2                !
 ! D20   D(5,6,7,8)             73.2673         estimate D2E/DX2                !
 ! D21   D(5,6,7,9)           -172.2559         estimate D2E/DX2                !
 ! D22   D(5,6,7,17)           -53.7205         estimate D2E/DX2                !
 ! D23   D(16,6,7,8)          -168.6488         estimate D2E/DX2                !
 ! D24   D(16,6,7,9)           -54.172          estimate D2E/DX2                !
 ! D25   D(16,6,7,17)           64.3633         estimate D2E/DX2                !
 ! D26   D(6,7,8,18)            50.7787         estimate D2E/DX2                !
 ! D27   D(6,7,8,19)           -63.1791         estimate D2E/DX2                !
 ! D28   D(9,7,8,18)           -63.5855         estimate D2E/DX2                !
 ! D29   D(9,7,8,19)          -177.5433         estimate D2E/DX2                !
 ! D30   D(17,7,8,18)          178.5144         estimate D2E/DX2                !
 ! D31   D(17,7,8,19)           64.5566         estimate D2E/DX2                !
 --------------------------------------------------------------------------------
 Trust Radius=3.00D-01 FncErr=1.00D-07 GrdErr=1.00D-06 EigMax=2.50D+02 EigMin=1.00D-04
 Number of steps in this run=     88 maximum allowed number of steps=    114.
 GradGradGradGradGradGradGradGradGradGradGradGradGradGradGradGradGradGrad

                          Input orientation:                          
 ---------------------------------------------------------------------
 Center     Atomic      Atomic             Coordinates (Angstroms)
 Number     Number       Type             X           Y           Z
 ---------------------------------------------------------------------
      1          7           0        0.966680    0.081980   -0.041260
      2          6           0        2.422130    0.118110   -0.073560
      3          7           0        2.904650    1.426280   -0.520990
      4          7           0        4.152650    1.492490   -0.589750
      5          6           0        4.592510    2.847770   -0.964910
      6          7           0        6.037580    2.994310   -0.877520
      7          6           0        6.516680    4.240020   -1.398560
      8          7           0        6.179970    5.282160   -0.481190
      9          9           0        7.866570    4.156020   -1.408750
     10          1           0        0.661900   -0.856960    0.205120
     11          1           0        0.625170    0.263860   -0.981940
     12          1           0        2.782040   -0.665120   -0.750470
     13          1           0        2.800720   -0.098890    0.931350
     14          1           0        4.115930    3.557060   -0.278030
     15          1           0        4.242910    3.062410   -1.981970
     16          1           0        6.458130    2.266740   -1.452270
     17          1           0        6.190320    4.452730   -2.421560
     18          1           0        6.510000    4.956700    0.425430
     19          1           0        5.175610    5.356150   -0.408510
 ---------------------------------------------------------------------
                    Distance matrix (angstroms):
                    1          2          3          4          5
     1  N    0.000000
     2  C    1.456257   0.000000
     3  N    2.406867   1.464352   0.000000
     4  N    3.527150   2.269377   1.251645   0.000000
     5  C    4.652888   3.599458   2.250904   1.473433   0.000000
     6  N    5.907201   4.689388   3.521517   2.427187   1.455108
     7  C    7.066404   5.959120   4.661976   3.713722   2.414300
     8  N    7.376571   6.399604   5.059359   4.299234   2.946230
     9  F    8.128734   6.908645   5.732386   4.643098   3.553587
    10  H    1.017449   2.031461   3.281821   4.282180   5.526635
    11  H    1.017147   2.018777   2.599947   3.755857   4.734624
    12  H    2.087264   1.095989   2.107522   2.561188   3.957800
    13  H    2.083839   1.095565   2.108610   2.583399   3.935622
    14  H    4.695745   3.838899   2.463017   2.088293   1.096369
    15  H    4.835597   3.952995   2.569499   2.100255   1.096677
    16  H    6.076195   4.775641   3.768405   2.580434   2.013865
    17  H    7.214964   6.204941   4.854605   4.033689   2.692717
    18  H    7.396559   6.353867   5.134016   4.311431   3.171340
    19  H    6.757724   5.927133   4.540241   4.000895   2.634683
                    6          7          8          9         10
     6  N    0.000000
     7  C    1.432764   0.000000
     8  N    2.326287   1.428635   0.000000
     9  F    2.230915   1.352539   2.230062   0.000000
    10  H    6.700920   7.926503   8.283050   8.924226   0.000000
    11  H    6.063039   7.119924   7.502659   8.232190   1.633003
    12  H    4.899603   6.199029   6.854822   7.037696   2.333441
    13  H    4.828784   6.169520   6.509247   7.017347   2.382568
    14  H    2.090171   2.735987   2.697685   3.962901   5.625596
    15  H    2.108385   2.626245   3.306332   3.828247   5.741816
    16  H    1.018115   1.974879   3.180114   2.356900   6.789752
    17  H    2.129408   1.094662   2.110236   1.980817   8.102819
    18  H    2.402464   1.959749   1.018236   2.417765   8.249088
    19  H    2.557587   2.006094   1.009701   3.111601   7.704080
                   11         12         13         14         15
    11  H    0.000000
    12  H    2.359803   0.000000
    13  H    2.919809   1.774679   0.000000
    14  H    4.850367   4.453006   4.069195   0.000000
    15  H    4.681878   4.188701   4.534442   1.778824   0.000000
    16  H    6.185157   4.754152   4.965330   2.920559   2.412648
    17  H    7.112667   6.371915   6.591558   3.114489   2.432824
    18  H    7.657327   6.847283   6.290763   2.861017   3.810985
    19  H    6.853229   6.488590   6.098589   2.092050   2.933760
                   16         17         18         19
    16  H    0.000000
    17  H    2.406200   0.000000
    18  H    3.280904   2.908871   0.000000
    19  H    3.504104   2.428616   1.623457   0.000000
 Stoichiometry    C3H10FN5
 Framework group  C1[X(C3H10FN5)]
 Deg. of freedom    51
 Full point group                 C1      NOp   1
 Largest Abelian subgroup         C1      NOp   1
 Largest concise Abelian subgroup C1      NOp   1
                         Standard orientation:                         
 ---------------------------------------------------------------------
 Center     Atomic      Atomic             Coordinates (Angstroms)
 Number     Number       Type             X           Y           Z
 ---------------------------------------------------------------------
      1          7           0        4.432080    0.434471    0.071009
      2          6           0        3.291470   -0.387951   -0.307559
      3          7           0        2.037330    0.208878    0.156400
      4          7           0        1.031401   -0.480926   -0.124479
      5          6           0       -0.209611    0.197022    0.289383
      6          7           0       -1.394949   -0.501076   -0.184928
      7          6           0       -2.617503    0.029126    0.341438
      8          7           0       -2.886764    1.280627   -0.292787
      9          9           0       -3.598746   -0.818066   -0.044297
     10          1           0        5.289996   -0.039004   -0.202860
     11          1           0        4.447374    0.505700    1.085544
     12          1           0        3.413851   -1.386729    0.126788
     13          1           0        3.278876   -0.489381   -1.398346
     14          1           0       -0.194864    1.209399   -0.131212
     15          1           0       -0.219410    0.276466    1.383136
     16          1           0       -1.339655   -1.463443    0.142716
     17          1           0       -2.644697    0.091988    1.433955
     18          1           0       -2.807774    1.096460   -1.291109
     19          1           0       -2.154805    1.938131   -0.066023
 ---------------------------------------------------------------------
 Rotational constants (GHZ):           6.8549606           0.4780089           0.4588681
 Standard basis: 6-31G(2df,p) (6D, 7F)
 There are   329 symmetry adapted cartesian basis functions of A   symmetry.
 There are   302 symmetry adapted basis functions of A   symmetry.
   302 basis functions,   466 primitive gaussians,   329 cartesian basis functions
    36 alpha electrons       36 beta electrons
       nuclear repulsion energy       456.2998847169 Hartrees.
 NAtoms=   19 NActive=   19 NUniq=   19 SFac= 1.00D+00 NAtFMM=   60 NAOKFM=F Big=F
 Integral buffers will be    131072 words long.
 Raffenetti 2 integral format.
 Two-electron integral symmetry is turned on.
 One-electron integrals computed using PRISM.
 PrsmSu:  requested number of processors reduced to:  13 ShMem   1 Linda.
 NBasis=   302 RedAO= T EigKep=  2.37D-04  NBF=   302
 NBsUse=   302 1.00D-06 EigRej= -1.00D+00 NBFU=   302
 ExpMin= 1.61D-01 ExpMax= 7.00D+03 ExpMxC= 1.05D+03 IAcc=3 IRadAn=         5 AccDes= 0.00D+00
 Harris functional with IExCor=  402 and IRadAn=       5 diagonalized for initial guess.
 HarFok:  IExCor=  402 AccDes= 0.00D+00 IRadAn=         5 IDoV= 1 UseB2=F ITyADJ=14
 ICtDFT=  3500011 ScaDFX=  1.000000  1.000000  1.000000  1.000000
 FoFCou: FMM=F IPFlag=           0 FMFlag=      100000 FMFlg1=           0
         NFxFlg=           0 DoJE=T BraDBF=F KetDBF=T FulRan=T
         wScrn=  0.000000 ICntrl=       500 IOpCl=  0 I1Cent=   200000004 NGrid=           0
         NMat0=    1 NMatS0=      1 NMatT0=    0 NMatD0=    1 NMtDS0=    0 NMtDT0=    0
 Petite list used in FoFCou.
 Requested convergence on RMS density matrix=1.00D-08 within 128 cycles.
 Requested convergence on MAX density matrix=1.00D-06.
 Requested convergence on             energy=1.00D-06.
 No special actions if energy rises.
 Integral accuracy reduced to 1.0D-05 until final iterations.
 Initial convergence to 1.0D-05 achieved.  Increase integral accuracy.
 SCF Done:  E(RB3LYP) =  -493.882229737     A.U. after   13 cycles
            NFock= 13  Conv=0.41D-08     -V/T= 2.0067

 **********************************************************************

            Population analysis using the SCF density.

 **********************************************************************

 Orbital symmetries:
       Occupied  (A) (A) (A) (A) (A) (A) (A) (A) (A) (A) (A) (A)
                 (A) (A) (A) (A) (A) (A) (A) (A) (A) (A) (A) (A)
                 (A) (A) (A) (A) (A) (A) (A) (A) (A) (A) (A) (A)
       Virtual   (A) (A) (A) (A) (A) (A) (A) (A) (A) (A) (A) (A)
                 (A) (A) (A) (A) (A) (A) (A) (A) (A) (A) (A) (A)
                 (A) (A) (A) (A) (A) (A) (A) (A) (A) (A) (A) (A)
                 (A) (A) (A) (A) (A) (A) (A) (A) (A) (A) (A) (A)
                 (A) (A) (A) (A) (A) (A) (A) (A) (A) (A) (A) (A)
                 (A) (A) (A) (A) (A) (A) (A) (A) (A) (A) (A) (A)
                 (A) (A) (A) (A) (A) (A) (A) (A) (A) (A) (A) (A)
                 (A) (A) (A) (A) (A) (A) (A) (A) (A) (A) (A) (A)
                 (A) (A) (A) (A) (A) (A) (A) (A) (A) (A) (A) (A)
                 (A) (A) (A) (A) (A) (A) (A) (A) (A) (A) (A) (A)
                 (A) (A) (A) (A) (A) (A) (A) (A) (A) (A) (A) (A)
                 (A) (A) (A) (A) (A) (A) (A) (A) (A) (A) (A) (A)
                 (A) (A) (A) (A) (A) (A) (A) (A) (A) (A) (A) (A)
                 (A) (A) (A) (A) (A) (A) (A) (A) (A) (A) (A) (A)
                 (A) (A) (A) (A) (A) (A) (A) (A) (A) (A) (A) (A)
                 (A) (A) (A) (A) (A) (A) (A) (A) (A) (A) (A) (A)
                 (A) (A) (A) (A) (A) (A) (A) (A) (A) (A) (A) (A)
                 (A) (A) (A) (A) (A) (A) (A) (A) (A) (A) (A) (A)
                 (A) (A) (A) (A) (A) (A) (A) (A) (A) (A) (A) (A)
                 (A) (A) (A) (A) (A) (A) (A) (A) (A) (A) (A) (A)
                 (A) (A) (A) (A) (A) (A) (A) (A) (A) (A) (A) (A)
                 (A) (A) (A) (A) (A) (A) (A) (A) (A) (A) (A) (A)
                 (A) (A)
 The electronic state is 1-A.
 Alpha  occ. eigenvalues --  -24.67640 -14.38964 -14.38727 -14.32527 -14.31627
 Alpha  occ. eigenvalues --  -14.31506 -10.30628 -10.24640 -10.24009  -1.20764
 Alpha  occ. eigenvalues --   -1.03974  -0.94480  -0.89460  -0.86961  -0.76631
 Alpha  occ. eigenvalues --   -0.67461  -0.62818  -0.58585  -0.54044  -0.53153
 Alpha  occ. eigenvalues --   -0.50874  -0.49166  -0.48954  -0.47377  -0.44587
 Alpha  occ. eigenvalues --   -0.43984  -0.42967  -0.42292  -0.37968  -0.36592
 Alpha  occ. eigenvalues --   -0.36176  -0.33875  -0.26364  -0.25050  -0.24662
 Alpha  occ. eigenvalues --   -0.23478
 Alpha virt. eigenvalues --   -0.06076   0.07880   0.07952   0.10344   0.11795
 Alpha virt. eigenvalues --    0.13292   0.13912   0.14391   0.15432   0.16257
 Alpha virt. eigenvalues --    0.17682   0.18254   0.20540   0.22018   0.23731
 Alpha virt. eigenvalues --    0.25857   0.27125   0.31172   0.36184   0.40472
 Alpha virt. eigenvalues --    0.42158   0.45809   0.46519   0.49201   0.50356
 Alpha virt. eigenvalues --    0.52601   0.54241   0.56756   0.57812   0.58182
 Alpha virt. eigenvalues --    0.59907   0.61632   0.61724   0.63250   0.63821
 Alpha virt. eigenvalues --    0.64292   0.69391   0.70069   0.70993   0.71682
 Alpha virt. eigenvalues --    0.72854   0.73138   0.74451   0.76864   0.77069
 Alpha virt. eigenvalues --    0.79792   0.80176   0.80890   0.82375   0.82602
 Alpha virt. eigenvalues --    0.83435   0.84734   0.86550   0.87164   0.87946
 Alpha virt. eigenvalues --    0.89131   0.89826   0.91666   0.93671   0.96711
 Alpha virt. eigenvalues --    0.99215   1.01430   1.02410   1.05773   1.07604
 Alpha virt. eigenvalues --    1.07785   1.11769   1.13415   1.17267   1.22186
 Alpha virt. eigenvalues --    1.25565   1.26456   1.28419   1.29001   1.30944
 Alpha virt. eigenvalues --    1.33025   1.34287   1.35307   1.40073   1.41715
 Alpha virt. eigenvalues --    1.43991   1.45102   1.47534   1.48250   1.52938
 Alpha virt. eigenvalues --    1.53375   1.55111   1.58046   1.60981   1.63304
 Alpha virt. eigenvalues --    1.64462   1.65996   1.68703   1.72622   1.77461
 Alpha virt. eigenvalues --    1.80383   1.81716   1.83536   1.85596   1.88751
 Alpha virt. eigenvalues --    1.90641   1.91557   1.95284   1.96304   2.01306
 Alpha virt. eigenvalues --    2.03360   2.08180   2.09554   2.12991   2.18705
 Alpha virt. eigenvalues --    2.20398   2.23529   2.24400   2.27197   2.37323
 Alpha virt. eigenvalues --    2.40553   2.46360   2.48478   2.49072   2.50608
 Alpha virt. eigenvalues --    2.52963   2.57599   2.62449   2.66644   2.72611
 Alpha virt. eigenvalues --    2.76090   2.78037   2.79656   2.81138   2.83522
 Alpha virt. eigenvalues --    2.83917   2.86184   2.87215   2.90721   2.91386
 Alpha virt. eigenvalues --    2.94023   2.94361   2.97370   3.00562   3.02527
 Alpha virt. eigenvalues --    3.05160   3.11801   3.13306   3.17682   3.19615
 Alpha virt. eigenvalues --    3.23284   3.24410   3.29332   3.30215   3.32007
 Alpha virt. eigenvalues --    3.33085   3.33430   3.35247   3.40947   3.42010
 Alpha virt. eigenvalues --    3.43214   3.45311   3.49633   3.52874   3.54165
 Alpha virt. eigenvalues --    3.56908   3.60693   3.65589   3.69443   3.71870
 Alpha virt. eigenvalues --    3.76127   3.80597   3.83393   3.87881   3.92655
 Alpha virt. eigenvalues --    3.95074   3.95695   4.02362   4.07111   4.07955
 Alpha virt. eigenvalues --    4.10274   4.11162   4.13729   4.14547   4.15996
 Alpha virt. eigenvalues --    4.16384   4.18903   4.20499   4.23342   4.25685
 Alpha virt. eigenvalues --    4.28865   4.30554   4.31045   4.34168   4.35983
 Alpha virt. eigenvalues --    4.36887   4.38189   4.38877   4.41346   4.41814
 Alpha virt. eigenvalues --    4.42364   4.44233   4.45519   4.49857   4.50765
 Alpha virt. eigenvalues --    4.52578   4.52985   4.54321   4.55063   4.56107
 Alpha virt. eigenvalues --    4.58549   4.59918   4.61967   4.64598   4.64751
 Alpha virt. eigenvalues --    4.66184   4.68798   4.69378   4.69729   4.72069
 Alpha virt. eigenvalues --    4.73571   4.75442   4.78924   4.79102   4.81249
 Alpha virt. eigenvalues --    4.82835   4.84351   4.86326   4.90383   4.94136
 Alpha virt. eigenvalues --    4.98421   4.99853   5.02243   5.05130   5.07598
 Alpha virt. eigenvalues --    5.11883   5.14590   5.18997   5.23227   5.27399
 Alpha virt. eigenvalues --    5.28683   5.30614   5.34164   5.37684   5.44694
 Alpha virt. eigenvalues --    5.50164   5.56097   5.59985   5.73200   5.78309
 Alpha virt. eigenvalues --    6.65944   6.67155   6.82364   6.83500   7.29643
 Alpha virt. eigenvalues --    7.36247   7.37059   7.41964   8.68212   9.59031
 Alpha virt. eigenvalues --    9.69494  10.82258  11.21752  11.28253  11.40662
 Alpha virt. eigenvalues --   11.44265  11.51085  11.69474  12.60640  13.24103
 Alpha virt. eigenvalues --   16.83189
          Condensed to atoms (all electrons):
               1          2          3          4          5          6
     1  N    6.563031   0.389985  -0.032590   0.001532  -0.000224  -0.000000
     2  C    0.389985   4.793546   0.325174  -0.081964   0.006136  -0.000214
     3  N   -0.032590   0.325174   6.533906   0.406233  -0.086990   0.001949
     4  N    0.001532  -0.081964   0.406233   6.529058   0.348970  -0.026329
     5  C   -0.000224   0.006136  -0.086990   0.348970   4.850709   0.348418
     6  N   -0.000000  -0.000214   0.001949  -0.026329   0.348418   6.630693
     7  C   -0.000000  -0.000002  -0.000022   0.000651  -0.052473   0.319057
     8  N   -0.000000   0.000000   0.000006   0.000395   0.001978  -0.069224
     9  F    0.000000  -0.000000  -0.000000  -0.000014   0.002104  -0.055221
    10  H    0.339537  -0.041826   0.004157  -0.000195   0.000005  -0.000000
    11  H    0.337863  -0.054648   0.004148  -0.000070   0.000002   0.000000
    12  H   -0.055282   0.370339  -0.044562   0.011909  -0.000128   0.000017
    13  H   -0.027439   0.346531  -0.013454   0.001012  -0.000090   0.000020
    14  H    0.000018  -0.000308   0.005777  -0.014486   0.334075  -0.033699
    15  H    0.000016  -0.000330   0.008569  -0.036879   0.346993  -0.053416
    16  H    0.000000  -0.000002   0.000191   0.006193  -0.045183   0.315448
    17  H    0.000000  -0.000000   0.000027  -0.000315  -0.001664  -0.076198
    18  H   -0.000000  -0.000000   0.000004  -0.000063   0.001253   0.002171
    19  H    0.000000   0.000000   0.000014   0.000022   0.000978  -0.001946
               7          8          9         10         11         12
     1  N   -0.000000  -0.000000   0.000000   0.339537   0.337863  -0.055282
     2  C   -0.000002   0.000000  -0.000000  -0.041826  -0.054648   0.370339
     3  N   -0.000022   0.000006  -0.000000   0.004157   0.004148  -0.044562
     4  N    0.000651   0.000395  -0.000014  -0.000195  -0.000070   0.011909
     5  C   -0.052473   0.001978   0.002104   0.000005   0.000002  -0.000128
     6  N    0.319057  -0.069224  -0.055221  -0.000000   0.000000   0.000017
     7  C    4.616125   0.291029   0.448649   0.000000   0.000000   0.000001
     8  N    0.291029   6.696261  -0.039981  -0.000000  -0.000000  -0.000000
     9  F    0.448649  -0.039981   8.788421  -0.000000   0.000000   0.000000
    10  H    0.000000  -0.000000  -0.000000   0.498461  -0.028858  -0.002933
    11  H    0.000000  -0.000000   0.000000  -0.028858   0.509305  -0.003692
    12  H    0.000001  -0.000000   0.000000  -0.002933  -0.003692   0.658804
    13  H    0.000000  -0.000000   0.000000  -0.000503   0.007016  -0.037163
    14  H   -0.001304   0.006564   0.000060   0.000000   0.000014   0.000007
    15  H   -0.001174  -0.002534  -0.000102   0.000000   0.000002   0.000213
    16  H   -0.035810   0.008851   0.004687   0.000000   0.000000   0.000004
    17  H    0.369928  -0.063382  -0.030295  -0.000000  -0.000000   0.000000
    18  H   -0.040023   0.327426   0.001615  -0.000000  -0.000000  -0.000000
    19  H   -0.030800   0.332949   0.002360   0.000000   0.000000  -0.000000
              13         14         15         16         17         18
     1  N   -0.027439   0.000018   0.000016   0.000000   0.000000  -0.000000
     2  C    0.346531  -0.000308  -0.000330  -0.000002  -0.000000  -0.000000
     3  N   -0.013454   0.005777   0.008569   0.000191   0.000027   0.000004
     4  N    0.001012  -0.014486  -0.036879   0.006193  -0.000315  -0.000063
     5  C   -0.000090   0.334075   0.346993  -0.045183  -0.001664   0.001253
     6  N    0.000020  -0.033699  -0.053416   0.315448  -0.076198   0.002171
     7  C    0.000000  -0.001304  -0.001174  -0.035810   0.369928  -0.040023
     8  N   -0.000000   0.006564  -0.002534   0.008851  -0.063382   0.327426
     9  F    0.000000   0.000060  -0.000102   0.004687  -0.030295   0.001615
    10  H   -0.000503   0.000000   0.000000   0.000000  -0.000000  -0.000000
    11  H    0.007016   0.000014   0.000002   0.000000  -0.000000  -0.000000
    12  H   -0.037163   0.000007   0.000213   0.000004   0.000000  -0.000000
    13  H    0.592085   0.000233  -0.000012   0.000009  -0.000000  -0.000000
    14  H    0.000233   0.609099  -0.040596   0.007819  -0.001028   0.000519
    15  H   -0.000012  -0.040596   0.663682  -0.003527   0.014703   0.000391
    16  H    0.000009   0.007819  -0.003527   0.525822  -0.004023  -0.000265
    17  H   -0.000000  -0.001028   0.014703  -0.004023   0.713513   0.008752
    18  H   -0.000000   0.000519   0.000391  -0.000265   0.008752   0.488701
    19  H    0.000000   0.006596   0.000567  -0.000093  -0.000353  -0.028760
              19
     1  N    0.000000
     2  C    0.000000
     3  N    0.000014
     4  N    0.000022
     5  C    0.000978
     6  N   -0.001946
     7  C   -0.030800
     8  N    0.332949
     9  F    0.002360
    10  H    0.000000
    11  H    0.000000
    12  H   -0.000000
    13  H    0.000000
    14  H    0.006596
    15  H    0.000567
    16  H   -0.000093
    17  H   -0.000353
    18  H   -0.028760
    19  H    0.486420
 Mulliken charges:
               1
     1  N   -0.516447
     2  C   -0.052418
     3  N   -0.112537
     4  N   -0.145658
     5  C   -0.054870
     6  N   -0.301527
     7  C    0.116167
     8  N   -0.490338
     9  F   -0.122283
    10  H    0.232155
    11  H    0.228918
    12  H    0.102466
    13  H    0.131755
    14  H    0.120640
    15  H    0.103435
    16  H    0.219879
    17  H    0.070336
    18  H    0.238280
    19  H    0.232046
 Sum of Mulliken charges =  -0.00000
 Mulliken charges with hydrogens summed into heavy atoms:
               1
     1  N   -0.055374
     2  C    0.181803
     3  N   -0.112537
     4  N   -0.145658
     5  C    0.169205
     6  N   -0.081649
     7  C    0.186503
     8  N   -0.020011
     9  F   -0.122283
 Electronic spatial extent (au):  <R**2>=           2288.2323
 Charge=             -0.0000 electrons
 Dipole moment (field-independent basis, Debye):
    X=              2.9323    Y=             -0.7860    Z=              1.3312  Tot=              3.3148
 Quadrupole moment (field-independent basis, Debye-Ang):
   XX=            -57.1433   YY=            -54.9715   ZZ=            -50.1426
   XY=             -6.3383   XZ=              0.5407   YZ=             -1.7878
 Traceless Quadrupole moment (field-independent basis, Debye-Ang):
   XX=             -3.0575   YY=             -0.8857   ZZ=              3.9432
   XY=             -6.3383   XZ=              0.5407   YZ=             -1.7878
 Octapole moment (field-independent basis, Debye-Ang**2):
  XXX=             92.7804  YYY=             -7.2291  ZZZ=             -1.1026  XYY=            -11.7146
  XXY=            -36.7021  XXZ=              8.4132  XZZ=             -5.3823  YZZ=              0.8344
  YYZ=              0.4608  XYZ=              5.8760
 Hexadecapole moment (field-independent basis, Debye-Ang**3):
 XXXX=          -2347.7361 YYYY=           -188.3441 ZZZZ=            -90.3573 XXXY=            -78.3012
 XXXZ=             45.1191 YYYX=             18.7244 YYYZ=             -4.0151 ZZZX=             12.9482
 ZZZY=             -3.1329 XXYY=           -503.3164 XXZZ=           -378.7230 YYZZ=            -48.1742
 XXYZ=              9.5527 YYXZ=              5.8547 ZZXY=              2.7819
 N-N= 4.562998847169D+02 E-N=-2.069086723474D+03  KE= 4.906165388027D+02
 PrsmSu:  requested number of processors reduced to:  13 ShMem   1 Linda.
 Calling FoFJK, ICntrl=      2127 FMM=F ISym2X=0 I1Cent= 0 IOpClX= 0 NMat=1 NMatS=1 NMatT=0.
 ***** Axes restored to original set *****
 -------------------------------------------------------------------
 Center     Atomic                   Forces (Hartrees/Bohr)
 Number     Number              X              Y              Z
 -------------------------------------------------------------------
      1        7          -0.003708053    0.010442189    0.001058803
      2        6          -0.004933229   -0.016223987   -0.003729450
      3        7           0.017187886    0.005365155    0.002022473
      4        7          -0.015676983   -0.002843258    0.004014642
      5        6          -0.000748955    0.006079980   -0.001068934
      6        7           0.000523997   -0.029731430   -0.005845057
      7        6          -0.003096688    0.004156358    0.019732916
      8        7           0.000862719    0.016738289   -0.002447922
      9        9           0.013824137   -0.003793249   -0.005820396
     10        1           0.001245171    0.002320084   -0.000360369
     11        1          -0.001794903   -0.000840601    0.001171480
     12        1           0.012865143    0.000542779   -0.001914619
     13        1           0.002128921    0.002058805   -0.000221539
     14        1          -0.000720366   -0.000416063   -0.002016311
     15        1          -0.007382886    0.000043959   -0.003800629
     16        1          -0.000150076   -0.005740358    0.002744479
     17        1          -0.005085144    0.005308630   -0.003737232
     18        1          -0.000801817    0.001325703    0.000661898
     19        1          -0.004538873    0.005207015   -0.000444234
 -------------------------------------------------------------------
 Cartesian Forces:  Max     0.029731430 RMS     0.007662705

 GradGradGradGradGradGradGradGradGradGradGradGradGradGradGradGradGradGrad
 Berny optimization.
 FormGI is forming the generalized inverse of G from B-inverse, IUseBI=4.
 Internal  Forces:  Max     0.032697089 RMS     0.007695818
 Search for a local minimum.
 Step number   1 out of a maximum of   88
 All quantities printed in internal units (Hartrees-Bohrs-Radians)
 Mixed Optimization -- RFO/linear search
 Second derivative matrix not updated -- first step.
 ITU=  0
     Eigenvalues ---    0.00720   0.00841   0.00948   0.00963   0.01258
     Eigenvalues ---    0.01313   0.03257   0.03276   0.04744   0.05286
     Eigenvalues ---    0.06026   0.06100   0.06246   0.07410   0.07584
     Eigenvalues ---    0.08468   0.10988   0.11072   0.11384   0.11602
     Eigenvalues ---    0.13987   0.14051   0.16000   0.16000   0.16000
     Eigenvalues ---    0.16000   0.17621   0.22093   0.22107   0.22900
     Eigenvalues ---    0.23669   0.25000   0.25000   0.34052   0.34087
     Eigenvalues ---    0.34130   0.34177   0.34279   0.35332   0.36425
     Eigenvalues ---    0.37437   0.37584   0.40595   0.41186   0.44621
     Eigenvalues ---    0.44640   0.44748   0.44796   0.46023   0.54485
     Eigenvalues ---    0.82632
 RFO step:  Lambda=-1.97668421D-02 EMin= 7.20398457D-03
 Linear search not attempted -- first point.
 Iteration  1 RMS(Cart)=  0.13941374 RMS(Int)=  0.00866358
 Iteration  2 RMS(Cart)=  0.01520127 RMS(Int)=  0.00102864
 Iteration  3 RMS(Cart)=  0.00017063 RMS(Int)=  0.00102535
 Iteration  4 RMS(Cart)=  0.00000015 RMS(Int)=  0.00102535
 Variable       Old X    -DE/DX   Delta X   Delta X   Delta X     New X
                                 (Linear)    (Quad)   (Total)
    R1        2.75193   0.00400   0.00000   0.01015   0.01015   2.76208
    R2        1.92270  -0.00260   0.00000  -0.00557  -0.00557   1.91713
    R3        1.92213  -0.00063   0.00000  -0.00135  -0.00135   1.92078
    R4        2.76722  -0.00161   0.00000  -0.00420  -0.00420   2.76302
    R5        2.07112   0.00502   0.00000   0.01390   0.01390   2.08502
    R6        2.07032   0.00012   0.00000   0.00034   0.00034   2.07066
    R7        2.36527  -0.02323   0.00000  -0.02745  -0.02745   2.33782
    R8        2.78439  -0.00242   0.00000  -0.00649  -0.00649   2.77790
    R9        2.74975   0.00116   0.00000   0.00294   0.00294   2.75269
   R10        2.07184  -0.00122   0.00000  -0.00338  -0.00338   2.06846
   R11        2.07242   0.00589   0.00000   0.01634   0.01634   2.08876
   R12        2.70753   0.02266   0.00000   0.05324   0.05324   2.76077
   R13        1.92396   0.00249   0.00000   0.00534   0.00534   1.92930
   R14        2.69973   0.01660   0.00000   0.03845   0.03845   2.73818
   R15        2.55593   0.01408   0.00000   0.02493   0.02493   2.58086
   R16        2.06861   0.00604   0.00000   0.01666   0.01666   2.08527
   R17        1.92419  -0.00009   0.00000  -0.00020  -0.00020   1.92398
   R18        1.90806   0.00486   0.00000   0.01013   0.01013   1.91819
    A1        1.90462  -0.00132   0.00000  -0.00659  -0.00658   1.89803
    A2        1.88664   0.00372   0.00000   0.02147   0.02148   1.90812
    A3        1.86334  -0.00086   0.00000  -0.00315  -0.00313   1.86021
    A4        1.93721  -0.01265   0.00000  -0.05373  -0.05361   1.88360
    A5        1.90094   0.01654   0.00000   0.11305   0.11250   2.01344
    A6        1.89665   0.00276   0.00000   0.00627   0.00412   1.90077
    A7        1.91930  -0.00332   0.00000  -0.02535  -0.02426   1.89504
    A8        1.92127   0.00061   0.00000  -0.02610  -0.02700   1.89427
    A9        1.88756  -0.00349   0.00000  -0.01130  -0.01359   1.87397
   A10        1.97425  -0.00642   0.00000  -0.02381  -0.02381   1.95043
   A11        1.93939   0.00059   0.00000   0.00219   0.00219   1.94157
   A12        1.95391  -0.01632   0.00000  -0.06937  -0.06899   1.88492
   A13        1.88156   0.00502   0.00000   0.01527   0.01538   1.89693
   A14        1.89757   0.00098   0.00000  -0.00917  -0.00827   1.88930
   A15        1.90595   0.00389   0.00000   0.01776   0.01720   1.92315
   A16        1.93111   0.01004   0.00000   0.05646   0.05598   1.98709
   A17        1.89213  -0.00346   0.00000  -0.01066  -0.01154   1.88059
   A18        1.97992   0.00159   0.00000   0.01111   0.01091   1.99082
   A19        1.88005  -0.00261   0.00000  -0.00898  -0.00954   1.87051
   A20        1.85241   0.00362   0.00000   0.03966   0.03959   1.89200
   A21        1.89853   0.03270   0.00000   0.14510   0.14415   2.04268
   A22        1.85717  -0.00962   0.00000  -0.02037  -0.02500   1.83217
   A23        1.99227  -0.00799   0.00000  -0.03376  -0.03166   1.96061
   A24        1.86019  -0.00041   0.00000   0.02427   0.02136   1.88155
   A25        1.96934  -0.01706   0.00000  -0.08912  -0.08806   1.88128
   A26        1.87820   0.00239   0.00000  -0.02244  -0.02343   1.85476
   A27        1.83609   0.00274   0.00000   0.02158   0.02109   1.85718
   A28        1.91146   0.00558   0.00000   0.03667   0.03624   1.94771
   A29        1.85640  -0.00104   0.00000   0.00855   0.00756   1.86396
    D1        3.06840   0.00176   0.00000   0.03414   0.03346   3.10186
    D2        0.95291   0.00304   0.00000   0.02550   0.02678   0.97968
    D3       -1.09966  -0.00362   0.00000  -0.02787  -0.02848  -1.12814
    D4        1.04817   0.00146   0.00000   0.02971   0.02904   1.07721
    D5       -1.06732   0.00274   0.00000   0.02107   0.02235  -1.04496
    D6       -3.11989  -0.00391   0.00000  -0.03230  -0.03290   3.13040
    D7       -3.11756  -0.00502   0.00000  -0.04937  -0.04883   3.11679
    D8       -1.01290   0.00530   0.00000   0.04060   0.04049  -0.97241
    D9        1.06504  -0.00067   0.00000  -0.00519  -0.00562   1.05942
   D10       -3.08206  -0.00822   0.00000  -0.15705  -0.15705   3.04407
   D11        3.00845  -0.00157   0.00000  -0.01371  -0.01409   2.99436
   D12        0.91186   0.00022   0.00000  -0.00364  -0.00375   0.90811
   D13       -1.13592   0.00104   0.00000   0.00554   0.00604  -1.12988
   D14        3.00856   0.00105   0.00000   0.01254   0.01204   3.02060
   D15        0.96369  -0.00264   0.00000  -0.03706  -0.03737   0.92631
   D16       -1.19234  -0.00035   0.00000  -0.00014  -0.00065  -1.19298
   D17        3.04597  -0.00404   0.00000  -0.04975  -0.05006   2.99591
   D18        0.88896   0.00396   0.00000   0.03232   0.03304   0.92200
   D19       -1.15592   0.00027   0.00000  -0.01728  -0.01637  -1.17229
   D20        1.27876  -0.00348   0.00000  -0.02710  -0.02726   1.25150
   D21       -3.00643   0.00680   0.00000   0.06010   0.05978  -2.94665
   D22       -0.93760  -0.00131   0.00000  -0.00091  -0.00103  -0.93863
   D23       -2.94348  -0.00345   0.00000  -0.00628  -0.00604  -2.94952
   D24       -0.94548   0.00683   0.00000   0.08092   0.08100  -0.86448
   D25        1.12335  -0.00129   0.00000   0.01991   0.02019   1.14354
   D26        0.88626   0.00075   0.00000   0.00021   0.00306   0.88931
   D27       -1.10268  -0.00198   0.00000  -0.03732  -0.03503  -1.13771
   D28       -1.10978  -0.00360   0.00000  -0.05825  -0.05942  -1.16919
   D29       -3.09871  -0.00632   0.00000  -0.09578  -0.09750   3.08697
   D30        3.11566   0.00330   0.00000   0.00365   0.00279   3.11846
   D31        1.12672   0.00057   0.00000  -0.03388  -0.03529   1.09143
         Item               Value     Threshold  Converged?
 Maximum Force            0.032697     0.000450     NO 
 RMS     Force            0.007696     0.000300     NO 
 Maximum Displacement     0.534221     0.001800     NO 
 RMS     Displacement     0.148288     0.001200     NO 
 Predicted change in Energy=-1.126045D-02
 GradGradGradGradGradGradGradGradGradGradGradGradGradGradGradGradGradGrad

                          Input orientation:                          
 ---------------------------------------------------------------------
 Center     Atomic      Atomic             Coordinates (Angstroms)
 Number     Number       Type             X           Y           Z
 ---------------------------------------------------------------------
      1          7           0        0.996042    0.040557   -0.016458
      2          6           0        2.452276    0.045732   -0.141828
      3          7           0        2.875067    1.417504   -0.419871
      4          7           0        4.105407    1.508283   -0.511995
      5          6           0        4.510542    2.860778   -0.921296
      6          7           0        5.960495    2.948512   -0.812656
      7          6           0        6.523457    4.189115   -1.340209
      8          7           0        6.291149    5.396316   -0.573232
      9          9           0        7.871557    3.974650   -1.383273
     10          1           0        0.685539   -0.912621    0.139283
     11          1           0        0.581720    0.340765   -0.894723
     12          1           0        2.861468   -0.613973   -0.925870
     13          1           0        2.891839   -0.267721    0.811689
     14          1           0        4.037026    3.586238   -0.252271
     15          1           0        4.126940    3.043059   -1.941769
     16          1           0        6.350233    2.167125   -1.341676
     17          1           0        6.208071    4.384082   -2.379529
     18          1           0        6.567504    5.186569    0.383962
     19          1           0        5.305818    5.638848   -0.547619
 ---------------------------------------------------------------------
                    Distance matrix (angstroms):
                    1          2          3          4          5
     1  N    0.000000
     2  C    1.461629   0.000000
     3  N    2.364204   1.462128   0.000000
     4  N    3.473892   2.238062   1.237119   0.000000
     5  C    4.596095   3.573306   2.238134   1.470002   0.000000
     6  N    5.808263   4.602580   3.466717   2.367701   1.456662
     7  C    7.036701   5.931126   4.673285   3.704020   2.447814
     8  N    7.551973   6.599379   5.246339   4.460719   3.117797
     9  F    8.038531   6.807804   5.694915   4.585409   3.570792
    10  H    1.014503   2.029488   3.245947   4.240335   5.476679
    11  H    1.016433   2.037860   2.577652   3.731749   4.667634
    12  H    2.176063   1.103345   2.093590   2.494524   3.846214
    13  H    2.091628   1.095748   2.087344   2.525684   3.925678
    14  H    4.677076   3.880568   2.466099   2.095240   1.094580
    15  H    4.745983   3.876629   2.554562   2.097678   1.105324
    16  H    5.911502   4.597175   3.672660   2.482275   2.010557
    17  H    7.184397   6.159105   4.873372   4.022325   2.707120
    18  H    7.594930   6.606040   5.337236   4.516021   3.368100
    19  H    7.084995   6.292083   4.872844   4.301606   2.913721
                    6          7          8          9         10
     6  N    0.000000
     7  C    1.460936   0.000000
     8  N    2.481612   1.448984   0.000000
     9  F    2.242927   1.365733   2.274861   0.000000
    10  H    6.606035   7.892901   8.469547   8.822837   0.000000
    11  H    5.978151   7.093129   7.632792   8.159995   1.628166
    12  H    4.723144   6.054048   6.928971   6.809235   2.440985
    13  H    4.732790   6.138624   6.749417   6.900230   2.394950
    14  H    2.102489   2.780182   2.908689   4.016673   5.623656
    15  H    2.155402   2.723713   3.477716   3.898967   5.641048
    16  H    1.020943   2.029397   3.319890   2.362902   6.615651
    17  H    2.139449   1.103478   2.072252   1.981753   8.055919
    18  H    2.609454   1.992390   1.018129   2.508470   8.476880
    19  H    2.781502   2.052454   1.015064   3.170314   8.046151
                   11         12         13         14         15
    11  H    0.000000
    12  H    2.471789   0.000000
    13  H    2.935770   1.771983   0.000000
    14  H    4.783824   4.413326   4.158901   0.000000
    15  H    4.579004   4.000919   4.479762   1.776944   0.000000
    16  H    6.067215   4.480947   4.746151   2.924314   2.463819
    17  H    7.085822   6.188169   6.543740   3.142486   2.514177
    18  H    7.806821   7.006900   6.591111   3.060911   3.994998
    19  H    7.106846   6.724261   6.523999   2.431105   3.173567
                   16         17         18         19
    16  H    0.000000
    17  H    2.451988   0.000000
    18  H    3.484548   2.900010   0.000000
    19  H    3.711359   2.396746   1.632253   0.000000
 Stoichiometry    C3H10FN5
 Framework group  C1[X(C3H10FN5)]
 Deg. of freedom    51
 Full point group                 C1      NOp   1
 Largest Abelian subgroup         C1      NOp   1
 Largest concise Abelian subgroup C1      NOp   1
                         Standard orientation:                         
 ---------------------------------------------------------------------
 Center     Atomic      Atomic             Coordinates (Angstroms)
 Number     Number       Type             X           Y           Z
 ---------------------------------------------------------------------
      1          7           0        4.415883    0.427694    0.023849
      2          6           0        3.284949   -0.466113   -0.217936
      3          7           0        2.057158    0.273674    0.070266
      4          7           0        1.048923   -0.411866   -0.139405
      5          6           0       -0.171227    0.293775    0.277977
      6          7           0       -1.317457   -0.479538   -0.180287
      7          6           0       -2.603445    0.018908    0.301501
      8          7           0       -3.084261    1.260820   -0.269485
      9          9           0       -3.501771   -0.960616   -0.012775
     10          1           0        5.276631   -0.084884   -0.136126
     11          1           0        4.421530    0.706226    1.001358
     12          1           0        3.282411   -1.396265    0.375513
     13          1           0        3.278753   -0.752786   -1.275501
     14          1           0       -0.176989    1.286754   -0.182528
     15          1           0       -0.133962    0.430894    1.374130
     16          1           0       -1.193243   -1.433691    0.161014
     17          1           0       -2.628806    0.120779    1.399975
     18          1           0       -3.031062    1.152195   -1.280403
     19          1           0       -2.482707    2.041419   -0.026275
 ---------------------------------------------------------------------
 Rotational constants (GHZ):           6.5062364           0.4790153           0.4564826
 Standard basis: 6-31G(2df,p) (6D, 7F)
 There are   329 symmetry adapted cartesian basis functions of A   symmetry.
 There are   302 symmetry adapted basis functions of A   symmetry.
   302 basis functions,   466 primitive gaussians,   329 cartesian basis functions
    36 alpha electrons       36 beta electrons
       nuclear repulsion energy       453.9050898108 Hartrees.
 NAtoms=   19 NActive=   19 NUniq=   19 SFac= 1.00D+00 NAtFMM=   60 NAOKFM=F Big=F
 Integral buffers will be    131072 words long.
 Raffenetti 2 integral format.
 Two-electron integral symmetry is turned on.
 One-electron integrals computed using PRISM.
 PrsmSu:  requested number of processors reduced to:  13 ShMem   1 Linda.
 NBasis=   302 RedAO= T EigKep=  2.31D-04  NBF=   302
 NBsUse=   302 1.00D-06 EigRej= -1.00D+00 NBFU=   302
 Initial guess from the checkpoint file:  "NCNdNCNCpNpF.chk"
 B after Tr=    -0.000000    0.000000    0.000000
         Rot=    0.999740    0.021909   -0.001339   -0.006175 Ang=   2.61 deg.
 ExpMin= 1.61D-01 ExpMax= 7.00D+03 ExpMxC= 1.05D+03 IAcc=2 IRadAn=         4 AccDes= 0.00D+00
 Harris functional with IExCor=  402 and IRadAn=       4 diagonalized for initial guess.
 HarFok:  IExCor=  402 AccDes= 0.00D+00 IRadAn=         4 IDoV= 1 UseB2=F ITyADJ=14
 ICtDFT=  3500011 ScaDFX=  1.000000  1.000000  1.000000  1.000000
 FoFCou: FMM=F IPFlag=           0 FMFlag=      100000 FMFlg1=           0
         NFxFlg=           0 DoJE=T BraDBF=F KetDBF=T FulRan=T
         wScrn=  0.000000 ICntrl=       500 IOpCl=  0 I1Cent=   200000004 NGrid=           0
         NMat0=    1 NMatS0=      1 NMatT0=    0 NMatD0=    1 NMtDS0=    0 NMtDT0=    0
 Petite list used in FoFCou.
 Requested convergence on RMS density matrix=1.00D-08 within 128 cycles.
 Requested convergence on MAX density matrix=1.00D-06.
 Requested convergence on             energy=1.00D-06.
 No special actions if energy rises.
 Integral accuracy reduced to 1.0D-05 until final iterations.
 Initial convergence to 1.0D-05 achieved.  Increase integral accuracy.
 SCF Done:  E(RB3LYP) =  -493.889428842     A.U. after   13 cycles
            NFock= 13  Conv=0.21D-08     -V/T= 2.0070
 PrsmSu:  requested number of processors reduced to:  13 ShMem   1 Linda.
 Calling FoFJK, ICntrl=      2127 FMM=F ISym2X=0 I1Cent= 0 IOpClX= 0 NMat=1 NMatS=1 NMatT=0.
 ***** Axes restored to original set *****
 -------------------------------------------------------------------
 Center     Atomic                   Forces (Hartrees/Bohr)
 Number     Number              X              Y              Z
 -------------------------------------------------------------------
      1        7           0.004671254   -0.000846512   -0.000256436
      2        6          -0.008985885   -0.004482219    0.006221415
      3        7           0.005691827   -0.000120344   -0.004763991
      4        7          -0.003655551    0.001407017   -0.006395208
      5        6           0.005791867    0.005045752    0.006134117
      6        7          -0.002983265    0.003808613   -0.000003287
      7        6          -0.002026148    0.001227430   -0.005534052
      8        7           0.002356621   -0.013611227    0.002140775
      9        9           0.003610707    0.000335041    0.001546903
     10        1          -0.001315323   -0.000462423    0.000599318
     11        1           0.000350662   -0.000033554   -0.000108780
     12        1           0.000306865    0.001824130   -0.000535524
     13        1          -0.000181399   -0.001443759    0.000551666
     14        1          -0.000027740    0.002143255   -0.000564375
     15        1          -0.000522963   -0.001068353   -0.000136842
     16        1           0.001906307    0.003116283    0.002643851
     17        1          -0.003716040    0.001373564   -0.000508016
     18        1          -0.000815859    0.001884440    0.001962554
     19        1          -0.000455937   -0.000097133   -0.002994087
 -------------------------------------------------------------------
 Cartesian Forces:  Max     0.013611227 RMS     0.003527259

 GradGradGradGradGradGradGradGradGradGradGradGradGradGradGradGradGradGrad
 Berny optimization.
 Using GEDIIS/GDIIS optimizer.
 FormGI is forming the generalized inverse of G from B-inverse, IUseBI=4.
 Internal  Forces:  Max     0.010985015 RMS     0.003004416
 Search for a local minimum.
 Step number   2 out of a maximum of   88
 All quantities printed in internal units (Hartrees-Bohrs-Radians)
 Mixed Optimization -- RFO/linear search
 Update second derivatives using D2CorX and points    1    2
 DE= -7.20D-03 DEPred=-1.13D-02 R= 6.39D-01
 TightC=F SS=  1.41D+00  RLast= 3.67D-01 DXNew= 5.0454D-01 1.1006D+00
 Trust test= 6.39D-01 RLast= 3.67D-01 DXMaxT set to 5.05D-01
 ITU=  1  0
 Use linear search instead of GDIIS.
     Eigenvalues ---    0.00720   0.00840   0.00948   0.00963   0.01260
     Eigenvalues ---    0.01305   0.03095   0.03624   0.04662   0.04908
     Eigenvalues ---    0.05604   0.06391   0.06463   0.07276   0.07320
     Eigenvalues ---    0.08071   0.11129   0.11314   0.11520   0.12029
     Eigenvalues ---    0.13362   0.13805   0.15879   0.16000   0.16000
     Eigenvalues ---    0.16174   0.19156   0.21484   0.21987   0.23491
     Eigenvalues ---    0.23984   0.24977   0.27837   0.33942   0.34096
     Eigenvalues ---    0.34113   0.34184   0.34228   0.35411   0.36663
     Eigenvalues ---    0.37529   0.37674   0.40747   0.43980   0.44622
     Eigenvalues ---    0.44729   0.44796   0.45741   0.46017   0.53920
     Eigenvalues ---    0.81927
 RFO step:  Lambda=-2.69338900D-03 EMin= 7.19755424D-03
 Quartic linear search produced a step of -0.20124.
 Iteration  1 RMS(Cart)=  0.08460522 RMS(Int)=  0.00271828
 Iteration  2 RMS(Cart)=  0.00571154 RMS(Int)=  0.00021640
 Iteration  3 RMS(Cart)=  0.00000744 RMS(Int)=  0.00021633
 Iteration  4 RMS(Cart)=  0.00000000 RMS(Int)=  0.00021633
 Variable       Old X    -DE/DX   Delta X   Delta X   Delta X     New X
                                 (Linear)    (Quad)   (Total)
    R1        2.76208  -0.00367  -0.00204  -0.00431  -0.00635   2.75573
    R2        1.91713   0.00093   0.00112  -0.00025   0.00087   1.91801
    R3        1.92078  -0.00006   0.00027  -0.00056  -0.00029   1.92049
    R4        2.76302   0.00783   0.00085   0.01559   0.01644   2.77946
    R5        2.08502  -0.00060  -0.00280   0.00334   0.00054   2.08556
    R6        2.07066   0.00082  -0.00007   0.00202   0.00195   2.07261
    R7        2.33782  -0.00000   0.00552  -0.00933  -0.00381   2.33401
    R8        2.77790   0.00338   0.00131   0.00537   0.00667   2.78457
    R9        2.75269  -0.00229  -0.00059  -0.00382  -0.00442   2.74828
   R10        2.06846   0.00109   0.00068   0.00138   0.00206   2.07051
   R11        2.08876   0.00013  -0.00329   0.00586   0.00257   2.09133
   R12        2.76077  -0.00673  -0.01071   0.00496  -0.00576   2.75501
   R13        1.92930  -0.00303  -0.00108  -0.00356  -0.00464   1.92467
   R14        2.73818  -0.00944  -0.00774  -0.00509  -0.01283   2.72536
   R15        2.58086   0.00346  -0.00502   0.01352   0.00850   2.58936
   R16        2.08527   0.00178  -0.00335   0.00978   0.00642   2.09169
   R17        1.92398   0.00124   0.00004   0.00213   0.00217   1.92615
   R18        1.91819   0.00034  -0.00204   0.00404   0.00200   1.92019
    A1        1.89803   0.00203   0.00132   0.00886   0.01017   1.90821
    A2        1.90812  -0.00081  -0.00432   0.00441   0.00008   1.90819
    A3        1.86021  -0.00027   0.00063   0.00005   0.00066   1.86087
    A4        1.88360   0.00142   0.01079  -0.01382  -0.00303   1.88057
    A5        2.01344   0.00053  -0.02264   0.03870   0.01614   2.02958
    A6        1.90077  -0.00097  -0.00083   0.00041  -0.00001   1.90076
    A7        1.89504  -0.00224   0.00488  -0.02456  -0.01986   1.87519
    A8        1.89427   0.00109   0.00543   0.00179   0.00741   1.90168
    A9        1.87397   0.00022   0.00273  -0.00391  -0.00076   1.87321
   A10        1.95043   0.00703   0.00479   0.01409   0.01888   1.96932
   A11        1.94157   0.00710  -0.00044   0.02316   0.02272   1.96429
   A12        1.88492  -0.00046   0.01388  -0.02497  -0.01118   1.87373
   A13        1.89693   0.00231  -0.00309   0.02369   0.02062   1.91755
   A14        1.88930  -0.00163   0.00167  -0.01731  -0.01581   1.87348
   A15        1.92315  -0.00073  -0.00346   0.00549   0.00215   1.92529
   A16        1.98709   0.00092  -0.01127   0.02000   0.00874   1.99583
   A17        1.88059  -0.00031   0.00232  -0.00631  -0.00378   1.87681
   A18        1.99082  -0.00183  -0.00219  -0.00007  -0.00226   1.98856
   A19        1.87051   0.00298   0.00192   0.02029   0.02230   1.89281
   A20        1.89200  -0.00120  -0.00797   0.00802  -0.00003   1.89198
   A21        2.04268  -0.01099  -0.02901   0.00403  -0.02491   2.01777
   A22        1.83217   0.00310   0.00503  -0.00064   0.00524   1.83740
   A23        1.96061   0.00389   0.00637   0.00244   0.00810   1.96870
   A24        1.88155   0.00152  -0.00430   0.00684   0.00313   1.88468
   A25        1.88128   0.00256   0.01772  -0.02706  -0.00965   1.87163
   A26        1.85476   0.00081   0.00472   0.01791   0.02275   1.87752
   A27        1.85718   0.00482  -0.00424   0.03405   0.02988   1.88706
   A28        1.94771  -0.00353  -0.00729  -0.00207  -0.00930   1.93841
   A29        1.86396   0.00005  -0.00152   0.00916   0.00778   1.87175
    D1        3.10186  -0.00068  -0.00673   0.01225   0.00564   3.10750
    D2        0.97968   0.00079  -0.00539   0.02850   0.02291   1.00259
    D3       -1.12814   0.00087   0.00573   0.00692   0.01275  -1.11539
    D4        1.07721  -0.00105  -0.00584   0.00484  -0.00089   1.07632
    D5       -1.04496   0.00042  -0.00450   0.02109   0.01637  -1.02859
    D6        3.13040   0.00051   0.00662  -0.00049   0.00622   3.13662
    D7        3.11679  -0.00032   0.00983  -0.03615  -0.02646   3.09033
    D8       -0.97241  -0.00018  -0.00815  -0.01304  -0.02113  -0.99354
    D9        1.05942  -0.00054   0.00113  -0.03000  -0.02879   1.03063
   D10        3.04407   0.00826   0.03160   0.13398   0.16558  -3.07353
   D11        2.99436  -0.00057   0.00284  -0.05348  -0.05066   2.94370
   D12        0.90811  -0.00074   0.00075  -0.05913  -0.05839   0.84972
   D13       -1.12988  -0.00073  -0.00121  -0.05500  -0.05619  -1.18607
   D14        3.02060  -0.00181  -0.00242  -0.02023  -0.02253   2.99807
   D15        0.92631  -0.00125   0.00752  -0.04433  -0.03679   0.88953
   D16       -1.19298   0.00029   0.00013  -0.00334  -0.00309  -1.19608
   D17        2.99591   0.00085   0.01007  -0.02744  -0.01735   2.97856
   D18        0.92200   0.00000  -0.00665   0.00648  -0.00026   0.92173
   D19       -1.17229   0.00056   0.00329  -0.01763  -0.01452  -1.18681
   D20        1.25150  -0.00072   0.00549  -0.01442  -0.00889   1.24261
   D21       -2.94665  -0.00305  -0.01203  -0.00380  -0.01581  -2.96246
   D22       -0.93863   0.00161   0.00021   0.01825   0.01856  -0.92007
   D23       -2.94952   0.00105   0.00122   0.01680   0.01795  -2.93157
   D24       -0.86448  -0.00128  -0.01630   0.02742   0.01103  -0.85345
   D25        1.14354   0.00338  -0.00406   0.04947   0.04540   1.18894
   D26        0.88931  -0.00060  -0.00062  -0.03366  -0.03493   0.85438
   D27       -1.13771  -0.00163   0.00705  -0.06346  -0.05698  -1.19469
   D28       -1.16919   0.00124   0.01196  -0.04051  -0.02833  -1.19752
   D29        3.08697   0.00020   0.01962  -0.07031  -0.05039   3.03659
   D30        3.11846  -0.00174  -0.00056  -0.05125  -0.05150   3.06696
   D31        1.09143  -0.00277   0.00710  -0.08105  -0.07356   1.01788
         Item               Value     Threshold  Converged?
 Maximum Force            0.010985     0.000450     NO 
 RMS     Force            0.003004     0.000300     NO 
 Maximum Displacement     0.306268     0.001800     NO 
 RMS     Displacement     0.083966     0.001200     NO 
 Predicted change in Energy=-1.891228D-03
 GradGradGradGradGradGradGradGradGradGradGradGradGradGradGradGradGradGrad

                          Input orientation:                          
 ---------------------------------------------------------------------
 Center     Atomic      Atomic             Coordinates (Angstroms)
 Number     Number       Type             X           Y           Z
 ---------------------------------------------------------------------
      1          7           0        1.006824    0.061147    0.036954
      2          6           0        2.454233    0.045971   -0.140021
      3          7           0        2.869644    1.395197   -0.552753
      4          7           0        4.093985    1.503611   -0.674065
      5          6           0        4.509991    2.879589   -0.997983
      6          7           0        5.955154    2.942667   -0.847696
      7          6           0        6.544577    4.191249   -1.315743
      8          7           0        6.278123    5.350570   -0.500326
      9          9           0        7.897587    3.974699   -1.313996
     10          1           0        0.689648   -0.868844    0.291259
     11          1           0        0.562030    0.288034   -0.848204
     12          1           0        2.847826   -0.664396   -0.887328
     13          1           0        2.927119   -0.194406    0.819937
     14          1           0        4.025366    3.585735   -0.314619
     15          1           0        4.147285    3.102025   -2.019606
     16          1           0        6.367828    2.174924   -1.374566
     17          1           0        6.247870    4.443743   -2.351788
     18          1           0        6.479394    5.109204    0.469290
     19          1           0        5.297666    5.613100   -0.548085
 ---------------------------------------------------------------------
                    Distance matrix (angstroms):
                    1          2          3          4          5
     1  N    0.000000
     2  C    1.458267   0.000000
     3  N    2.365912   1.470825   0.000000
     4  N    3.480921   2.258031   1.235104   0.000000
     5  C    4.613772   3.604391   2.256632   1.473533   0.000000
     6  N    5.794112   4.598707   3.464395   2.359021   1.454325
     7  C    7.039477   5.941092   4.680299   3.693312   2.441508
     8  N    7.486873   6.549102   5.221634   4.427159   3.078912
     9  F    8.038879   6.814927   5.702064   4.580740   3.574204
    10  H    1.014966   2.033875   3.254323   4.260270   5.505263
    11  H    1.016279   2.034834   2.576467   3.739339   4.724933
    12  H    2.184033   1.103632   2.086706   2.509711   3.915976
    13  H    2.089475   1.096778   2.101053   2.544972   3.906375
    14  H    4.653807   3.876709   2.488143   2.114036   1.095668
    15  H    4.831032   3.967207   2.587912   2.090035   1.106683
    16  H    5.933027   4.623070   3.677043   2.472191   2.022356
    17  H    7.237527   6.214821   4.893115   4.012275   2.701775
    18  H    7.457802   6.496885   5.279083   4.471883   3.317019
    19  H    7.041149   6.264548   4.866828   4.283996   2.880091
                    6          7          8          9         10
     6  N    0.000000
     7  C    1.457890   0.000000
     8  N    2.454175   1.442196   0.000000
     9  F    2.248460   1.370230   2.275465   0.000000
    10  H    6.599272   7.903619   8.398737   8.831259   0.000000
    11  H    6.011062   7.158530   7.643560   8.223069   1.628812
    12  H    4.761088   6.117744   6.935166   6.870468   2.467509
    13  H    4.668107   6.072981   6.612041   6.829397   2.395964
    14  H    2.102805   2.777647   2.867760   4.017977   5.597979
    15  H    2.160361   2.725590   3.450310   3.914615   5.750057
    16  H    1.018489   2.024911   3.295007   2.362842   6.654414
    17  H    2.145042   1.106877   2.061834   2.004639   8.130382
    18  H    2.589046   2.008291   1.019275   2.545286   8.324056
    19  H    2.766455   2.041017   1.016120   3.167107   7.997120
                   11         12         13         14         15
    11  H    0.000000
    12  H    2.476594   0.000000
    13  H    2.934125   1.772549   0.000000
    14  H    4.811885   4.447269   4.096685   0.000000
    15  H    4.705825   4.142049   4.518658   1.776463   0.000000
    16  H    6.127373   4.548577   4.718903   2.932746   2.491265
    17  H    7.201351   6.308567   6.526841   3.134606   2.514559
    18  H    7.745622   6.954362   6.392956   2.992946   3.957537
    19  H    7.132506   6.747130   6.420133   2.404883   3.129577
                   16         17         18         19
    16  H    0.000000
    17  H    2.473235   0.000000
    18  H    3.467311   2.907734   0.000000
    19  H    3.694506   2.350240   1.638733   0.000000
 Stoichiometry    C3H10FN5
 Framework group  C1[X(C3H10FN5)]
 Deg. of freedom    51
 Full point group                 C1      NOp   1
 Largest Abelian subgroup         C1      NOp   1
 Largest concise Abelian subgroup C1      NOp   1
                         Standard orientation:                         
 ---------------------------------------------------------------------
 Center     Atomic      Atomic             Coordinates (Angstroms)
 Number     Number       Type             X           Y           Z
 ---------------------------------------------------------------------
      1          7           0        4.403993    0.447958   -0.065103
      2          6           0        3.282286   -0.462729   -0.262499
      3          7           0        2.060435    0.229498    0.174797
      4          7           0        1.038933   -0.440713   -0.006399
      5          6           0       -0.188620    0.293213    0.348238
      6          7           0       -1.315138   -0.476825   -0.154812
      7          6           0       -2.614045    0.021678    0.280825
      8          7           0       -3.033759    1.268161   -0.310825
      9          9           0       -3.513282   -0.944839   -0.086258
     10          1           0        5.265857   -0.018231   -0.329705
     11          1           0        4.485953    0.671562    0.922879
     12          1           0        3.330763   -1.422638    0.279930
     13          1           0        3.197090   -0.695240   -1.330957
     14          1           0       -0.173099    1.288264   -0.110152
     15          1           0       -0.184535    0.431837    1.446197
     16          1           0       -1.216324   -1.438852    0.164659
     17          1           0       -2.681307    0.140892    1.379206
     18          1           0       -2.909119    1.197899   -1.320008
     19          1           0       -2.454725    2.038534    0.011271
 ---------------------------------------------------------------------
 Rotational constants (GHZ):           6.3954906           0.4802974           0.4582401
 Standard basis: 6-31G(2df,p) (6D, 7F)
 There are   329 symmetry adapted cartesian basis functions of A   symmetry.
 There are   302 symmetry adapted basis functions of A   symmetry.
   302 basis functions,   466 primitive gaussians,   329 cartesian basis functions
    36 alpha electrons       36 beta electrons
       nuclear repulsion energy       453.9152991084 Hartrees.
 NAtoms=   19 NActive=   19 NUniq=   19 SFac= 1.00D+00 NAtFMM=   60 NAOKFM=F Big=F
 Integral buffers will be    131072 words long.
 Raffenetti 2 integral format.
 Two-electron integral symmetry is turned on.
 One-electron integrals computed using PRISM.
 PrsmSu:  requested number of processors reduced to:  13 ShMem   1 Linda.
 NBasis=   302 RedAO= T EigKep=  2.36D-04  NBF=   302
 NBsUse=   302 1.00D-06 EigRej= -1.00D+00 NBFU=   302
 Initial guess from the checkpoint file:  "NCNdNCNCpNpF.chk"
 B after Tr=     0.000000    0.000000    0.000000
         Rot=    0.999989   -0.004407    0.000453    0.001268 Ang=  -0.53 deg.
 ExpMin= 1.61D-01 ExpMax= 7.00D+03 ExpMxC= 1.05D+03 IAcc=2 IRadAn=         4 AccDes= 0.00D+00
 Harris functional with IExCor=  402 and IRadAn=       4 diagonalized for initial guess.
 HarFok:  IExCor=  402 AccDes= 0.00D+00 IRadAn=         4 IDoV= 1 UseB2=F ITyADJ=14
 ICtDFT=  3500011 ScaDFX=  1.000000  1.000000  1.000000  1.000000
 FoFCou: FMM=F IPFlag=           0 FMFlag=      100000 FMFlg1=           0
         NFxFlg=           0 DoJE=T BraDBF=F KetDBF=T FulRan=T
         wScrn=  0.000000 ICntrl=       500 IOpCl=  0 I1Cent=   200000004 NGrid=           0
         NMat0=    1 NMatS0=      1 NMatT0=    0 NMatD0=    1 NMtDS0=    0 NMtDT0=    0
 Petite list used in FoFCou.
 Requested convergence on RMS density matrix=1.00D-08 within 128 cycles.
 Requested convergence on MAX density matrix=1.00D-06.
 Requested convergence on             energy=1.00D-06.
 No special actions if energy rises.
 Integral accuracy reduced to 1.0D-05 until final iterations.
 Initial convergence to 1.0D-05 achieved.  Increase integral accuracy.
 SCF Done:  E(RB3LYP) =  -493.890692617     A.U. after   11 cycles
            NFock= 11  Conv=0.61D-08     -V/T= 2.0070
 PrsmSu:  requested number of processors reduced to:  13 ShMem   1 Linda.
 Calling FoFJK, ICntrl=      2127 FMM=F ISym2X=0 I1Cent= 0 IOpClX= 0 NMat=1 NMatS=1 NMatT=0.
 ***** Axes restored to original set *****
 -------------------------------------------------------------------
 Center     Atomic                   Forces (Hartrees/Bohr)
 Number     Number              X              Y              Z
 -------------------------------------------------------------------
      1        7           0.003453268   -0.000853732   -0.001375243
      2        6          -0.003081692   -0.002677867   -0.002592299
      3        7           0.002164427    0.005047052    0.004442790
      4        7          -0.001212122   -0.000846544    0.004173702
      5        6           0.001414105   -0.000936901   -0.003304367
      6        7          -0.000371511    0.004232738   -0.001094230
      7        6          -0.001364994    0.001744911   -0.000448870
      8        7           0.000328234   -0.006841589    0.002194988
      9        9          -0.000793393    0.000174023   -0.000726062
     10        1          -0.000307964   -0.000097856    0.000569777
     11        1           0.000054209   -0.000037966   -0.000019408
     12        1          -0.001124625   -0.000905803   -0.000170578
     13        1           0.000090553    0.000689583   -0.000575369
     14        1          -0.000017373   -0.000723087   -0.000046978
     15        1           0.000723652    0.000966444   -0.000600133
     16        1           0.000149830    0.000701986    0.001544050
     17        1          -0.000385688   -0.000550516    0.000532160
     18        1          -0.001078055    0.000255400   -0.000438688
     19        1           0.001359140    0.000659724   -0.002065241
 -------------------------------------------------------------------
 Cartesian Forces:  Max     0.006841589 RMS     0.001945845

 GradGradGradGradGradGradGradGradGradGradGradGradGradGradGradGradGradGrad
 Berny optimization.
 Using GEDIIS/GDIIS optimizer.
 FormGI is forming the generalized inverse of G from B-inverse, IUseBI=4.
 Internal  Forces:  Max     0.010428397 RMS     0.001737357
 Search for a local minimum.
 Step number   3 out of a maximum of   88
 All quantities printed in internal units (Hartrees-Bohrs-Radians)
 Mixed Optimization -- RFO/linear search
 Update second derivatives using D2CorX and points    1    2    3
 DE= -1.26D-03 DEPred=-1.89D-03 R= 6.68D-01
 TightC=F SS=  1.41D+00  RLast= 2.59D-01 DXNew= 8.4853D-01 7.7768D-01
 Trust test= 6.68D-01 RLast= 2.59D-01 DXMaxT set to 7.78D-01
 ITU=  1  1  0
 Use linear search instead of GDIIS.
     Eigenvalues ---    0.00663   0.00834   0.00932   0.00955   0.01118
     Eigenvalues ---    0.01264   0.02967   0.04536   0.04643   0.05515
     Eigenvalues ---    0.06238   0.06424   0.07206   0.07235   0.07559
     Eigenvalues ---    0.08816   0.11265   0.11359   0.11555   0.11857
     Eigenvalues ---    0.13759   0.14602   0.15569   0.16000   0.16007
     Eigenvalues ---    0.16097   0.18875   0.21298   0.21967   0.23468
     Eigenvalues ---    0.24825   0.25222   0.27217   0.33633   0.34104
     Eigenvalues ---    0.34105   0.34187   0.34346   0.35364   0.35964
     Eigenvalues ---    0.37515   0.37643   0.40762   0.43177   0.44618
     Eigenvalues ---    0.44686   0.44786   0.44810   0.46158   0.54009
     Eigenvalues ---    0.81567
 RFO step:  Lambda=-1.93933609D-03 EMin= 6.63135797D-03
 Quartic linear search produced a step of -0.23353.
 Iteration  1 RMS(Cart)=  0.08632327 RMS(Int)=  0.00483314
 Iteration  2 RMS(Cart)=  0.00615147 RMS(Int)=  0.00002913
 Iteration  3 RMS(Cart)=  0.00003108 RMS(Int)=  0.00002657
 Iteration  4 RMS(Cart)=  0.00000000 RMS(Int)=  0.00002657
 Variable       Old X    -DE/DX   Delta X   Delta X   Delta X     New X
                                 (Linear)    (Quad)   (Total)
    R1        2.75573  -0.00329   0.00148  -0.01110  -0.00962   2.74611
    R2        1.91801   0.00033  -0.00020   0.00100   0.00079   1.91880
    R3        1.92049  -0.00002   0.00007  -0.00034  -0.00028   1.92021
    R4        2.77946   0.00265  -0.00384   0.01916   0.01532   2.79478
    R5        2.08556   0.00030  -0.00013   0.00177   0.00165   2.08721
    R6        2.07261  -0.00062  -0.00045   0.00047   0.00002   2.07263
    R7        2.33401  -0.00131   0.00089  -0.00576  -0.00487   2.32913
    R8        2.78457   0.00067  -0.00156   0.00682   0.00526   2.78983
    R9        2.74828  -0.00218   0.00103  -0.00771  -0.00668   2.74160
   R10        2.07051  -0.00049  -0.00048   0.00064   0.00016   2.07067
   R11        2.09133   0.00051  -0.00060   0.00409   0.00350   2.09482
   R12        2.75501  -0.00438   0.00134  -0.00983  -0.00849   2.74653
   R13        1.92467  -0.00127   0.00108  -0.00575  -0.00466   1.92000
   R14        2.72536  -0.00505   0.00300  -0.01776  -0.01476   2.71059
   R15        2.58936  -0.00081  -0.00198   0.00762   0.00563   2.59499
   R16        2.09169  -0.00052  -0.00150   0.00539   0.00389   2.09559
   R17        1.92615  -0.00069  -0.00051   0.00081   0.00031   1.92646
   R18        1.92019  -0.00104  -0.00047   0.00068   0.00021   1.92040
    A1        1.90821   0.00054  -0.00238   0.01155   0.00916   1.91737
    A2        1.90819  -0.00010  -0.00002   0.00152   0.00149   1.90968
    A3        1.86087   0.00001  -0.00015   0.00200   0.00182   1.86269
    A4        1.88057   0.00082   0.00071  -0.00275  -0.00204   1.87853
    A5        2.02958  -0.00164  -0.00377   0.01305   0.00928   2.03886
    A6        1.90076   0.00044   0.00000   0.00117   0.00116   1.90192
    A7        1.87519   0.00107   0.00464  -0.01102  -0.00639   1.86880
    A8        1.90168  -0.00110  -0.00173  -0.00121  -0.00294   1.89874
    A9        1.87321   0.00038   0.00018  -0.00001   0.00014   1.87335
   A10        1.96932  -0.00133  -0.00441   0.01159   0.00718   1.97649
   A11        1.96429  -0.00060  -0.00530   0.01826   0.01295   1.97724
   A12        1.87373   0.00074   0.00261  -0.01066  -0.00804   1.86569
   A13        1.91755  -0.00071  -0.00481   0.01459   0.00978   1.92732
   A14        1.87348   0.00078   0.00369  -0.00764  -0.00394   1.86954
   A15        1.92529  -0.00009  -0.00050   0.00097   0.00048   1.92577
   A16        1.99583  -0.00094  -0.00204   0.00707   0.00503   2.00087
   A17        1.87681   0.00021   0.00088  -0.00371  -0.00284   1.87397
   A18        1.98856  -0.00010   0.00053  -0.00054  -0.00007   1.98850
   A19        1.89281   0.00045  -0.00521   0.02373   0.01847   1.91128
   A20        1.89198  -0.00003   0.00001   0.00438   0.00429   1.89627
   A21        2.01777  -0.00446   0.00582  -0.02848  -0.02269   1.99508
   A22        1.83740   0.00064  -0.00122   0.00250   0.00125   1.83866
   A23        1.96870   0.00147  -0.00189   0.01123   0.00929   1.97799
   A24        1.88468   0.00137  -0.00073   0.00599   0.00523   1.88990
   A25        1.87163   0.00172   0.00225  -0.00601  -0.00376   1.86788
[...]
 ,-0.00883814,0.00910943,0.02222374,-0.12158314,0.01318378,0.05124679,0
 .35635239,0.00347273,0.00477100,-0.00145877,0.00631463,0.00030890,-0.0
 2706542,0.14648681,0.01365441,-0.00917413,-0.15504501,-0.04452088,0.10
 530941,-0.00033121,-0.00164855,0.00028883,-0.00106936,0.00311568,0.005
 52866,-0.04366193,-0.06121212,0.01587308,-0.07304768,0.01840103,-0.003
 01287,0.54569873,-0.00057630,0.00066376,-0.00069733,0.00235186,0.00366
 823,0.00160565,-0.02373907,-0.00836221,0.00525926,-0.01512210,-0.17587
 601,0.02485290,-0.07154809,0.50694581,-0.00196138,-0.00444675,0.000055
 82,0.00724315,0.00428475,0.02769547,0.00634277,0.01247662,-0.03081192,
 0.00437490,0.00679179,-0.06886049,-0.03386438,0.03397481,0.51526915,-0
 .00024743,-0.00060649,0.00050612,0.00068660,0.00047165,0.00111457,-0.0
 0012596,-0.00411020,-0.00181454,-0.02571524,-0.01215786,-0.00538440,-0
 .18001518,0.00124443,-0.08805537,0.57983372,-0.00068541,-0.00182243,0.
 00115182,0.00067028,0.00258670,0.00363422,-0.00453797,-0.00684328,-0.0
 0172587,-0.04206949,-0.00585428,-0.01967347,0.01374456,-0.10668177,-0.
 01037025,-0.07739844,0.62681749,0.00021055,0.00035972,0.00016824,-0.00
 029758,-0.00006230,-0.00171748,0.00199131,0.00149451,0.00022664,0.0044
 7912,-0.00193765,0.00678820,-0.04243698,-0.00262216,-0.09315273,0.0285
 3699,0.03576918,0.21143385,0.00019136,0.00021203,-0.00035654,-0.000635
 60,-0.00055001,0.00093798,0.00036400,-0.00151001,-0.00067422,-0.003255
 27,0.00202218,-0.00070535,-0.02400216,-0.02727898,0.00774646,-0.111730
 05,-0.04420939,0.01061447,0.46976302,0.00050902,0.00070186,-0.00095996
 ,-0.00099204,-0.00099039,0.00004700,0.00224020,0.00150337,-0.00107757,
 0.00342000,-0.00229246,0.00382779,-0.02161623,0.00046486,-0.00037878,-
 0.02706492,-0.17442805,0.01746516,-0.01943953,0.51395155,-0.00008531,-
 0.00020179,-0.00007010,0.00011571,0.00028972,0.00059829,-0.00107510,-0
 .00082833,0.00050034,-0.00287363,0.00014906,-0.00272061,-0.01137141,-0
 .01799231,-0.00592435,0.02833543,0.05737097,-0.08712056,-0.01564685,-0
 .01037336,0.62813090,-0.00010631,-0.00013716,0.00018680,0.00024429,0.0
 0028182,-0.00015472,-0.00025930,0.00047279,-0.00031227,0.00121670,-0.0
 0157730,0.00004762,-0.00274690,0.00102973,0.00166007,0.01310693,-0.005
 09983,-0.00403098,-0.09644866,0.08319043,0.05299065,0.39178185,-0.0002
 2799,-0.00020659,0.00041929,0.00048130,0.00040431,-0.00034580,-0.00069
 532,0.00017830,0.00034311,-0.00085996,-0.00018080,-0.00085247,0.004773
 90,-0.00100834,0.00162333,0.01599465,-0.05192946,-0.01210542,0.0193357
 6,-0.17588264,-0.04860019,-0.22413331,0.47886746,-0.00006661,-0.000031
 12,0.00019032,0.00012753,0.00010050,-0.00028386,-0.00015938,0.00006620
 ,0.00017835,0.00008027,0.00000084,0.00014068,0.00090395,0.00086369,0.0
 0052843,-0.00005387,0.00348179,0.01148699,0.01679444,-0.04471984,-0.15
 595597,-0.10766027,-0.17350185,0.64714452,-0.00021278,-0.00046286,0.00
 046992,0.00034874,0.00074201,0.00001189,-0.00116324,-0.00135330,0.0001
 3985,-0.00220286,0.00127134,-0.00183578,0.00270310,-0.00810526,0.00425
 212,-0.06109301,-0.01121803,-0.01511117,-0.18714072,0.00514611,-0.0588
 4113,-0.02555297,0.04027595,0.00329244,0.30634419,-0.00010822,-0.00014
 983,0.00018872,0.00018756,0.00019216,0.00011451,-0.00055555,-0.0006688
 3,0.00013114,-0.00142993,0.00085467,-0.00096125,-0.00072051,-0.0032491
 8,0.00283245,-0.03835518,0.00162610,-0.01222499,0.01399653,-0.06576480
 ,0.01242014,0.03701648,-0.01823263,0.00505776,-0.02866550,0.07786942,-
 0.00002070,-0.00003135,0.00012162,0.00001091,0.00008187,-0.00018403,-0
 .00018732,-0.00019165,0.00002591,-0.00009242,0.00035955,0.00036539,0.0
 0023243,0.00012369,0.00245074,0.00173842,-0.00108215,0.00894521,-0.055
 48848,0.00663694,-0.10112716,0.01049648,-0.00157298,0.01867645,0.08279
 751,-0.01058764,0.08287476,-0.08318223,-0.10456221,0.05456075,-0.00514
 699,-0.02442808,0.00027682,-0.00336490,0.00182865,0.00482929,-0.000258
 51,-0.00165455,0.00115800,-0.00047980,0.00012147,-0.00086424,-0.000213
 95,-0.00061799,0.00003463,0.00011083,0.00033519,-0.00002352,-0.0000655
 3,-0.00011779,-0.00004395,-0.00020137,-0.00006722,-0.00003619,0.083320
 38,-0.08623581,-0.37510856,0.11275668,0.00259386,0.00232491,-0.0087230
 0,-0.00154472,-0.00010207,0.00064265,0.00059878,0.00028569,-0.00023127
 ,0.00012642,0.00006423,0.00014385,0.00000801,0.00000236,-0.00000791,0.
 00003248,0.00002571,-0.00000411,-0.00001038,-0.00001236,-0.00000558,-0
 .00001140,-0.00000117,-0.00000271,0.09512762,0.39148047,0.03327746,0.0
 6693788,-0.03968214,0.01119034,0.03153743,-0.01409125,0.00261528,-0.00
 340594,-0.00350727,0.00064837,0.00148897,-0.00058540,0.00032971,-0.000
 07800,0.00052881,-0.00003148,0.00007725,-0.00007876,0.00010178,0.00007
 201,0.00003692,-0.00004213,-0.00004852,-0.00002779,-0.00005594,-0.0000
 0708,-0.00002401,-0.04801526,-0.10561543,0.06044804,-0.30258205,0.1785
 5596,-0.05071779,-0.02188674,0.01247406,-0.00994002,0.00035721,0.00066
 781,-0.00109709,0.00051965,-0.00080469,0.00051533,-0.00016027,-0.00025
 182,-0.00017915,0.00007300,0.00006370,-0.00000244,-0.00011061,-0.00008
 106,0.00002106,0.00004490,0.00003229,0.00000611,0.00008384,0.00000879,
 0.00001131,0.00866505,-0.01144363,0.00091345,0.31364222,0.14272997,-0.
 14034569,0.05386460,0.00330014,-0.00140825,-0.00251301,0.00006574,0.00
 234926,-0.00074909,0.00010245,-0.00099080,0.00018921,-0.00012839,-0.00
 003531,0.00006850,0.00005871,-0.00003527,-0.00002175,-0.00009225,0.000
 01741,0.00003325,0.00004502,-0.00001333,-0.00001394,0.00005656,-0.0000
 0998,0.00000417,0.03323440,-0.01969916,0.00922921,-0.17843738,0.158748
 72,-0.07876767,0.08217958,-0.05738336,0.03223948,-0.02243603,0.0014051
 0,-0.00111333,-0.00011132,0.00039532,-0.00028824,0.00038079,0.00015627
 ,0.00000897,0.00027348,0.00006694,-0.00006399,-0.00013039,-0.00004289,
 0.00002130,0.00014089,0.00002932,-0.00000706,-0.00006659,-0.00003388,-
 0.00003667,-0.00002839,-0.00001284,-0.01147726,0.00142063,-0.00479386,
 0.05568480,-0.06147875,0.06209342,0.00887089,0.00594860,0.02693914,-0.
 10470671,-0.02555532,-0.09521037,-0.00943458,-0.00652692,-0.01006116,0
 .00076953,-0.00292481,-0.00180233,0.00028674,0.00008126,0.00255164,0.0
 0002367,-0.00006429,-0.00002408,0.00021325,0.00031820,-0.00000989,-0.0
 0007530,-0.00015006,-0.00005516,-0.00015137,-0.00005262,-0.00002632,0.
 00086831,0.00077245,-0.00080242,0.00260987,-0.00042809,-0.00000936,0.1
 1036772,0.00136549,0.00545191,-0.00122234,-0.02349234,-0.06799879,-0.0
 4831974,-0.02228356,-0.01288224,-0.02248253,-0.00033408,-0.00393372,-0
 .00536779,0.00028404,0.00033670,0.00523840,0.00011386,0.00009590,-0.00
 020034,0.00029796,0.00037034,0.00004252,-0.00009830,-0.00019178,-0.000
 08772,-0.00019775,-0.00005327,-0.00005796,0.00051826,0.00014246,0.0002
 3795,-0.00033238,0.00018452,-0.00078540,0.03503835,0.07230742,0.001370
 46,-0.00787413,-0.03461776,-0.09578492,-0.04741668,-0.20290105,-0.0000
 1678,-0.00054537,0.00563120,0.00097192,0.00043882,0.00062214,-0.000528
 33,-0.00078044,-0.00094119,-0.00000767,0.00003196,0.00014324,-0.000085
 63,-0.00014420,-0.00009402,0.00002830,0.00007948,0.00004937,0.00006022
 ,0.00001872,0.00003368,0.00008061,-0.00047949,0.00044610,0.00019027,0.
 00178821,0.00213709,0.09762643,0.05663591,0.23398598,-0.01615610,0.013
 24162,-0.00037459,-0.19697757,0.12087140,-0.03825829,0.00821244,-0.009
 20164,0.00426952,0.00319217,-0.00229637,-0.00147758,0.00007814,-0.0000
 8198,0.00038599,-0.00004133,0.00010972,0.00002433,-0.00005047,0.000006
 79,0.00001129,0.00003372,0.00001036,-0.00000071,0.00003327,-0.00000678
 ,0.00001063,-0.00010464,-0.00000548,-0.00011156,-0.00123445,-0.0004899
 0,0.00376673,-0.00934837,0.00978605,-0.00402139,0.21265696,0.00053146,
 0.00107672,-0.00123004,0.11628661,-0.14537653,0.02965709,0.01784850,-0
 .03625036,0.00914984,0.00425329,0.00607472,-0.00017113,-0.00057253,0.0
 0077799,-0.00143361,-0.00037277,-0.00034851,0.00002196,0.00009529,0.00
 020084,-0.00003746,-0.00005744,-0.00004469,-0.00001149,-0.00016853,-0.
 00004274,-0.00002375,0.00033125,0.00059762,-0.00042307,-0.00043119,0.0
 0134082,0.00067506,-0.00593195,0.00718403,-0.00210734,-0.13199263,0.16
 423947,0.02503596,-0.02087570,0.00333191,-0.04283727,0.03609202,-0.064
 08936,-0.00290112,0.00457884,0.00284253,-0.00014513,-0.00134624,-0.001
 52443,0.00016138,-0.00039706,0.00000897,0.00011963,0.00017146,-0.00003
 340,-0.00007083,-0.00015048,0.00000815,0.00002849,0.00005229,0.0000162
 0,0.00008687,0.00002570,0.00000921,-0.00053072,0.00009606,0.00131391,0
 .00463075,-0.00036572,-0.00400880,-0.01926483,0.01615347,-0.00440800,0
 .03568726,-0.03403567,0.06649579,-0.00004794,0.00005678,-0.00004061,-0
 .00017358,-0.00010673,-0.00029763,0.00291899,-0.00166125,-0.00008587,0
 .00681800,-0.00937521,-0.00332554,-0.15255210,0.11119517,0.05273939,-0
 .02273678,0.02136808,0.00400881,-0.00109371,0.00453076,0.00042154,0.00
 220250,-0.00041140,0.00000494,0.00005888,-0.00123784,-0.00008940,-0.00
 000851,-0.00000752,-0.00000276,-0.00003044,-0.00000520,0.00003839,-0.0
 0001854,-0.00013102,0.00002978,-0.00023215,0.00015910,-0.00004513,0.17
 052044,-0.00029968,-0.00024615,0.00016280,-0.00009111,0.00114997,0.001
 33494,0.00345095,0.00590027,-0.00334329,0.01489464,-0.03652532,-0.0058
 3730,0.11007755,-0.16920596,-0.05750350,-0.00116245,0.00614017,0.00293
 108,-0.00012132,-0.00007412,0.00062231,-0.00078663,-0.00038409,-0.0003
 9920,0.00036861,-0.00006669,-0.00012255,-0.00008965,0.00001278,0.00004
 371,-0.00008193,-0.00009249,0.00001011,0.00006660,0.00014357,0.0000619
 3,0.00016030,0.00049552,-0.00014718,-0.12393034,0.18997801,0.00002091,
 -0.00005353,0.00004357,-0.00011361,0.00017707,-0.00018575,-0.00273206,
 0.00026420,-0.00102709,-0.00229507,0.00963434,0.00541823,0.05784151,-0
 .06452104,-0.08240104,-0.01377220,0.01471573,0.00553982,-0.00002583,0.
 00044654,0.00058254,-0.00046231,-0.00022180,-0.00039912,0.00000754,-0.
 00036346,-0.00007508,-0.00001952,0.00000190,-0.00000907,0.00001499,-0.
 00000487,-0.00000559,-0.00003562,-0.00011239,0.00003327,0.00011730,-0.
 00003831,0.00004094,-0.05353049,0.06286178,0.08284371,0.00013007,0.000
 15347,0.00013394,-0.00060522,-0.00024558,-0.00248747,0.00122123,-0.002
 29939,0.00199581,-0.00331763,-0.00221996,0.01350869,-0.05030085,0.0028
 2172,0.02652479,-0.00992232,-0.00424361,-0.03870472,0.00335583,0.00635
 633,-0.00450912,0.00028031,-0.00082321,0.00056286,-0.00024520,-0.00028
 595,0.00108195,-0.00001945,-0.00001618,-0.00005598,0.00005183,0.000015
 03,-0.00001260,-0.00038359,-0.00069822,0.00013758,-0.00000753,0.000035
 01,0.00005085,0.00000944,-0.00060889,0.01887866,0.05845846,0.00031271,
 0.00041952,0.00021450,-0.00170716,-0.00075300,-0.00481224,0.00195532,-
 0.00221568,0.00577402,-0.00918714,-0.00454116,0.03044745,0.00434043,-0
 .05364765,0.00519982,-0.00257871,0.00334493,-0.00320985,0.00092201,0.0
 0260298,-0.00338502,-0.00017381,-0.00026099,0.00013828,-0.00016007,-0.
 00041179,0.00041014,0.00001901,-0.00001526,-0.00007394,0.00007010,-0.0
 0001294,-0.00005382,-0.00066373,-0.00123450,0.00030875,-0.00009418,0.0
 0014525,0.00013907,0.00312188,0.00303916,-0.02201036,0.00306256,0.0531
 2408,-0.00005461,-0.00011590,0.00005046,0.00070644,0.00078724,0.001057
 90,-0.00167776,0.00132585,-0.00121489,0.00593134,0.00412771,-0.0075560
 2,0.02796533,0.00592427,-0.26408308,-0.01557998,-0.00240808,-0.0193278
 0,0.00170031,0.00452546,0.00074929,0.00002231,-0.00094872,0.00016171,-
 0.00010376,-0.00042426,0.00065259,-0.00002239,-0.00000188,-0.00001786,
 -0.00002157,-0.00001516,-0.00002850,0.00017639,0.00027858,-0.00006565,
 0.00001076,-0.00010003,0.00000848,0.00168597,0.00058484,-0.01027198,-0
 .01900257,-0.01093723,0.29849351,0.00006086,0.00007849,-0.00013902,-0.
 00012180,-0.00036183,0.00029651,0.00076432,-0.00113109,-0.00062676,0.0
 0225977,0.00190089,0.00134173,-0.02467146,0.02862027,0.00923135,-0.180
 70171,0.16782108,0.03837683,0.01258141,-0.01577259,-0.00205987,-0.0008
 1303,-0.00490334,-0.00063047,-0.00075683,0.00011804,-0.00047134,0.0000
 4581,0.00000601,0.00001175,-0.00001192,0.00000975,0.00001429,0.0000693
 8,0.00010188,-0.00003580,-0.00003741,-0.00005699,0.00001041,-0.0047605
 6,-0.00155156,-0.00383582,0.00137743,-0.00003353,-0.00025717,0.1951471
 8,0.00005882,-0.00003502,-0.00000844,-0.00011442,-0.00000730,-0.000043
 06,0.00017501,-0.00132319,0.00014534,-0.00064868,0.00225778,0.00010090
 ,-0.00234041,0.00579703,-0.00002890,0.15982549,-0.27692091,-0.05704669
 ,0.02303117,-0.02780137,-0.01139400,-0.00246710,-0.00599360,0.00149579
 ,0.00032798,0.00455797,0.00055940,-0.00000958,-0.00000302,-0.00000080,
 0.00001531,0.00001394,-0.00000437,0.00001533,-0.00001603,0.00000615,-0
 .00000520,-0.00009387,0.00002874,-0.00202858,-0.00018213,-0.00043076,-
 0.00059655,0.00010227,-0.00068388,-0.17441652,0.29910536,-0.00002018,0
 .00004583,-0.00010912,-0.00000801,-0.00018184,-0.00006025,0.00055051,0
 .00029184,0.00038600,0.00041144,-0.00062723,-0.00041797,-0.01618211,0.
 01541166,-0.00199855,0.06151767,-0.09279105,-0.03781863,-0.00158257,0.
 01311814,-0.00273537,0.00041744,-0.00189546,0.00161781,-0.00204953,0.0
 0012732,-0.00138873,0.00004109,0.00000282,0.00002231,-0.00001018,-0.00
 000664,0.00000190,-0.00004857,-0.00000470,-0.00003726,-0.00003099,0.00
 007149,0.00001477,-0.00092336,-0.00067514,0.00012547,-0.00048921,0.000
 54377,0.00102604,-0.04155292,0.06667021,0.03995872,-0.00001510,-0.0000
 2738,0.00000319,0.00006911,0.00003084,0.00005969,0.00005519,0.00012865
 ,-0.00009876,0.00009775,-0.00008028,-0.00030698,0.00326471,0.00020152,
 0.00276639,-0.00195980,-0.01146274,0.01491921,-0.05000869,-0.00185744,
 0.01946429,0.00133409,0.00295205,0.01542378,-0.02038645,0.01090299,-0.
 04156389,-0.00000481,-0.00000098,-0.00000117,0.00000511,0.00000469,0.0
 0000107,-0.00000276,0.00000783,0.00000055,-0.00000145,-0.00000537,0.00
 000520,-0.00011140,-0.00000922,-0.00002730,0.00016385,0.00067981,-0.00
 147867,-0.00033889,-0.00031450,0.00051792,0.06618084,-0.00005383,-0.00
 008860,0.00007924,0.00015245,0.00011193,0.00007397,0.00004448,0.000108
 19,-0.00008706,-0.00012501,-0.00008657,-0.00065184,0.00524702,0.000873
 36,0.00332585,-0.01373698,-0.01549345,0.03166268,-0.00150149,-0.060604
 80,0.03523798,0.00809682,0.00177257,-0.03071139,0.00463348,0.00421924,
 0.00622891,-0.00003195,-0.00000243,-0.00000495,0.00001048,0.00000144,-
 0.00001332,-0.00002960,-0.00001696,0.00001222,-0.00000272,-0.00001931,
 0.00002184,-0.00044221,0.00008334,-0.00032877,-0.00054513,0.00025255,-
 0.00225845,-0.00030555,0.00112232,0.00000795,-0.00202406,0.07068497,0.
 00004649,0.00008064,0.00000005,-0.00010535,-0.00007766,-0.00018058,0.0
 0005781,-0.00002528,0.00006867,0.00036453,0.00014363,0.00062631,-0.001
 50512,-0.00042649,0.00168134,0.00499102,0.00953529,-0.00637150,0.01501
 606,0.02572406,-0.26601898,0.00520272,0.00010307,-0.01863072,-0.015159
 70,0.00547033,-0.01139057,0.00001277,0.00000018,-0.00000554,-0.0000109
 9,-0.00001091,-0.00000480,0.00001435,-0.00000794,0.00002238,-0.0000022
 0,0.00001075,-0.00001126,0.00013817,-0.00015826,-0.00012690,0.00217438
 ,0.00112956,0.00051228,0.00023653,0.00012702,0.00055678,-0.01284465,-0
 .03855108,0.29925010,0.00003548,0.00007071,-0.00006190,-0.00008737,-0.
 00010523,0.00002904,0.00008211,0.00000046,0.00009071,-0.00011108,0.000
 18027,0.00003856,0.00038765,-0.00063827,-0.00080570,-0.00036584,0.0006
 0647,-0.00232014,-0.00609713,-0.01252066,0.00993473,-0.13907281,-0.023
 92799,0.19761111,-0.00293271,0.00272051,-0.00074562,0.00002531,0.00000
 716,0.00001938,-0.00002416,-0.00002648,-0.00000312,0.00002386,0.000031
 45,-0.00000735,-0.00000900,0.00003066,-0.00001267,-0.00044406,-0.00010
 047,-0.00023821,-0.00023194,0.00006032,0.00003506,0.00013516,0.0002104
 1,-0.00012985,0.00191426,0.00082606,0.00027096,0.13790116,0.00007379,0
 .00008116,-0.00010333,-0.00015614,-0.00012771,0.00005651,0.00008842,-0
 .00002611,0.00003210,0.00003853,-0.00002874,0.00017264,-0.00157115,-0.
 00063096,-0.00138366,-0.00073504,0.00424025,0.00126982,0.01713731,0.00
 675370,-0.03460425,-0.03015465,-0.07319594,0.10606602,0.00023207,-0.00
 065635,0.00141624,0.00003392,0.00000413,0.00001651,-0.00001631,-0.0000
 0317,0.00001704,0.00004581,0.00005251,-0.00001634,-0.00000180,0.000020
 48,-0.00002382,-0.00017818,-0.00013577,-0.00024766,0.00036156,0.000085
 14,0.00052935,0.00021714,0.00029951,0.00064066,0.00248795,-0.00469990,
 -0.00304276,0.02844601,0.07292896,0.00005118,0.00004649,-0.00015119,-0
 .00013754,-0.00012991,0.00013935,0.00017734,-0.00010306,-0.00000381,-0
 .00021418,0.00044027,0.00010655,0.00030375,-0.00062258,-0.00074533,-0.
 00272897,0.00332380,0.00167684,0.01254901,0.00028330,-0.01958985,0.156
 29865,0.08077227,-0.29510966,-0.00093330,0.00090371,-0.00002390,0.0000
 4079,0.00000664,0.00002519,-0.00001269,-0.00000417,0.00002177,0.000039
 05,0.00005491,-0.00003239,-0.00000983,0.00003104,-0.00001351,-0.000856
 08,-0.00020172,-0.00010547,0.00004487,0.00018557,0.00001922,0.00023201
 ,0.00117257,0.00080858,0.00240244,-0.00359651,-0.00050603,-0.18108251,
 -0.08593214,0.32897638,0.00002528,0.00003384,-0.00005095,-0.00005669,-
 0.00006197,0.00004406,0.00005072,-0.00000198,0.00002930,-0.00017993,0.
 00018465,0.00001160,0.00061986,-0.00032553,-0.00008876,0.00114467,-0.0
 0277672,-0.00026818,-0.00600662,-0.00670855,-0.01479889,-0.14510448,0.
 17239410,-0.12613703,-0.00753252,0.00653441,0.00234204,0.00001507,0.00
 000333,0.00001125,-0.00001203,-0.00001474,0.00000427,0.00001798,0.0000
 2246,-0.00000829,-0.00000619,0.00001822,-0.00000910,-0.00031847,-0.000
 18541,0.00020712,-0.00001474,0.00005417,-0.00003544,-0.00022769,-0.000
 71797,-0.00042860,-0.00025556,-0.00021226,0.00110221,0.00887109,-0.016
 34923,0.01383601,0.14897026,0.00005990,0.00005670,-0.00009852,-0.00010
 855,-0.00011137,0.00011109,0.00009885,-0.00007070,0.00006843,-0.000519
 52,0.00030370,-0.00005785,0.00124735,-0.00089457,-0.00041471,0.0005622
 4,-0.00449650,-0.00153503,0.01762027,-0.01875397,0.02125486,0.13456282
 ,-0.15368540,0.13221126,-0.00271141,-0.00001230,-0.00214818,0.00002929
 ,0.00000370,0.00001682,-0.00001809,-0.00000970,0.00001083,0.00004079,0
 .00005791,-0.00001817,-0.00000751,0.00002251,-0.00001762,-0.00091630,-
 0.00003008,0.00023139,-0.00022301,-0.00002291,-0.00018971,-0.00034055,
 -0.00087974,-0.00074963,-0.00161436,0.00178210,-0.00002416,0.00412861,
 -0.00496118,0.00336952,-0.15189082,0.18170179,-0.00000216,-0.00001653,
 -0.00000976,0.00000874,0.00001956,0.00006581,-0.00005003,-0.00000306,-
 0.00006386,-0.00004205,-0.00013491,-0.00016993,-0.00053640,-0.00015201
 ,0.00063301,0.00063263,-0.00108221,-0.00074527,0.00915450,-0.01448310,
 0.01072122,-0.11470980,0.15676697,-0.20974982,0.00300861,-0.00269344,0
 .00007074,-0.00000173,-0.00000002,0.00000166,0.00000383,0.00000684,0.0
 0000738,0.00000310,0.00000710,-0.00000715,0.00000330,-0.00000530,-0.00
 000211,0.00012989,-0.00022537,-0.00002045,0.00016729,-0.00000846,-0.00
 016571,-0.00014227,-0.00066522,0.00004750,0.00075767,-0.00044728,0.000
 52899,-0.02262249,0.01513706,-0.01549274,0.12423738,-0.15202061,0.2143
 5047\\0.00000595,0.00000322,0.00000366,-0.00000531,-0.00001100,-0.0000
 0186,0.00001248,0.00000644,-0.00000299,-0.00000730,0.00000296,-0.00000
 542,-0.00001582,0.00000538,-0.00001332,-0.00000083,-0.00002329,0.00002
 749,0.00002243,0.00003019,-0.00000898,0.00001798,-0.00000896,-0.000006
 25,-0.00001688,-0.00000031,0.00000127,-0.00000232,-0.00000262,0.000000
 39,-0.00000210,-0.00000122,-0.00000205,-0.00000010,0.00000310,0.000001
 95,-0.00000039,0.00000055,0.00000156,0.00000096,0.00000094,0.00000199,
 0.00000445,-0.00000309,0.00000426,0.00000232,-0.00000078,-0.00000456,-
 0.00000406,-0.00000027,-0.00000006,-0.00000269,0.00000122,0.00000321,-
 0.00000876,-0.00000247,-0.00000028\\\@


 IF OTHER PEOPLE ARE GOING TO TALK, CONVERSATION IS SIMPLY IMPOSSIBLE.

                                               -- WHISTLER'S PRINCIPLE
 Job cpu time:       0 days  1 hours 55 minutes 24.5 seconds.
 Elapsed time:       0 days  0 hours 28 minutes 52.8 seconds.
 File lengths (MBytes):  RWF=    142 Int=      0 D2E=      0 Chk=      8 Scr=      1
 Normal termination of Gaussian 16 at Mon May 31 13:37:08 2021.
### All Done ###
