### Starting Gaussian ###
 Entering Gaussian System, Link 0=g16
 Initial command:
 /cluster/software/gaussian/gaussian-16-A.03/avx2/g16/l1.exe "/local/scratch/yxie/Gau-5133.inp" -scrdir="/local/scratch/yxie/"
 Entering Link 1 = /cluster/software/gaussian/gaussian-16-A.03/avx2/g16/l1.exe PID=      5134.
  
 Copyright (c) 1988,1990,1992,1993,1995,1998,2003,2009,2016,
            Gaussian, Inc.  All Rights Reserved.
  
 This is part of the Gaussian(R) 16 program.  It is based on
 the Gaussian(R) 09 system (copyright 2009, Gaussian, Inc.),
 the Gaussian(R) 03 system (copyright 2003, Gaussian, Inc.),
 the Gaussian(R) 98 system (copyright 1998, Gaussian, Inc.),
 the Gaussian(R) 94 system (copyright 1995, Gaussian, Inc.),
 the Gaussian 92(TM) system (copyright 1992, Gaussian, Inc.),
 the Gaussian 90(TM) system (copyright 1990, Gaussian, Inc.),
 the Gaussian 88(TM) system (copyright 1988, Gaussian, Inc.),
 the Gaussian 86(TM) system (copyright 1986, Carnegie Mellon
 University), and the Gaussian 82(TM) system (copyright 1983,
 Carnegie Mellon University). Gaussian is a federally registered
 trademark of Gaussian, Inc.
  
 This software contains proprietary and confidential information,
 including trade secrets, belonging to Gaussian, Inc.
  
 This software is provided under written license and may be
 used, copied, transmitted, or stored only in accord with that
 written license.
  
 The following legend is applicable only to US Government
 contracts under FAR:
  
                    RESTRICTED RIGHTS LEGEND
  
 Use, reproduction and disclosure by the US Government is
 subject to restrictions as set forth in subparagraphs (a)
 and (c) of the Commercial Computer Software - Restricted
 Rights clause in FAR 52.227-19.
  
 Gaussian, Inc.
 340 Quinnipiac St., Bldg. 40, Wallingford CT 06492
  
  
 ---------------------------------------------------------------
 Warning -- This program may not be used in any manner that
 competes with the business of Gaussian, Inc. or will provide
 assistance to any competitor of Gaussian, Inc.  The licensee
 of this program is prohibited from giving any competitor of
 Gaussian, Inc. access to this program.  By using this program,
 the user acknowledges that Gaussian, Inc. is engaged in the
 business of creating and licensing software in the field of
 computational chemistry and represents and warrants to the
 licensee that it is not a competitor of Gaussian, Inc. and that
 it will not use this program in any manner prohibited above.
 ---------------------------------------------------------------
  

 Cite this work as:
 Gaussian 16, Revision A.03,
 M. J. Frisch, G. W. Trucks, H. B. Schlegel, G. E. Scuseria, 
 M. A. Robb, J. R. Cheeseman, G. Scalmani, V. Barone, 
 G. A. Petersson, H. Nakatsuji, X. Li, M. Caricato, A. V. Marenich, 
 J. Bloino, B. G. Janesko, R. Gomperts, B. Mennucci, H. P. Hratchian, 
 J. V. Ortiz, A. F. Izmaylov, J. L. Sonnenberg, D. Williams-Young, 
 F. Ding, F. Lipparini, F. Egidi, J. Goings, B. Peng, A. Petrone, 
 T. Henderson, D. Ranasinghe, V. G. Zakrzewski, J. Gao, N. Rega, 
 G. Zheng, W. Liang, M. Hada, M. Ehara, K. Toyota, R. Fukuda, 
 J. Hasegawa, M. Ishida, T. Nakajima, Y. Honda, O. Kitao, H. Nakai, 
 T. Vreven, K. Throssell, J. A. Montgomery, Jr., J. E. Peralta, 
 F. Ogliaro, M. J. Bearpark, J. J. Heyd, E. N. Brothers, K. N. Kudin, 
 V. N. Staroverov, T. A. Keith, R. Kobayashi, J. Normand, 
 K. Raghavachari, A. P. Rendell, J. C. Burant, S. S. Iyengar, 
 J. Tomasi, M. Cossi, J. M. Millam, M. Klene, C. Adamo, R. Cammi, 
 J. W. Ochterski, R. L. Martin, K. Morokuma, O. Farkas, 
 J. B. Foresman, and D. J. Fox, Gaussian, Inc., Wallingford CT, 2016.
 
 ******************************************
 Gaussian 16:  ES64L-G16RevA.03 25-Dec-2016
                31-May-2021 
 ******************************************
 %chk=NCNNdNCdCCpNpCN.chk
 %NProcShared=20
 Will use up to   20 processors via shared memory.
 -----------------------------
 # opt freq b3lyp/6-31g(2df,p)
 -----------------------------
 1/18=20,19=15,26=3,38=1/1,3;
 2/9=110,12=2,17=6,18=5,40=1/2;
 3/5=1,6=6,7=104,11=2,25=1,30=1,71=1,74=-5/1,2,3;
 4//1;
 5/5=2,38=5/2;
 6/7=2,8=2,9=2,10=2,28=1/1;
 7//1,2,3,16;
 1/18=20,19=15,26=3/3(2);
 2/9=110/2;
 99//99;
 2/9=110/2;
 3/5=1,6=6,7=104,11=2,25=1,30=1,71=1,74=-5/1,2,3;
 4/5=5,16=3,69=1/1;
 5/5=2,38=5/2;
 7//1,2,3,16;
 1/18=20,19=15,26=3/3(-5);
 2/9=110/2;
 6/7=2,8=2,9=2,10=2,19=2,28=1/1;
 99/9=1/99;
 -------------------
 Title Card Required
 -------------------
 Symbolic Z-matrix:
 Charge =  0 Multiplicity = 1
 N                     1.09594  -0.19448   0.00087 
 C                     2.53929  -0.1093   -0.03103 
 N                     3.05283  -1.16784   0.78274 
 N                     4.39673  -1.36247   0.85208 
 N                     4.68267  -2.38615   1.51735 
 C                     6.03827  -2.59835   1.66612 
 C                     6.5843   -3.6045    2.38981 
 C                     8.07246  -3.8509    2.5692 
 N                     8.73086  -2.69562   3.18205 
 C                     8.38062  -5.13757   3.41791 
 N                     9.81539  -5.39616   3.61307 
 H                     0.72317   0.57183  -0.56232 
 H                     0.77474  -0.00714   0.94775 
 H                     2.87525   0.846     0.38203 
 H                     2.89871  -0.21777  -1.05829 
 H                     2.46032  -1.9269    1.09498 
 H                     6.70006  -1.89427   1.16816 
 H                     5.91363  -4.31308   2.86582 
 H                     8.52048  -4.00931   1.57938 
 H                     8.38825  -2.57301   4.13226 
 H                     8.55245  -1.84425   2.66351 
 H                     7.93253  -6.01476   2.93743 
 H                     7.92525  -5.0425    4.41128 
 H                     10.27514  -5.49303   2.70972 
 H                     9.95809  -6.26341   4.12441 
 

 GradGradGradGradGradGradGradGradGradGradGradGradGradGradGradGradGradGrad
 Berny optimization.
 Initialization pass.
                           ----------------------------
                           !    Initial Parameters    !
                           ! (Angstroms and Degrees)  !
 --------------------------                            --------------------------
 ! Name  Definition              Value          Derivative Info.                !
 --------------------------------------------------------------------------------
 ! R1    R(1,2)                  1.4462         estimate D2E/DX2                !
 ! R2    R(1,12)                 1.0215         estimate D2E/DX2                !
 ! R3    R(1,13)                 1.0173         estimate D2E/DX2                !
 ! R4    R(2,3)                  1.4305         estimate D2E/DX2                !
 ! R5    R(2,14)                 1.0937         estimate D2E/DX2                !
 ! R6    R(2,15)                 1.0937         estimate D2E/DX2                !
 ! R7    R(3,4)                  1.3597         estimate D2E/DX2                !
 ! R8    R(3,16)                 1.0123         estimate D2E/DX2                !
 ! R9    R(4,5)                  1.2539         estimate D2E/DX2                !
 ! R10   R(5,6)                  1.3801         estimate D2E/DX2                !
 ! R11   R(6,7)                  1.3543         estimate D2E/DX2                !
 ! R12   R(6,17)                 1.087          estimate D2E/DX2                !
 ! R13   R(7,8)                  1.5191         estimate D2E/DX2                !
 ! R14   R(7,18)                 1.0856         estimate D2E/DX2                !
 ! R15   R(8,9)                  1.4642         estimate D2E/DX2                !
 ! R16   R(8,10)                 1.5719         estimate D2E/DX2                !
 ! R17   R(8,19)                 1.098          estimate D2E/DX2                !
 ! R18   R(9,20)                 1.0175         estimate D2E/DX2                !
 ! R19   R(9,21)                 1.0127         estimate D2E/DX2                !
 ! R20   R(10,11)                1.4709         estimate D2E/DX2                !
 ! R21   R(10,22)                1.096          estimate D2E/DX2                !
 ! R22   R(10,23)                1.0969         estimate D2E/DX2                !
 ! R23   R(11,24)                1.0182         estimate D2E/DX2                !
 ! R24   R(11,25)                1.0168         estimate D2E/DX2                !
 ! A1    A(2,1,12)             107.9309         estimate D2E/DX2                !
 ! A2    A(2,1,13)             108.9538         estimate D2E/DX2                !
 ! A3    A(12,1,13)            105.0594         estimate D2E/DX2                !
 ! A4    A(1,2,3)              107.5863         estimate D2E/DX2                !
 ! A5    A(1,2,14)             110.4688         estimate D2E/DX2                !
 ! A6    A(1,2,15)             110.0505         estimate D2E/DX2                !
 ! A7    A(3,2,14)             108.7368         estimate D2E/DX2                !
 ! A8    A(3,2,15)             110.0558         estimate D2E/DX2                !
 ! A9    A(14,2,15)            109.9023         estimate D2E/DX2                !
 ! A10   A(2,3,4)              119.3237         estimate D2E/DX2                !
 ! A11   A(2,3,16)             121.3454         estimate D2E/DX2                !
 ! A12   A(4,3,16)             117.0941         estimate D2E/DX2                !
 ! A13   A(3,4,5)              111.6731         estimate D2E/DX2                !
 ! A14   A(4,5,6)              113.9975         estimate D2E/DX2                !
 ! A15   A(5,6,7)              124.5987         estimate D2E/DX2                !
 ! A16   A(5,6,17)             116.68           estimate D2E/DX2                !
 ! A17   A(7,6,17)             118.7191         estimate D2E/DX2                !
 ! A18   A(6,7,8)              125.351          estimate D2E/DX2                !
 ! A19   A(6,7,18)             118.0435         estimate D2E/DX2                !
 ! A20   A(8,7,18)             116.5886         estimate D2E/DX2                !
 ! A21   A(7,8,9)              111.2217         estimate D2E/DX2                !
 ! A22   A(7,8,10)             112.8673         estimate D2E/DX2                !
 ! A23   A(7,8,19)             108.4625         estimate D2E/DX2                !
 ! A24   A(9,8,10)             109.3731         estimate D2E/DX2                !
 ! A25   A(9,8,19)             107.92           estimate D2E/DX2                !
 ! A26   A(10,8,19)            106.7775         estimate D2E/DX2                !
 ! A27   A(8,9,20)             109.5453         estimate D2E/DX2                !
 ! A28   A(8,9,21)             111.7034         estimate D2E/DX2                !
 ! A29   A(20,9,21)            108.5149         estimate D2E/DX2                !
 ! A30   A(8,10,11)            114.0026         estimate D2E/DX2                !
 ! A31   A(8,10,22)            109.7731         estimate D2E/DX2                !
 ! A32   A(8,10,23)            109.6724         estimate D2E/DX2                !
 ! A33   A(11,10,22)           108.4378         estimate D2E/DX2                !
 ! A34   A(11,10,23)           107.4592         estimate D2E/DX2                !
 ! A35   A(22,10,23)           107.2578         estimate D2E/DX2                !
 ! A36   A(10,11,24)           109.843          estimate D2E/DX2                !
 ! A37   A(10,11,25)           110.7049         estimate D2E/DX2                !
 ! A38   A(24,11,25)           107.5557         estimate D2E/DX2                !
 ! D1    D(12,1,2,3)           178.7809         estimate D2E/DX2                !
 ! D2    D(12,1,2,14)           60.2268         estimate D2E/DX2                !
 ! D3    D(12,1,2,15)          -61.3091         estimate D2E/DX2                !
 ! D4    D(13,1,2,3)            65.2111         estimate D2E/DX2                !
 ! D5    D(13,1,2,14)          -53.343          estimate D2E/DX2                !
 ! D6    D(13,1,2,15)         -174.879          estimate D2E/DX2                !
 ! D7    D(1,2,3,4)            175.8156         estimate D2E/DX2                !
 ! D8    D(1,2,3,16)            13.2991         estimate D2E/DX2                !
 ! D9    D(14,2,3,4)           -64.5224         estimate D2E/DX2                !
 ! D10   D(14,2,3,16)          132.9611         estimate D2E/DX2                !
 ! D11   D(15,2,3,4)            55.909          estimate D2E/DX2                !
 ! D12   D(15,2,3,16)         -106.6075         estimate D2E/DX2                !
 ! D13   D(2,3,4,5)           -174.8067         estimate D2E/DX2                !
 ! D14   D(16,3,4,5)           -11.5576         estimate D2E/DX2                !
 ! D15   D(3,4,5,6)           -177.4127         estimate D2E/DX2                !
 ! D16   D(4,5,6,7)            177.0829         estimate D2E/DX2                !
 ! D17   D(4,5,6,17)            -2.3568         estimate D2E/DX2                !
 ! D18   D(5,6,7,8)           -179.7608         estimate D2E/DX2                !
 ! D19   D(5,6,7,18)             1.7917         estimate D2E/DX2                !
 ! D20   D(17,6,7,8)            -0.3316         estimate D2E/DX2                !
 ! D21   D(17,6,7,18)         -178.7791         estimate D2E/DX2                !
 ! D22   D(6,7,8,9)             59.0816         estimate D2E/DX2                !
 ! D23   D(6,7,8,10)          -177.5535         estimate D2E/DX2                !
 ! D24   D(6,7,8,19)           -59.4489         estimate D2E/DX2                !
 ! D25   D(18,7,8,9)          -122.4507         estimate D2E/DX2                !
 ! D26   D(18,7,8,10)            0.9142         estimate D2E/DX2                !
 ! D27   D(18,7,8,19)          119.0188         estimate D2E/DX2                !
 ! D28   D(7,8,9,20)            65.791          estimate D2E/DX2                !
 ! D29   D(7,8,9,21)           -54.4726         estimate D2E/DX2                !
 ! D30   D(10,8,9,20)          -59.5491         estimate D2E/DX2                !
 ! D31   D(10,8,9,21)         -179.8126         estimate D2E/DX2                !
 ! D32   D(19,8,9,20)         -175.3528         estimate D2E/DX2                !
 ! D33   D(19,8,9,21)           64.3837         estimate D2E/DX2                !
 ! D34   D(7,8,10,11)         -179.7009         estimate D2E/DX2                !
 ! D35   D(7,8,10,22)           58.43           estimate D2E/DX2                !
 ! D36   D(7,8,10,23)          -59.1717         estimate D2E/DX2                !
 ! D37   D(9,8,10,11)          -55.3174         estimate D2E/DX2                !
 ! D38   D(9,8,10,22)         -177.1865         estimate D2E/DX2                !
 ! D39   D(9,8,10,23)           65.2118         estimate D2E/DX2                !
 ! D40   D(19,8,10,11)          61.2127         estimate D2E/DX2                !
 ! D41   D(19,8,10,22)         -60.6564         estimate D2E/DX2                !
 ! D42   D(19,8,10,23)        -178.2581         estimate D2E/DX2                !
 ! D43   D(8,10,11,24)         -58.3649         estimate D2E/DX2                !
 ! D44   D(8,10,11,25)        -176.9987         estimate D2E/DX2                !
 ! D45   D(22,10,11,24)         64.2377         estimate D2E/DX2                !
 ! D46   D(22,10,11,25)        -54.3961         estimate D2E/DX2                !
 ! D47   D(23,10,11,24)        179.8757         estimate D2E/DX2                !
 ! D48   D(23,10,11,25)         61.2419         estimate D2E/DX2                !
 --------------------------------------------------------------------------------
 Trust Radius=3.00D-01 FncErr=1.00D-07 GrdErr=1.00D-06 EigMax=2.50D+02 EigMin=1.00D-04
 Number of steps in this run=    120 maximum allowed number of steps=    150.
 GradGradGradGradGradGradGradGradGradGradGradGradGradGradGradGradGradGrad

                          Input orientation:                          
 ---------------------------------------------------------------------
 Center     Atomic      Atomic             Coordinates (Angstroms)
 Number     Number       Type             X           Y           Z
 ---------------------------------------------------------------------
      1          7           0        1.095940   -0.194480    0.000870
      2          6           0        2.539290   -0.109300   -0.031030
      3          7           0        3.052830   -1.167840    0.782740
      4          7           0        4.396730   -1.362470    0.852080
      5          7           0        4.682670   -2.386150    1.517350
      6          6           0        6.038270   -2.598350    1.666120
      7          6           0        6.584300   -3.604500    2.389810
      8          6           0        8.072460   -3.850900    2.569200
      9          7           0        8.730860   -2.695620    3.182050
     10          6           0        8.380620   -5.137570    3.417910
     11          7           0        9.815390   -5.396160    3.613070
     12          1           0        0.723170    0.571830   -0.562320
     13          1           0        0.774740   -0.007140    0.947750
     14          1           0        2.875250    0.846000    0.382030
     15          1           0        2.898710   -0.217770   -1.058290
     16          1           0        2.460320   -1.926900    1.094980
     17          1           0        6.700060   -1.894270    1.168160
     18          1           0        5.913630   -4.313080    2.865820
     19          1           0        8.520480   -4.009310    1.579380
     20          1           0        8.388250   -2.573010    4.132260
     21          1           0        8.552450   -1.844250    2.663510
     22          1           0        7.932530   -6.014760    2.937430
     23          1           0        7.925250   -5.042500    4.411280
     24          1           0       10.275140   -5.493030    2.709720
     25          1           0        9.958090   -6.263410    4.124410
 ---------------------------------------------------------------------
                    Distance matrix (angstroms):
                    1          2          3          4          5
     1  N    0.000000
     2  C    1.446213   0.000000
     3  N    2.321243   1.430543   0.000000
     4  N    3.603328   2.408402   1.359690   0.000000
     5  N    4.468530   3.489356   2.163402   1.253901   0.000000
     6  C    5.742671   4.617201   3.426306   2.210139   1.380150
     7  C    6.888931   5.868475   4.581623   3.489524   2.421107
     8  C    8.284779   7.167757   5.965479   4.759388   3.839604
     9  N    8.641042   7.439655   6.350655   5.098111   4.388034
    10  C    9.443350   8.443922   7.147603   6.058568   4.985707
    11  N   10.776561   9.704225   8.462959   7.297643   6.308488
    12  H    1.021456   2.011094   3.203585   4.386010   5.362118
    13  H    1.017275   2.020417   2.562059   3.868447   4.610428
    14  H    2.096145   1.093657   2.060984   2.722717   3.873308
    15  H    2.091015   1.093715   2.077445   2.684011   3.810290
    16  H    2.461684   2.139580   1.012291   2.031567   2.308278
    17  H    5.971433   4.683608   3.738788   2.384963   2.105645
    18  H    6.955641   6.119614   4.734547   3.881009   2.654561
    19  H    8.495200   7.319708   6.213194   4.953791   4.167407
    20  H    8.712266   7.590335   6.454494   5.306338   4.539162
    21  H    8.087703   6.813860   5.851551   4.558881   4.072166
    22  H    9.446587   8.530724   7.207412   6.204383   5.073956
    23  H    9.465437   8.548634   7.205537   6.217795   5.093658
    24  H   10.939388   9.815276   8.636103   7.420785   6.507701
    25  H   11.505355  10.496635   9.209463   8.102844   7.046983
                    6          7          8          9         10
     6  C    0.000000
     7  C    1.354331   0.000000
     8  C    2.553892   1.519050   0.000000
     9  N    3.091528   2.461997   1.464154   0.000000
    10  C    3.873372   2.575667   1.571875   2.478188   0.000000
    11  N    5.087729   3.891832   2.552508   2.941921   1.470891
    12  H    6.577710   7.778795   9.131211   9.424417  10.347754
    13  H    5.910598   6.983661   8.405969   8.690217   9.501180
    14  H    4.849446   6.131491   7.338636   7.394008   8.679215
    15  H    4.790241   6.078068   7.288759   7.624579   8.619289
    16  H    3.684939   4.636608   6.113200   6.653305   7.124209
    17  H    1.087041   2.104927   2.770342   2.970196   4.290064
    18  H    2.096453   1.085573   2.227586   3.263888   2.659065
    19  H    2.856519   2.137630   1.097980   2.082929   2.161648
    20  H    3.406596   2.711888   2.043498   1.017504   2.662202
    21  H    2.807945   2.654620   2.065413   1.012692   3.382987
    22  H    4.108078   2.815487   2.199424   3.422552   1.095951
    23  H    4.131642   2.819988   2.198827   2.769090   1.096897
    24  H    5.236348   4.158267   2.751025   3.230077   2.053556
    25  H    5.902613   4.632612   3.434310   3.888864   2.062782
                   11         12         13         14         15
    11  N    0.000000
    12  H   11.649861   0.000000
    13  H   10.857201   1.618078   0.000000
    14  H    9.877739   2.366097   2.336671   0.000000
    15  H    9.822311   2.366945   2.929131   1.790720   0.000000
    16  H    8.513143   3.465254   2.558971   2.892998   2.783861
    17  H    5.286407   6.693237   6.222480   4.770351   4.713597
    18  H    4.117666   7.909195   6.973400   6.482058   6.423391
    19  H    2.781374   9.293641   8.741442   7.541638   7.275808
    20  H    3.205692   9.522739   8.642357   7.493132   7.913534
    21  H    3.887512   8.805739   8.173835   6.683801   6.961466
    22  H    2.093876  10.373345   9.554281   8.898100   8.655069
    23  H    2.082029  10.398430   9.406417   8.741384   8.857783
    24  H    1.018231  11.778323  11.111126  10.017975   9.820284
    25  H    1.016836  12.408452  11.557076  10.710543  10.641663
                   16         17         18         19         20
    16  H    0.000000
    17  H    4.240497   0.000000
    18  H    4.555774   3.057967   0.000000
    19  H    6.426244   2.820714   2.922819   0.000000
    20  H    6.692001   3.478011   3.279551   2.932173   0.000000
    21  H    6.291356   2.381160   3.619312   2.421538   1.647810
    22  H    7.074624   4.650563   2.641363   2.492351   3.671640
    23  H    7.111278   4.682977   2.639529   3.072692   2.527964
    24  H    8.740485   5.301762   4.520998   2.560845   3.756393
    25  H    9.176019   6.200287   4.663206   3.691188   4.010425
                   21         22         23         24         25
    21  H    0.000000
    22  H    4.225220   0.000000
    23  H    3.698227   1.765666   0.000000
    24  H    4.035268   2.410783   2.936029   0.000000
    25  H    4.861998   2.360856   2.388588   1.641753   0.000000
 Stoichiometry    C5H14N6
 Framework group  C1[X(C5H14N6)]
 Deg. of freedom    69
 Full point group                 C1      NOp   1
 Largest Abelian subgroup         C1      NOp   1
 Largest concise Abelian subgroup C1      NOp   1
                         Standard orientation:                         
 ---------------------------------------------------------------------
 Center     Atomic      Atomic             Coordinates (Angstroms)
 Number     Number       Type             X           Y           Z
 ---------------------------------------------------------------------
      1          7           0       -5.536386   -0.449162    0.156277
      2          6           0       -4.447225    0.418881   -0.233288
      3          7           0       -3.225100   -0.238603    0.113956
      4          7           0       -2.040307    0.334543   -0.227399
      5          7           0       -1.069282   -0.408312    0.051069
      6          6           0        0.162178    0.150793   -0.224105
      7          6           0        1.351627   -0.438576    0.044353
      8          6           0        2.715945    0.162831   -0.246265
      9          7           0        2.890471    1.440587    0.447008
     10          6           0        3.900404   -0.800013    0.128942
     11          7           0        5.234165   -0.239310   -0.136040
     12          1           0       -6.412528    0.024341   -0.070750
     13          1           0       -5.540058   -0.540351    1.169450
     14          1           0       -4.501870    1.367583    0.308065
     15          1           0       -4.481213    0.602638   -1.310920
     16          1           0       -3.207547   -1.219097    0.365069
     17          1           0        0.159291    1.137470   -0.680306
     18          1           0        1.341752   -1.432260    0.481345
     19          1           0        2.790231    0.351090   -1.325431
     20          1           0        2.902913    1.283544    1.452243
     21          1           0        2.142498    2.088542    0.231986
     22          1           0        3.803431   -1.740536   -0.425242
     23          1           0        3.852759   -1.045244    1.197013
     24          1           0        5.318755    0.000176   -1.122086
     25          1           0        5.959078   -0.919601    0.077644
 ---------------------------------------------------------------------
 Rotational constants (GHZ):           5.8731586           0.2607942           0.2540720
 Standard basis: 6-31G(2df,p) (6D, 7F)
 There are   411 symmetry adapted cartesian basis functions of A   symmetry.
 There are   378 symmetry adapted basis functions of A   symmetry.
   378 basis functions,   582 primitive gaussians,   411 cartesian basis functions
    43 alpha electrons       43 beta electrons
       nuclear repulsion energy       583.4267188730 Hartrees.
 NAtoms=   25 NActive=   25 NUniq=   25 SFac= 1.00D+00 NAtFMM=   60 NAOKFM=F Big=F
 Integral buffers will be    131072 words long.
 Raffenetti 2 integral format.
 Two-electron integral symmetry is turned on.
 One-electron integrals computed using PRISM.
 PrsmSu:  requested number of processors reduced to:  13 ShMem   1 Linda.
 NBasis=   378 RedAO= T EigKep=  2.09D-04  NBF=   378
 NBsUse=   378 1.00D-06 EigRej= -1.00D+00 NBFU=   378
 ExpMin= 1.61D-01 ExpMax= 4.17D+03 ExpMxC= 6.27D+02 IAcc=3 IRadAn=         5 AccDes= 0.00D+00
 Harris functional with IExCor=  402 and IRadAn=       5 diagonalized for initial guess.
 HarFok:  IExCor=  402 AccDes= 0.00D+00 IRadAn=         5 IDoV= 1 UseB2=F ITyADJ=14
 ICtDFT=  3500011 ScaDFX=  1.000000  1.000000  1.000000  1.000000
 FoFCou: FMM=F IPFlag=           0 FMFlag=      100000 FMFlg1=           0
         NFxFlg=           0 DoJE=T BraDBF=F KetDBF=T FulRan=T
         wScrn=  0.000000 ICntrl=       500 IOpCl=  0 I1Cent=   200000004 NGrid=           0
         NMat0=    1 NMatS0=      1 NMatT0=    0 NMatD0=    1 NMtDS0=    0 NMtDT0=    0
 Petite list used in FoFCou.
 Requested convergence on RMS density matrix=1.00D-08 within 128 cycles.
 Requested convergence on MAX density matrix=1.00D-06.
 Requested convergence on             energy=1.00D-06.
 No special actions if energy rises.
 Integral accuracy reduced to 1.0D-05 until final iterations.
 Initial convergence to 1.0D-05 achieved.  Increase integral accuracy.
 SCF Done:  E(RB3LYP) =  -527.394565002     A.U. after   15 cycles
            NFock= 15  Conv=0.89D-08     -V/T= 2.0077

 **********************************************************************

            Population analysis using the SCF density.

 **********************************************************************

 Orbital symmetries:
       Occupied  (A) (A) (A) (A) (A) (A) (A) (A) (A) (A) (A) (A)
                 (A) (A) (A) (A) (A) (A) (A) (A) (A) (A) (A) (A)
                 (A) (A) (A) (A) (A) (A) (A) (A) (A) (A) (A) (A)
                 (A) (A) (A) (A) (A) (A) (A)
       Virtual   (A) (A) (A) (A) (A) (A) (A) (A) (A) (A) (A) (A)
                 (A) (A) (A) (A) (A) (A) (A) (A) (A) (A) (A) (A)
                 (A) (A) (A) (A) (A) (A) (A) (A) (A) (A) (A) (A)
                 (A) (A) (A) (A) (A) (A) (A) (A) (A) (A) (A) (A)
                 (A) (A) (A) (A) (A) (A) (A) (A) (A) (A) (A) (A)
                 (A) (A) (A) (A) (A) (A) (A) (A) (A) (A) (A) (A)
                 (A) (A) (A) (A) (A) (A) (A) (A) (A) (A) (A) (A)
                 (A) (A) (A) (A) (A) (A) (A) (A) (A) (A) (A) (A)
                 (A) (A) (A) (A) (A) (A) (A) (A) (A) (A) (A) (A)
                 (A) (A) (A) (A) (A) (A) (A) (A) (A) (A) (A) (A)
                 (A) (A) (A) (A) (A) (A) (A) (A) (A) (A) (A) (A)
                 (A) (A) (A) (A) (A) (A) (A) (A) (A) (A) (A) (A)
                 (A) (A) (A) (A) (A) (A) (A) (A) (A) (A) (A) (A)
                 (A) (A) (A) (A) (A) (A) (A) (A) (A) (A) (A) (A)
                 (A) (A) (A) (A) (A) (A) (A) (A) (A) (A) (A) (A)
                 (A) (A) (A) (A) (A) (A) (A) (A) (A) (A) (A) (A)
                 (A) (A) (A) (A) (A) (A) (A) (A) (A) (A) (A) (A)
                 (A) (A) (A) (A) (A) (A) (A) (A) (A) (A) (A) (A)
                 (A) (A) (A) (A) (A) (A) (A) (A) (A) (A) (A) (A)
                 (A) (A) (A) (A) (A) (A) (A) (A) (A) (A) (A) (A)
                 (A) (A) (A) (A) (A) (A) (A) (A) (A) (A) (A) (A)
                 (A) (A) (A) (A) (A) (A) (A) (A) (A) (A) (A) (A)
                 (A) (A) (A) (A) (A) (A) (A) (A) (A) (A) (A) (A)
                 (A) (A) (A) (A) (A) (A) (A) (A) (A) (A) (A) (A)
                 (A) (A) (A) (A) (A) (A) (A) (A) (A) (A) (A) (A)
                 (A) (A) (A) (A) (A) (A) (A) (A) (A) (A) (A) (A)
                 (A) (A) (A) (A) (A) (A) (A) (A) (A) (A) (A) (A)
                 (A) (A) (A) (A) (A) (A) (A) (A) (A) (A) (A)
 The electronic state is 1-A.
 Alpha  occ. eigenvalues --  -14.40133 -14.36639 -14.34506 -14.32893 -14.29569
 Alpha  occ. eigenvalues --  -14.29413 -10.24823 -10.21281 -10.20205 -10.19863
 Alpha  occ. eigenvalues --  -10.17646  -1.05941  -0.93699  -0.88521  -0.87332
 Alpha  occ. eigenvalues --   -0.85086  -0.76847  -0.70928  -0.66860  -0.63446
 Alpha  occ. eigenvalues --   -0.59204  -0.55438  -0.52149  -0.51773  -0.48116
 Alpha  occ. eigenvalues --   -0.47664  -0.47077  -0.45697  -0.43762  -0.43361
 Alpha  occ. eigenvalues --   -0.41303  -0.40709  -0.39763  -0.38997  -0.37220
 Alpha  occ. eigenvalues --   -0.35599  -0.32982  -0.29215  -0.25969  -0.23638
 Alpha  occ. eigenvalues --   -0.23177  -0.21529  -0.19754
 Alpha virt. eigenvalues --   -0.03663   0.06045   0.06940   0.08656   0.10352
 Alpha virt. eigenvalues --    0.11401   0.12038   0.13005   0.14238   0.14351
 Alpha virt. eigenvalues --    0.15542   0.16759   0.18062   0.18532   0.18902
 Alpha virt. eigenvalues --    0.20008   0.20866   0.21866   0.22985   0.24573
 Alpha virt. eigenvalues --    0.25722   0.27898   0.29695   0.32186   0.37758
 Alpha virt. eigenvalues --    0.40332   0.42454   0.46034   0.48101   0.48806
 Alpha virt. eigenvalues --    0.49945   0.52064   0.52092   0.53014   0.54291
 Alpha virt. eigenvalues --    0.55352   0.57207   0.58467   0.59432   0.60504
 Alpha virt. eigenvalues --    0.60689   0.61414   0.62390   0.63376   0.64475
 Alpha virt. eigenvalues --    0.65343   0.65541   0.66936   0.68320   0.68937
 Alpha virt. eigenvalues --    0.69576   0.72080   0.72573   0.72732   0.74276
 Alpha virt. eigenvalues --    0.74419   0.76656   0.76793   0.78368   0.78924
 Alpha virt. eigenvalues --    0.79318   0.80654   0.81145   0.81571   0.82057
 Alpha virt. eigenvalues --    0.82947   0.83031   0.83999   0.85283   0.85714
 Alpha virt. eigenvalues --    0.86174   0.86890   0.88288   0.88623   0.90137
 Alpha virt. eigenvalues --    0.91330   0.93965   0.95772   0.97736   0.99925
 Alpha virt. eigenvalues --    1.02392   1.03691   1.06259   1.07609   1.08205
 Alpha virt. eigenvalues --    1.12475   1.16117   1.16928   1.18438   1.21576
 Alpha virt. eigenvalues --    1.22648   1.26899   1.27083   1.29349   1.29778
 Alpha virt. eigenvalues --    1.32890   1.33881   1.35962   1.37665   1.38511
 Alpha virt. eigenvalues --    1.40748   1.44452   1.45047   1.47301   1.48477
 Alpha virt. eigenvalues --    1.50407   1.50850   1.53062   1.54461   1.55566
 Alpha virt. eigenvalues --    1.56338   1.57689   1.59555   1.60707   1.62962
 Alpha virt. eigenvalues --    1.65316   1.66810   1.70199   1.72093   1.73773
 Alpha virt. eigenvalues --    1.77099   1.79196   1.81195   1.82518   1.84293
 Alpha virt. eigenvalues --    1.85262   1.88354   1.90278   1.91791   1.93878
 Alpha virt. eigenvalues --    1.96325   1.98462   2.03479   2.06698   2.09898
 Alpha virt. eigenvalues --    2.11139   2.17466   2.18336   2.19960   2.21656
 Alpha virt. eigenvalues --    2.22849   2.24336   2.25528   2.26473   2.29787
 Alpha virt. eigenvalues --    2.32187   2.35981   2.36511   2.39880   2.44546
 Alpha virt. eigenvalues --    2.45991   2.46748   2.48839   2.52092   2.55372
 Alpha virt. eigenvalues --    2.58829   2.62083   2.62702   2.68311   2.71859
 Alpha virt. eigenvalues --    2.73096   2.75732   2.76501   2.77648   2.79337
 Alpha virt. eigenvalues --    2.80094   2.80847   2.84435   2.86890   2.88191
 Alpha virt. eigenvalues --    2.90133   2.90849   2.93368   2.94474   2.96156
 Alpha virt. eigenvalues --    2.97622   2.98558   3.00186   3.00738   3.02276
 Alpha virt. eigenvalues --    3.03187   3.04674   3.05972   3.08498   3.09175
 Alpha virt. eigenvalues --    3.09988   3.12498   3.14085   3.18575   3.20123
 Alpha virt. eigenvalues --    3.25290   3.25748   3.28739   3.30085   3.31749
 Alpha virt. eigenvalues --    3.34176   3.34756   3.37497   3.38529   3.39686
 Alpha virt. eigenvalues --    3.40484   3.41166   3.44557   3.46145   3.48543
 Alpha virt. eigenvalues --    3.49072   3.51858   3.54222   3.57181   3.60341
 Alpha virt. eigenvalues --    3.61417   3.63596   3.66959   3.68328   3.70997
 Alpha virt. eigenvalues --    3.73523   3.76278   3.80634   3.82069   3.83301
 Alpha virt. eigenvalues --    3.85054   3.88799   3.90702   3.93748   3.95596
 Alpha virt. eigenvalues --    3.98879   3.99868   4.03110   4.06835   4.09634
 Alpha virt. eigenvalues --    4.11306   4.12703   4.16427   4.16882   4.18307
 Alpha virt. eigenvalues --    4.19585   4.20706   4.22169   4.24644   4.25543
 Alpha virt. eigenvalues --    4.28325   4.28967   4.29938   4.31936   4.32298
 Alpha virt. eigenvalues --    4.32612   4.34332   4.34695   4.36225   4.37463
 Alpha virt. eigenvalues --    4.37824   4.40666   4.41086   4.42920   4.43100
 Alpha virt. eigenvalues --    4.43936   4.45225   4.46056   4.47692   4.49545
 Alpha virt. eigenvalues --    4.51190   4.52482   4.53242   4.54910   4.56873
 Alpha virt. eigenvalues --    4.58650   4.60820   4.61018   4.62376   4.63028
 Alpha virt. eigenvalues --    4.64197   4.66079   4.66853   4.68219   4.69581
 Alpha virt. eigenvalues --    4.70362   4.71699   4.72997   4.74654   4.77122
 Alpha virt. eigenvalues --    4.77749   4.79209   4.80286   4.82862   4.84047
 Alpha virt. eigenvalues --    4.86670   4.87556   4.88099   4.91680   4.93012
 Alpha virt. eigenvalues --    4.93283   4.94793   4.96908   5.02436   5.02929
 Alpha virt. eigenvalues --    5.06867   5.08386   5.11484   5.14214   5.18472
 Alpha virt. eigenvalues --    5.19603   5.21450   5.26275   5.30926   5.33284
 Alpha virt. eigenvalues --    5.35250   5.38806   5.41868   5.44005   5.49471
 Alpha virt. eigenvalues --    5.53001   5.56194   5.58817   5.66552   5.76574
 Alpha virt. eigenvalues --    5.86027   5.91904   6.20086   6.75561   9.01611
 Alpha virt. eigenvalues --    9.07052   9.90928  10.37997  10.80790  11.30666
 Alpha virt. eigenvalues --   11.33682  11.39739  11.41558  11.46957  11.50824
 Alpha virt. eigenvalues --   11.67638  12.06422  12.55428  13.03721  16.19581
          Condensed to atoms (all electrons):
               1          2          3          4          5          6
     1  N    6.554661   0.381097  -0.042383   0.002084   0.000005   0.000004
     2  C    0.381097   4.751992   0.368434  -0.051356   0.003923  -0.000358
     3  N   -0.042383   0.368434   6.371287   0.344975  -0.105220   0.002844
     4  N    0.002084  -0.051356   0.344975   6.436678   0.451860  -0.086956
     5  N    0.000005   0.003923  -0.105220   0.451860   6.430369   0.473174
     6  C    0.000004  -0.000358   0.002844  -0.086956   0.473174   4.610179
     7  C   -0.000000   0.000001  -0.000114   0.001851  -0.010208   0.625086
     8  C    0.000000   0.000000   0.000001  -0.000026   0.001327  -0.009968
     9  N   -0.000000  -0.000000  -0.000000   0.000008   0.000212  -0.002851
    10  C    0.000000   0.000000  -0.000000   0.000000  -0.000054   0.001298
    11  N    0.000000  -0.000000   0.000000  -0.000000   0.000000  -0.000023
    12  H    0.342283  -0.043174   0.003994  -0.000171   0.000005  -0.000000
    13  H    0.337714  -0.052654   0.004025  -0.000109   0.000001   0.000001
    14  H   -0.040957   0.381726  -0.051518   0.003612   0.000147   0.000002
    15  H   -0.018923   0.352365  -0.031381   0.001224   0.000388   0.000048
    16  H    0.011097  -0.045671   0.315008  -0.040134   0.031578   0.001513
    17  H    0.000000   0.000120  -0.000335   0.017339  -0.074186   0.360380
    18  H    0.000000   0.000001  -0.000020  -0.000001  -0.007253  -0.012414
    19  H   -0.000000   0.000000  -0.000000   0.000002  -0.000018  -0.007811
    20  H   -0.000000   0.000000   0.000000  -0.000002  -0.000013   0.000742
    21  H    0.000000   0.000000  -0.000000   0.000003  -0.000195   0.003860
    22  H    0.000000   0.000000   0.000000   0.000000  -0.000000   0.000171
    23  H   -0.000000  -0.000000   0.000000  -0.000000   0.000001  -0.000038
    24  H   -0.000000  -0.000000  -0.000000  -0.000000   0.000000  -0.000005
    25  H   -0.000000   0.000000  -0.000000  -0.000000  -0.000000  -0.000000
               7          8          9         10         11         12
     1  N   -0.000000   0.000000  -0.000000   0.000000   0.000000   0.342283
     2  C    0.000001   0.000000  -0.000000   0.000000  -0.000000  -0.043174
     3  N   -0.000114   0.000001  -0.000000  -0.000000   0.000000   0.003994
     4  N    0.001851  -0.000026   0.000008   0.000000  -0.000000  -0.000171
     5  N   -0.010208   0.001327   0.000212  -0.000054   0.000000   0.000005
     6  C    0.625086  -0.009968  -0.002851   0.001298  -0.000023  -0.000000
     7  C    5.018032   0.374066  -0.073341  -0.032486   0.001497  -0.000000
     8  C    0.374066   4.775825   0.395152   0.385835  -0.027873   0.000000
     9  N   -0.073341   0.395152   6.532985  -0.025324   0.000492  -0.000000
    10  C   -0.032486   0.385835  -0.025324   4.857159   0.386261   0.000000
    11  N    0.001497  -0.027873   0.000492   0.386261   6.536810  -0.000000
    12  H   -0.000000   0.000000  -0.000000   0.000000  -0.000000   0.492864
    13  H   -0.000000  -0.000000  -0.000000  -0.000000  -0.000000  -0.029652
    14  H    0.000000   0.000000   0.000000   0.000000   0.000000  -0.002825
    15  H   -0.000001  -0.000000  -0.000000  -0.000000  -0.000000  -0.002048
    16  H    0.000010   0.000001  -0.000000   0.000000  -0.000000  -0.000130
    17  H   -0.064378  -0.007145   0.001416   0.000144   0.000000   0.000000
    18  H    0.326236  -0.056528   0.003899  -0.006416   0.000044   0.000000
    19  H   -0.042514   0.352347  -0.032631  -0.045191  -0.002147   0.000000
    20  H    0.002225  -0.056814   0.338749  -0.006586   0.000511  -0.000000
    21  H   -0.003597  -0.051134   0.343281   0.005506   0.000059   0.000000
    22  H    0.004976  -0.044401   0.003558   0.378026  -0.048386   0.000000
    23  H   -0.006096  -0.015724  -0.006153   0.346146  -0.025134  -0.000000
    24  H   -0.000101  -0.001928   0.000096  -0.054138   0.341862  -0.000000
    25  H   -0.000166   0.004233   0.000168  -0.042129   0.339252   0.000000
              13         14         15         16         17         18
     1  N    0.337714  -0.040957  -0.018923   0.011097   0.000000   0.000000
     2  C   -0.052654   0.381726   0.352365  -0.045671   0.000120   0.000001
     3  N    0.004025  -0.051518  -0.031381   0.315008  -0.000335  -0.000020
     4  N   -0.000109   0.003612   0.001224  -0.040134   0.017339  -0.000001
     5  N    0.000001   0.000147   0.000388   0.031578  -0.074186  -0.007253
     6  C    0.000001   0.000002   0.000048   0.001513   0.360380  -0.012414
     7  C   -0.000000   0.000000  -0.000001   0.000010  -0.064378   0.326236
     8  C   -0.000000   0.000000  -0.000000   0.000001  -0.007145  -0.056528
     9  N   -0.000000   0.000000  -0.000000  -0.000000   0.001416   0.003899
    10  C   -0.000000   0.000000  -0.000000   0.000000   0.000144  -0.006416
    11  N   -0.000000   0.000000  -0.000000  -0.000000   0.000000   0.000044
    12  H   -0.029652  -0.002825  -0.002048  -0.000130   0.000000   0.000000
    13  H    0.507779  -0.009514   0.007331   0.000808   0.000000   0.000000
    14  H   -0.009514   0.672924  -0.059983   0.005872   0.000002   0.000000
    15  H    0.007331  -0.059983   0.631223   0.002227   0.000007   0.000000
    16  H    0.000808   0.005872   0.002227   0.474108   0.000250   0.000037
    17  H    0.000000   0.000002   0.000007   0.000250   0.677672   0.008767
    18  H    0.000000   0.000000   0.000000   0.000037   0.008767   0.643252
    19  H    0.000000  -0.000000   0.000000  -0.000000   0.002409   0.006107
    20  H    0.000000  -0.000000   0.000000  -0.000000   0.000160   0.000648
    21  H    0.000000  -0.000000   0.000000   0.000000   0.004667   0.000057
    22  H   -0.000000   0.000000  -0.000000   0.000000   0.000008   0.002865
    23  H    0.000000  -0.000000   0.000000  -0.000000   0.000011   0.003249
    24  H    0.000000  -0.000000   0.000000  -0.000000  -0.000000   0.000012
    25  H    0.000000  -0.000000   0.000000   0.000000  -0.000000  -0.000015
              19         20         21         22         23         24
     1  N   -0.000000  -0.000000   0.000000   0.000000  -0.000000  -0.000000
     2  C    0.000000   0.000000   0.000000   0.000000  -0.000000  -0.000000
     3  N   -0.000000   0.000000  -0.000000   0.000000   0.000000  -0.000000
     4  N    0.000002  -0.000002   0.000003   0.000000  -0.000000  -0.000000
     5  N   -0.000018  -0.000013  -0.000195  -0.000000   0.000001   0.000000
     6  C   -0.007811   0.000742   0.003860   0.000171  -0.000038  -0.000005
     7  C   -0.042514   0.002225  -0.003597   0.004976  -0.006096  -0.000101
     8  C    0.352347  -0.056814  -0.051134  -0.044401  -0.015724  -0.001928
     9  N   -0.032631   0.338749   0.343281   0.003558  -0.006153   0.000096
    10  C   -0.045191  -0.006586   0.005506   0.378026   0.346146  -0.054138
    11  N   -0.002147   0.000511   0.000059  -0.048386  -0.025134   0.341862
    12  H    0.000000  -0.000000   0.000000   0.000000  -0.000000  -0.000000
    13  H    0.000000   0.000000   0.000000  -0.000000   0.000000   0.000000
    14  H   -0.000000  -0.000000  -0.000000   0.000000  -0.000000  -0.000000
    15  H    0.000000   0.000000   0.000000  -0.000000   0.000000   0.000000
    16  H   -0.000000  -0.000000   0.000000   0.000000  -0.000000  -0.000000
    17  H    0.002409   0.000160   0.004667   0.000008   0.000011  -0.000000
    18  H    0.006107   0.000648   0.000057   0.002865   0.003249   0.000012
    19  H    0.669215   0.007501  -0.001644  -0.004788   0.006180   0.004948
    20  H    0.007501   0.516114  -0.029615  -0.000101   0.005193   0.000066
    21  H   -0.001644  -0.029615   0.505252  -0.000203  -0.000078  -0.000054
    22  H   -0.004788  -0.000101  -0.000203   0.681844  -0.048262  -0.004402
    23  H    0.006180   0.005193  -0.000078  -0.048262   0.635866   0.006720
    24  H    0.004948   0.000066  -0.000054  -0.004402   0.006720   0.516956
    25  H   -0.000087  -0.000067   0.000007  -0.005281  -0.001733  -0.031408
              25
     1  N   -0.000000
     2  C    0.000000
     3  N   -0.000000
     4  N   -0.000000
     5  N   -0.000000
     6  C   -0.000000
     7  C   -0.000166
     8  C    0.004233
     9  N    0.000168
    10  C   -0.042129
    11  N    0.339252
    12  H    0.000000
    13  H    0.000000
    14  H   -0.000000
    15  H    0.000000
    16  H    0.000000
    17  H   -0.000000
    18  H   -0.000015
    19  H   -0.000087
    20  H   -0.000067
    21  H    0.000007
    22  H   -0.005281
    23  H   -0.001733
    24  H   -0.031408
    25  H    0.513266
 Mulliken charges:
               1
     1  N   -0.526683
     2  C   -0.046447
     3  N   -0.179599
     4  N   -0.080883
     5  N   -0.195843
     6  C    0.041121
     7  C   -0.120979
     8  C   -0.017247
     9  N   -0.479718
    10  C   -0.148051
    11  N   -0.503226
    12  H    0.238854
    13  H    0.234268
    14  H    0.100512
    15  H    0.117522
    16  H    0.243425
    17  H    0.072690
    18  H    0.087474
    19  H    0.088124
    20  H    0.221289
    21  H    0.223829
    22  H    0.084376
    23  H    0.099854
    24  H    0.221377
    25  H    0.223961
 Sum of Mulliken charges =  -0.00000
 Mulliken charges with hydrogens summed into heavy atoms:
               1
     1  N   -0.053561
     2  C    0.171587
     3  N    0.063826
     4  N   -0.080883
     5  N   -0.195843
     6  C    0.113810
     7  C   -0.033504
     8  C    0.070877
     9  N   -0.034600
    10  C    0.036179
    11  N   -0.057889
 Electronic spatial extent (au):  <R**2>=           4191.9858
 Charge=             -0.0000 electrons
 Dipole moment (field-independent basis, Debye):
    X=             -2.8808    Y=             -0.5107    Z=              0.3031  Tot=              2.9413
 Quadrupole moment (field-independent basis, Debye-Ang):
   XX=            -51.1245   YY=            -68.1160   ZZ=            -63.3651
   XY=            -13.5205   XZ=             -7.0610   YZ=             -1.3818
 Traceless Quadrupole moment (field-independent basis, Debye-Ang):
   XX=              9.7440   YY=             -7.2475   ZZ=             -2.4966
   XY=            -13.5205   XZ=             -7.0610   YZ=             -1.3818
 Octapole moment (field-independent basis, Debye-Ang**2):
  XXX=           -137.4353  YYY=              0.6858  ZZZ=              3.7974  XYY=             -1.1853
  XXY=            -21.7699  XXZ=              2.5467  XZZ=              0.8198  YZZ=              2.0174
  YYZ=              3.3482  XYZ=              2.9023
 Hexadecapole moment (field-independent basis, Debye-Ang**3):
 XXXX=          -4124.0744 YYYY=           -259.1057 ZZZZ=           -112.0614 XXXY=           -465.6059
 XXXZ=           -242.4677 YYYX=             -8.2203 YYYZ=              0.9107 ZZZX=            -10.1846
 ZZZY=              2.0358 XXYY=           -925.5813 XXZZ=           -762.0727 YYZZ=            -61.4360
 XXYZ=            -45.9005 YYXZ=             -5.5619 ZZXY=             12.8502
 N-N= 5.834267188730D+02 E-N=-2.395062770074D+03  KE= 5.233769558985D+02
 PrsmSu:  requested number of processors reduced to:  13 ShMem   1 Linda.
 Calling FoFJK, ICntrl=      2127 FMM=F ISym2X=0 I1Cent= 0 IOpClX= 0 NMat=1 NMatS=1 NMatT=0.
 ***** Axes restored to original set *****
 -------------------------------------------------------------------
 Center     Atomic                   Forces (Hartrees/Bohr)
 Number     Number              X              Y              Z
 -------------------------------------------------------------------
      1        7          -0.011798690    0.001465890   -0.005336270
      2        6           0.000100370    0.004704462    0.001810292
      3        7           0.026269401   -0.008583949    0.008086184
      4        7          -0.023530120    0.012444013   -0.003323907
      5        7          -0.004122073   -0.015446451    0.011008993
      6        6           0.021407342   -0.009557198    0.005376751
      7        6          -0.014749565   -0.004603985   -0.007800966
      8        6           0.002217997   -0.001214723    0.008137802
      9        7           0.013830915   -0.002891447    0.003886556
     10        6           0.003329107   -0.000485105   -0.005654573
     11        7           0.002154918    0.011554682   -0.001058328
     12        1          -0.000081061   -0.005790465    0.000912153
     13        1           0.000377124    0.000302928    0.000683904
     14        1           0.009788436    0.004204706   -0.002280569
     15        1          -0.001630816    0.003392704   -0.004028238
     16        1          -0.001808853   -0.002013366   -0.001621858
     17        1           0.001267561    0.004359936   -0.003209586
     18        1          -0.003892782   -0.000080315    0.001398533
     19        1           0.002321952    0.001520433   -0.000714121
     20        1          -0.000606893    0.002194486   -0.003156765
     21        1          -0.003338107   -0.000185632    0.000820796
     22        1          -0.012131386    0.002557429   -0.003707228
     23        1          -0.001783816    0.001872361   -0.000133743
     24        1          -0.000916218   -0.000990984    0.002892707
     25        1          -0.002674746    0.001269590   -0.002988520
 -------------------------------------------------------------------
 Cartesian Forces:  Max     0.026269401 RMS     0.007255560

 GradGradGradGradGradGradGradGradGradGradGradGradGradGradGradGradGradGrad
 Berny optimization.
 FormGI is forming the generalized inverse of G from B-inverse, IUseBI=4.
 Internal  Forces:  Max     0.021211124 RMS     0.005573785
 Search for a local minimum.
 Step number   1 out of a maximum of  120
 All quantities printed in internal units (Hartrees-Bohrs-Radians)
 Mixed Optimization -- RFO/linear search
 Second derivative matrix not updated -- first step.
 ITU=  0
     Eigenvalues ---    0.00230   0.00514   0.00754   0.00843   0.01080
     Eigenvalues ---    0.01288   0.01400   0.01602   0.01828   0.01954
     Eigenvalues ---    0.02453   0.02693   0.03227   0.03948   0.04104
     Eigenvalues ---    0.04181   0.04269   0.04971   0.05254   0.05299
     Eigenvalues ---    0.05965   0.06427   0.07008   0.09369   0.09651
     Eigenvalues ---    0.12845   0.12982   0.15694   0.15997   0.16000
     Eigenvalues ---    0.16000   0.16000   0.16000   0.16000   0.16000
     Eigenvalues ---    0.16000   0.17550   0.18755   0.21993   0.22000
     Eigenvalues ---    0.22001   0.22002   0.22096   0.25000   0.25000
     Eigenvalues ---    0.25872   0.30458   0.33907   0.34028   0.34134
     Eigenvalues ---    0.34387   0.34393   0.35157   0.35329   0.35634
     Eigenvalues ---    0.36449   0.38745   0.40911   0.44107   0.44621
     Eigenvalues ---    0.44739   0.44776   0.44847   0.45525   0.45591
     Eigenvalues ---    0.49075   0.53010   0.54110   0.81812
 RFO step:  Lambda=-1.49515842D-02 EMin= 2.30000000D-03
 Linear search not attempted -- first point.
 Iteration  1 RMS(Cart)=  0.11397403 RMS(Int)=  0.00393793
 Iteration  2 RMS(Cart)=  0.00648157 RMS(Int)=  0.00043062
 Iteration  3 RMS(Cart)=  0.00001033 RMS(Int)=  0.00043054
 Iteration  4 RMS(Cart)=  0.00000002 RMS(Int)=  0.00043054
 Variable       Old X    -DE/DX   Delta X   Delta X   Delta X     New X
                                 (Linear)    (Quad)   (Total)
    R1        2.73295   0.01163   0.00000   0.02891   0.02891   2.76186
    R2        1.93027  -0.00482   0.00000  -0.01056  -0.01056   1.91971
    R3        1.92237   0.00057   0.00000   0.00124   0.00124   1.92361
    R4        2.70333   0.01198   0.00000   0.02825   0.02825   2.73158
    R5        2.06671   0.00582   0.00000   0.01621   0.01621   2.08292
    R6        2.06682   0.00291   0.00000   0.00811   0.00811   2.07493
    R7        2.56944  -0.02121   0.00000  -0.03892  -0.03892   2.53053
    R8        1.91295   0.00207   0.00000   0.00439   0.00439   1.91735
    R9        2.36953   0.01150   0.00000   0.01381   0.01381   2.38333
   R10        2.60810   0.00487   0.00000   0.00962   0.00962   2.61773
   R11        2.55932  -0.01868   0.00000  -0.03359  -0.03359   2.52573
   R12        2.05421   0.00507   0.00000   0.01382   0.01382   2.06803
   R13        2.87059  -0.00031   0.00000  -0.00097  -0.00097   2.86962
   R14        2.05144   0.00307   0.00000   0.00834   0.00834   2.05977
   R15        2.76685   0.00440   0.00000   0.01159   0.01159   2.77844
   R16        2.97041  -0.02102   0.00000  -0.07681  -0.07681   2.89360
   R17        2.07488   0.00137   0.00000   0.00388   0.00388   2.07876
   R18        1.92280  -0.00248   0.00000  -0.00536  -0.00536   1.91744
   R19        1.91371   0.00001   0.00000   0.00003   0.00003   1.91374
   R20        2.77958  -0.00363   0.00000  -0.00979  -0.00979   2.76979
   R21        2.07105   0.00454   0.00000   0.01274   0.01274   2.08378
   R22        2.07284   0.00078   0.00000   0.00220   0.00220   2.07504
   R23        1.92418  -0.00289   0.00000  -0.00626  -0.00626   1.91792
   R24        1.92154  -0.00296   0.00000  -0.00639  -0.00639   1.91515
    A1        1.88375   0.00393   0.00000   0.02650   0.02643   1.91018
    A2        1.90160  -0.00113   0.00000  -0.00250  -0.00257   1.89903
    A3        1.83363   0.00005   0.00000   0.00949   0.00933   1.84296
    A4        1.87774  -0.00378   0.00000  -0.01050  -0.01086   1.86688
    A5        1.92805   0.00769   0.00000   0.06320   0.06326   1.99130
    A6        1.92074  -0.00296   0.00000  -0.03139  -0.03117   1.88957
    A7        1.89782  -0.00066   0.00000   0.00326   0.00280   1.90061
    A8        1.92084   0.00357   0.00000   0.01225   0.01195   1.93279
    A9        1.91816  -0.00375   0.00000  -0.03549  -0.03502   1.88314
   A10        2.08259  -0.00042   0.00000  -0.00410  -0.00442   2.07817
   A11        2.11788  -0.00156   0.00000  -0.01287  -0.01315   2.10472
   A12        2.04368   0.00157   0.00000   0.00507   0.00471   2.04838
   A13        1.94906   0.00741   0.00000   0.02798   0.02798   1.97704
   A14        1.98963  -0.00791   0.00000  -0.02985  -0.02985   1.95978
   A15        2.17466  -0.01155   0.00000  -0.04915  -0.04915   2.12551
   A16        2.03645   0.00342   0.00000   0.01110   0.01110   2.04755
   A17        2.07204   0.00813   0.00000   0.03805   0.03805   2.11009
   A18        2.18779  -0.00485   0.00000  -0.02053  -0.02059   2.16720
   A19        2.06025  -0.00017   0.00000  -0.00435  -0.00441   2.05584
   A20        2.03485   0.00503   0.00000   0.02533   0.02527   2.06013
   A21        1.94118   0.01217   0.00000   0.07272   0.07292   2.01410
   A22        1.96991  -0.01341   0.00000  -0.06725  -0.06751   1.90240
   A23        1.89303   0.00114   0.00000   0.00432   0.00353   1.89656
   A24        1.90892   0.00094   0.00000   0.00656   0.00767   1.91659
   A25        1.88356  -0.00481   0.00000  -0.02169  -0.02213   1.86143
   A26        1.86362   0.00385   0.00000   0.00376   0.00332   1.86694
   A27        1.91193   0.00129   0.00000  -0.00223  -0.00253   1.90940
   A28        1.94959  -0.00335   0.00000  -0.02842  -0.02871   1.92088
   A29        1.89394  -0.00127   0.00000  -0.02536  -0.02597   1.86798
   A30        1.98972  -0.01002   0.00000  -0.04086  -0.04053   1.94919
   A31        1.91590  -0.00523   0.00000  -0.04392  -0.04315   1.87275
   A32        1.91414   0.00158   0.00000  -0.01647  -0.01685   1.89730
   A33        1.89260   0.01266   0.00000   0.10081   0.10032   1.99292
   A34        1.87552   0.00301   0.00000   0.01135   0.00996   1.88548
   A35        1.87200  -0.00132   0.00000  -0.00720  -0.00946   1.86254
   A36        1.91712   0.00134   0.00000   0.00163   0.00148   1.91860
   A37        1.93217  -0.00446   0.00000  -0.03142  -0.03158   1.90059
   A38        1.87720   0.00005   0.00000  -0.01160  -0.01192   1.86528
    D1        3.12032   0.00193   0.00000   0.05912   0.05921  -3.10366
    D2        1.05116   0.00065   0.00000   0.02582   0.02549   1.07664
    D3       -1.07005   0.00226   0.00000   0.04955   0.04992  -1.02012
    D4        1.13815   0.00041   0.00000   0.03560   0.03560   1.17375
    D5       -0.93101  -0.00087   0.00000   0.00230   0.00188  -0.92913
    D6       -3.05221   0.00074   0.00000   0.02602   0.02631  -3.02590
    D7        3.06856  -0.00314   0.00000  -0.02283  -0.02277   3.04579
    D8        0.23211  -0.00186   0.00000   0.02158   0.02148   0.25359
    D9       -1.12613   0.00352   0.00000   0.04847   0.04853  -1.07760
   D10        2.32061   0.00479   0.00000   0.09288   0.09278   2.41339
   D11        0.97580   0.00067   0.00000   0.01444   0.01456   0.99036
   D12       -1.86065   0.00195   0.00000   0.05885   0.05882  -1.80184
   D13       -3.05095   0.00316   0.00000   0.09151   0.09166  -2.95930
   D14       -0.20172   0.00141   0.00000   0.04594   0.04579  -0.15593
   D15       -3.09644  -0.00263   0.00000  -0.05579  -0.05579   3.13096
   D16        3.09068   0.00102   0.00000   0.02937   0.02937   3.12005
   D17       -0.04113   0.00097   0.00000   0.02821   0.02821  -0.01292
   D18       -3.13742   0.00083   0.00000   0.02234   0.02225  -3.11517
   D19        0.03127   0.00020   0.00000   0.00165   0.00174   0.03301
   D20       -0.00579   0.00085   0.00000   0.02337   0.02328   0.01750
   D21       -3.12028   0.00022   0.00000   0.00268   0.00277  -3.11751
   D22        1.03117   0.00078   0.00000   0.01965   0.02045   1.05162
   D23       -3.09889   0.00132   0.00000   0.03364   0.03290  -3.06600
   D24       -1.03758  -0.00124   0.00000   0.00054   0.00030  -1.03727
   D25       -2.13717   0.00133   0.00000   0.03967   0.04059  -2.09658
   D26        0.01596   0.00187   0.00000   0.05366   0.05304   0.06899
   D27        2.07727  -0.00069   0.00000   0.02056   0.02045   2.09772
   D28        1.14827  -0.00585   0.00000  -0.04388  -0.04327   1.10500
   D29       -0.95073  -0.00296   0.00000   0.00769   0.00796  -0.94276
   D30       -1.03933   0.00210   0.00000  -0.01363  -0.01379  -1.05312
   D31       -3.13832   0.00498   0.00000   0.03794   0.03744  -3.10088
   D32       -3.06048  -0.00034   0.00000  -0.00968  -0.00962  -3.07011
   D33        1.12371   0.00255   0.00000   0.04188   0.04161   1.16532
   D34       -3.13637  -0.00134   0.00000  -0.00580  -0.00568   3.14113
   D35        1.01980  -0.00687   0.00000  -0.07534  -0.07510   0.94470
   D36       -1.03274  -0.00310   0.00000  -0.03085  -0.03070  -1.06344
   D37       -0.96547   0.00560   0.00000   0.04557   0.04553  -0.91994
   D38       -3.09249   0.00008   0.00000  -0.02397  -0.02389  -3.11637
   D39        1.13816   0.00384   0.00000   0.02051   0.02051   1.15867
   D40        1.06836   0.00252   0.00000   0.02543   0.02518   1.09355
   D41       -1.05865  -0.00301   0.00000  -0.04411  -0.04423  -1.10288
   D42       -3.11119   0.00076   0.00000   0.00037   0.00017  -3.11102
   D43       -1.01866  -0.00010   0.00000  -0.01715  -0.01667  -1.03533
   D44       -3.08921   0.00175   0.00000   0.01555   0.01586  -3.07335
   D45        1.12116  -0.00427   0.00000  -0.02678  -0.02783   1.09333
   D46       -0.94939  -0.00241   0.00000   0.00592   0.00470  -0.94469
   D47        3.13942   0.00219   0.00000   0.02200   0.02282  -3.12094
   D48        1.06887   0.00405   0.00000   0.05470   0.05535   1.12422
         Item               Value     Threshold  Converged?
 Maximum Force            0.021211     0.000450     NO 
 RMS     Force            0.005574     0.000300     NO 
 Maximum Displacement     0.342947     0.001800     NO 
 RMS     Displacement     0.115531     0.001200     NO 
 Predicted change in Energy=-8.387768D-03
 GradGradGradGradGradGradGradGradGradGradGradGradGradGradGradGradGradGrad

                          Input orientation:                          
 ---------------------------------------------------------------------
 Center     Atomic      Atomic             Coordinates (Angstroms)
 Number     Number       Type             X           Y           Z
 ---------------------------------------------------------------------
      1          7           0        1.112686   -0.270454   -0.034756
      2          6           0        2.570367   -0.164739   -0.037534
      3          7           0        3.067106   -1.159027    0.886633
      4          7           0        4.388671   -1.348730    0.989871
      5          7           0        4.694382   -2.371540    1.661468
      6          6           0        6.064865   -2.555630    1.743825
      7          6           0        6.598888   -3.569302    2.432065
      8          6           0        8.091402   -3.803364    2.585616
      9          7           0        8.836442   -2.716353    3.237588
     10          6           0        8.314916   -5.114065    3.345063
     11          7           0        9.741319   -5.398482    3.526143
     12          1           0        0.724412    0.390350   -0.701511
     13          1           0        0.764146    0.022657    0.875622
     14          1           0        2.950315    0.824856    0.264568
     15          1           0        2.928123   -0.367080   -1.055714
     16          1           0        2.461866   -1.901778    1.220477
     17          1           0        6.700955   -1.830162    1.227396
     18          1           0        5.917996   -4.275131    2.907735
     19          1           0        8.532192   -3.932328    1.586047
     20          1           0        8.507507   -2.606983    4.191205
     21          1           0        8.660745   -1.840258    2.760974
     22          1           0        7.761620   -5.902533    2.808303
     23          1           0        7.856718   -5.027613    4.339207
     24          1           0       10.198241   -5.465012    2.622341
     25          1           0        9.841552   -6.302238    3.973658
 ---------------------------------------------------------------------
                    Distance matrix (angstroms):
                    1          2          3          4          5
     1  N    0.000000
     2  C    1.461512   0.000000
     3  N    2.336295   1.445490   0.000000
     4  N    3.597862   2.400755   1.339096   0.000000
     5  N    4.485564   3.502573   2.172230   1.261206   0.000000
     6  C    5.736676   4.593595   3.416407   2.198791   1.385242
     7  C    6.860468   5.823998   4.546567   3.449047   2.378150
     8  C    8.249259   7.113531   5.926433   4.720365   3.800515
     9  N    8.737681   7.516705   6.421643   5.167717   4.445190
    10  C    9.314282   8.302869   7.016104   5.927907   4.843986
    11  N   10.650351   9.566317   8.335773   7.175236   6.173408
    12  H    1.015865   2.038759   3.226606   4.394538   5.382599
    13  H    1.017930   2.032586   2.588459   3.876974   4.668670
    14  H    2.160134   1.102236   2.082402   2.705441   3.900006
    15  H    2.085067   1.098008   2.102191   2.698380   3.810591
    16  H    2.461120   2.147479   1.014616   2.017824   2.323634
    17  H    5.937547   4.629842   3.710984   2.373784   2.123168
    18  H    6.912792   6.064367   4.682150   3.818489   2.583423
    19  H    8.431216   7.236995   6.168270   4.919266   4.143735
    20  H    8.831845   7.687420   6.527997   5.366242   4.582022
    21  H    8.200828   6.908815   5.938521   4.650702   4.150086
    22  H    9.165785   8.244403   6.944936   5.951521   4.815713
    23  H    9.340454   8.411237   7.058797   6.064617   4.921929
    24  H   10.797727   9.661899   8.509247   7.304782   6.386338
    25  H   11.342085  10.326116   9.048506   7.948216   6.876770
                    6          7          8          9         10
     6  C    0.000000
     7  C    1.336558   0.000000
     8  C    2.524342   1.518539   0.000000
     9  N    3.152586   2.526467   1.470287   0.000000
    10  C    3.764610   2.482863   1.531227   2.456128   0.000000
    11  N    4.977427   3.797075   2.480166   2.845327   1.465711
    12  H    6.571066   7.746458   9.092028   9.537984  10.212204
    13  H    5.958100   7.026300   8.441041   8.845508   9.460347
    14  H    4.828696   6.108908   7.296469   7.485019   8.575499
    15  H    4.739865   5.991106   7.192133   7.672011   8.421297
    16  H    3.699056   4.622070   6.096827   6.735539   7.006486
    17  H    1.094355   2.118079   2.769771   3.063742   4.227696
    18  H    2.081572   1.089986   2.247224   3.325044   2.576876
    19  H    2.829823   2.141308   1.100030   2.073343   2.130223
    20  H    3.458151   2.768295   2.045088   1.014666   2.653019
    21  H    2.878358   2.710909   2.051508   1.012705   3.343437
    22  H    3.900494   2.633907   2.136552   3.389877   1.102691
    23  H    4.007174   2.710350   2.151498   2.741414   1.098062
    24  H    5.130409   4.072501   2.683504   3.128602   2.047537
    25  H    5.768240   4.512240   3.351725   3.796131   2.034085
                   11         12         13         14         15
    11  N    0.000000
    12  H   11.519039   0.000000
    13  H   10.816822   1.619916   0.000000
    14  H    9.771671   2.465106   2.407539   0.000000
    15  H    9.629541   2.357011   2.926559   1.778862   0.000000
    16  H    8.398421   3.459283   2.589329   2.930337   2.784553
    17  H    5.221204   6.661112   6.229155   4.695046   4.646230
    18  H    4.032635   7.859178   7.011606   6.465549   6.318317
    19  H    2.715800   9.213029   8.745807   7.452145   7.148111
    20  H    3.123630   9.669501   8.824269   7.620918   7.979778
    21  H    3.796588   8.941465   8.329542   6.778193   7.042750
    22  H    2.165310  10.071816   9.370580   8.653150   8.302684
    23  H    2.085746  10.277790   9.370497   8.656031   8.666994
    24  H    1.014920  11.622680  11.052949   9.882002   9.611015
    25  H    1.013454  12.238063  11.489186  10.584988  10.407506
                   16         17         18         19         20
    16  H    0.000000
    17  H    4.239699   0.000000
    18  H    4.519345   3.068296   0.000000
    19  H    6.411368   2.810901   2.949305   0.000000
    20  H    6.772910   3.556859   3.337002   2.923012   0.000000
    21  H    6.387724   2.488522   3.670533   2.402860   1.630003
    22  H    6.827490   4.495385   2.461153   2.443235   3.650947
    23  H    6.971496   4.608997   2.524675   3.039047   2.510952
    24  H    8.632112   5.233452   4.451715   2.489727   3.672634
    25  H    9.022406   6.115944   4.543088   3.609928   3.934706
                   21         22         23         24         25
    21  H    0.000000
    22  H    4.160858   0.000000
    23  H    3.646438   1.765841   0.000000
    24  H    3.939791   2.482565   2.936269   0.000000
    25  H    4.772229   2.417423   2.387019   1.629182   0.000000
 Stoichiometry    C5H14N6
 Framework group  C1[X(C5H14N6)]
 Deg. of freedom    69
 Full point group                 C1      NOp   1
 Largest Abelian subgroup         C1      NOp   1
 Largest concise Abelian subgroup C1      NOp   1
                         Standard orientation:                         
 ---------------------------------------------------------------------
 Center     Atomic      Atomic             Coordinates (Angstroms)
 Number     Number       Type             X           Y           Z
 ---------------------------------------------------------------------
      1          7           0       -5.515448   -0.466031    0.073446
      2          6           0       -4.407907    0.409167   -0.305234
      3          7           0       -3.195949   -0.208856    0.183282
      4          7           0       -2.014644    0.338899   -0.129226
      5          7           0       -1.031524   -0.392339    0.169785
      6          6           0        0.178476    0.187657   -0.174308
      7          6           0        1.344818   -0.413669    0.079544
      8          6           0        2.701865    0.186268   -0.243655
      9          7           0        2.999058    1.465951    0.416522
     10          6           0        3.791466   -0.836015    0.091550
     11          7           0        5.130336   -0.315551   -0.199749
     12          1           0       -6.386062   -0.083783   -0.284185
     13          1           0       -5.608735   -0.457403    1.087056
     14          1           0       -4.479441    1.429170    0.106351
     15          1           0       -4.390253    0.487668   -1.400290
     16          1           0       -3.195632   -1.177655    0.484733
     17          1           0        0.145556    1.168538   -0.658459
     18          1           0        1.317869   -1.399987    0.542707
     19          1           0        2.756515    0.370198   -1.326822
     20          1           0        3.026474    1.328395    1.421447
     21          1           0        2.260962    2.133386    0.228598
     22          1           0        3.542714   -1.767698   -0.443256
     23          1           0        3.741738   -1.064760    1.164370
     24          1           0        5.201784   -0.075683   -1.183324
     25          1           0        5.811408   -1.045344   -0.024726
 ---------------------------------------------------------------------
 Rotational constants (GHZ):           5.6839858           0.2656033           0.2583026
 Standard basis: 6-31G(2df,p) (6D, 7F)
 There are   411 symmetry adapted cartesian basis functions of A   symmetry.
 There are   378 symmetry adapted basis functions of A   symmetry.
   378 basis functions,   582 primitive gaussians,   411 cartesian basis functions
    43 alpha electrons       43 beta electrons
       nuclear repulsion energy       586.1461619750 Hartrees.
 NAtoms=   25 NActive=   25 NUniq=   25 SFac= 1.00D+00 NAtFMM=   60 NAOKFM=F Big=F
 Integral buffers will be    131072 words long.
 Raffenetti 2 integral format.
 Two-electron integral symmetry is turned on.
 One-electron integrals computed using PRISM.
 PrsmSu:  requested number of processors reduced to:  13 ShMem   1 Linda.
 NBasis=   378 RedAO= T EigKep=  2.04D-04  NBF=   378
 NBsUse=   378 1.00D-06 EigRej= -1.00D+00 NBFU=   378
 Initial guess from the checkpoint file:  "NCNNdNCdCCpNpCN.chk"
 B after Tr=    -0.000000    0.000000    0.000000
         Rot=    0.999955    0.009113   -0.000483    0.002734 Ang=   1.09 deg.
 ExpMin= 1.61D-01 ExpMax= 4.17D+03 ExpMxC= 6.27D+02 IAcc=2 IRadAn=         4 AccDes= 0.00D+00
 Harris functional with IExCor=  402 and IRadAn=       4 diagonalized for initial guess.
 HarFok:  IExCor=  402 AccDes= 0.00D+00 IRadAn=         4 IDoV= 1 UseB2=F ITyADJ=14
 ICtDFT=  3500011 ScaDFX=  1.000000  1.000000  1.000000  1.000000
 FoFCou: FMM=F IPFlag=           0 FMFlag=      100000 FMFlg1=           0
         NFxFlg=           0 DoJE=T BraDBF=F KetDBF=T FulRan=T
         wScrn=  0.000000 ICntrl=       500 IOpCl=  0 I1Cent=   200000004 NGrid=           0
         NMat0=    1 NMatS0=      1 NMatT0=    0 NMatD0=    1 NMtDS0=    0 NMtDT0=    0
 Petite list used in FoFCou.
 Requested convergence on RMS density matrix=1.00D-08 within 128 cycles.
 Requested convergence on MAX density matrix=1.00D-06.
 Requested convergence on             energy=1.00D-06.
 No special actions if energy rises.
 Integral accuracy reduced to 1.0D-05 until final iterations.
 Initial convergence to 1.0D-05 achieved.  Increase integral accuracy.
 SCF Done:  E(RB3LYP) =  -527.402359620     A.U. after   12 cycles
            NFock= 12  Conv=0.69D-08     -V/T= 2.0076
 PrsmSu:  requested number of processors reduced to:  13 ShMem   1 Linda.
 Calling FoFJK, ICntrl=      2127 FMM=F ISym2X=0 I1Cent= 0 IOpClX= 0 NMat=1 NMatS=1 NMatT=0.
 ***** Axes restored to original set *****
 -------------------------------------------------------------------
 Center     Atomic                   Forces (Hartrees/Bohr)
 Number     Number              X              Y              Z
 -------------------------------------------------------------------
      1        7           0.001312297    0.001568400    0.002894416
      2        6          -0.003860231    0.000550107   -0.001808671
      3        7           0.011463415   -0.001230078    0.006652577
      4        7          -0.010567740    0.006142325   -0.005052981
      5        7          -0.005053801   -0.002857973    0.000442269
      6        6           0.008136786    0.001260076    0.001232213
      7        6          -0.000987365   -0.002787231   -0.000399867
      8        6          -0.001151033    0.000091417    0.001609951
      9        7           0.002884409   -0.002117200   -0.002498806
     10        6           0.006068819   -0.000295755   -0.000879656
     11        7          -0.004535982   -0.000365267    0.002416172
     12        1           0.000843271   -0.001918592   -0.001074251
     13        1          -0.000133688    0.000413143   -0.000209067
     14        1           0.001815868   -0.001026268   -0.000261895
     15        1          -0.000514172    0.000668189   -0.000862542
     16        1          -0.001767054   -0.001540376   -0.003138617
     17        1          -0.001961076    0.000145083    0.000031577
     18        1           0.000345748    0.001575438    0.000612574
     19        1           0.000513926    0.001805133   -0.000677890
     20        1          -0.001109355    0.001071309    0.001082212
     21        1          -0.002104306    0.001888420   -0.000099786
     22        1          -0.001160300   -0.000581730    0.000117250
     23        1          -0.000287700   -0.000337183    0.000763551
     24        1           0.000308868   -0.000145940   -0.000606296
     25        1           0.001500397   -0.001975448   -0.000284436
 -------------------------------------------------------------------
 Cartesian Forces:  Max     0.011463415 RMS     0.002923604

 GradGradGradGradGradGradGradGradGradGradGradGradGradGradGradGradGradGrad
 Berny optimization.
 Using GEDIIS/GDIIS optimizer.
 FormGI is forming the generalized inverse of G from B-inverse, IUseBI=4.
 Internal  Forces:  Max     0.009564771 RMS     0.001733795
 Search for a local minimum.
 Step number   2 out of a maximum of  120
 All quantities printed in internal units (Hartrees-Bohrs-Radians)
 Mixed Optimization -- RFO/linear search
 Update second derivatives using D2CorX and points    1    2
 DE= -7.79D-03 DEPred=-8.39D-03 R= 9.29D-01
 TightC=F SS=  1.41D+00  RLast= 3.50D-01 DXNew= 5.0454D-01 1.0500D+00
 Trust test= 9.29D-01 RLast= 3.50D-01 DXMaxT set to 5.05D-01
 ITU=  1  0
 Use linear search instead of GDIIS.
     Eigenvalues ---    0.00230   0.00513   0.00753   0.00843   0.01069
     Eigenvalues ---    0.01263   0.01383   0.01660   0.01854   0.01953
     Eigenvalues ---    0.02458   0.02699   0.03295   0.04159   0.04210
     Eigenvalues ---    0.04360   0.04426   0.04791   0.05492   0.05554
     Eigenvalues ---    0.05921   0.06210   0.06971   0.09308   0.09388
     Eigenvalues ---    0.12601   0.12790   0.15366   0.15863   0.16000
     Eigenvalues ---    0.16000   0.16000   0.16000   0.16000   0.16000
     Eigenvalues ---    0.16111   0.17662   0.18743   0.21590   0.21914
     Eigenvalues ---    0.21998   0.22130   0.22870   0.24999   0.25190
     Eigenvalues ---    0.28160   0.30504   0.33884   0.34003   0.34079
     Eigenvalues ---    0.34364   0.34426   0.35212   0.35392   0.35596
     Eigenvalues ---    0.36466   0.39114   0.40592   0.44025   0.44628
     Eigenvalues ---    0.44770   0.44776   0.44982   0.45568   0.45609
     Eigenvalues ---    0.48782   0.51083   0.55374   0.81256
 RFO step:  Lambda=-2.68367086D-03 EMin= 2.30050754D-03
 Quartic linear search produced a step of  0.03468.
 Iteration  1 RMS(Cart)=  0.09479464 RMS(Int)=  0.00582039
 Iteration  2 RMS(Cart)=  0.00784607 RMS(Int)=  0.00013497
 Iteration  3 RMS(Cart)=  0.00006485 RMS(Int)=  0.00012957
 Iteration  4 RMS(Cart)=  0.00000001 RMS(Int)=  0.00012957
 Variable       Old X    -DE/DX   Delta X   Delta X   Delta X     New X
                                 (Linear)    (Quad)   (Total)
    R1        2.76186  -0.00202   0.00100  -0.00223  -0.00123   2.76063
    R2        1.91971  -0.00087  -0.00037  -0.00312  -0.00348   1.91623
    R3        1.92361  -0.00002   0.00004   0.00008   0.00012   1.92373
    R4        2.73158   0.00120   0.00098   0.00598   0.00696   2.73855
    R5        2.08292  -0.00037   0.00056   0.00063   0.00119   2.08411
    R6        2.07493   0.00051   0.00028   0.00236   0.00264   2.07758
    R7        2.53053  -0.00956  -0.00135  -0.02250  -0.02385   2.50667
    R8        1.91735   0.00115   0.00015   0.00303   0.00318   1.92053
    R9        2.38333   0.00481   0.00048   0.00746   0.00794   2.39128
   R10        2.61773   0.00664   0.00033   0.01479   0.01512   2.63285
   R11        2.52573   0.00236  -0.00116   0.00086  -0.00030   2.52543
   R12        2.06803  -0.00106   0.00048  -0.00160  -0.00112   2.06691
   R13        2.86962   0.00116  -0.00003   0.00375   0.00371   2.87333
   R14        2.05977  -0.00097   0.00029  -0.00190  -0.00161   2.05816
   R15        2.77844  -0.00022   0.00040   0.00062   0.00102   2.77947
   R16        2.89360   0.00420  -0.00266   0.00839   0.00572   2.89932
   R17        2.07876   0.00061   0.00013   0.00224   0.00237   2.08113
   R18        1.91744   0.00149  -0.00019   0.00282   0.00264   1.92008
   R19        1.91374   0.00205   0.00000   0.00457   0.00457   1.91831
   R20        2.76979  -0.00198  -0.00034  -0.00668  -0.00702   2.76277
   R21        2.08378   0.00094   0.00044   0.00414   0.00458   2.08837
   R22        2.07504   0.00078   0.00008   0.00257   0.00265   2.07769
   R23        1.91792   0.00069  -0.00022   0.00091   0.00069   1.91861
   R24        1.91515   0.00178  -0.00022   0.00337   0.00315   1.91830
    A1        1.91018  -0.00058   0.00092   0.00156   0.00245   1.91263
    A2        1.89903   0.00050  -0.00009   0.00536   0.00525   1.90428
    A3        1.84296   0.00060   0.00032   0.01014   0.01041   1.85338
    A4        1.86688  -0.00104  -0.00038  -0.00520  -0.00559   1.86129
    A5        1.99130   0.00110   0.00219   0.01474   0.01694   2.00824
    A6        1.88957   0.00030  -0.00108  -0.00061  -0.00167   1.88790
    A7        1.90061  -0.00025   0.00010  -0.00357  -0.00348   1.89713
    A8        1.93279   0.00054   0.00041   0.00419   0.00459   1.93738
    A9        1.88314  -0.00061  -0.00121  -0.00926  -0.01046   1.87268
   A10        2.07817  -0.00023  -0.00015  -0.00473  -0.00543   2.07274
   A11        2.10472  -0.00238  -0.00046  -0.02184  -0.02277   2.08196
   A12        2.04838   0.00223   0.00016   0.00928   0.00877   2.05715
   A13        1.97704  -0.00169   0.00097  -0.00390  -0.00293   1.97411
   A14        1.95978   0.00227  -0.00104   0.00608   0.00505   1.96483
   A15        2.12551  -0.00082  -0.00170  -0.00889  -0.01066   2.11485
   A16        2.04755  -0.00130   0.00039  -0.00764  -0.00732   2.04023
   A17        2.11009   0.00213   0.00132   0.01669   0.01794   2.12804
   A18        2.16720   0.00056  -0.00071   0.00046  -0.00031   2.16689
   A19        2.05584  -0.00062  -0.00015  -0.00386  -0.00407   2.05177
   A20        2.06013   0.00006   0.00088   0.00351   0.00433   2.06446
   A21        2.01410  -0.00127   0.00253   0.00111   0.00359   2.01770
   A22        1.90240  -0.00069  -0.00234  -0.00513  -0.00757   1.89483
   A23        1.89656   0.00021   0.00012  -0.00802  -0.00794   1.88861
   A24        1.91659   0.00267   0.00027   0.02067   0.02096   1.93755
   A25        1.86143  -0.00101  -0.00077  -0.01604  -0.01690   1.84453
   A26        1.86694   0.00016   0.00012   0.00750   0.00765   1.87459
   A27        1.90940   0.00010  -0.00009  -0.00566  -0.00591   1.90349
   A28        1.92088  -0.00117  -0.00100  -0.01631  -0.01747   1.90341
   A29        1.86798  -0.00068  -0.00090  -0.01930  -0.02056   1.84742
   A30        1.94919   0.00482  -0.00141   0.02112   0.01968   1.96888
   A31        1.87275  -0.00191  -0.00150  -0.01380  -0.01539   1.85736
   A32        1.89730  -0.00072  -0.00058  -0.00056  -0.00122   1.89608
   A33        1.99292  -0.00112   0.00348   0.00622   0.00975   2.00267
   A34        1.88548  -0.00155   0.00035  -0.00397  -0.00369   1.88179
   A35        1.86254   0.00029  -0.00033  -0.01056  -0.01103   1.85151
   A36        1.91860  -0.00042   0.00005  -0.00333  -0.00328   1.91532
   A37        1.90059   0.00203  -0.00110   0.00860   0.00750   1.90809
   A38        1.86528  -0.00097  -0.00041  -0.00915  -0.00956   1.85572
    D1       -3.10366   0.00093   0.00205   0.06923   0.07130  -3.03236
    D2        1.07664   0.00129   0.00088   0.06826   0.06914   1.14579
    D3       -1.02012   0.00116   0.00173   0.07100   0.07276  -0.94736
[...]
 0.00001495,-0.00001285,0.00003112,0.00011271,0.00026483,0.03791719,0.0
 5678189,0.00008233,-0.00017565,0.00000072,-0.00006404,0.00029860,-0.00
 029884,0.00012835,-0.00016672,0.00042117,-0.00317942,-0.00187848,0.002
 25652,0.00285129,0.00359885,0.00077782,0.10325857,0.06975930,-0.233239
 75,0.01383750,0.00761855,-0.01499669,0.00182558,-0.00256544,-0.0008971
 9,-0.00054234,0.00016214,0.00029234,0.00000392,0.00006245,0.00024938,0
 .00001538,-0.00010158,0.00012061,-0.00001735,-0.00004511,0.00002317,0.
 00000797,0.00001699,0.00001917,0.00001023,-0.00001865,-0.00000652,0.00
 004512,-0.00004735,0.00001177,-0.00007096,0.00020601,-0.00040649,-0.11
 567212,-0.08130363,0.24601438,-0.00001894,0.00002188,-0.00001528,0.000
 03252,0.00004052,0.00010182,-0.00023299,-0.00010355,0.00008051,-0.0002
 4374,-0.00021158,0.00040407,0.00093302,-0.00060564,-0.00090735,0.01032
 877,0.00503611,-0.01249930,-0.13463724,-0.03889461,0.11878504,-0.01374
 713,-0.00847988,0.02500170,0.00210428,0.00050219,0.00119689,0.00062608
 ,-0.00182594,0.00074903,0.00005399,0.00036601,-0.00056056,0.00000297,0
 .00001027,-0.00000114,0.00000249,-0.00000057,-0.00000092,0.00000686,-0
 .00000637,0.00000602,-0.00000054,-0.00000738,0.00000656,-0.00008678,0.
 00004138,-0.00005463,-0.00108869,0.00200173,-0.00146766,0.14083954,-0.
 00002587,-0.00001920,-0.00007288,0.00001985,0.00034021,0.00014315,0.00
 035493,0.00016679,-0.00005772,0.00003190,-0.00012982,-0.00051395,-0.00
 168987,-0.00578099,-0.00319000,-0.00776470,0.00291176,0.01285261,-0.03
 678484,-0.06073498,0.06446405,0.00314201,0.00261350,-0.00375321,0.0004
 2645,0.00000516,0.00033994,-0.00031267,0.00117089,-0.00067048,-0.00016
 766,-0.00002963,-0.00001408,0.00000016,0.00000813,0.00001204,-0.000005
 46,-0.00000524,0.00002598,0.00000269,-0.00000717,-0.00000620,0.0000244
 7,-0.00004604,0.00002008,-0.00000143,-0.00027342,0.00000651,0.00215592
 ,0.00753334,0.00481434,0.04000410,0.05143221,-0.00001607,-0.00001191,0
 .00001309,-0.00000267,0.00014140,0.00000305,0.00000470,0.00009254,0.00
 003564,-0.00054751,-0.00032098,0.00049863,0.00175797,-0.00363777,0.000
 81037,0.01754509,0.00928019,-0.01870356,0.11306192,0.06438992,-0.22039
 478,-0.00238841,-0.00017838,0.00089264,0.00010119,0.00028299,0.0018007
 9,-0.00017031,0.00024815,0.00019259,-0.00010465,-0.00019866,0.00016622
 ,0.00000558,-0.00000136,0.00000273,0.00000926,-0.00000728,-0.00001067,
 0.00000768,-0.00000694,0.00001837,0.00000755,-0.00001862,0.00000658,-0
 .00007475,-0.00006766,-0.00006593,-0.00214060,0.00477699,-0.00116597,-
 0.12769731,-0.07476136,0.23476846,-0.00002408,0.00006150,-0.00002427,0
 .00005292,-0.00009227,0.00015158,-0.00039525,-0.00008902,-0.00009524,0
 .00035260,0.00001295,0.00001224,0.00021935,0.00047585,-0.00073621,0.00
 123126,-0.00101887,0.00204422,-0.01738120,-0.01152753,0.02771259,-0.09
 459529,-0.03497602,0.08550803,0.00814953,0.00166458,-0.01327611,0.0025
 7425,0.00398272,-0.00459710,0.00124328,-0.00044512,-0.00069651,0.00000
 266,0.00001865,-0.00000799,-0.00000394,-0.00000309,0.00000579,0.000002
 52,0.00000742,-0.00001392,-0.00001210,0.00001308,-0.00000491,0.0000145
 9,0.00004108,-0.00000716,0.00004286,0.00045297,-0.00123267,-0.00517802
 ,0.00107082,-0.00042649,0.10360907,0.00000094,-0.00000063,-0.00000423,
 -0.00000763,0.00000745,0.00001060,-0.00002029,0.00002785,-0.00000312,-
 0.00009040,-0.00004702,0.00000598,0.00007028,-0.00000472,-0.00016007,0
 .00053549,-0.00017041,-0.00061715,0.00316937,0.00167221,-0.00439923,-0
 .03748561,-0.07740702,0.07523934,0.00780749,0.00358099,-0.01978880,-0.
 01444753,-0.01715903,0.02841178,-0.00103691,0.00255508,-0.00082366,-0.
 00000063,0.00000070,0.00000028,0.00000160,0.00000014,0.00000134,0.0000
 0206,-0.00000002,-0.00000097,-0.00000009,-0.00000052,-0.00000006,-0.00
 000643,0.00000213,-0.00000407,-0.00011018,0.00016652,-0.00005660,0.001
 28557,0.00093964,0.00012622,0.03968852,0.09052241,0.00001440,-0.000040
 97,0.00002617,-0.00002655,0.00006496,-0.00011976,0.00033626,0.00006660
 ,0.00010050,-0.00007174,-0.00002257,-0.00017557,-0.00014799,-0.0004107
 1,0.00057824,-0.00182957,0.00012937,-0.00019579,0.00061099,-0.00019645
 ,0.00096916,0.08588375,0.07154609,-0.20879777,0.00826160,-0.00317421,-
 0.02940576,0.00340671,0.00315974,-0.00311158,-0.00046165,-0.00058774,0
 .00068241,0.00000015,-0.00001410,0.00000299,0.00000524,0.00000202,-0.0
 0000862,-0.00000348,-0.00000314,0.00001129,0.00000785,-0.00001114,0.00
 000615,-0.00000093,-0.00004184,0.00002909,0.00029082,-0.00006738,0.000
 69946,-0.00058766,0.00039035,0.00075913,-0.09116617,-0.07317666,0.2405
 6562,-0.00001201,0.00002241,0.00000246,0.00001678,-0.00004889,0.000045
 50,-0.00018603,-0.00006738,-0.00008707,0.00011443,0.00003327,0.0002208
 9,-0.00018520,0.00038566,-0.00018068,-0.00022386,-0.00060919,0.0004121
 4,-0.00116677,-0.00081294,-0.00455379,-0.01648668,0.00450193,-0.008413
 45,-0.31767399,0.12358948,-0.05491148,0.00002366,0.00216300,0.00088992
 ,-0.00028611,0.00062806,0.00166669,0.00000287,0.00000767,-0.00000443,0
 .00000093,-0.00000040,-0.00000398,-0.00000003,0.00000381,-0.00000263,-
 0.00000702,0.00001011,-0.00000679,0.00001226,0.00002644,-0.00001258,0.
 00002145,-0.00003249,-0.00002416,0.00028606,0.00010095,0.00019832,-0.0
 0025034,-0.00010695,0.00008208,0.35714316,-0.00000498,0.00000333,-0.00
 000700,0.00001123,-0.00002767,0.00003544,-0.00018747,-0.00010886,-0.00
 007636,0.00003058,0.00010922,-0.00000087,0.00015301,0.00044419,0.00003
 229,-0.00091465,0.00040369,-0.00033756,-0.00064062,-0.00274736,-0.0031
 4688,-0.02408934,0.00364576,-0.00742120,0.17849910,-0.09374119,0.02970
 577,-0.00270639,-0.00021261,-0.00077058,-0.00107276,-0.00113108,-0.000
 59813,0.00000218,0.00000504,-0.00000182,0.00000057,0.00000067,0.000003
 84,0.00000339,0.00000193,-0.00000295,-0.00001086,0.00000933,-0.0000067
 3,0.00001075,0.00004099,-0.00000045,0.00001520,-0.00000967,-0.00002397
 ,0.00019992,-0.00003160,0.00011490,0.00058896,0.00019061,0.00031919,-0
 .14254375,0.09268256,-0.00005167,0.00011243,-0.00000488,0.00008102,-0.
 00020571,0.00020754,-0.00069628,-0.00014629,-0.00025026,0.00045270,0.0
 0004311,0.00036420,-0.00019377,0.00092706,-0.00033346,-0.00080490,-0.0
 0058397,0.00069457,-0.00081167,-0.00237620,-0.00481598,-0.02897373,0.0
 1240859,-0.00674847,-0.07168351,0.02414779,-0.07486437,-0.00210847,-0.
 00032670,0.00070645,0.00057758,0.00198766,-0.00146004,0.00000999,0.000
 02829,-0.00001955,0.00000386,-0.00001380,-0.00000111,0.00000565,0.0000
 1434,-0.00000792,-0.00003266,0.00003343,-0.00001816,0.00002455,0.00008
 364,-0.00003135,-0.00007596,-0.00027680,-0.00012809,-0.00027298,-0.000
 07682,0.00019386,0.00014808,0.00017196,-0.00060970,0.07067704,-0.02202
 956,0.08037317,0.00004398,-0.00008194,0.00001309,-0.00007111,0.0001179
 4,-0.00016117,0.00043789,0.00006832,0.00013216,-0.00037087,0.00003714,
 -0.00016040,0.00009366,-0.00017795,0.00028839,-0.00053443,0.00035348,-
 0.00022159,0.00234222,0.00067782,-0.00229444,0.00869765,0.00034842,-0.
 01482300,-0.17825074,-0.01925888,0.16337430,-0.00060519,-0.00011995,-0
 .00050603,-0.00004763,0.00121446,-0.00023998,-0.00000842,-0.00001976,0
 .00001640,-0.00000434,0.00001395,-0.00000729,-0.00000550,-0.00001016,0
 .00000583,0.00002312,-0.00001639,0.00000899,-0.00001685,-0.00004151,0.
 00001019,-0.00009514,-0.00008565,0.00016533,-0.00028655,-0.00057937,0.
 00061438,-0.00027204,-0.00163234,-0.00360863,-0.02012472,-0.00900537,0
 .03259716,0.18881358,0.00002692,-0.00006872,-0.00004174,-0.00003894,0.
 00011987,-0.00005218,0.00022675,-0.00000932,0.00006278,-0.00014581,0.0
 0001702,-0.00002388,0.00002825,-0.00017551,0.00000739,0.00004653,-0.00
 024092,0.00023885,0.00028267,0.00117785,0.00018332,0.01022157,-0.00488
 385,-0.02048557,-0.05032264,-0.02043517,0.06339272,0.00099735,0.000589
 92,-0.00246618,-0.00013451,-0.00090576,0.00030382,-0.00000807,-0.00001
 225,0.00001131,-0.00000454,0.00000509,0.00003316,0.00000379,-0.0000101
 5,-0.00000722,0.00000898,-0.00001440,0.00000274,0.00000582,0.00000190,
 0.00001508,0.00000935,0.00003562,0.00000802,-0.00022418,0.00017916,0.0
 0016712,-0.00049614,0.00001786,0.00011319,0.01220630,-0.00137977,-0.01
 406097,0.02810027,0.02685198,0.00005415,-0.00011053,0.00001605,-0.0000
 8968,0.00015813,-0.00021843,0.00062544,0.00008904,0.00018572,-0.000476
 21,0.00008483,-0.00026162,0.00005288,-0.00025196,0.00038250,-0.0005813
 2,0.00020794,0.00007647,0.00124237,0.00082384,0.00179658,0.01806884,0.
 00850143,-0.02912142,0.16755076,0.02111297,-0.28606801,0.00034744,0.00
 067768,0.00088147,-0.00001056,0.00012669,0.00010325,-0.00001097,-0.000
 02698,0.00001963,-0.00000292,0.00001450,-0.00000587,-0.00000659,-0.000
 01246,0.00000866,0.00002822,-0.00002298,0.00001182,-0.00001843,-0.0000
 6302,0.00002311,0.00010850,-0.00028199,0.00013694,-0.00146760,-0.00016
 574,0.00010724,-0.00314895,-0.00420293,-0.00416751,-0.00646121,0.00221
 364,0.00618542,-0.17561294,-0.02841515,0.30901672,-0.00000009,0.000001
 01,0.00000843,0.00000183,-0.00000598,-0.00002425,0.00007422,0.00001092
 ,0.00001645,-0.00002696,0.00000777,0.00001678,-0.00009647,0.00000347,0
 .00003042,0.00018669,-0.00004274,0.00004733,0.00004663,0.00034496,0.00
 057485,0.00261089,0.00048879,0.00388812,0.00124189,0.00266423,0.000257
 79,-0.07978287,-0.04185448,-0.06827328,-0.02962707,-0.01238496,-0.0275
 9410,0.00000087,-0.00000307,-0.00000116,0.00000077,-0.00000121,-0.0000
 0141,-0.00000157,-0.00000048,0.00000300,0.00000114,-0.00000138,0.00000
 101,0.00000026,-0.00001357,0.00000440,0.00000059,0.00001057,0.00001531
 ,0.00001339,0.00003655,0.00004324,0.00004371,-0.00017036,-0.00024419,-
 0.00082763,0.00086427,0.00028219,0.00010358,-0.00031010,-0.00017639,0.
 09768068,-0.00002331,0.00005162,0.00001614,0.00004181,-0.00007920,0.00
 005623,-0.00017130,-0.00000252,-0.00003591,0.00019207,-0.00004634,0.00
 007904,0.00005907,-0.00005261,0.00003854,0.00052900,0.00027418,0.00055
 787,-0.00156606,0.00094673,-0.00066250,-0.00965318,-0.01271908,-0.0277
 7055,0.00001184,-0.00881061,-0.00090503,-0.04111895,-0.10205690,-0.085
 34840,0.00425294,0.00590726,0.00568088,0.00000579,0.00000941,-0.000009
 15,0.00000187,-0.00000564,-0.00001074,-0.00000141,0.00000474,0.0000032
 9,-0.00000757,0.00000753,-0.00000172,-0.00000097,0.00000304,-0.0000130
 5,-0.00002979,-0.00010796,0.00004483,0.00011751,-0.00020661,-0.0000534
 5,-0.00062645,0.00132819,0.00089215,0.00067660,0.00076358,0.00013867,-
 0.00018441,-0.00029042,0.00022488,0.04443349,0.10813208,-0.00000656,0.
 00002549,0.00001762,0.00001628,-0.00005241,-0.00000159,0.00001443,0.00
 002275,0.00000699,0.00003700,-0.00001118,0.00003919,0.00000726,0.00010
 559,0.00006808,0.00033796,-0.00008112,0.00028696,-0.00004729,0.0003968
 1,0.00017287,0.00048839,0.00267970,-0.00014356,-0.00076175,-0.00149927
 ,0.00138057,-0.06731213,-0.08728531,-0.20407132,-0.00500865,0.00043982
 ,0.00349046,0.00000198,0.00000097,-0.00000455,0.00000065,-0.00000245,-
 0.00000751,-0.00000294,0.00000201,0.00000321,0.00000010,0.00000227,0.0
 0000030,-0.00000066,-0.00002275,-0.00000708,0.00000901,-0.00007539,0.0
 0000962,-0.00004279,-0.00013694,-0.00006531,0.00009262,-0.00062015,0.0
 0068790,0.00020350,0.00041533,0.00011236,0.00000443,0.00065078,0.00042
 654,0.08160684,0.09669770,0.21662706,0.00000582,-0.00001094,-0.0000001
 8,-0.00000800,0.00001311,-0.00002132,0.00006669,-0.00000516,0.00001474
 ,-0.00005413,0.00003141,-0.00002654,0.00002944,-0.00000969,0.00009392,
 0.00001718,0.00000249,-0.00013440,0.00083917,0.00012158,-0.00090993,0.
 00271109,0.00204225,-0.00538124,-0.00022433,-0.00025418,-0.00031303,-0
 .09084966,-0.03615986,0.08208824,-0.02324054,-0.01317572,0.03012380,-0
 .00000153,-0.00000311,0.00000192,-0.00000025,0.00000028,0.00000173,-0.
 00000006,-0.00000142,0.00000083,0.00000194,-0.00000165,0.00000057,-0.0
 0000109,-0.00000692,0.00000251,-0.00006328,-0.00002551,0.00004038,0.00
 007441,0.00002396,0.00020672,0.00019487,0.00174261,0.00011513,-0.00023
 810,0.00006895,0.00031497,0.00013427,-0.00045519,0.00007905,0.00580163
 ,0.00422961,-0.00890632,0.11049284,-0.00000006,0.00000427,-0.00000569,
 0.00000330,-0.00000775,0.00001526,-0.00003142,-0.00000159,-0.00000469,
 0.00002591,-0.00001970,0.00006426,0.00000566,0.00007582,-0.00012969,0.
 00042288,-0.00006456,0.00006534,-0.00195474,0.00117665,-0.00000209,-0.
 01292045,-0.01499690,0.02957600,0.00087064,0.00412727,-0.00024251,-0.0
 4157796,-0.08117089,0.07504638,0.00475263,0.00226844,-0.00485399,-0.00
 000073,0.00000180,0.00000061,-0.00000236,0.00000097,0.00000161,-0.0000
 0020,-0.00000002,-0.00000293,0.00000079,0.00000045,-0.00000012,0.00000
 092,0.00000247,-0.00000444,-0.00002556,-0.00003113,-0.00023019,0.00083
 559,0.00002438,-0.00037942,0.00147924,-0.00623229,0.00024266,-0.000473
 07,-0.00032438,-0.00007778,0.00025773,-0.00051903,-0.00084747,0.006086
 88,0.00617758,-0.01313224,0.04060012,0.08796429,-0.00001502,0.00001715
 ,0.00000824,0.00001643,-0.00001659,0.00002419,-0.00009578,-0.00001486,
 -0.00003004,0.00004964,0.00000577,-0.00000337,-0.00000817,-0.00009005,
 -0.00003973,-0.00041962,-0.00000563,0.00016954,0.00060871,-0.00017682,
 0.00011790,0.00060559,0.00101756,-0.00438365,-0.00050328,-0.00017500,0
 .00215143,0.08921389,0.07533627,-0.22463616,-0.00080626,-0.00153341,0.
 00394453,0.00000501,0.00000401,-0.00000535,0.00000320,-0.00000321,-0.0
 0000318,0.00000007,0.00000079,0.00000482,-0.00000661,0.00000310,-0.000
 00245,0.00000057,0.00001965,-0.00000337,0.00008741,-0.00002202,0.00014
 421,-0.00067727,0.00024860,0.00022752,-0.00062882,0.00049898,0.0013803
 3,0.00005044,0.00000404,0.00006376,0.00032257,0.00034430,0.00044466,0.
 00988770,0.00978821,-0.02094513,-0.09718797,-0.08447663,0.23898090,0.0
 0001723,-0.00003581,-0.00000505,-0.00002822,0.00005348,-0.00004378,0.0
 0012197,0.00000681,0.00003604,-0.00010797,0.00000556,-0.00003696,0.000
 04414,-0.00001680,0.00004101,-0.00000704,-0.00000351,-0.00008670,-0.00
 004772,0.00003796,-0.00038749,0.00069185,-0.00063643,0.00080554,0.0000
 3076,-0.00048304,-0.00005163,-0.02186765,-0.00694023,0.03759857,-0.110
 43699,-0.01131840,0.13028175,-0.00000462,-0.00000539,0.00000677,-0.000
 00176,0.00000598,0.00000129,-0.00000073,-0.00000326,-0.00000165,0.0000
 0783,-0.00000583,0.00000233,-0.00000330,-0.00000613,0.00000516,-0.0000
 1787,0.00002245,-0.00004580,0.00027378,-0.00004984,-0.00007807,0.00019
 571,0.00099357,-0.00060673,0.00016720,0.00038694,-0.00018850,-0.000131
 24,-0.00002900,-0.00013540,0.00223541,-0.00101447,-0.00020144,-0.00716
 287,0.00192613,-0.00124474,0.13265930,-0.00000329,-0.00000676,-0.00000
 357,0.00000259,0.00001271,0.00000445,-0.00002230,-0.00002342,-0.000009
 94,0.00002234,0.00000702,-0.00000068,-0.00004730,0.00001077,0.00001870
 ,0.00000582,0.00000743,-0.00002745,0.00000668,-0.00041654,0.00037452,0
 .00093651,0.00174079,-0.00232804,0.00002337,-0.00136866,0.00047526,-0.
 00259284,0.00036718,-0.00606208,0.00198225,-0.04745842,0.04341710,0.00
 000154,0.00000051,-0.00000077,0.00000246,-0.00000065,0.00000263,0.0000
 0215,0.00000062,0.00000050,-0.00000430,0.00000026,-0.00000112,0.000003
 35,0.00001165,0.00000491,0.00002039,0.00001018,0.00004182,-0.00022696,
 -0.00001161,0.00004898,-0.00013678,-0.00043776,0.00096146,0.00046424,0
 .00089375,-0.00067463,-0.00016956,0.00007552,0.00015796,0.00075882,0.0
 0004361,0.00112559,0.00124402,0.00073641,-0.00036992,0.01616236,0.0540
 6188,0.00000862,-0.00001719,-0.00000551,-0.00001338,0.00002677,-0.0000
 1545,0.00004066,-0.00000356,0.00001105,-0.00004212,0.00000532,-0.00001
 441,0.00001626,0.00000034,0.00001584,-0.00001801,-0.00001597,0.0000058
 8,-0.00008456,-0.00025543,0.00018524,0.00036357,-0.00037024,0.00031780
 ,0.00021433,-0.00100566,0.00003413,-0.00820388,-0.00274723,0.00172439,
 0.16344870,0.08307212,-0.33834267,-0.00000126,-0.00000299,0.00000375,-
 0.00000229,0.00000301,0.00000194,0.00000027,-0.00000122,-0.00000173,0.
 00000281,-0.00000178,0.00000055,0.00000130,0.00000018,0.00000102,0.000
 00617,0.00002128,-0.00000607,-0.00008359,0.00009501,-0.00006681,0.0003
 9127,-0.00035716,-0.00009510,0.00053108,0.00035925,-0.00062248,-0.0002
 2887,0.00015041,0.00001316,-0.00054153,-0.00010604,0.00204112,-0.00088
 437,-0.00001305,0.00190700,-0.15847443,-0.07400446,0.34510151,-0.00003
 375,0.00005948,-0.00001190,0.00004369,-0.00006505,0.00013796,-0.000380
 19,-0.00000869,-0.00011211,0.00025116,-0.00010900,0.00010504,-0.000101
 71,-0.00012385,-0.00037668,-0.00029956,0.00002362,0.00031366,0.0002021
 9,0.00205100,-0.00044638,-0.00766531,-0.00163753,-0.00046812,0.0007295
 6,-0.00068829,-0.00031063,-0.01028104,0.03982509,-0.01020409,-0.058326
 15,0.05525294,0.00178529,0.00000682,0.00001815,-0.00000919,0.00000158,
 -0.00000638,-0.00000039,0.00000413,0.00000643,-0.00000426,-0.00001509,
 0.00001135,-0.00000575,0.00000409,0.00004153,-0.00001600,0.00000821,0.
 00010529,0.00002928,-0.00005751,-0.00001304,0.00008321,0.00018310,-0.0
 0018217,-0.00025968,-0.00012033,0.00034114,0.00071931,0.00013481,0.000
 00457,0.00004151,0.00031847,-0.00015372,-0.00052993,0.00147449,-0.0002
 8185,0.00074230,0.00337281,-0.01843557,0.00355324,0.07054553,0.0000314
 8,-0.00005748,0.00000367,-0.00004591,0.00007833,-0.00010721,0.00029032
 ,0.00001614,0.00009114,-0.00022549,0.00006941,-0.00010694,0.00012614,-
 0.00004276,0.00023144,0.00003669,0.00009992,-0.00020799,-0.00011366,-0
 .00078546,0.00008416,0.00228162,0.00032193,-0.00076630,0.00073818,0.00
 022261,0.00026395,-0.00622080,-0.00482543,-0.00354093,0.07909072,-0.38
 923731,0.12078489,-0.00000677,-0.00001380,0.00001072,-0.00000374,0.000
 00809,-0.00000062,-0.00000311,-0.00000663,0.00000215,0.00001462,-0.000
 01046,0.00000543,-0.00000722,-0.00002623,0.00001038,-0.00000574,-0.000
 03301,-0.00001854,0.00012388,-0.00004887,-0.00002558,-0.00014707,0.000
 44765,-0.00014085,-0.00012487,0.00051955,0.00075226,0.00019373,-0.0001
 2650,0.00000769,-0.00092343,0.00072834,0.00035437,-0.00001107,0.000807
 43,-0.00040427,0.00094691,-0.00825647,-0.00483168,-0.07603544,0.400151
 01,0.00003927,-0.00007397,-0.00000354,-0.00005738,0.00010392,-0.000118
 62,0.00033509,0.00001221,0.00009494,-0.00025470,0.00004521,-0.00007674
 ,0.00003644,-0.00001555,0.00018729,0.00019714,0.00009934,0.00000702,-0
 .00044312,-0.00046738,0.00021863,0.00081377,-0.00167890,-0.00038141,0.
 00107768,-0.00065702,0.00006700,-0.00500653,0.00220695,-0.00304952,0.0
 0435420,0.07516172,-0.04967517,-0.00000960,-0.00001573,0.00001481,-0.0
 0000472,0.00001101,0.00000150,-0.00000272,-0.00000781,-0.00000048,0.00
 001794,-0.00001261,0.00000631,-0.00000693,-0.00002912,0.00001186,0.000
 01290,-0.00001201,-0.00003166,0.00000441,0.00000673,-0.00002390,-0.000
 00388,-0.00025160,0.00018872,-0.00031783,0.00122038,0.00101450,0.00031
 111,-0.00013211,0.00000693,0.00017246,0.00069810,-0.00012481,0.0006808
 1,-0.00060920,0.00048340,-0.00719009,0.03684879,-0.01219415,0.00524429
 ,-0.11245135,0.06337709\\-0.00000538,0.00001398,0.00001164,0.00000762,
 -0.00002220,-0.00000530,-0.00000089,0.00000718,0.00000162,-0.00000169,
 0.00000004,-0.00000789,0.00000861,0.00000111,0.00000174,-0.00000869,0.
 00000006,0.00000080,-0.00000002,-0.00000141,0.00000220,-0.00000515,-0.
 00001490,-0.00001211,0.00000499,0.00000936,0.00002078,0.00000736,0.000
 00242,0.00000094,-0.00000671,-0.00000327,-0.00000347,0.00000149,0.0000
 0011,-0.00000225,0.00000175,-0.00000036,-0.00000169,-0.00000146,0.0000
 0380,-0.00000051,0.00000066,0.00000035,0.00000096,-0.00000448,-0.00000
 309,-0.00000139,0.00000188,-0.00000007,0.00000017,0.00000010,0.0000002
 2,0.00000008,0.00000005,0.00000100,0.00000224,0.00000167,-0.00000029,-
 0.00000287,-0.00000084,0.00000039,-0.00000614,-0.00000088,-0.00000087,
 -0.00000227,0.00000093,0.00000195,-0.00000069,-0.00000100,0.00000097,0
 .00000243,0.00000006,0.00000351,0.00000098\\\@


 IF YOU DON'T HAVE THE LAW - ARGUE THE FACTS.
 IF YOU DON'T HAVE THE FACTS - ARGUE THE LAW.
 IF YOU DON'T HAVE EITHER - POUND THE TABLE.
 Job cpu time:       0 days  3 hours 42 minutes 28.4 seconds.
 Elapsed time:       0 days  0 hours 55 minutes 40.2 seconds.
 File lengths (MBytes):  RWF=    269 Int=      0 D2E=      0 Chk=     13 Scr=      1
 Normal termination of Gaussian 16 at Mon May 31 20:32:37 2021.
### All Done ###
