### Starting Gaussian ###
 Entering Gaussian System, Link 0=g16
 Initial command:
 /cluster/software/gaussian/gaussian-16-A.03/avx2/g16/l1.exe "/local/scratch/linjian/Gau-29547.inp" -scrdir="/local/scratch/linjian/"
 Entering Link 1 = /cluster/software/gaussian/gaussian-16-A.03/avx2/g16/l1.exe PID=     29548.
  
 Copyright (c) 1988,1990,1992,1993,1995,1998,2003,2009,2016,
            Gaussian, Inc.  All Rights Reserved.
  
 This is part of the Gaussian(R) 16 program.  It is based on
 the Gaussian(R) 09 system (copyright 2009, Gaussian, Inc.),
 the Gaussian(R) 03 system (copyright 2003, Gaussian, Inc.),
 the Gaussian(R) 98 system (copyright 1998, Gaussian, Inc.),
 the Gaussian(R) 94 system (copyright 1995, Gaussian, Inc.),
 the Gaussian 92(TM) system (copyright 1992, Gaussian, Inc.),
 the Gaussian 90(TM) system (copyright 1990, Gaussian, Inc.),
 the Gaussian 88(TM) system (copyright 1988, Gaussian, Inc.),
 the Gaussian 86(TM) system (copyright 1986, Carnegie Mellon
 University), and the Gaussian 82(TM) system (copyright 1983,
 Carnegie Mellon University). Gaussian is a federally registered
 trademark of Gaussian, Inc.
  
 This software contains proprietary and confidential information,
 including trade secrets, belonging to Gaussian, Inc.
  
 This software is provided under written license and may be
 used, copied, transmitted, or stored only in accord with that
 written license.
  
 The following legend is applicable only to US Government
 contracts under FAR:
  
                    RESTRICTED RIGHTS LEGEND
  
 Use, reproduction and disclosure by the US Government is
 subject to restrictions as set forth in subparagraphs (a)
 and (c) of the Commercial Computer Software - Restricted
 Rights clause in FAR 52.227-19.
  
 Gaussian, Inc.
 340 Quinnipiac St., Bldg. 40, Wallingford CT 06492
  
  
 ---------------------------------------------------------------
 Warning -- This program may not be used in any manner that
 competes with the business of Gaussian, Inc. or will provide
 assistance to any competitor of Gaussian, Inc.  The licensee
 of this program is prohibited from giving any competitor of
 Gaussian, Inc. access to this program.  By using this program,
 the user acknowledges that Gaussian, Inc. is engaged in the
 business of creating and licensing software in the field of
 computational chemistry and represents and warrants to the
 licensee that it is not a competitor of Gaussian, Inc. and that
 it will not use this program in any manner prohibited above.
 ---------------------------------------------------------------
  

 Cite this work as:
 Gaussian 16, Revision A.03,
 M. J. Frisch, G. W. Trucks, H. B. Schlegel, G. E. Scuseria, 
 M. A. Robb, J. R. Cheeseman, G. Scalmani, V. Barone, 
 G. A. Petersson, H. Nakatsuji, X. Li, M. Caricato, A. V. Marenich, 
 J. Bloino, B. G. Janesko, R. Gomperts, B. Mennucci, H. P. Hratchian, 
 J. V. Ortiz, A. F. Izmaylov, J. L. Sonnenberg, D. Williams-Young, 
 F. Ding, F. Lipparini, F. Egidi, J. Goings, B. Peng, A. Petrone, 
 T. Henderson, D. Ranasinghe, V. G. Zakrzewski, J. Gao, N. Rega, 
 G. Zheng, W. Liang, M. Hada, M. Ehara, K. Toyota, R. Fukuda, 
 J. Hasegawa, M. Ishida, T. Nakajima, Y. Honda, O. Kitao, H. Nakai, 
 T. Vreven, K. Throssell, J. A. Montgomery, Jr., J. E. Peralta, 
 F. Ogliaro, M. J. Bearpark, J. J. Heyd, E. N. Brothers, K. N. Kudin, 
 V. N. Staroverov, T. A. Keith, R. Kobayashi, J. Normand, 
 K. Raghavachari, A. P. Rendell, J. C. Burant, S. S. Iyengar, 
 J. Tomasi, M. Cossi, J. M. Millam, M. Klene, C. Adamo, R. Cammi, 
 J. W. Ochterski, R. L. Martin, K. Morokuma, O. Farkas, 
 J. B. Foresman, and D. J. Fox, Gaussian, Inc., Wallingford CT, 2016.
 
 ******************************************
 Gaussian 16:  ES64L-G16RevA.03 25-Dec-2016
                 1-Jun-2021 
 ******************************************
 %chk=NCNpNpC1CCN1.chk
 %NProcShared=20
 Will use up to   20 processors via shared memory.
 -----------------------------
 # opt freq b3lyp/6-31g(2df,p)
 -----------------------------
 1/18=20,19=15,26=3,38=1/1,3;
 2/9=110,12=2,17=6,18=5,40=1/2;
 3/5=1,6=6,7=104,11=2,25=1,30=1,71=1,74=-5/1,2,3;
 4//1;
 5/5=2,38=5/2;
 6/7=2,8=2,9=2,10=2,28=1/1;
 7//1,2,3,16;
 1/18=20,19=15,26=3/3(2);
 2/9=110/2;
 99//99;
 2/9=110/2;
 3/5=1,6=6,7=104,11=2,25=1,30=1,71=1,74=-5/1,2,3;
 4/5=5,16=3,69=1/1;
 5/5=2,38=5/2;
 7//1,2,3,16;
 1/18=20,19=15,26=3/3(-5);
 2/9=110/2;
 6/7=2,8=2,9=2,10=2,19=2,28=1/1;
 99/9=1/99;
 -------------------
 Title Card Required
 -------------------
 Symbolic Z-matrix:
 Charge =  0 Multiplicity = 1
 N                     0.91311  -0.00493  -0.11781 
 C                     2.37018  -0.05212  -0.02651 
 N                     2.947     1.06023  -0.77885 
 N                     2.3926    2.33141  -0.326 
 C                     4.42723   1.06025  -0.82687 
 C                     5.06246   2.14676   0.07557 
 C                     6.1259    1.09063   0.37817 
 N                     5.15796   0.04803  -0.0216 
 H                     0.55042  -0.81403   0.38744 
 H                     0.66928  -0.14126  -1.09275 
 H                     2.70583  -1.00729  -0.44757 
 H                     2.64619  -0.01207   1.03182 
 H                     1.3704    2.247    -0.31568 
 H                     2.61144   3.07849  -0.98657 
 H                     4.79673   1.10073  -1.86156 
 H                     4.51312   2.43962   0.97823 
 H                     5.41534   3.04608  -0.43745 
 H                     6.43341   1.04053   1.42728 
 H                     7.01709   1.13049  -0.2552 
 H                     4.64565  -0.28791   0.78849 
 

 GradGradGradGradGradGradGradGradGradGradGradGradGradGradGradGradGradGrad
 Berny optimization.
 Initialization pass.
                           ----------------------------
                           !    Initial Parameters    !
                           ! (Angstroms and Degrees)  !
 --------------------------                            --------------------------
 ! Name  Definition              Value          Derivative Info.                !
 --------------------------------------------------------------------------------
 ! R1    R(1,2)                  1.4607         estimate D2E/DX2                !
 ! R2    R(1,9)                  1.0205         estimate D2E/DX2                !
 ! R3    R(1,10)                 1.0142         estimate D2E/DX2                !
 ! R4    R(2,3)                  1.4615         estimate D2E/DX2                !
 ! R5    R(2,11)                 1.0965         estimate D2E/DX2                !
 ! R6    R(2,12)                 1.0945         estimate D2E/DX2                !
 ! R7    R(3,4)                  1.4589         estimate D2E/DX2                !
 ! R8    R(3,5)                  1.481          estimate D2E/DX2                !
 ! R9    R(4,13)                 1.0257         estimate D2E/DX2                !
 ! R10   R(4,14)                 1.021          estimate D2E/DX2                !
 ! R11   R(5,6)                  1.5487         estimate D2E/DX2                !
 ! R12   R(5,8)                  1.4856         estimate D2E/DX2                !
 ! R13   R(5,15)                 1.0994         estimate D2E/DX2                !
 ! R14   R(6,7)                  1.529          estimate D2E/DX2                !
 ! R15   R(6,16)                 1.0965         estimate D2E/DX2                !
 ! R16   R(6,17)                 1.0938         estimate D2E/DX2                !
 ! R17   R(7,8)                  1.4777         estimate D2E/DX2                !
 ! R18   R(7,18)                 1.0944         estimate D2E/DX2                !
 ! R19   R(7,19)                 1.0941         estimate D2E/DX2                !
 ! R20   R(8,20)                 1.0157         estimate D2E/DX2                !
 ! A1    A(2,1,9)              107.3349         estimate D2E/DX2                !
 ! A2    A(2,1,10)             107.1918         estimate D2E/DX2                !
 ! A3    A(9,1,10)             106.4941         estimate D2E/DX2                !
 ! A4    A(1,2,3)              109.6898         estimate D2E/DX2                !
 ! A5    A(1,2,11)             108.0287         estimate D2E/DX2                !
 ! A6    A(1,2,12)             108.1088         estimate D2E/DX2                !
 ! A7    A(3,2,11)             110.1518         estimate D2E/DX2                !
 ! A8    A(3,2,12)             111.7395         estimate D2E/DX2                !
 ! A9    A(11,2,12)            109.0266         estimate D2E/DX2                !
 ! A10   A(2,3,4)              110.6953         estimate D2E/DX2                !
 ! A11   A(2,3,5)              114.2779         estimate D2E/DX2                !
 ! A12   A(4,3,5)              112.9464         estimate D2E/DX2                !
 ! A13   A(3,4,13)             108.0669         estimate D2E/DX2                !
 ! A14   A(3,4,14)             110.8119         estimate D2E/DX2                !
 ! A15   A(13,4,14)            106.2802         estimate D2E/DX2                !
 ! A16   A(3,5,6)              113.0214         estimate D2E/DX2                !
 ! A17   A(3,5,8)              118.2963         estimate D2E/DX2                !
 ! A18   A(3,5,15)             111.495          estimate D2E/DX2                !
 ! A19   A(6,5,8)               87.7307         estimate D2E/DX2                !
 ! A20   A(6,5,15)             112.6261         estimate D2E/DX2                !
 ! A21   A(8,5,15)             111.7098         estimate D2E/DX2                !
 ! A22   A(5,6,7)               85.182          estimate D2E/DX2                !
 ! A23   A(5,6,16)             117.4892         estimate D2E/DX2                !
 ! A24   A(5,6,17)             115.8384         estimate D2E/DX2                !
 ! A25   A(7,6,16)             111.7159         estimate D2E/DX2                !
 ! A26   A(7,6,17)             115.8704         estimate D2E/DX2                !
 ! A27   A(16,6,17)            109.1551         estimate D2E/DX2                !
 ! A28   A(6,7,8)               88.7524         estimate D2E/DX2                !
 ! A29   A(6,7,18)             114.6305         estimate D2E/DX2                !
 ! A30   A(6,7,19)             115.2649         estimate D2E/DX2                !
 ! A31   A(8,7,18)             114.2728         estimate D2E/DX2                !
 ! A32   A(8,7,19)             113.7436         estimate D2E/DX2                !
 ! A33   A(18,7,19)            109.132          estimate D2E/DX2                !
 ! A34   A(5,8,7)               89.3184         estimate D2E/DX2                !
 ! A35   A(5,8,20)             114.1795         estimate D2E/DX2                !
 ! A36   A(7,8,20)             110.3641         estimate D2E/DX2                !
 ! D1    D(9,1,2,3)            177.8649         estimate D2E/DX2                !
 ! D2    D(9,1,2,11)            57.7811         estimate D2E/DX2                !
 ! D3    D(9,1,2,12)           -60.0679         estimate D2E/DX2                !
 ! D4    D(10,1,2,3)            63.7914         estimate D2E/DX2                !
 ! D5    D(10,1,2,11)          -56.2924         estimate D2E/DX2                !
 ! D6    D(10,1,2,12)         -174.1414         estimate D2E/DX2                !
 ! D7    D(1,2,3,4)             54.8648         estimate D2E/DX2                !
 ! D8    D(1,2,3,5)           -176.2624         estimate D2E/DX2                !
 ! D9    D(11,2,3,4)           173.6463         estimate D2E/DX2                !
 ! D10   D(11,2,3,5)           -57.481          estimate D2E/DX2                !
 ! D11   D(12,2,3,4)           -65.0091         estimate D2E/DX2                !
 ! D12   D(12,2,3,5)            63.8636         estimate D2E/DX2                !
 ! D13   D(2,3,4,13)           -50.0792         estimate D2E/DX2                !
 ! D14   D(2,3,4,14)          -166.148          estimate D2E/DX2                !
 ! D15   D(5,3,4,13)          -179.6649         estimate D2E/DX2                !
 ! D16   D(5,3,4,14)            64.2663         estimate D2E/DX2                !
 ! D17   D(2,3,5,6)           -106.2726         estimate D2E/DX2                !
 ! D18   D(2,3,5,8)             -5.909          estimate D2E/DX2                !
 ! D19   D(2,3,5,15)           125.6599         estimate D2E/DX2                !
 ! D20   D(4,3,5,6)             21.4588         estimate D2E/DX2                !
 ! D21   D(4,3,5,8)            121.8224         estimate D2E/DX2                !
 ! D22   D(4,3,5,15)          -106.6087         estimate D2E/DX2                !
 ! D23   D(3,5,6,7)            141.8857         estimate D2E/DX2                !
 ! D24   D(3,5,6,16)            29.8789         estimate D2E/DX2                !
 ! D25   D(3,5,6,17)          -101.6458         estimate D2E/DX2                !
 ! D26   D(8,5,6,7)             21.9772         estimate D2E/DX2                !
 ! D27   D(8,5,6,16)           -90.0296         estimate D2E/DX2                !
 ! D28   D(8,5,6,17)           138.4457         estimate D2E/DX2                !
 ! D29   D(15,5,6,7)           -90.6384         estimate D2E/DX2                !
 ! D30   D(15,5,6,16)          157.3547         estimate D2E/DX2                !
 ! D31   D(15,5,6,17)           25.8301         estimate D2E/DX2                !
 ! D32   D(3,5,8,7)           -137.7327         estimate D2E/DX2                !
 ! D33   D(3,5,8,20)           -25.6381         estimate D2E/DX2                !
 ! D34   D(6,5,8,7)            -22.6984         estimate D2E/DX2                !
 ! D35   D(6,5,8,20)            89.3962         estimate D2E/DX2                !
 ! D36   D(15,5,8,7)            90.7945         estimate D2E/DX2                !
 ! D37   D(15,5,8,20)         -157.1109         estimate D2E/DX2                !
 ! D38   D(5,6,7,8)            -22.0875         estimate D2E/DX2                !
 ! D39   D(5,6,7,18)          -138.3414         estimate D2E/DX2                !
 ! D40   D(5,6,7,19)            93.7018         estimate D2E/DX2                !
 ! D41   D(16,6,7,8)            95.625          estimate D2E/DX2                !
 ! D42   D(16,6,7,18)          -20.6289         estimate D2E/DX2                !
 ! D43   D(16,6,7,19)         -148.5857         estimate D2E/DX2                !
 ! D44   D(17,6,7,8)          -138.5249         estimate D2E/DX2                !
 ! D45   D(17,6,7,18)          105.2212         estimate D2E/DX2                !
 ! D46   D(17,6,7,19)          -22.7356         estimate D2E/DX2                !
 ! D47   D(6,7,8,5)             22.9937         estimate D2E/DX2                !
 ! D48   D(6,7,8,20)           -92.6338         estimate D2E/DX2                !
 ! D49   D(18,7,8,5)           139.575          estimate D2E/DX2                !
 ! D50   D(18,7,8,20)           23.9476         estimate D2E/DX2                !
 ! D51   D(19,7,8,5)           -94.1873         estimate D2E/DX2                !
 ! D52   D(19,7,8,20)          150.1853         estimate D2E/DX2                !
 --------------------------------------------------------------------------------
 Trust Radius=3.00D-01 FncErr=1.00D-07 GrdErr=1.00D-06 EigMax=2.50D+02 EigMin=1.00D-04
 Number of steps in this run=    118 maximum allowed number of steps=    120.
 GradGradGradGradGradGradGradGradGradGradGradGradGradGradGradGradGradGrad

                          Input orientation:                          
 ---------------------------------------------------------------------
 Center     Atomic      Atomic             Coordinates (Angstroms)
 Number     Number       Type             X           Y           Z
 ---------------------------------------------------------------------
      1          7           0        0.913110   -0.004930   -0.117810
      2          6           0        2.370180   -0.052120   -0.026510
      3          7           0        2.947000    1.060230   -0.778850
      4          7           0        2.392600    2.331410   -0.326000
      5          6           0        4.427230    1.060250   -0.826870
      6          6           0        5.062460    2.146760    0.075570
      7          6           0        6.125900    1.090630    0.378170
      8          7           0        5.157960    0.048030   -0.021600
      9          1           0        0.550420   -0.814030    0.387440
     10          1           0        0.669280   -0.141260   -1.092750
     11          1           0        2.705830   -1.007290   -0.447570
     12          1           0        2.646190   -0.012070    1.031820
     13          1           0        1.370400    2.247000   -0.315680
     14          1           0        2.611440    3.078490   -0.986570
     15          1           0        4.796730    1.100730   -1.861560
     16          1           0        4.513120    2.439620    0.978230
     17          1           0        5.415340    3.046080   -0.437450
     18          1           0        6.433410    1.040530    1.427280
     19          1           0        7.017090    1.130490   -0.255200
     20          1           0        4.645650   -0.287910    0.788490
 ---------------------------------------------------------------------
                    Distance matrix (angstroms):
                    1          2          3          4          5
     1  N    0.000000
     2  C    1.460690   0.000000
     3  N    2.389194   1.461526   0.000000
     4  N    2.773214   2.402376   1.458880   0.000000
     5  C    3.739841   2.471720   1.481009   2.450803   0.000000
     6  C    4.678063   3.477623   2.527005   2.706198   1.548683
     7  C    5.349713   3.946527   3.383050   3.996613   2.082912
     8  N    4.246270   2.789583   2.546826   3.599125   1.485603
     9  H    1.020522   2.015785   3.258325   3.714353   4.474051
    10  H    1.014173   2.009446   2.594247   3.109957   3.954302
    11  H    2.080219   1.096495   2.107735   3.355564   2.716948
    12  H    2.079727   1.094462   2.125756   2.720272   2.788674
    13  H    2.306394   2.523714   2.026972   1.025731   3.318720
    14  H    3.625817   3.283389   2.056483   1.020966   2.719539
    15  H    4.398369   3.253401   2.143689   3.106825   1.099433
    16  H    4.487449   3.436635   2.728146   2.491853   2.273417
    17  H    5.448019   4.363567   3.186355   3.108075   2.252006
    18  H    5.827006   4.451654   4.125827   4.590044   3.017671
    19  H    6.210203   4.800483   4.104239   4.778402   2.653133
    20  H    3.851404   2.428495   2.675714   3.630311   2.115332
                    6          7          8          9         10
     6  C    0.000000
     7  C    1.529013   0.000000
     8  N    2.103148   1.477748   0.000000
     9  H    5.405742   5.891841   4.705304   0.000000
    10  H    5.089208   5.784104   4.618597   1.630248   0.000000
    11  H    3.971827   4.096339   2.703348   2.319565   2.305168
    12  H    3.378361   3.708313   2.724389   2.334656   2.904937
    13  H    3.714086   4.943015   4.389483   3.246021   2.607526
    14  H    2.829092   4.262104   4.074263   4.613829   3.761655
    15  H    2.217490   2.604455   2.150376   5.172568   4.378293
    16  H    1.096511   2.186528   2.671176   5.161227   5.071982
    17  H    1.093842   2.234707   3.037677   6.264850   5.754445
    18  H    2.220443   1.094397   2.170503   6.255416   6.400967
    19  H    2.227732   1.094059   2.163944   6.783212   6.527904
    20  H    2.570915   2.063946   1.015659   4.148319   4.401373
                   11         12         13         14         15
    11  H    0.000000
    12  H    1.783988   0.000000
    13  H    3.520110   2.923490   0.000000
    14  H    4.122260   3.691432   1.637574   0.000000
    15  H    3.288614   3.772903   3.929811   3.074514   0.000000
    16  H    4.144924   3.082058   3.404114   2.808021   3.152375
    17  H    4.875588   4.379409   4.124912   2.857348   2.489007
    18  H    4.647955   3.950619   5.488857   4.958569   3.674073
    19  H    4.816022   4.697513   5.756332   4.872305   2.740671
    20  H    2.410032   2.033012   4.286283   4.315263   2.995649
                   16         17         18         19         20
    16  H    0.000000
    17  H    1.784921   0.000000
    18  H    2.417977   2.921629   0.000000
    19  H    3.083024   2.503658   1.783119   0.000000
    20  H    2.737332   3.634672   2.317087   2.953790   0.000000
 Stoichiometry    C4H12N4
 Framework group  C1[X(C4H12N4)]
 Deg. of freedom    54
 Full point group                 C1      NOp   1
 Largest Abelian subgroup         C1      NOp   1
 Largest concise Abelian subgroup C1      NOp   1
                         Standard orientation:                         
 ---------------------------------------------------------------------
 Center     Atomic      Atomic             Coordinates (Angstroms)
 Number     Number       Type             X           Y           Z
 ---------------------------------------------------------------------
      1          7           0        2.819126   -0.475435   -0.206827
      2          6           0        1.395307   -0.791156   -0.125122
      3          7           0        0.678042    0.324271    0.489218
      4          7           0        0.941921    1.565710   -0.230176
      5          6           0       -0.766432    0.076088    0.702023
      6          6           0       -1.666794    0.848689   -0.293395
      7          6           0       -2.529536   -0.413673   -0.293026
      8          7           0       -1.351791   -1.179481    0.165444
      9          1           0        3.288522   -1.288846   -0.606195
     10          1           0        3.160835   -0.383641    0.743623
     11          1           0        1.282599   -1.694899    0.485490
     12          1           0        1.033902   -0.997156   -1.137446
     13          1           0        1.957351    1.659726   -0.340568
     14          1           0        0.637397    2.373011    0.315628
     15          1           0       -1.053846    0.243441    1.749944
     16          1           0       -1.256631    1.059494   -1.288214
     17          1           0       -2.143204    1.752499    0.097310
     18          1           0       -2.903817   -0.710614   -1.277630
     19          1           0       -3.358999   -0.412165    0.420384
     20          1           0       -0.850467   -1.565998   -0.628812
 ---------------------------------------------------------------------
 Rotational constants (GHZ):           4.1716839           1.3472751           1.1216355
 Standard basis: 6-31G(2df,p) (6D, 7F)
 There are   308 symmetry adapted cartesian basis functions of A   symmetry.
 There are   284 symmetry adapted basis functions of A   symmetry.
   284 basis functions,   436 primitive gaussians,   308 cartesian basis functions
    32 alpha electrons       32 beta electrons
       nuclear repulsion energy       414.9224182411 Hartrees.
 NAtoms=   20 NActive=   20 NUniq=   20 SFac= 1.00D+00 NAtFMM=   60 NAOKFM=F Big=F
 Integral buffers will be    131072 words long.
 Raffenetti 2 integral format.
 Two-electron integral symmetry is turned on.
 One-electron integrals computed using PRISM.
 PrsmSu:  requested number of processors reduced to:  13 ShMem   1 Linda.
 NBasis=   284 RedAO= T EigKep=  2.22D-04  NBF=   284
 NBsUse=   284 1.00D-06 EigRej= -1.00D+00 NBFU=   284
 ExpMin= 1.61D-01 ExpMax= 4.17D+03 ExpMxC= 6.27D+02 IAcc=3 IRadAn=         5 AccDes= 0.00D+00
 Harris functional with IExCor=  402 and IRadAn=       5 diagonalized for initial guess.
 HarFok:  IExCor=  402 AccDes= 0.00D+00 IRadAn=         5 IDoV= 1 UseB2=F ITyADJ=14
 ICtDFT=  3500011 ScaDFX=  1.000000  1.000000  1.000000  1.000000
 FoFCou: FMM=F IPFlag=           0 FMFlag=      100000 FMFlg1=           0
         NFxFlg=           0 DoJE=T BraDBF=F KetDBF=T FulRan=T
         wScrn=  0.000000 ICntrl=       500 IOpCl=  0 I1Cent=   200000004 NGrid=           0
         NMat0=    1 NMatS0=      1 NMatT0=    0 NMatD0=    1 NMtDS0=    0 NMtDT0=    0
 Petite list used in FoFCou.
 Requested convergence on RMS density matrix=1.00D-08 within 128 cycles.
 Requested convergence on MAX density matrix=1.00D-06.
 Requested convergence on             energy=1.00D-06.
 No special actions if energy rises.
 Integral accuracy reduced to 1.0D-05 until final iterations.
 Initial convergence to 1.0D-05 achieved.  Increase integral accuracy.
 SCF Done:  E(RB3LYP) =  -378.560517634     A.U. after   12 cycles
            NFock= 12  Conv=0.66D-08     -V/T= 2.0076

 **********************************************************************

            Population analysis using the SCF density.

 **********************************************************************

 Orbital symmetries:
       Occupied  (A) (A) (A) (A) (A) (A) (A) (A) (A) (A) (A) (A)
                 (A) (A) (A) (A) (A) (A) (A) (A) (A) (A) (A) (A)
                 (A) (A) (A) (A) (A) (A) (A) (A)
       Virtual   (A) (A) (A) (A) (A) (A) (A) (A) (A) (A) (A) (A)
                 (A) (A) (A) (A) (A) (A) (A) (A) (A) (A) (A) (A)
                 (A) (A) (A) (A) (A) (A) (A) (A) (A) (A) (A) (A)
                 (A) (A) (A) (A) (A) (A) (A) (A) (A) (A) (A) (A)
                 (A) (A) (A) (A) (A) (A) (A) (A) (A) (A) (A) (A)
                 (A) (A) (A) (A) (A) (A) (A) (A) (A) (A) (A) (A)
                 (A) (A) (A) (A) (A) (A) (A) (A) (A) (A) (A) (A)
                 (A) (A) (A) (A) (A) (A) (A) (A) (A) (A) (A) (A)
                 (A) (A) (A) (A) (A) (A) (A) (A) (A) (A) (A) (A)
                 (A) (A) (A) (A) (A) (A) (A) (A) (A) (A) (A) (A)
                 (A) (A) (A) (A) (A) (A) (A) (A) (A) (A) (A) (A)
                 (A) (A) (A) (A) (A) (A) (A) (A) (A) (A) (A) (A)
                 (A) (A) (A) (A) (A) (A) (A) (A) (A) (A) (A) (A)
                 (A) (A) (A) (A) (A) (A) (A) (A) (A) (A) (A) (A)
                 (A) (A) (A) (A) (A) (A) (A) (A) (A) (A) (A) (A)
                 (A) (A) (A) (A) (A) (A) (A) (A) (A) (A) (A) (A)
                 (A) (A) (A) (A) (A) (A) (A) (A) (A) (A) (A) (A)
                 (A) (A) (A) (A) (A) (A) (A) (A) (A) (A) (A) (A)
                 (A) (A) (A) (A) (A) (A) (A) (A) (A) (A) (A) (A)
                 (A) (A) (A) (A) (A) (A) (A) (A) (A) (A) (A) (A)
                 (A) (A) (A) (A) (A) (A) (A) (A) (A) (A) (A) (A)
 The electronic state is 1-A.
 Alpha  occ. eigenvalues --  -14.33335 -14.32222 -14.31367 -14.30310 -10.23184
 Alpha  occ. eigenvalues --  -10.22983 -10.19662 -10.16784  -0.96490  -0.91706
 Alpha  occ. eigenvalues --   -0.87336  -0.76956  -0.70725  -0.66381  -0.60470
 Alpha  occ. eigenvalues --   -0.56379  -0.52632  -0.49806  -0.46284  -0.45859
 Alpha  occ. eigenvalues --   -0.43939  -0.41714  -0.41231  -0.38510  -0.38284
 Alpha  occ. eigenvalues --   -0.37502  -0.33874  -0.32749  -0.28837  -0.24623
 Alpha  occ. eigenvalues --   -0.20917  -0.16870
 Alpha virt. eigenvalues --    0.07417   0.08167   0.09563   0.11406   0.12545
 Alpha virt. eigenvalues --    0.14534   0.15783   0.16206   0.17026   0.17293
 Alpha virt. eigenvalues --    0.18455   0.19245   0.20031   0.20899   0.22034
 Alpha virt. eigenvalues --    0.24129   0.26235   0.28410   0.29122   0.33354
 Alpha virt. eigenvalues --    0.45101   0.45885   0.46559   0.49680   0.50780
 Alpha virt. eigenvalues --    0.51581   0.52917   0.54662   0.56521   0.56991
 Alpha virt. eigenvalues --    0.58322   0.59205   0.61629   0.62142   0.64627
 Alpha virt. eigenvalues --    0.66535   0.68968   0.70005   0.72001   0.72852
 Alpha virt. eigenvalues --    0.74380   0.75156   0.76123   0.77107   0.78444
 Alpha virt. eigenvalues --    0.78734   0.79784   0.81148   0.82290   0.83068
 Alpha virt. eigenvalues --    0.84947   0.85438   0.85923   0.86790   0.88272
 Alpha virt. eigenvalues --    0.90504   0.91503   0.94092   0.98035   1.02322
 Alpha virt. eigenvalues --    1.04396   1.08701   1.13186   1.13646   1.18568
 Alpha virt. eigenvalues --    1.20093   1.23636   1.25971   1.26690   1.28624
 Alpha virt. eigenvalues --    1.33135   1.35336   1.38732   1.41583   1.43725
 Alpha virt. eigenvalues --    1.45520   1.46534   1.49486   1.49859   1.51344
 Alpha virt. eigenvalues --    1.52131   1.54761   1.56964   1.60976   1.61883
 Alpha virt. eigenvalues --    1.65173   1.65317   1.68940   1.71740   1.76510
 Alpha virt. eigenvalues --    1.77723   1.78094   1.80665   1.84421   1.88431
 Alpha virt. eigenvalues --    1.89768   1.91684   1.96028   1.99395   2.00705
 Alpha virt. eigenvalues --    2.03756   2.07129   2.11386   2.16560   2.19317
 Alpha virt. eigenvalues --    2.21985   2.25224   2.27315   2.29406   2.33399
 Alpha virt. eigenvalues --    2.34865   2.39350   2.42580   2.44122   2.49514
 Alpha virt. eigenvalues --    2.52804   2.56133   2.57092   2.59071   2.65027
 Alpha virt. eigenvalues --    2.65365   2.70952   2.72214   2.76442   2.78468
 Alpha virt. eigenvalues --    2.81644   2.84230   2.84726   2.87360   2.88276
 Alpha virt. eigenvalues --    2.89987   2.90472   2.92733   2.93272   2.95616
 Alpha virt. eigenvalues --    2.99309   2.99666   3.02480   3.05095   3.05521
 Alpha virt. eigenvalues --    3.06492   3.07515   3.10288   3.16155   3.20058
 Alpha virt. eigenvalues --    3.20867   3.23225   3.26976   3.28072   3.30294
 Alpha virt. eigenvalues --    3.34179   3.35313   3.39988   3.44449   3.45802
 Alpha virt. eigenvalues --    3.47932   3.51436   3.54211   3.57298   3.59277
 Alpha virt. eigenvalues --    3.62032   3.67967   3.70045   3.75255   3.80347
 Alpha virt. eigenvalues --    3.81683   3.85105   3.88428   3.91599   3.98026
 Alpha virt. eigenvalues --    4.00586   4.01224   4.03075   4.06177   4.08278
 Alpha virt. eigenvalues --    4.14064   4.16612   4.17620   4.23604   4.26877
 Alpha virt. eigenvalues --    4.27210   4.32038   4.32537   4.35501   4.37297
 Alpha virt. eigenvalues --    4.37940   4.39539   4.40743   4.43130   4.44738
 Alpha virt. eigenvalues --    4.45632   4.47343   4.49200   4.52290   4.53083
 Alpha virt. eigenvalues --    4.54279   4.55265   4.57233   4.59412   4.61065
 Alpha virt. eigenvalues --    4.62315   4.63823   4.67268   4.69365   4.70118
 Alpha virt. eigenvalues --    4.71224   4.72270   4.72532   4.75636   4.78156
 Alpha virt. eigenvalues --    4.79695   4.83463   4.83879   4.86751   4.88483
 Alpha virt. eigenvalues --    4.91182   4.93021   4.96251   4.98674   4.99162
 Alpha virt. eigenvalues --    5.00196   5.03496   5.05686   5.09804   5.14406
 Alpha virt. eigenvalues --    5.22036   5.23056   5.23454   5.28481   5.32214
 Alpha virt. eigenvalues --    5.37123   5.39564   5.45599   5.49348   5.50457
 Alpha virt. eigenvalues --    5.54706   5.58756   5.63310   5.74993   6.10082
 Alpha virt. eigenvalues --    9.16295  10.54447  10.68469  11.19497  11.41965
 Alpha virt. eigenvalues --   11.49692  11.54386  11.82968  12.12410  12.57176
 Alpha virt. eigenvalues --   14.40442  19.80018
          Condensed to atoms (all electrons):
               1          2          3          4          5          6
     1  N    6.580143   0.375675  -0.045089  -0.011283   0.001317  -0.000150
     2  C    0.375675   4.841590   0.401930  -0.065054  -0.075007   0.003567
     3  N   -0.045089   0.401930   6.348858   0.261164   0.409353  -0.036840
     4  N   -0.011283  -0.065054   0.261164   6.676087  -0.056997  -0.011033
     5  C    0.001317  -0.075007   0.409353  -0.056997   4.756494   0.386565
     6  C   -0.000150   0.003567  -0.036840  -0.011033   0.386565   5.071991
     7  C   -0.000023  -0.000583   0.003956   0.001709  -0.130680   0.364945
     8  N    0.000228  -0.010125  -0.028993   0.002460   0.349207  -0.131422
     9  H    0.335721  -0.045631   0.004226   0.000263  -0.000238   0.000012
    10  H    0.327939  -0.053114   0.010130  -0.000560   0.000277   0.000024
    11  H   -0.040859   0.389131  -0.029527   0.003992  -0.001646  -0.000022
    12  H   -0.036225   0.320578  -0.047645   0.004377   0.001775   0.001284
    13  H    0.028127  -0.010533  -0.035700   0.326998   0.005173   0.000170
    14  H    0.000670   0.003898  -0.044303   0.333781  -0.001435  -0.001116
    15  H   -0.000002   0.003828  -0.032310   0.003481   0.356174  -0.063313
    16  H   -0.000061   0.000288  -0.009904   0.013491  -0.016633   0.358561
    17  H    0.000002  -0.000100   0.001268  -0.000009  -0.026101   0.327532
    18  H   -0.000000   0.000019  -0.000473   0.000036   0.007926  -0.023083
    19  H    0.000000   0.000039  -0.000065  -0.000010  -0.001383  -0.036983
    20  H   -0.000022   0.005756  -0.005674   0.000100  -0.052153   0.006283
               7          8          9         10         11         12
     1  N   -0.000023   0.000228   0.335721   0.327939  -0.040859  -0.036225
     2  C   -0.000583  -0.010125  -0.045631  -0.053114   0.389131   0.320578
     3  N    0.003956  -0.028993   0.004226   0.010130  -0.029527  -0.047645
     4  N    0.001709   0.002460   0.000263  -0.000560   0.003992   0.004377
     5  C   -0.130680   0.349207  -0.000238   0.000277  -0.001646   0.001775
     6  C    0.364945  -0.131422   0.000012   0.000024  -0.000022   0.001284
     7  C    4.929930   0.350135  -0.000001  -0.000001   0.000282  -0.000124
     8  N    0.350135   6.517546   0.000007   0.000007   0.002361   0.001873
     9  H   -0.000001   0.000007   0.507030  -0.026430  -0.004232   0.001245
    10  H   -0.000001   0.000007  -0.026430   0.513833  -0.008318   0.009066
    11  H    0.000282   0.002361  -0.004232  -0.008318   0.640899  -0.060124
    12  H   -0.000124   0.001873   0.001245   0.009066  -0.060124   0.719988
    13  H   -0.000032  -0.000138  -0.000728  -0.001512   0.000747  -0.001478
    14  H   -0.000181  -0.000021  -0.000001  -0.000155  -0.000191  -0.000484
    15  H    0.004940  -0.035532   0.000001  -0.000058   0.000153  -0.000569
    16  H   -0.017828   0.003750   0.000002   0.000004  -0.000053   0.002288
    17  H   -0.028761   0.014169  -0.000000  -0.000000  -0.000013  -0.000023
    18  H    0.371079  -0.022560   0.000000   0.000000   0.000003   0.000144
    19  H    0.364918  -0.021960   0.000000  -0.000000  -0.000013   0.000009
    20  H   -0.039554   0.343433   0.000026   0.000020  -0.001377   0.006662
              13         14         15         16         17         18
     1  N    0.028127   0.000670  -0.000002  -0.000061   0.000002  -0.000000
     2  C   -0.010533   0.003898   0.003828   0.000288  -0.000100   0.000019
     3  N   -0.035700  -0.044303  -0.032310  -0.009904   0.001268  -0.000473
     4  N    0.326998   0.333781   0.003481   0.013491  -0.000009   0.000036
     5  C    0.005173  -0.001435   0.356174  -0.016633  -0.026101   0.007926
     6  C    0.000170  -0.001116  -0.063313   0.358561   0.327532  -0.023083
     7  C   -0.000032  -0.000181   0.004940  -0.017828  -0.028761   0.371079
     8  N   -0.000138  -0.000021  -0.035532   0.003750   0.014169  -0.022560
     9  H   -0.000728  -0.000001   0.000001   0.000002  -0.000000   0.000000
    10  H   -0.001512  -0.000155  -0.000058   0.000004  -0.000000   0.000000
    11  H    0.000747  -0.000191   0.000153  -0.000053  -0.000013   0.000003
    12  H   -0.001478  -0.000484  -0.000569   0.002288  -0.000023   0.000144
    13  H    0.466333  -0.029044  -0.000209  -0.000388  -0.000029  -0.000001
    14  H   -0.029044   0.501434   0.000932  -0.001441   0.000508   0.000000
    15  H   -0.000209   0.000932   0.665455   0.003739  -0.001207  -0.000878
    16  H   -0.000388  -0.001441   0.003739   0.574405  -0.036895  -0.008408
    17  H   -0.000029   0.000508  -0.001207  -0.036895   0.676302   0.002007
    18  H   -0.000001   0.000000  -0.000878  -0.008408   0.002007   0.635997
    19  H   -0.000000   0.000004   0.004108   0.004653  -0.002115  -0.048417
    20  H   -0.000023   0.000003   0.004798   0.001487  -0.000363  -0.008799
              19         20
     1  N    0.000000  -0.000022
     2  C    0.000039   0.005756
     3  N   -0.000065  -0.005674
     4  N   -0.000010   0.000100
     5  C   -0.001383  -0.052153
     6  C   -0.036983   0.006283
     7  C    0.364918  -0.039554
     8  N   -0.021960   0.343433
     9  H    0.000000   0.000026
    10  H   -0.000000   0.000020
    11  H   -0.000013  -0.001377
    12  H    0.000009   0.006662
    13  H   -0.000000  -0.000023
    14  H    0.000004   0.000003
    15  H    0.004108   0.004798
    16  H    0.004653   0.001487
    17  H   -0.002115  -0.000363
    18  H   -0.048417  -0.008799
    19  H    0.629261   0.004876
    20  H    0.004876   0.508291
 Mulliken charges:
               1
     1  N   -0.516107
     2  C   -0.086153
     3  N   -0.124363
     4  N   -0.482992
     5  C    0.088011
     6  C   -0.216971
     7  C   -0.174128
     8  N   -0.334426
     9  H    0.228730
    10  H    0.228848
    11  H    0.108806
    12  H    0.077384
    13  H    0.252265
    14  H    0.237142
    15  H    0.086470
    16  H    0.128942
    17  H    0.073828
    18  H    0.095409
    19  H    0.103077
    20  H    0.226230
 Sum of Mulliken charges =  -0.00000
 Mulliken charges with hydrogens summed into heavy atoms:
               1
     1  N   -0.058529
     2  C    0.100037
     3  N   -0.124363
     4  N    0.006414
     5  C    0.174480
     6  C   -0.014201
     7  C    0.024359
     8  N   -0.108196
 Electronic spatial extent (au):  <R**2>=           1105.6534
 Charge=             -0.0000 electrons
 Dipole moment (field-independent basis, Debye):
    X=              0.8729    Y=             -0.1310    Z=              0.0055  Tot=              0.8827
 Quadrupole moment (field-independent basis, Debye-Ang):
   XX=            -46.0938   YY=            -47.7626   ZZ=            -50.2385
   XY=             -4.6760   XZ=              2.7021   YZ=              4.3518
 Traceless Quadrupole moment (field-independent basis, Debye-Ang):
   XX=              1.9378   YY=              0.2690   ZZ=             -2.2068
   XY=             -4.6760   XZ=              2.7021   YZ=              4.3518
 Octapole moment (field-independent basis, Debye-Ang**2):
  XXX=             19.9749  YYY=             11.2804  ZZZ=              0.0555  XYY=             17.0439
  XXY=             -6.9989  XXZ=              5.1442  XZZ=              0.4419  YZZ=             -2.4623
  YYZ=             -1.0822  XYZ=             -1.4638
 Hexadecapole moment (field-independent basis, Debye-Ang**3):
 XXXX=           -938.9259 YYYY=           -296.2621 ZZZZ=           -120.8296 XXXY=            -34.4213
 XXXZ=             19.0155 YYYX=             -3.0902 YYYZ=             17.4078 ZZZX=              2.7244
 ZZZY=              3.7305 XXYY=           -202.7177 XXZZ=           -179.6035 YYZZ=            -74.7837
 XXYZ=              9.8890 YYXZ=              2.1289 ZZXY=             -3.9466
 N-N= 4.149224182411D+02 E-N=-1.711137535356D+03  KE= 3.757236403212D+02
 PrsmSu:  requested number of processors reduced to:  13 ShMem   1 Linda.
 Calling FoFJK, ICntrl=      2127 FMM=F ISym2X=0 I1Cent= 0 IOpClX= 0 NMat=1 NMatS=1 NMatT=0.
 ***** Axes restored to original set *****
 -------------------------------------------------------------------
 Center     Atomic                   Forces (Hartrees/Bohr)
 Number     Number              X              Y              Z
 -------------------------------------------------------------------
      1        7          -0.004061093    0.001388732    0.004690235
      2        6          -0.003975919    0.006651371   -0.008302509
      3        7          -0.007390588   -0.018366318   -0.025379057
      4        7          -0.000820193    0.008242440    0.019141805
      5        6          -0.031508090    0.023491323    0.040574932
      6        6           0.023581119    0.022957147   -0.015780761
      7        6          -0.003645110    0.003276178    0.019895410
      8        7           0.015202393   -0.030957032   -0.016444541
      9        1          -0.001633776    0.004774373   -0.001084303
     10        1          -0.001809799   -0.001019078   -0.002822897
     11        1           0.014157974    0.004392952   -0.001192239
     12        1          -0.002740309   -0.000990241    0.008521571
     13        1           0.009017484   -0.007291953   -0.003170884
     14        1           0.001310392   -0.010926952   -0.005120930
     15        1          -0.001200249   -0.004304710    0.002011897
     16        1          -0.004918185   -0.006419814   -0.009173771
     17        1          -0.001172638    0.005495062    0.001389917
     18        1           0.004111217   -0.002433275   -0.001069501
     19        1          -0.001099657   -0.003062054   -0.002359051
     20        1          -0.001404972    0.005101849   -0.004325324
 -------------------------------------------------------------------
 Cartesian Forces:  Max     0.040574932 RMS     0.012227174

 GradGradGradGradGradGradGradGradGradGradGradGradGradGradGradGradGradGrad
 Berny optimization.
 FormGI is forming the generalized inverse of G from B-inverse, IUseBI=4.
 Internal  Forces:  Max     0.017603265 RMS     0.005834052
 Search for a local minimum.
 Step number   1 out of a maximum of  118
 All quantities printed in internal units (Hartrees-Bohrs-Radians)
 Mixed Optimization -- RFO/linear search
 Second derivative matrix not updated -- first step.
 ITU=  0
     Eigenvalues ---    0.00516   0.00568   0.00620   0.00878   0.00889
     Eigenvalues ---    0.02412   0.02663   0.02742   0.03679   0.04274
     Eigenvalues ---    0.04326   0.04997   0.05112   0.05487   0.05532
     Eigenvalues ---    0.05801   0.06199   0.06709   0.06847   0.07475
     Eigenvalues ---    0.07630   0.07806   0.08696   0.09593   0.10498
     Eigenvalues ---    0.13004   0.16000   0.16000   0.16000   0.16000
     Eigenvalues ---    0.18217   0.19143   0.20664   0.22009   0.25891
     Eigenvalues ---    0.27626   0.31415   0.32926   0.33745   0.34071
     Eigenvalues ---    0.34073   0.34302   0.34309   0.34348   0.34372
     Eigenvalues ---    0.34454   0.36774   0.36878   0.37105   0.43436
     Eigenvalues ---    0.44184   0.44255   0.45038   0.45281
 RFO step:  Lambda=-2.80493837D-02 EMin= 5.15934443D-03
 Linear search not attempted -- first point.
 Maximum step size (   0.300) exceeded in Quadratic search.
    -- Step size scaled by   0.961
 Iteration  1 RMS(Cart)=  0.07542038 RMS(Int)=  0.00370634
 Iteration  2 RMS(Cart)=  0.00499166 RMS(Int)=  0.00175107
 Iteration  3 RMS(Cart)=  0.00000969 RMS(Int)=  0.00175104
 Iteration  4 RMS(Cart)=  0.00000006 RMS(Int)=  0.00175104
 Variable       Old X    -DE/DX   Delta X   Delta X   Delta X     New X
                                 (Linear)    (Quad)   (Total)
    R1        2.76030   0.00760   0.00000   0.01840   0.01840   2.77871
    R2        1.92851  -0.00374   0.00000  -0.00764  -0.00764   1.92087
    R3        1.91651   0.00329   0.00000   0.00656   0.00656   1.92307
    R4        2.76188  -0.01164   0.00000  -0.02825  -0.02825   2.73364
    R5        2.07208   0.00097   0.00000   0.00252   0.00252   2.07459
    R6        2.06823   0.00751   0.00000   0.01945   0.01945   2.08769
    R7        2.75688  -0.00894   0.00000  -0.02151  -0.02151   2.73537
    R8        2.79870  -0.00253   0.00000  -0.00652  -0.00652   2.79218
    R9        1.93835  -0.00842   0.00000  -0.01749  -0.01749   1.92086
   R10        1.92935  -0.00440   0.00000  -0.00900  -0.00900   1.92035
   R11        2.92659   0.00737   0.00000   0.01238   0.01317   2.93976
   R12        2.80738   0.01007   0.00000   0.02300   0.02385   2.83123
   R13        2.07763  -0.00246   0.00000  -0.00645  -0.00645   2.07117
   R14        2.88942   0.00929   0.00000   0.03510   0.03455   2.92397
   R15        2.07211  -0.00680   0.00000  -0.01772  -0.01772   2.05438
   R16        2.06706   0.00349   0.00000   0.00901   0.00901   2.07607
   R17        2.79254   0.00773   0.00000   0.02554   0.02444   2.81697
   R18        2.06811   0.00024   0.00000   0.00062   0.00062   2.06873
   R19        2.06747   0.00036   0.00000   0.00093   0.00093   2.06840
   R20        1.91932  -0.00443   0.00000  -0.00890  -0.00890   1.91042
    A1        1.87335   0.00538   0.00000   0.03038   0.03022   1.90357
    A2        1.87085   0.00134   0.00000   0.00980   0.00963   1.88048
    A3        1.85867  -0.00148   0.00000  -0.00054  -0.00091   1.85776
    A4        1.91445  -0.00622   0.00000  -0.02318  -0.02295   1.89150
    A5        1.88546   0.01328   0.00000   0.08485   0.08472   1.97018
    A6        1.88685  -0.00260   0.00000  -0.01746  -0.01752   1.86934
    A7        1.92251  -0.00846   0.00000  -0.05819  -0.05760   1.86491
    A8        1.95022   0.00581   0.00000   0.02333   0.02319   1.97341
    A9        1.90287  -0.00134   0.00000  -0.00597  -0.00628   1.89660
   A10        1.93200  -0.00707   0.00000  -0.03928  -0.03904   1.89296
   A11        1.99453   0.00984   0.00000   0.03540   0.03477   2.02930
   A12        1.97129  -0.00366   0.00000  -0.02403  -0.02373   1.94756
   A13        1.88612  -0.01331   0.00000  -0.08444  -0.08743   1.79869
   A14        1.93403  -0.01760   0.00000  -0.10544  -0.10827   1.82577
   A15        1.85494   0.00685   0.00000   0.00103  -0.00791   1.84703
   A16        1.97259   0.01238   0.00000   0.11110   0.10958   2.08218
   A17        2.06466   0.00184   0.00000   0.02405   0.01509   2.07975
   A18        1.94596  -0.00475   0.00000  -0.05470  -0.05450   1.89145
   A19        1.53119   0.00463   0.00000   0.05234   0.04824   1.57943
   A20        1.96570  -0.00616   0.00000  -0.03833  -0.03664   1.92905
   A21        1.94970  -0.00602   0.00000  -0.07070  -0.07053   1.87918
   A22        1.48671  -0.00102   0.00000  -0.00650  -0.00821   1.47850
   A23        2.05057  -0.00796   0.00000  -0.08710  -0.08679   1.96378
   A24        2.02176   0.00502   0.00000   0.04580   0.04563   2.06739
   A25        1.94981  -0.00036   0.00000   0.00529   0.00448   1.95429
   A26        2.02232   0.00416   0.00000   0.04158   0.04052   2.06284
   A27        1.90512   0.00011   0.00000   0.00173   0.00148   1.90659
   A28        1.54902   0.00477   0.00000   0.04431   0.04101   1.59003
   A29        2.00068   0.00469   0.00000   0.04386   0.04375   2.04443
   A30        2.01175  -0.00400   0.00000  -0.02773  -0.02648   1.98527
   A31        1.99444   0.00004   0.00000   0.01092   0.00954   2.00398
   A32        1.98520  -0.00499   0.00000  -0.05491  -0.05421   1.93099
   A33        1.90471  -0.00007   0.00000  -0.00974  -0.01014   1.89457
   A34        1.55890  -0.00172   0.00000  -0.00804  -0.00967   1.54923
   A35        1.99281  -0.00532   0.00000  -0.05629  -0.05626   1.93655
   A36        1.92622   0.00071   0.00000  -0.01281  -0.01413   1.91209
    D1        3.10433  -0.00103   0.00000   0.01621   0.01590   3.12023
    D2        1.00847   0.00485   0.00000   0.04916   0.04969   1.05816
    D3       -1.04838   0.00065   0.00000   0.01969   0.01978  -1.02860
    D4        1.11337  -0.00255   0.00000  -0.00241  -0.00293   1.11044
    D5       -0.98249   0.00334   0.00000   0.03054   0.03086  -0.95163
    D6       -3.03934  -0.00086   0.00000   0.00107   0.00095  -3.03839
    D7        0.95757   0.00042   0.00000   0.06125   0.06119   1.01876
    D8       -3.07636  -0.00255   0.00000   0.02325   0.02285  -3.05351
    D9        3.03070   0.00774   0.00000   0.11564   0.11596  -3.13652
   D10       -1.00323   0.00476   0.00000   0.07765   0.07762  -0.92561
   D11       -1.13462   0.00410   0.00000   0.08358   0.08384  -1.05078
   D12        1.11463   0.00113   0.00000   0.04558   0.04550   1.16013
   D13       -0.87405  -0.00098   0.00000  -0.01395  -0.00930  -0.88335
   D14       -2.89983   0.00821   0.00000   0.09191   0.08835  -2.81148
   D15       -3.13574  -0.00532   0.00000  -0.00852  -0.00495  -3.14070
   D16        1.12166   0.00386   0.00000   0.09734   0.09270   1.21436
   D17       -1.85481  -0.00307   0.00000  -0.02262  -0.02371  -1.87852
   D18       -0.10313   0.01144   0.00000   0.12518   0.12586   0.02272
   D19        2.19318  -0.00091   0.00000  -0.01630  -0.01543   2.17775
   D20        0.37453  -0.00762   0.00000  -0.06824  -0.06963   0.30489
   D21        2.12620   0.00689   0.00000   0.07956   0.07993   2.20613
   D22       -1.86067  -0.00546   0.00000  -0.06192  -0.06136  -1.92203
   D23        2.47637  -0.00133   0.00000  -0.02395  -0.02130   2.45507
   D24        0.52148   0.00057   0.00000  -0.01612  -0.01450   0.50698
   D25       -1.77405   0.00356   0.00000   0.02614   0.02822  -1.74584
   D26        0.38357  -0.00798   0.00000  -0.09705  -0.09805   0.28552
   D27       -1.57131  -0.00609   0.00000  -0.08922  -0.09125  -1.66256
   D28        2.41633  -0.00309   0.00000  -0.04696  -0.04853   2.36780
   D29       -1.58194  -0.00262   0.00000  -0.03766  -0.03682  -1.61876
   D30        2.74636  -0.00072   0.00000  -0.02983  -0.03002   2.71634
   D31        0.45082   0.00227   0.00000   0.01243   0.01270   0.46352
   D32       -2.40389  -0.00922   0.00000  -0.06387  -0.06310  -2.46699
   D33       -0.44747  -0.01016   0.00000  -0.09147  -0.09090  -0.53837
   D34       -0.39616   0.00811   0.00000   0.09952   0.10070  -0.29546
   D35        1.56026   0.00717   0.00000   0.07192   0.07290   1.63316
   D36        1.58466   0.00258   0.00000   0.07061   0.07051   1.65517
   D37       -2.74210   0.00164   0.00000   0.04301   0.04271  -2.69939
   D38       -0.38550   0.00766   0.00000   0.09753   0.09845  -0.28705
   D39       -2.41451   0.00429   0.00000   0.05429   0.05415  -2.36036
   D40        1.63540   0.00369   0.00000   0.05288   0.05287   1.68828
   D41        1.66897  -0.00141   0.00000   0.00122   0.00172   1.67069
   D42       -0.36004  -0.00478   0.00000  -0.04202  -0.04258  -0.40262
   D43       -2.59331  -0.00538   0.00000  -0.04342  -0.04385  -2.63716
   D44       -2.41772   0.00193   0.00000   0.04332   0.04403  -2.37368
   D45        1.83646  -0.00145   0.00000   0.00008  -0.00026   1.83619
   D46       -0.39681  -0.00204   0.00000  -0.00132  -0.00154  -0.39835
   D47        0.40132  -0.00849   0.00000  -0.10386  -0.10417   0.29715
   D48       -1.61676  -0.00217   0.00000  -0.03773  -0.03801  -1.65478
   D49        2.43604  -0.00090   0.00000  -0.03089  -0.03114   2.40491
   D50        0.41796   0.00543   0.00000   0.03524   0.03502   0.45298
   D51       -1.64388  -0.00536   0.00000  -0.08340  -0.08275  -1.72663
   D52        2.62123   0.00097   0.00000  -0.01727  -0.01660   2.60463
         Item               Value     Threshold  Converged?
 Maximum Force            0.017603     0.000450     NO 
 RMS     Force            0.005834     0.000300     NO 
 Maximum Displacement     0.244524     0.001800     NO 
 RMS     Displacement     0.074800     0.001200     NO 
 Predicted change in Energy=-1.791069D-02
 GradGradGradGradGradGradGradGradGradGradGradGradGradGradGradGradGradGrad

                          Input orientation:                          
 ---------------------------------------------------------------------
 Center     Atomic      Atomic             Coordinates (Angstroms)
 Number     Number       Type             X           Y           Z
 ---------------------------------------------------------------------
      1          7           0        0.881114    0.004643   -0.185324
      2          6           0        2.338500   -0.037247    0.005552
      3          7           0        2.927366    1.054964   -0.738019
      4          7           0        2.356592    2.295887   -0.258881
      5          6           0        4.403743    1.109056   -0.761629
      6          6           0        5.138585    2.206643    0.060173
      7          6           0        6.155005    1.084667    0.379841
      8          7           0        5.184722    0.041279   -0.058353
      9          1           0        0.458026   -0.771313    0.316793
     10          1           0        0.692952   -0.154364   -1.172702
     11          1           0        2.792359   -0.961944   -0.374146
     12          1           0        2.525890    0.028278    1.092325
     13          1           0        1.356514    2.117603   -0.294701
     14          1           0        2.545123    2.967052   -0.998247
     15          1           0        4.732083    1.127350   -1.807150
     16          1           0        4.579157    2.511764    0.940968
     17          1           0        5.500587    3.100347   -0.466321
     18          1           0        6.488906    0.994469    1.418494
     19          1           0        7.035818    1.089606   -0.269918
     20          1           0        4.678299   -0.308102    0.743826
 ---------------------------------------------------------------------
                    Distance matrix (angstroms):
                    1          2          3          4          5
     1  N    0.000000
     2  C    1.470429   0.000000
     3  N    2.365543   1.446578   0.000000
     4  N    2.726214   2.348141   1.447496   0.000000
     5  C    3.736412   2.483507   1.477556   2.419122   0.000000
     6  C    4.799493   3.588664   2.617817   2.801651   1.555651
     7  C    5.412929   3.995560   3.415867   4.037693   2.090566
     8  N    4.305636   2.848022   2.566156   3.622400   1.498222
     9  H    1.016481   2.042525   3.247393   3.652898   4.501940
    10  H    1.017646   2.027271   2.577602   3.099434   3.941470
    11  H    2.150070   1.097826   2.053911   3.288866   2.652497
    12  H    2.082843   1.104756   2.136686   2.645084   2.851589
    13  H    2.168541   2.387013   1.947643   1.016476   3.243578
    14  H    3.493657   3.174290   1.967208   1.016203   2.638676
    15  H    4.326748   3.220468   2.098876   3.066850   1.096018
    16  H    4.607571   3.520370   2.769418   2.534963   2.212962
    17  H    5.567932   4.479504   3.298314   3.251906   2.292491
    18  H    5.916022   4.504077   4.163985   4.645782   3.018935
    19  H    6.250174   4.838437   4.135177   4.832224   2.677681
    20  H    3.921702   2.468415   2.668254   3.629945   2.085692
                    6          7          8          9         10
     6  C    0.000000
     7  C    1.547297   0.000000
     8  N    2.169096   1.490678   0.000000
     9  H    5.553532   5.992013   4.810686   0.000000
    10  H    5.182470   5.812023   4.632067   1.629237   0.000000
    11  H    3.966530   4.008055   2.613347   2.441894   2.386920
    12  H    3.554826   3.846306   2.897173   2.348800   2.919481
    13  H    3.799728   4.954542   4.361440   3.086591   2.524487
    14  H    2.902503   4.298110   4.051053   4.478915   3.633760
    15  H    2.194770   2.609494   2.107777   5.136499   4.284844
    16  H    1.087133   2.198811   2.732882   5.305837   5.165117
    17  H    1.098611   2.281933   3.102273   6.405501   5.848544
    18  H    2.266664   1.094726   2.188732   6.379910   6.451914
    19  H    2.226258   1.094551   2.137827   6.861093   6.526441
    20  H    2.646354   2.062269   1.010952   4.267040   4.424896
                   11         12         13         14         15
    11  H    0.000000
    12  H    1.789436   0.000000
    13  H    3.398761   2.767050   0.000000
    14  H    3.985930   3.606557   1.621521   0.000000
    15  H    3.190796   3.805549   3.829173   2.970121   0.000000
    16  H    4.121750   3.225913   3.473855   2.846952   3.080932
    17  H    4.883155   4.551462   4.262462   3.005908   2.506219
    18  H    4.550338   4.092115   5.526113   5.028434   3.675441
    19  H    4.714516   4.829241   5.771645   4.921545   2.769784
    20  H    2.287825   2.206233   4.242268   4.279240   2.927609
                   16         17         18         19         20
    16  H    0.000000
    17  H    1.782113   0.000000
    18  H    2.485429   2.993998   0.000000
    19  H    3.086092   2.537437   1.777329   0.000000
    20  H    2.828487   3.709196   2.330271   2.922184   0.000000
 Stoichiometry    C4H12N4
 Framework group  C1[X(C4H12N4)]
 Deg. of freedom    54
 Full point group                 C1      NOp   1
 Largest Abelian subgroup         C1      NOp   1
 Largest concise Abelian subgroup C1      NOp   1
                         Standard orientation:                         
 ---------------------------------------------------------------------
 Center     Atomic      Atomic             Coordinates (Angstroms)
 Number     Number       Type             X           Y           Z
 ---------------------------------------------------------------------
      1          7           0        2.853473   -0.450220   -0.151772
      2          6           0        1.420327   -0.778492   -0.173944
      3          7           0        0.695577    0.300050    0.461722
      4          7           0        0.978629    1.526365   -0.253316
      5          6           0       -0.757219    0.096778    0.638462
      6          6           0       -1.751679    0.898152   -0.249738
      7          6           0       -2.557649   -0.422083   -0.288739
      8          7           0       -1.374040   -1.192350    0.188631
      9          1           0        3.375099   -1.211345   -0.578185
     10          1           0        3.147298   -0.409544    0.821684
     11          1           0        1.183311   -1.693607    0.384278
     12          1           0        1.137105   -0.926073   -1.231531
     13          1           0        1.993931    1.535070   -0.301374
     14          1           0        0.725551    2.265933    0.396037
     15          1           0       -0.997859    0.228253    1.699622
     16          1           0       -1.333435    1.148259   -1.221528
     17          1           0       -2.234054    1.788310    0.176737
     18          1           0       -2.950617   -0.738692   -1.260212
     19          1           0       -3.368061   -0.465638    0.445684
     20          1           0       -0.876424   -1.573970   -0.604318
 ---------------------------------------------------------------------
 Rotational constants (GHZ):           4.2889620           1.3098527           1.0955528
 Standard basis: 6-31G(2df,p) (6D, 7F)
 There are   308 symmetry adapted cartesian basis functions of A   symmetry.
 There are   284 symmetry adapted basis functions of A   symmetry.
   284 basis functions,   436 primitive gaussians,   308 cartesian basis functions
    32 alpha electrons       32 beta electrons
       nuclear repulsion energy       413.4562369636 Hartrees.
 NAtoms=   20 NActive=   20 NUniq=   20 SFac= 1.00D+00 NAtFMM=   60 NAOKFM=F Big=F
 Integral buffers will be    131072 words long.
 Raffenetti 2 integral format.
 Two-electron integral symmetry is turned on.
 One-electron integrals computed using PRISM.
 PrsmSu:  requested number of processors reduced to:  13 ShMem   1 Linda.
 NBasis=   284 RedAO= T EigKep=  2.25D-04  NBF=   284
 NBsUse=   284 1.00D-06 EigRej= -1.00D+00 NBFU=   284
 Initial guess from the checkpoint file:  "NCNpNpC1CCN1.chk"
 B after Tr=    -0.000000   -0.000000    0.000000
         Rot=    0.999991   -0.004260   -0.000772    0.000364 Ang=  -0.50 deg.
 ExpMin= 1.61D-01 ExpMax= 4.17D+03 ExpMxC= 6.27D+02 IAcc=2 IRadAn=         4 AccDes= 0.00D+00
 Harris functional with IExCor=  402 and IRadAn=       4 diagonalized for initial guess.
 HarFok:  IExCor=  402 AccDes= 0.00D+00 IRadAn=         4 IDoV= 1 UseB2=F ITyADJ=14
 ICtDFT=  3500011 ScaDFX=  1.000000  1.000000  1.000000  1.000000
 FoFCou: FMM=F IPFlag=           0 FMFlag=      100000 FMFlg1=           0
         NFxFlg=           0 DoJE=T BraDBF=F KetDBF=T FulRan=T
         wScrn=  0.000000 ICntrl=       500 IOpCl=  0 I1Cent=   200000004 NGrid=           0
         NMat0=    1 NMatS0=      1 NMatT0=    0 NMatD0=    1 NMtDS0=    0 NMtDT0=    0
 Petite list used in FoFCou.
 Requested convergence on RMS density matrix=1.00D-08 within 128 cycles.
 Requested convergence on MAX density matrix=1.00D-06.
 Requested convergence on             energy=1.00D-06.
 No special actions if energy rises.
 Integral accuracy reduced to 1.0D-05 until final iterations.
 Initial convergence to 1.0D-05 achieved.  Increase integral accuracy.
 SCF Done:  E(RB3LYP) =  -378.575449971     A.U. after   11 cycles
            NFock= 11  Conv=0.46D-08     -V/T= 2.0075
 PrsmSu:  requested number of processors reduced to:  13 ShMem   1 Linda.
 Calling FoFJK, ICntrl=      2127 FMM=F ISym2X=0 I1Cent= 0 IOpClX= 0 NMat=1 NMatS=1 NMatT=0.
 ***** Axes restored to original set *****
 -------------------------------------------------------------------
 Center     Atomic                   Forces (Hartrees/Bohr)
 Number     Number              X              Y              Z
 -------------------------------------------------------------------
      1        7           0.003005716   -0.002731175   -0.001882772
      2        6          -0.000312609   -0.002206368   -0.001948980
      3        7           0.002524886   -0.010384134   -0.009611769
      4        7           0.005535357    0.010457342    0.007170520
      5        6          -0.009728592    0.006276579    0.010500532
      6        6           0.007040570    0.000881336   -0.005052190
      7        6          -0.000545290    0.002220132    0.005479734
      8        7           0.004247584   -0.005864469   -0.008243154
      9        1          -0.000428997    0.001969931    0.001151405
     10        1          -0.000125228   -0.000482689   -0.000334650
     11        1           0.002379170   -0.000020417    0.001270620
     12        1          -0.002198838    0.000031373    0.002118812
     13        1          -0.002655698    0.000456158    0.000518684
     14        1          -0.002469930    0.002220690   -0.002063714
     15        1          -0.000189426   -0.000785132   -0.001654769
     16        1          -0.003262696   -0.000617042    0.000328232
     17        1          -0.001571059   -0.002518479    0.000573861
     18        1           0.000585104    0.000074978   -0.000825308
     19        1           0.000302696   -0.000336711   -0.000425192
     20        1          -0.002132720    0.001358097    0.002930100
 -------------------------------------------------------------------
 Cartesian Forces:  Max     0.010500532 RMS     0.004057601

 GradGradGradGradGradGradGradGradGradGradGradGradGradGradGradGradGradGrad
 Berny optimization.
 Using GEDIIS/GDIIS optimizer.
 FormGI is forming the generalized inverse of G from B-inverse, IUseBI=4.
 Internal  Forces:  Max     0.012959395 RMS     0.001985076
 Search for a local minimum.
 Step number   2 out of a maximum of  118
 All quantities printed in internal units (Hartrees-Bohrs-Radians)
 Mixed Optimization -- RFO/linear search
 Update second derivatives using D2CorX and points    1    2
 DE= -1.49D-02 DEPred=-1.79D-02 R= 8.34D-01
 TightC=F SS=  1.41D+00  RLast= 5.23D-01 DXNew= 5.0454D-01 1.5696D+00
 Trust test= 8.34D-01 RLast= 5.23D-01 DXMaxT set to 5.05D-01
 ITU=  1  0
 Use linear search instead of GDIIS.
     Eigenvalues ---    0.00513   0.00530   0.00620   0.00863   0.00888
     Eigenvalues ---    0.02505   0.02536   0.02862   0.03653   0.04271
     Eigenvalues ---    0.04504   0.04755   0.05120   0.05602   0.05723
     Eigenvalues ---    0.06144   0.06728   0.06746   0.06895   0.07169
     Eigenvalues ---    0.07841   0.07944   0.08981   0.09504   0.11566
     Eigenvalues ---    0.12900   0.15954   0.16000   0.16000   0.16372
     Eigenvalues ---    0.18038   0.19674   0.21186   0.21924   0.26329
     Eigenvalues ---    0.27977   0.31891   0.32727   0.33762   0.34047
     Eigenvalues ---    0.34083   0.34216   0.34310   0.34348   0.34388
     Eigenvalues ---    0.34590   0.36678   0.36868   0.39662   0.43674
     Eigenvalues ---    0.44231   0.44401   0.45256   0.45434
 RFO step:  Lambda=-5.46172002D-03 EMin= 5.13109857D-03
 Quartic linear search produced a step of  0.12647.
 Iteration  1 RMS(Cart)=  0.09046135 RMS(Int)=  0.00561579
 Iteration  2 RMS(Cart)=  0.00701395 RMS(Int)=  0.00032150
 Iteration  3 RMS(Cart)=  0.00003767 RMS(Int)=  0.00032058
 Iteration  4 RMS(Cart)=  0.00000002 RMS(Int)=  0.00032058
 Variable       Old X    -DE/DX   Delta X   Delta X   Delta X     New X
                                 (Linear)    (Quad)   (Total)
    R1        2.77871  -0.00233   0.00233  -0.00799  -0.00566   2.77305
    R2        1.92087  -0.00076  -0.00097  -0.00138  -0.00234   1.91853
    R3        1.92307   0.00042   0.00083   0.00061   0.00144   1.92451
    R4        2.73364   0.00185  -0.00357   0.00722   0.00364   2.73728
    R5        2.07459   0.00056   0.00032   0.00162   0.00194   2.07653
    R6        2.08769   0.00171   0.00246   0.00416   0.00662   2.09430
    R7        2.73537   0.01296  -0.00272   0.03914   0.03642   2.77179
    R8        2.79218  -0.00528  -0.00083  -0.01615  -0.01697   2.77520
    R9        1.92086   0.00251  -0.00221   0.00736   0.00515   1.92601
   R10        1.92035   0.00251  -0.00114   0.00672   0.00558   1.92593
   R11        2.93976  -0.00187   0.00167  -0.01078  -0.00908   2.93067
   R12        2.83123   0.00214   0.00302   0.00575   0.00894   2.84017
   R13        2.07117   0.00151  -0.00082   0.00524   0.00442   2.07560
   R14        2.92397  -0.00007   0.00437  -0.00217   0.00210   2.92606
   R15        2.05438   0.00177  -0.00224   0.00675   0.00451   2.05889
   R16        2.07607  -0.00284   0.00114  -0.00950  -0.00836   2.06771
   R17        2.81697   0.00245   0.00309   0.00754   0.01053   2.82750
   R18        2.06873  -0.00061   0.00008  -0.00196  -0.00188   2.06685
   R19        2.06840   0.00049   0.00012   0.00150   0.00161   2.07001
   R20        1.91042   0.00292  -0.00112   0.00759   0.00647   1.91689
    A1        1.90357   0.00125   0.00382   0.00938   0.01312   1.91669
    A2        1.88048   0.00013   0.00122   0.00349   0.00462   1.88510
    A3        1.85776   0.00017  -0.00011   0.00865   0.00836   1.86612
    A4        1.89150  -0.00057  -0.00290  -0.00035  -0.00322   1.88827
    A5        1.97018   0.00052   0.01071  -0.00227   0.00843   1.97861
    A6        1.86934  -0.00037  -0.00222  -0.00363  -0.00584   1.86349
    A7        1.86491   0.00015  -0.00728   0.00673  -0.00047   1.86443
    A8        1.97341   0.00071   0.00293   0.00365   0.00655   1.97996
    A9        1.89660  -0.00040  -0.00079  -0.00409  -0.00491   1.89169
   A10        1.89296   0.00428  -0.00494   0.01392   0.00797   1.90092
   A11        2.02930  -0.00202   0.00440  -0.02579  -0.02188   2.00742
   A12        1.94756  -0.00389  -0.00300  -0.03395  -0.03719   1.91036
   A13        1.79869   0.00147  -0.01106   0.01449   0.00306   1.80175
   A14        1.82577   0.00254  -0.01369   0.02322   0.00917   1.83494
   A15        1.84703  -0.00176  -0.00100  -0.01380  -0.01592   1.83111
   A16        2.08218   0.00166   0.01386   0.01057   0.02438   2.10655
   A17        2.07975   0.00020   0.00191  -0.00045  -0.00002   2.07973
   A18        1.89145  -0.00092  -0.00689  -0.00825  -0.01529   1.87616
   A19        1.57943   0.00000   0.00610   0.00405   0.00927   1.58870
   A20        1.92905  -0.00023  -0.00463   0.00294  -0.00139   1.92766
   A21        1.87918  -0.00072  -0.00892  -0.00805  -0.01700   1.86218
   A22        1.47850   0.00186  -0.00104   0.00929   0.00773   1.48622
   A23        1.96378  -0.00219  -0.01098  -0.02379  -0.03476   1.92903
   A24        2.06739  -0.00047   0.00577  -0.00709  -0.00138   2.06601
   A25        1.95429  -0.00034   0.00057   0.00820   0.00878   1.96307
   A26        2.06284   0.00011   0.00512   0.00751   0.01255   2.07539
   A27        1.90659   0.00093   0.00019   0.00521   0.00485   1.91144
   A28        1.59003  -0.00076   0.00519   0.00036   0.00475   1.59478
   A29        2.04443   0.00088   0.00553   0.00434   0.00985   2.05427
   A30        1.98527  -0.00022  -0.00335  -0.00312  -0.00621   1.97907
   A31        2.00398   0.00073   0.00121   0.00728   0.00837   2.01234
   A32        1.93099  -0.00032  -0.00686  -0.00598  -0.01268   1.91830
   A33        1.89457  -0.00035  -0.00128  -0.00267  -0.00401   1.89056
   A34        1.54923  -0.00025  -0.00122   0.00104  -0.00081   1.54842
   A35        1.93655  -0.00158  -0.00712  -0.02187  -0.02911   1.90744
   A36        1.91209  -0.00097  -0.00179  -0.02078  -0.02301   1.88908
    D1        3.12023   0.00117   0.00201   0.06430   0.06630  -3.09666
    D2        1.05816   0.00104   0.00628   0.05755   0.06393   1.12209
    D3       -1.02860   0.00147   0.00250   0.06634   0.06890  -0.95970
    D4        1.11044   0.00025  -0.00037   0.04742   0.04694   1.15739
    D5       -0.95163   0.00013   0.00390   0.04067   0.04458  -0.90705
    D6       -3.03839   0.00055   0.00012   0.04947   0.04954  -2.98884
    D7        1.01876   0.00369   0.00774   0.19255   0.20040   1.21916
    D8       -3.05351   0.00051   0.00289   0.13809   0.14080  -2.91272
    D9       -3.13652   0.00408   0.01467   0.19354   0.20837  -2.92815
   D10       -0.92561   0.00090   0.00982   0.13908   0.14877  -0.77684
   D11       -1.05078   0.00410   0.01060   0.19508   0.20585  -0.84493
   D12        1.16013   0.00092   0.00575   0.14062   0.14625   1.30638
   D13       -0.88335  -0.00007  -0.00118   0.09604   0.09541  -0.78794
   D14       -2.81148   0.00043   0.01117   0.09778   0.10848  -2.70300
   D15       -3.14070   0.00216  -0.00063   0.14467   0.14452  -2.99618
   D16        1.21436   0.00266   0.01172   0.14641   0.15759   1.37195
   D17       -1.87852  -0.00066  -0.00300   0.02875   0.02527  -1.85324
   D18        0.02272   0.00079   0.01592   0.04229   0.05784   0.08056
   D19        2.17775  -0.00086  -0.00195   0.02351   0.02141   2.19916
   D20        0.30489   0.00019  -0.00881  -0.00324  -0.01186   0.29303
   D21        2.20613   0.00164   0.01011   0.01030   0.02070   2.22684
   D22       -1.92203  -0.00001  -0.00776  -0.00848  -0.01572  -1.93775
   D23        2.45507  -0.00035  -0.00269  -0.01708  -0.01937   2.43569
   D24        0.50698  -0.00059  -0.00183  -0.02824  -0.02965   0.47734
   D25       -1.74584   0.00075   0.00357  -0.00452  -0.00073  -1.74657
   D26        0.28552  -0.00124  -0.01240  -0.02347  -0.03612   0.24940
   D27       -1.66256  -0.00148  -0.01154  -0.03462  -0.04639  -1.70895
   D28        2.36780  -0.00015  -0.00614  -0.01090  -0.01748   2.35033
   D29       -1.61876  -0.00044  -0.00466  -0.01682  -0.02132  -1.64008
   D30        2.71634  -0.00068  -0.00380  -0.02798  -0.03159   2.68475
   D31        0.46352   0.00066   0.00161  -0.00426  -0.00268   0.46084
   D32       -2.46699  -0.00058  -0.00798   0.00973   0.00193  -2.46506
   D33       -0.53837  -0.00192  -0.01150  -0.01488  -0.02615  -0.56453
   D34       -0.29546   0.00150   0.01274   0.02512   0.03805  -0.25742
   D35        1.63316   0.00017   0.00922   0.00051   0.00996   1.64312
   D36        1.65517   0.00116   0.00892   0.02853   0.03737   1.69254
   D37       -2.69939  -0.00017   0.00540   0.00392   0.00928  -2.69011
   D38       -0.28705   0.00128   0.01245   0.02380   0.03647  -0.25058
   D39       -2.36036   0.00062   0.00685   0.01379   0.02070  -2.33966
   D40        1.68828   0.00051   0.00669   0.01667   0.02340   1.71167
   D41        1.67069  -0.00036   0.00022   0.00232   0.00254   1.67323
   D42       -0.40262  -0.00102  -0.00538  -0.00768  -0.01323  -0.41585
   D43       -2.63716  -0.00113  -0.00555  -0.00481  -0.01054  -2.64770
   D44       -2.37368   0.00076   0.00557   0.02524   0.03101  -2.34267
   D45        1.83619   0.00010  -0.00003   0.01523   0.01524   1.85143
   D46       -0.39835  -0.00001  -0.00019   0.01811   0.01793  -0.38042
   D47        0.29715  -0.00170  -0.01317  -0.02617  -0.03929   0.25786
   D48       -1.65478   0.00019  -0.00481  -0.00074  -0.00561  -1.66038
   D49        2.40491  -0.00090  -0.00394  -0.01886  -0.02276   2.38215
   D50        0.45298   0.00099   0.00443   0.00658   0.01092   0.46390
   D51       -1.72663  -0.00108  -0.01047  -0.02171  -0.03199  -1.75861
   D52        2.60463   0.00082  -0.00210   0.00372   0.00169   2.60632
         Item               Value     Threshold  Converged?
 Maximum Force            0.012959     0.000450     NO 
 RMS     Force            0.001985     0.000300     NO 
 Maximum Displacement     0.401698     0.001800     NO 
 RMS     Displacement     0.092011     0.001200     NO 
 Predicted change in Energy=-3.657151D-03
 GradGradGradGradGradGradGradGradGradGradGradGradGradGradGradGradGradGrad

                          Input orientation:                          
 ---------------------------------------------------------------------
 Center     Atomic      Atomic             Coordinates (Angstroms)
 Number     Number       Type             X           Y           Z
 ---------------------------------------------------------------------
      1          7           0        0.909733   -0.078212   -0.287885
      2          6           0        2.338248    0.012291    0.035402
      3          7           0        2.909582    1.094453   -0.739627
      4          7           0        2.398409    2.369319   -0.225019
      5          6           0        4.377442    1.131234   -0.766893
      6          6           0        5.157830    2.198604    0.043561
      7          6           0        6.136186    1.044153    0.371624
      8          7           0        5.150113    0.024842   -0.105272
      9          1           0        0.474802   -0.802985    0.274476
     10          1           0        0.824782   -0.366933   -1.260806
     11          1           0        2.901693   -0.895296   -0.222070
     12          1           0        2.409035    0.168861    1.130257
     13          1           0        1.401142    2.192135   -0.111713
     14          1           0        2.462274    3.017483   -1.008909
     15          1           0        4.687858    1.146681   -1.820361
     16          1           0        4.581435    2.515592    0.912086
     17          1           0        5.536370    3.078695   -0.485011
     18          1           0        6.459548    0.931440    1.410363
     19          1           0        7.024732    1.031842   -0.268880
     20          1           0        4.630126   -0.313558    0.697258
 ---------------------------------------------------------------------
                    Distance matrix (angstroms):
                    1          2          3          4          5
     1  N    0.000000
     2  C    1.467433   0.000000
     3  N    2.361908   1.448506   0.000000
     4  N    2.865400   2.372135   1.466766   0.000000
     5  C    3.703675   2.460492   1.468573   2.396467   0.000000
     6  C    4.831156   3.567923   2.624338   2.777712   1.550845
     7  C    5.386136   3.949951   3.412973   4.010365   2.096899
     8  N    4.245561   2.815410   2.562509   3.617014   1.502953
     9  H    1.015240   2.047990   3.249128   3.743431   4.478421
    10  H    1.018407   2.028435   2.598782   3.322083   3.887139
    11  H    2.154034   1.098852   2.055974   3.303183   2.565441
    12  H    2.078480   1.108257   2.145632   2.584358   2.898269
    13  H    2.329591   2.377296   1.968394   1.019203   3.226939
    14  H    3.537454   3.183889   1.992647   1.019156   2.698958
    15  H    4.257120   3.201775   2.081581   3.046562   1.098359
    16  H    4.652864   3.473756   2.746431   2.465767   2.185642
    17  H    5.604523   4.461126   3.301826   3.227632   2.283676
    18  H    5.891000   4.440773   4.153467   4.608125   3.019193
    19  H    6.214965   4.805747   4.142461   4.815977   2.695560
    20  H    3.855803   2.407683   2.647150   3.609569   2.072441
                    6          7          8          9         10
     6  C    0.000000
     7  C    1.548407   0.000000
     8  N    2.178865   1.496250   0.000000
     9  H    5.567191   5.955890   4.763197   0.000000
    10  H    5.201794   5.732976   4.494134   1.633928   0.000000
    11  H    3.838349   3.817836   2.432218   2.478888   2.381534
    12  H    3.585616   3.902988   3.010113   2.327682   2.917897
    13  H    3.759901   4.896133   4.330357   3.158797   2.863815
    14  H    3.007371   4.392896   4.122735   4.493673   3.768170
    15  H    2.191260   2.629252   2.100889   5.093073   4.186584
    16  H    1.089518   2.207823   2.749954   5.318265   5.209881
    17  H    1.094185   2.287568   3.101518   6.423685   5.888401
    18  H    2.273394   1.093730   2.198565   6.333692   6.369577
    19  H    2.223573   1.095404   2.134247   6.823739   6.432719
    20  H    2.648914   2.053687   1.014374   4.205355   4.279897
                   11         12         13         14         15
    11  H    0.000000
    12  H    1.789953   0.000000
    13  H    3.434540   2.579143   0.000000
    14  H    4.015226   3.562796   1.616218   0.000000
    15  H    3.148744   3.854260   3.849020   3.018540   0.000000
    16  H    3.967619   3.205319   3.356644   2.903957   3.058024
    17  H    4.775276   4.566886   4.245639   3.119019   2.497160
    18  H    4.319737   4.131179   5.430795   5.116899   3.690906
    19  H    4.551428   4.899691   5.744192   5.030551   2.807358
    20  H    2.042318   2.313755   4.166446   4.325092   2.911020
                   16         17         18         19         20
    16  H    0.000000
    17  H    1.783498   0.000000
    18  H    2.507015   3.009220   0.000000
    19  H    3.092878   2.539989   1.774646   0.000000
    20  H    2.837712   3.704918   2.324934   2.911642   0.000000
 Stoichiometry    C4H12N4
 Framework group  C1[X(C4H12N4)]
 Deg. of freedom    54
 Full point group                 C1      NOp   1
 Largest Abelian subgroup         C1      NOp   1
 Largest concise Abelian subgroup C1      NOp   1
                         Standard orientation:                         
 ---------------------------------------------------------------------
 Center     Atomic      Atomic             Coordinates (Angstroms)
 Number     Number       Type             X           Y           Z
 ---------------------------------------------------------------------
      1          7           0        2.851932   -0.504044   -0.070924
      2          6           0        1.411808   -0.725036   -0.245750
      3          7           0        0.704609    0.329655    0.451147
      4          7           0        0.909103    1.593138   -0.265230
      5          6           0       -0.734094    0.097749    0.632972
      6          6           0       -1.774795    0.879450   -0.210239
      7          6           0       -2.529674   -0.470177   -0.289167
      8          7           0       -1.325388   -1.213351    0.196788
      9          1           0        3.373032   -1.206754   -0.586060
     10          1           0        3.073093   -0.634271    0.914613
     11          1           0        1.062251   -1.676526    0.178458
     12          1           0        1.220421   -0.737675   -1.337283
     13          1           0        1.908724    1.589476   -0.464021
     14          1           0        0.784049    2.320671    0.437433
     15          1           0       -0.952479    0.201502    1.704389
     16          1           0       -1.346873    1.173972   -1.167939
     17          1           0       -2.274318    1.739012    0.246784
     18          1           0       -2.909879   -0.783732   -1.265575
     19          1           0       -3.341696   -0.557637    0.440820
     20          1           0       -0.817576   -1.557739   -0.610974
 ---------------------------------------------------------------------
 Rotational constants (GHZ):           4.1395364           1.3306131           1.1008954
 Standard basis: 6-31G(2df,p) (6D, 7F)
 There are   308 symmetry adapted cartesian basis functions of A   symmetry.
 There are   284 symmetry adapted basis functions of A   symmetry.
   284 basis functions,   436 primitive gaussians,   308 cartesian basis functions
    32 alpha electrons       32 beta electrons
       nuclear repulsion energy       413.2232502373 Hartrees.
 NAtoms=   20 NActive=   20 NUniq=   20 SFac= 1.00D+00 NAtFMM=   60 NAOKFM=F Big=F
 Integral buffers will be    131072 words long.
 Raffenetti 2 integral format.
 Two-electron integral symmetry is turned on.
 One-electron integrals computed using PRISM.
 PrsmSu:  requested number of processors reduced to:  13 ShMem   1 Linda.
[...]
 612,-0.00009374,-0.07719726,0.03741841,0.00200623,-0.00522663,-0.01391
 496,-0.00534227,-0.10724988,-0.08913596,0.02131625,0.41012585,0.000308
 13,0.00103976,-0.00048703,-0.00069452,-0.00198258,0.00051238,0.0084300
 2,0.00034261,0.00201853,0.00280590,0.00034018,0.00101166,-0.00420211,-
 0.06088976,-0.00446289,-0.02386395,-0.04492935,0.05597885,-0.02249060,
 -0.11313463,-0.00265103,0.01883317,0.26028502,-0.00060769,-0.00005889,
 0.00065711,0.00102436,0.00061245,0.00122412,-0.01492471,0.00180116,0.0
 0301002,0.00157993,-0.00221917,0.00186717,-0.00687598,0.04908328,-0.13
 161905,0.00064932,0.04166856,-0.03541474,0.02415301,-0.00229133,-0.078
 74545,-0.15121052,0.01313549,0.51883380,-0.14878491,-0.15436495,0.0266
 4872,-0.01759374,-0.03478220,0.00739517,-0.00825301,0.00308206,0.00058
 832,0.00080605,0.00054568,0.00037236,-0.00022434,-0.00203382,-0.000663
 07,-0.00037047,0.00028545,0.00002460,-0.00009653,-0.00009485,-0.000013
 65,-0.00015666,0.00016116,-0.00005376,0.16774833,-0.18464141,-0.308206
 41,0.09411079,0.01315295,0.00426720,-0.00476849,-0.00064174,-0.0008425
 8,-0.00051817,-0.00104782,0.00017377,0.00012422,0.00087233,0.00026049,
 -0.00065360,0.00007921,-0.00001849,0.00000097,0.00001901,0.00005613,-0
 .00001333,-0.00036805,0.00012497,-0.00004949,0.17780812,0.31496729,0.0
 0861345,0.05839985,-0.04551372,0.00529511,-0.00404902,-0.00165360,-0.0
 0205395,-0.00118787,-0.00055672,-0.00202037,-0.00023350,0.00033606,0.0
 0018266,-0.00095407,0.00045967,-0.00023571,0.00007627,0.00007051,0.000
 05784,-0.00002528,0.00003154,-0.00004219,0.00015368,-0.00017290,-0.031
 29903,-0.08456186,0.05414415,-0.07480846,0.01401176,-0.07249723,-0.011
 90937,0.01599665,-0.04065127,0.00297541,-0.00061070,0.00100416,0.00001
 133,0.00008856,0.00024427,-0.00057028,0.00010216,0.00016483,-0.0000491
 8,-0.00000557,0.00006852,0.00002688,-0.00006434,0.00005595,0.00030472,
 -0.00030569,0.00028211,0.00553529,-0.00586802,0.02155169,0.08412391,0.
 00817357,-0.06423507,0.09479870,0.00745358,-0.00472633,0.00824075,0.00
 057192,0.00108234,-0.00074114,-0.00042632,-0.00154188,-0.00009455,-0.0
 0067287,-0.00010421,0.00042184,-0.00002236,-0.00002162,-0.00000991,-0.
 00002047,-0.00004422,0.00001416,0.00030353,-0.00016900,0.00009537,0.00
 910808,-0.01177527,0.03134370,-0.02479335,0.07879630,-0.09052915,0.142
 79976,-0.36352447,0.00409610,-0.00247271,-0.00316308,-0.00027354,-0.00
 124150,0.00027443,0.00009477,-0.00056553,-0.00038628,-0.00010553,-0.00
 014278,0.00028126,0.00001951,-0.00002847,-0.00000217,0.00007664,-0.000
 01383,0.00003602,0.00004916,0.00006434,-0.00005221,-0.00232584,-0.0050
 5400,-0.00841965,0.08960877,-0.13409600,0.37111893,-0.02678921,0.02121
 040,0.02386824,-0.07290386,0.04405006,0.06176281,0.00566372,-0.0078485
 7,-0.01202332,-0.00069576,-0.00434219,0.00025095,-0.00035521,-0.002249
 37,-0.00155139,0.00026676,-0.00003635,-0.00020564,-0.00006714,0.000026
 55,0.00002511,-0.00008670,0.00009597,0.00043912,0.00049937,0.00073790,
 -0.00014143,0.00186230,-0.00166080,0.00047741,0.09113391,0.00554758,0.
 00103960,-0.00270973,0.03961855,-0.11972939,-0.09387509,0.00715430,-0.
 02514797,-0.02593320,-0.00357219,-0.00475815,0.00075556,0.00235252,-0.
 00028702,-0.00213711,-0.00025073,0.00017300,0.00044958,-0.00002182,0.0
 0002831,-0.00003091,-0.00048842,0.00003237,0.00028087,0.00023610,0.000
 11606,0.00033670,0.00017534,0.00010356,-0.00024022,-0.04580591,0.13889
 933,0.00140275,0.00207435,0.00787041,0.05687609,-0.10223415,-0.1981202
 2,0.00017376,0.00018217,-0.00035047,-0.00010707,-0.00027402,0.00253793
 ,0.00154070,-0.00003330,-0.00061467,-0.00044427,0.00034090,0.00037318,
 -0.00010918,0.00006277,-0.00000653,-0.00024253,-0.00018614,-0.00008662
 ,0.00069223,0.00020493,0.00002057,0.00047302,0.00093178,0.00230773,-0.
 06879581,0.11208784,0.20605650,-0.01414453,0.02054323,-0.03264622,-0.0
 5566200,0.01698837,-0.02798447,-0.00072884,-0.01769626,0.01790997,0.00
 001191,0.00242551,-0.00059550,0.00364932,-0.00137380,0.00164243,0.0001
 4432,0.00014964,-0.00010331,0.00002771,0.00022203,0.00008253,-0.000579
 50,0.00119669,-0.00148299,0.00129099,-0.00022997,-0.00042581,-0.007337
 04,0.00178301,-0.00073934,0.00348351,-0.00427569,0.00872516,0.07053214
 ,0.00456824,-0.00301117,0.00729143,0.02050523,-0.09974353,0.08615901,-
 0.00856799,-0.02850728,0.02872127,0.00023412,0.00484532,0.00098809,0.0
 0518043,-0.00109236,0.00039788,-0.00028649,0.00023890,-0.00019163,-0.0
 0009532,0.00010425,-0.00023124,-0.00094101,0.00127650,-0.00109226,0.00
 033864,0.00079196,0.00004305,0.00111824,0.00114301,0.00034307,-0.00206
 346,0.00931257,-0.01434912,-0.01970377,0.11534361,-0.00227702,0.001164
 81,-0.00099074,-0.03491676,0.08853759,-0.22685623,0.00651298,0.0063327
 1,0.00049320,0.00049477,0.00079848,0.00428292,-0.00217480,0.00081985,-
 0.00023160,0.00012470,0.00006156,0.00030409,0.00035343,-0.00001799,0.0
 0008316,0.00014512,-0.00135815,0.00056424,-0.00089261,-0.00010748,-0.0
 0022138,-0.00034275,-0.00035662,0.00210805,-0.00312060,0.01070066,-0.0
 2100663,0.03662145,-0.10776202,0.24176051,-0.00030857,-0.00157292,-0.0
 0100194,0.00254625,-0.00123059,0.00019246,-0.01352322,0.00000481,-0.00
 055216,-0.36188442,-0.10210098,0.09447685,-0.00138934,0.00121050,0.002
 30377,0.00038146,0.00036656,0.00008428,0.00009044,-0.00011552,0.000004
 58,0.00031294,0.00024443,0.00085557,-0.00024861,0.00013779,0.00057606,
 -0.00019089,0.00053732,-0.00010386,-0.00126605,0.00007618,-0.00027801,
 -0.00035249,0.00062443,-0.00014470,0.37579597,0.00025840,-0.00242983,0
 .00110265,0.00569245,-0.00131376,-0.00547314,0.02483967,0.00311741,-0.
 00794599,-0.08973673,-0.08284677,0.01634077,0.00048981,-0.00372864,-0.
 00448592,-0.00040302,-0.00059996,-0.00006985,-0.00033766,-0.00009757,0
 .00009592,0.00010446,-0.00038673,-0.00042865,-0.00011681,0.00000417,0.
 00057861,-0.00009951,0.00174073,0.00080781,-0.00046344,-0.00002501,0.0
 0058029,0.00005199,-0.00083465,0.00068847,0.09842436,0.09987629,0.0007
 5499,0.00203814,-0.00175309,0.00487050,-0.00271348,0.00294851,0.037028
 92,0.00290805,-0.01941903,0.03607588,0.00060869,-0.03278288,-0.0020395
 8,-0.00171470,-0.00647645,-0.00026797,-0.00037810,0.00006198,0.0002300
 1,-0.00000943,-0.00004736,-0.00107869,0.00093777,0.00111041,-0.0004464
 2,0.00107133,0.00154306,0.00005239,-0.00013676,-0.00046902,-0.00022182
 ,0.00094377,0.00012933,-0.00075603,0.00018512,-0.00009519,-0.09073712,
 -0.01122602,0.05988485,0.00040125,0.00004124,-0.00087024,-0.00218839,-
 0.00124719,0.00013491,-0.00281904,0.01031065,0.00189297,-0.04115248,0.
 05555348,-0.00824695,0.00092137,0.00411628,-0.00018043,-0.00038816,0.0
 0068941,0.00028996,0.00050774,0.00052645,-0.00045687,-0.00133508,-0.00
 015566,0.00040966,-0.00011408,0.00007014,0.00006876,-0.00002966,-0.000
 44987,-0.00041238,-0.00002407,-0.00000890,0.00010458,-0.00004396,0.000
 05553,-0.00035163,0.00069331,-0.04017145,0.01485668,0.04627389,0.00032
 784,0.00059444,0.00018561,0.00251834,-0.00235390,-0.00262763,0.0023418
 9,-0.01812976,0.00080577,0.01747495,-0.35332226,0.11306865,0.00112447,
 -0.00170861,-0.00029571,-0.00014109,-0.00060808,0.00007183,0.00010447,
 -0.00004271,0.00022805,-0.00020115,0.00008941,-0.00043211,-0.00007420,
 0.00006922,0.00006259,-0.00002929,-0.00018480,-0.00018159,-0.00077704,
 -0.00055443,-0.00020628,0.00026345,0.00060375,-0.00024311,0.00388828,-
 0.01330929,0.00825532,-0.02650150,0.38814606,-0.00025642,0.00044847,0.
 00038660,0.00350934,-0.00432524,-0.00429077,0.00143565,-0.04301114,0.0
 0375606,0.00890133,0.15869703,-0.09181905,-0.00001044,-0.00129660,-0.0
 0017571,0.00018516,0.00103751,-0.00015775,0.00000348,0.00055615,0.0001
 1206,-0.00071243,-0.00017198,-0.00029995,-0.00002221,0.00005617,-0.000
 09800,-0.00010080,-0.00017310,-0.00002499,-0.00086391,-0.00173036,-0.0
 0024292,0.00013824,-0.00036762,-0.00015649,-0.00543296,0.00968329,-0.0
 0510508,-0.00820352,-0.11879323,0.09779222,0.00060210,-0.00036417,-0.0
 0042733,-0.00039051,0.00207657,0.00223425,-0.01070345,0.02477234,0.027
 09042,-0.00720551,-0.00088453,0.00089102,-0.05584944,0.01917170,0.0271
 8299,0.00451574,-0.01226663,-0.01033544,0.00013112,0.00070932,0.000470
 10,0.00375939,-0.00247149,-0.01454772,0.00004754,-0.00002896,0.0000123
 8,-0.00003042,0.00013946,0.00003995,-0.00092431,-0.00105976,-0.0003402
 2,-0.00015135,-0.00039804,-0.00000696,-0.00063168,0.00183278,0.0015395
 9,-0.00047053,0.00014932,0.00020910,0.07095810,0.00003962,0.00034130,0
 .00049478,-0.00215994,-0.00052175,0.00035110,0.00357809,-0.00526606,-0
 .00608281,0.00119146,0.00185582,0.00017799,0.02666271,-0.15164820,-0.1
 2287874,0.00546977,-0.01768296,-0.01680731,0.00016338,0.00033724,0.000
 64790,-0.00308517,0.01166456,0.01166158,0.00001336,0.00008812,0.000085
 51,0.00006246,-0.00007316,-0.00003065,-0.00083904,0.00073633,0.0004715
 8,0.00002361,0.00007193,0.00004255,-0.00012439,-0.00050730,-0.00040440
 ,-0.00023573,0.00004737,0.00001867,-0.02851586,0.16125753,-0.00043435,
 0.00072426,0.00064462,-0.00109742,-0.00146715,-0.00109942,0.00247134,-
 0.00368403,-0.00242189,0.00047099,-0.00012199,0.00191236,0.03502879,-0
 .12000785,-0.18519080,-0.00042057,0.00288553,0.00439032,0.00066648,0.0
 0012688,-0.00198029,-0.00015907,-0.00621844,-0.02596859,0.00008190,0.0
 0004675,-0.00000829,0.00004485,-0.00015070,-0.00003042,0.00007692,0.00
 084224,0.00088012,0.00002313,0.00011857,0.00000531,-0.00009303,-0.0004
 0246,0.00005106,0.00029066,-0.00013526,-0.00024330,-0.03191302,0.12945
 949,0.21071429,-0.00006490,0.00020860,0.00006621,0.00020421,-0.0003362
 8,-0.00033382,0.00198077,0.00208772,-0.00015694,-0.00120802,0.00015260
 ,0.00029979,0.01171710,-0.01931721,-0.01009321,-0.10152933,0.10180652,
 0.04262540,-0.01216712,0.01635923,0.00866473,-0.00008899,0.00089995,0.
 00022019,0.00005828,0.00000673,0.00000928,-0.00000509,-0.00002588,-0.0
 0000795,-0.00001981,0.00017749,0.00017384,0.00008007,0.00009494,-0.000
 02248,-0.00001925,-0.00013591,0.00002439,-0.00155077,-0.00037873,0.000
 62585,-0.00212231,-0.00351009,0.00039749,0.10981023,-0.00007376,0.0002
 6697,0.00022394,0.00013372,-0.00026018,-0.00039887,0.00151103,0.001753
 59,-0.00100225,0.00118765,0.00081878,-0.00010012,0.01259161,-0.0182782
 9,-0.00999715,0.10079002,-0.23070941,-0.07222298,0.00338169,-0.0058237
 1,-0.00322574,-0.00176027,0.00080721,0.00225809,-0.00000528,0.00001741
 ,0.00003918,0.00000373,-0.00002454,-0.00001725,-0.00009753,0.00025741,
 0.00023446,0.00008600,0.00010922,-0.00001315,-0.00003232,0.00035216,0.
 00044158,-0.00137992,0.00055838,-0.00012635,-0.00218711,-0.00279680,0.
 00130046,-0.11125304,0.24701524,0.00003585,0.00009410,0.00004046,0.000
 03460,-0.00020341,-0.00024135,0.00133561,0.00045425,0.00027588,0.00027
 520,-0.00005341,0.00065422,0.00004006,-0.00394213,-0.00387841,0.043316
 43,-0.07255260,-0.07512550,-0.01182101,0.01976044,0.00832747,0.0011971
 7,-0.00105754,-0.00156257,0.00001546,0.00002691,0.00001464,-0.00000049
 ,-0.00003565,-0.00000195,-0.00003213,0.00003802,0.00006478,0.00002428,
 0.00005061,0.00000217,-0.00009306,0.00026811,-0.00013642,0.00028743,0.
 00027045,0.00035693,-0.00096721,-0.00071815,0.00070482,-0.04444032,0.0
 7846393,0.07906095,-0.00034655,-0.00029719,0.00001110,-0.00030902,0.00
 064645,0.00026660,-0.00134670,-0.00214577,0.00004172,-0.00028218,-0.00
 040892,-0.00002879,-0.00625719,0.00568152,0.01579804,-0.10813163,-0.02
 167073,0.10427980,0.01069415,-0.00193490,-0.01525281,0.00301244,-0.000
 74422,0.00101289,-0.00008366,-0.00002460,-0.00009770,-0.00000717,-0.00
 001799,0.00000444,0.00000343,-0.00010087,-0.00006463,-0.00002836,-0.00
 005305,0.00003152,0.00001031,-0.00003412,-0.00014977,0.00035254,-0.000
 04262,0.00010084,0.00121197,0.00074172,-0.00058783,-0.00603266,-0.0032
 0532,0.01222277,0.10734723,-0.00013922,-0.00007897,0.00004400,-0.00025
 349,0.00032496,0.00037573,-0.00091462,-0.00168807,-0.00021038,0.000705
 57,0.00008169,-0.00003449,-0.00606451,0.00031618,0.01999633,-0.0216458
 0,-0.05416434,0.03786320,-0.00642795,-0.00227020,0.00597249,-0.0002415
 0,-0.00772343,0.00471870,-0.00005534,0.00000805,-0.00002702,-0.0000097
 0,0.00000928,0.00000514,0.00001928,-0.00002156,-0.00005230,0.00003105,
 -0.00002746,-0.00005202,0.,0.00012660,0.00012504,-0.00050633,0.0001275
 3,-0.00024298,0.00039230,0.00148216,-0.00053439,0.01228928,0.00597904,
 -0.02352695,0.02276273,0.05767079,0.00004255,-0.00008049,0.00004647,-0
 .00037645,0.00007186,-0.00028355,0.00003021,-0.00086744,0.00037787,0.0
 0029477,0.00010229,-0.00016365,-0.00466283,0.00042954,0.00227749,0.104
 77300,0.03829957,-0.24871206,0.01188879,-0.00277938,-0.01190370,0.0013
 6494,0.00491199,0.00003337,-0.00004060,0.00000239,0.00000345,0.0000050
 4,0.00000552,-0.00000190,0.00001431,0.00000611,-0.00000592,-0.00000344
 ,0.00001983,0.00005716,-0.00003207,-0.00000573,0.00009454,-0.00014663,
 -0.00003199,-0.00001429,0.00030091,0.00068027,0.00077726,0.00414373,0.
 00231436,-0.00794851,-0.11652330,-0.04473185,0.26494324,-0.00017303,-0
 .00000079,0.00007077,0.00012472,0.00024656,0.00016432,-0.00071690,-0.0
 0043503,-0.00106429,0.00048167,0.00012896,0.00021756,-0.00251592,-0.00
 195614,-0.00037593,-0.00306444,-0.00550424,-0.01055956,-0.05461780,-0.
 02021479,-0.02739513,-0.00734819,-0.01354007,-0.01775902,-0.00002966,-
 0.00001753,-0.00002053,0.00001393,0.00000252,0.00000075,0.00001415,0.0
 0005509,0.00002318,0.00004122,-0.00003372,-0.00001994,0.00001501,-0.00
 000870,0.00007268,-0.00015972,-0.00002914,-0.00011457,-0.00042547,-0.0
 0011543,-0.00078588,0.00171132,0.00014210,0.00014582,-0.00101119,-0.00
 020757,-0.00075715,0.06021913,-0.00008705,0.00006526,-0.00003120,0.000
 41743,0.00013707,-0.00001771,-0.00005979,0.00063092,-0.00074178,-0.000
 09375,0.00014034,0.00036858,0.00060184,-0.00396498,0.00333098,0.001308
 55,0.01185612,0.01407266,-0.02231409,-0.12672630,-0.11438865,-0.006401
 46,-0.01325469,-0.01732931,0.00002014,-0.00001809,-0.00000681,-0.00000
 006,-0.00000061,0.00000096,0.00000631,-0.00001005,0.00000463,0.0001121
 0,0.00002497,-0.00006090,-0.00000046,0.00003867,-0.00008379,-0.0001032
 0,0.00004794,-0.00009616,0.00010442,0.00044816,-0.00076901,-0.00128494
 ,0.00143590,-0.00074927,0.00148491,-0.00040456,0.00185509,0.02605970,0
 .13264929,-0.00017005,-0.00007866,0.00006501,-0.00011757,0.00021998,0.
 00008100,0.00035711,-0.00122884,0.00003669,-0.00016866,0.00017048,0.00
 011635,-0.00108801,0.00310675,-0.00195377,-0.00074609,-0.01119968,-0.0
 1369830,-0.03092950,-0.11713048,-0.22899740,0.00071712,0.00384043,0.00
 911806,-0.00002847,-0.00000439,-0.00003093,0.00002162,-0.00000027,-0.0
 0000606,-0.00000500,0.00003079,0.00001147,-0.00005564,-0.00004306,0.00
 004058,-0.00001826,0.00003080,-0.00003497,-0.00002589,-0.00003325,-0.0
 0008330,0.00015239,-0.00040303,0.00038884,0.00100635,0.00025215,0.0019
 1160,-0.00225736,0.00022087,-0.00143052,0.03632321,0.12814116,0.240513
 12,-0.00019718,-0.00008073,-0.00001212,0.00031271,0.00038656,0.0001816
 3,-0.00119093,0.00015262,-0.00097429,-0.00009797,0.00003195,-0.0000325
 9,-0.00028142,-0.00041811,0.00213519,-0.00882599,0.00675891,0.00419471
 ,-0.23017879,0.09278248,0.06789506,-0.01868015,-0.00367019,0.00914595,
 -0.00001849,-0.00003306,-0.00002596,0.00001986,0.00001969,0.00000836,-
 0.00001331,-0.00002342,-0.00004642,0.00000530,-0.00000844,0.00002318,0
 .00003100,0.00001870,-0.00005630,0.00001319,-0.00003961,-0.00010843,-0
 .00040790,-0.00022324,-0.00044972,-0.00110130,-0.00019152,-0.00174788,
 0.00109286,0.00007961,-0.00012629,0.00527539,-0.00111786,-0.00176746,0
 .25750786,0.00003984,0.00004849,-0.00001761,0.00017810,0.00005177,-0.0
 0000573,-0.00074055,0.00101197,-0.00084012,0.00007100,0.00014137,-0.00
 011327,-0.00071246,-0.00125719,0.00133853,0.01236004,-0.00821852,-0.00
 624906,0.09605558,-0.09263656,-0.03767615,-0.02455754,0.00937958,0.011
 38373,0.00000937,-0.00000875,0.00001694,-0.00000428,0.00000161,0.00000
 720,-0.00000566,-0.00000204,-0.00002858,0.00005752,0.00007086,0.000005
 50,0.00000044,0.00003372,0.00002300,-0.00030279,-0.00000246,-0.0000853
 8,0.00005580,0.00008877,-0.00020326,0.00214831,-0.00053879,0.00271804,
 -0.00092229,0.00096063,-0.00036324,0.01525162,-0.00594800,-0.00583686,
 -0.09386281,0.09856793,-0.00000479,-0.00005564,0.00002831,-0.00021564,
 -0.00004879,0.00004355,0.00005850,-0.00078547,0.00031837,-0.00006126,-
 0.00002918,0.00006214,0.00015090,0.00070823,-0.00162934,-0.01934248,0.
 01125691,0.00817911,0.06718075,-0.03671440,-0.07787373,0.00589469,0.00
 034758,-0.00023904,-0.00002097,-0.00000290,-0.00000934,0.00000405,0.00
 000217,0.00000165,-0.00000741,0.00000931,0.00000403,-0.00003763,-0.000
 05663,0.00000296,-0.00003043,-0.00006025,-0.00003488,0.00022576,0.0000
 1386,-0.00005694,-0.00005200,-0.00028790,0.00002665,-0.00354165,0.0011
 1637,-0.00237839,0.00140758,-0.00014515,0.00168001,0.02297604,-0.01250
 321,-0.00805962,-0.07587959,0.03611869,0.07922158,-0.00000149,0.000112
 59,0.00035662,-0.00030979,-0.00013091,-0.00030483,-0.00104819,0.000964
 41,0.00036159,-0.00296344,-0.00128056,-0.00098355,0.01527645,-0.004676
 86,-0.01805244,-0.00084651,-0.00019045,-0.00025972,-0.02019783,0.01041
 655,0.02266678,-0.17131300,0.03916307,0.16769028,-0.00001167,0.0000169
 8,-0.00000453,0.00006393,-0.00000277,0.00002172,0.00021827,0.00021456,
 0.00024282,-0.00023839,-0.00056849,-0.00003691,-0.00006219,-0.00020528
 ,0.00024766,0.00111264,0.00002135,0.00071671,-0.00191309,0.00086269,-0
 .00361167,0.00034757,0.00035852,0.00017144,0.00011136,0.00018619,-0.00
 018947,0.00216578,0.00134726,-0.00119985,-0.00326475,-0.00511923,0.001
 29560,0.18287435,-0.00010261,-0.00057237,0.00041873,0.00087005,0.00213
 216,-0.00187805,-0.00027293,0.00066757,-0.00109644,-0.00050547,-0.0006
 5896,0.00149061,-0.00433851,-0.00433686,0.01133996,-0.00015236,-0.0043
 1523,0.00122074,-0.01983847,-0.00233522,0.02397754,0.06824587,-0.04291
 200,-0.11279807,-0.00008073,-0.00007524,-0.00009063,0.00023161,0.00002
 389,0.00005625,0.00004287,-0.00016290,0.00018819,-0.00065472,-0.000720
 38,0.00081927,-0.00033792,0.00078976,-0.00087112,-0.00030066,-0.000067
 80,-0.00007714,-0.00122746,0.00007693,-0.00180965,0.00001072,-0.000939
 58,0.00069425,0.00028528,-0.00070834,0.00016131,0.00017659,0.00285265,
 -0.00005490,-0.00056154,-0.00174438,0.00111641,-0.04148962,0.05300628,
 0.00018065,0.00013722,0.00012101,-0.00086225,-0.00091253,-0.00034009,0
 .00311542,-0.00264679,0.00143579,0.00096776,-0.00014319,0.00111181,0.0
 1661627,-0.01017790,-0.03233901,-0.00043653,0.00146749,-0.00076189,-0.
 00205443,-0.00154590,0.00080271,0.15643679,-0.06631948,-0.26225720,-0.
 00001213,0.00008925,0.00006088,0.00001127,-0.00005929,-0.00004587,0.00
 005359,0.00017515,0.00017793,-0.00033683,-0.00022434,-0.00014608,0.000
 02405,-0.00007872,0.00053063,0.00033316,0.00001803,0.00036468,-0.00153
 318,0.00352157,-0.00355266,0.00033913,0.00045936,-0.00014082,-0.000215
 12,0.00023602,0.00017324,-0.00114234,-0.00099627,0.00201214,-0.0023570
 2,-0.00019238,0.00071293,-0.16912824,0.07719274,0.29207986\\-0.0000009
 9,-0.00001192,0.00000466,-0.00000074,0.00001739,-0.00000910,0.00000293
 ,-0.00000461,0.00001021,0.00000386,-0.00000269,-0.00001052,-0.00000508
 ,0.00000802,0.00000049,-0.00000041,-0.00000553,0.00000720,0.00000072,0
 .00000840,-0.00000406,-0.00000420,-0.00000822,0.00000068,-0.00000069,-
 0.00000004,-0.00000281,0.00000308,0.00000581,0.00000076,0.00000210,-0.
 00000548,-0.00000025,0.00000159,-0.00000285,0.00000335,0.,-0.00000079,
 0.00000116,-0.00000080,-0.00000526,0.00000191,-0.00000145,0.00000116,-
 0.00000342,-0.00000046,0.00000194,-0.00000133,0.00000082,0.00000307,-0
 .00000155,-0.00000035,-0.00000147,0.00000046,-0.00000104,0.00000130,-0
 .00000033,0.00000111,0.00000177,0.00000250\\\@


 The theorems and results in mathematical physics are
 not theorems and results about Nature, but about our
 description of it.
                   --Gerard 't Hooft
 Job cpu time:       0 days  1 hours 44 minutes 26.5 seconds.
 Elapsed time:       0 days  0 hours 26 minutes 20.6 seconds.
 File lengths (MBytes):  RWF=    127 Int=      0 D2E=      0 Chk=      8 Scr=      1
 Normal termination of Gaussian 16 at Tue Jun  1 04:41:36 2021.
### All Done ###
