### Starting Gaussian ###
 Entering Gaussian System, Link 0=g16
 Initial command:
 /cluster/software/gaussian/gaussian-16-A.03/avx2/g16/l1.exe "/local/scratch/yxie/Gau-27953.inp" -scrdir="/local/scratch/yxie/"
 Entering Link 1 = /cluster/software/gaussian/gaussian-16-A.03/avx2/g16/l1.exe PID=     27954.
  
 Copyright (c) 1988,1990,1992,1993,1995,1998,2003,2009,2016,
            Gaussian, Inc.  All Rights Reserved.
  
 This is part of the Gaussian(R) 16 program.  It is based on
 the Gaussian(R) 09 system (copyright 2009, Gaussian, Inc.),
 the Gaussian(R) 03 system (copyright 2003, Gaussian, Inc.),
 the Gaussian(R) 98 system (copyright 1998, Gaussian, Inc.),
 the Gaussian(R) 94 system (copyright 1995, Gaussian, Inc.),
 the Gaussian 92(TM) system (copyright 1992, Gaussian, Inc.),
 the Gaussian 90(TM) system (copyright 1990, Gaussian, Inc.),
 the Gaussian 88(TM) system (copyright 1988, Gaussian, Inc.),
 the Gaussian 86(TM) system (copyright 1986, Carnegie Mellon
 University), and the Gaussian 82(TM) system (copyright 1983,
 Carnegie Mellon University). Gaussian is a federally registered
 trademark of Gaussian, Inc.
  
 This software contains proprietary and confidential information,
 including trade secrets, belonging to Gaussian, Inc.
  
 This software is provided under written license and may be
 used, copied, transmitted, or stored only in accord with that
 written license.
  
 The following legend is applicable only to US Government
 contracts under FAR:
  
                    RESTRICTED RIGHTS LEGEND
  
 Use, reproduction and disclosure by the US Government is
 subject to restrictions as set forth in subparagraphs (a)
 and (c) of the Commercial Computer Software - Restricted
 Rights clause in FAR 52.227-19.
  
 Gaussian, Inc.
 340 Quinnipiac St., Bldg. 40, Wallingford CT 06492
  
  
 ---------------------------------------------------------------
 Warning -- This program may not be used in any manner that
 competes with the business of Gaussian, Inc. or will provide
 assistance to any competitor of Gaussian, Inc.  The licensee
 of this program is prohibited from giving any competitor of
 Gaussian, Inc. access to this program.  By using this program,
 the user acknowledges that Gaussian, Inc. is engaged in the
 business of creating and licensing software in the field of
 computational chemistry and represents and warrants to the
 licensee that it is not a competitor of Gaussian, Inc. and that
 it will not use this program in any manner prohibited above.
 ---------------------------------------------------------------
  

 Cite this work as:
 Gaussian 16, Revision A.03,
 M. J. Frisch, G. W. Trucks, H. B. Schlegel, G. E. Scuseria, 
 M. A. Robb, J. R. Cheeseman, G. Scalmani, V. Barone, 
 G. A. Petersson, H. Nakatsuji, X. Li, M. Caricato, A. V. Marenich, 
 J. Bloino, B. G. Janesko, R. Gomperts, B. Mennucci, H. P. Hratchian, 
 J. V. Ortiz, A. F. Izmaylov, J. L. Sonnenberg, D. Williams-Young, 
 F. Ding, F. Lipparini, F. Egidi, J. Goings, B. Peng, A. Petrone, 
 T. Henderson, D. Ranasinghe, V. G. Zakrzewski, J. Gao, N. Rega, 
 G. Zheng, W. Liang, M. Hada, M. Ehara, K. Toyota, R. Fukuda, 
 J. Hasegawa, M. Ishida, T. Nakajima, Y. Honda, O. Kitao, H. Nakai, 
 T. Vreven, K. Throssell, J. A. Montgomery, Jr., J. E. Peralta, 
 F. Ogliaro, M. J. Bearpark, J. J. Heyd, E. N. Brothers, K. N. Kudin, 
 V. N. Staroverov, T. A. Keith, R. Kobayashi, J. Normand, 
 K. Raghavachari, A. P. Rendell, J. C. Burant, S. S. Iyengar, 
 J. Tomasi, M. Cossi, J. M. Millam, M. Klene, C. Adamo, R. Cammi, 
 J. W. Ochterski, R. L. Martin, K. Morokuma, O. Farkas, 
 J. B. Foresman, and D. J. Fox, Gaussian, Inc., Wallingford CT, 2016.
 
 ******************************************
 Gaussian 16:  ES64L-G16RevA.03 25-Dec-2016
                31-May-2021 
 ******************************************
 %chk=NdNCCpNpCNdNN.chk
 %NProcShared=20
 Will use up to   20 processors via shared memory.
 -----------------------------
 # opt freq b3lyp/6-31g(2df,p)
 -----------------------------
 1/18=20,19=15,26=3,38=1/1,3;
 2/9=110,12=2,17=6,18=5,40=1/2;
 3/5=1,6=6,7=104,11=2,25=1,30=1,71=1,74=-5/1,2,3;
 4//1;
 5/5=2,38=5/2;
 6/7=2,8=2,9=2,10=2,28=1/1;
 7//1,2,3,16;
 1/18=20,19=15,26=3/3(2);
 2/9=110/2;
 99//99;
 2/9=110/2;
 3/5=1,6=6,7=104,11=2,25=1,30=1,71=1,74=-5/1,2,3;
 4/5=5,16=3,69=1/1;
 5/5=2,38=5/2;
 7//1,2,3,16;
 1/18=20,19=15,26=3/3(-5);
 2/9=110/2;
 6/7=2,8=2,9=2,10=2,19=2,28=1/1;
 99/9=1/99;
 -------------------
 Title Card Required
 -------------------
 Symbolic Z-matrix:
 Charge =  0 Multiplicity = 1
 N                     1.06904   0.03755  -0.20253 
 N                     2.30726   0.051    -0.05766 
 C                     3.02494   0.17574  -1.34509 
 C                     4.54819   0.10802  -1.0798 
 N                     4.89709  -1.16203  -0.40338 
 C                     5.34727   0.28437  -2.38984 
 N                     6.79872   0.29197  -2.10786 
 N                     7.47286   0.37712  -3.14937 
 N                     8.7689    0.41566  -2.82222 
 H                     0.57675  -0.04884   0.69802 
 H                     2.76255   1.1303   -1.81717 
 H                     2.7184   -0.63447  -2.01991 
 H                     4.81688   0.92211  -0.39456 
 H                     4.64127  -1.94358  -1.00571 
 H                     4.30586  -1.24852   0.42507 
 H                     5.07037   1.23509  -2.86315 
 H                     5.10647  -0.52483  -3.09111 
 H                     9.45329   0.37812  -3.56324 
 H                     9.01285   0.20226  -1.85878 
 

 GradGradGradGradGradGradGradGradGradGradGradGradGradGradGradGradGradGrad
 Berny optimization.
 Initialization pass.
                           ----------------------------
                           !    Initial Parameters    !
                           ! (Angstroms and Degrees)  !
 --------------------------                            --------------------------
 ! Name  Definition              Value          Derivative Info.                !
 --------------------------------------------------------------------------------
 ! R1    R(1,2)                  1.2467         estimate D2E/DX2                !
 ! R2    R(1,10)                 1.03           estimate D2E/DX2                !
 ! R3    R(2,3)                  1.4792         estimate D2E/DX2                !
 ! R4    R(3,4)                  1.5477         estimate D2E/DX2                !
 ! R5    R(3,11)                 1.0968         estimate D2E/DX2                !
 ! R6    R(3,12)                 1.0981         estimate D2E/DX2                !
 ! R7    R(4,5)                  1.4806         estimate D2E/DX2                !
 ! R8    R(4,6)                  1.5446         estimate D2E/DX2                !
 ! R9    R(4,13)                 1.0975         estimate D2E/DX2                !
 ! R10   R(5,14)                 1.0193         estimate D2E/DX2                !
 ! R11   R(5,15)                 1.0215         estimate D2E/DX2                !
 ! R12   R(6,7)                  1.4786         estimate D2E/DX2                !
 ! R13   R(6,16)                 1.0975         estimate D2E/DX2                !
 ! R14   R(6,17)                 1.0975         estimate D2E/DX2                !
 ! R15   R(7,8)                  1.2436         estimate D2E/DX2                !
 ! R16   R(8,9)                  1.3372         estimate D2E/DX2                !
 ! R17   R(9,18)                 1.0094         estimate D2E/DX2                !
 ! R18   R(9,19)                 1.0165         estimate D2E/DX2                !
 ! A1    A(2,1,10)             111.9633         estimate D2E/DX2                !
 ! A2    A(1,2,3)              112.435          estimate D2E/DX2                !
 ! A3    A(2,3,4)              108.9439         estimate D2E/DX2                !
 ! A4    A(2,3,11)             109.3867         estimate D2E/DX2                !
 ! A5    A(2,3,12)             109.7065         estimate D2E/DX2                !
 ! A6    A(4,3,11)             110.3241         estimate D2E/DX2                !
 ! A7    A(4,3,12)             110.3535         estimate D2E/DX2                !
 ! A8    A(11,3,12)            108.1116         estimate D2E/DX2                !
 ! A9    A(3,4,5)              110.3507         estimate D2E/DX2                !
 ! A10   A(3,4,6)              111.0263         estimate D2E/DX2                !
 ! A11   A(3,4,13)             108.3927         estimate D2E/DX2                !
 ! A12   A(5,4,6)              111.3147         estimate D2E/DX2                !
 ! A13   A(5,4,13)             107.0581         estimate D2E/DX2                !
 ! A14   A(6,4,13)             108.5544         estimate D2E/DX2                !
 ! A15   A(4,5,14)             109.1827         estimate D2E/DX2                !
 ! A16   A(4,5,15)             107.8641         estimate D2E/DX2                !
 ! A17   A(14,5,15)            105.6087         estimate D2E/DX2                !
 ! A18   A(4,6,7)              110.284          estimate D2E/DX2                !
 ! A19   A(4,6,16)             109.5201         estimate D2E/DX2                !
 ! A20   A(4,6,17)             110.1352         estimate D2E/DX2                !
 ! A21   A(7,6,16)             108.9929         estimate D2E/DX2                !
 ! A22   A(7,6,17)             109.9387         estimate D2E/DX2                !
 ! A23   A(16,6,17)            107.9248         estimate D2E/DX2                !
 ! A24   A(6,7,8)              111.887          estimate D2E/DX2                !
 ! A25   A(7,8,9)              108.8127         estimate D2E/DX2                !
 ! A26   A(8,9,18)             118.4537         estimate D2E/DX2                !
 ! A27   A(8,9,19)             117.2852         estimate D2E/DX2                !
 ! A28   A(18,9,19)            121.6864         estimate D2E/DX2                !
 ! D1    D(10,1,2,3)          -179.9604         estimate D2E/DX2                !
 ! D2    D(1,2,3,4)           -177.0025         estimate D2E/DX2                !
 ! D3    D(1,2,3,11)            62.3286         estimate D2E/DX2                !
 ! D4    D(1,2,3,12)           -56.1023         estimate D2E/DX2                !
 ! D5    D(2,3,4,5)             58.1078         estimate D2E/DX2                !
 ! D6    D(2,3,4,6)           -177.9799         estimate D2E/DX2                !
 ! D7    D(2,3,4,13)           -58.8317         estimate D2E/DX2                !
 ! D8    D(11,3,4,5)           178.1992         estimate D2E/DX2                !
 ! D9    D(11,3,4,6)           -57.8885         estimate D2E/DX2                !
 ! D10   D(11,3,4,13)           61.2597         estimate D2E/DX2                !
 ! D11   D(12,3,4,5)           -62.3952         estimate D2E/DX2                !
 ! D12   D(12,3,4,6)            61.5171         estimate D2E/DX2                !
 ! D13   D(12,3,4,13)         -179.3347         estimate D2E/DX2                !
 ! D14   D(3,4,5,14)            61.0218         estimate D2E/DX2                !
 ! D15   D(3,4,5,15)           -53.2738         estimate D2E/DX2                !
 ! D16   D(6,4,5,14)           -62.7237         estimate D2E/DX2                !
 ! D17   D(6,4,5,15)          -177.0193         estimate D2E/DX2                !
 ! D18   D(13,4,5,14)          178.7859         estimate D2E/DX2                !
 ! D19   D(13,4,5,15)           64.4904         estimate D2E/DX2                !
 ! D20   D(3,4,6,7)            176.8761         estimate D2E/DX2                !
 ! D21   D(3,4,6,16)            56.9322         estimate D2E/DX2                !
 ! D22   D(3,4,6,17)           -61.6078         estimate D2E/DX2                !
 ! D23   D(5,4,6,7)            -59.763          estimate D2E/DX2                !
 ! D24   D(5,4,6,16)          -179.7069         estimate D2E/DX2                !
 ! D25   D(5,4,6,17)            61.753          estimate D2E/DX2                !
 ! D26   D(13,4,6,7)            57.825          estimate D2E/DX2                !
 ! D27   D(13,4,6,16)          -62.119          estimate D2E/DX2                !
 ! D28   D(13,4,6,17)          179.341          estimate D2E/DX2                !
 ! D29   D(4,6,7,8)            177.2314         estimate D2E/DX2                !
 ! D30   D(16,6,7,8)           -62.5069         estimate D2E/DX2                !
 ! D31   D(17,6,7,8)            55.5988         estimate D2E/DX2                !
 ! D32   D(6,7,8,9)            178.3293         estimate D2E/DX2                !
 ! D33   D(7,8,9,18)           173.0924         estimate D2E/DX2                !
 ! D34   D(7,8,9,19)            10.962          estimate D2E/DX2                !
 ! D35   D(8,9,18,19)         -161.3079         estimate D2E/DX2                !
 --------------------------------------------------------------------------------
 Trust Radius=3.00D-01 FncErr=1.00D-07 GrdErr=1.00D-06 EigMax=2.50D+02 EigMin=1.00D-04
 Number of steps in this run=     91 maximum allowed number of steps=    114.
 GradGradGradGradGradGradGradGradGradGradGradGradGradGradGradGradGradGrad

                          Input orientation:                          
 ---------------------------------------------------------------------
 Center     Atomic      Atomic             Coordinates (Angstroms)
 Number     Number       Type             X           Y           Z
 ---------------------------------------------------------------------
      1          7           0        1.069040    0.037550   -0.202530
      2          7           0        2.307260    0.051000   -0.057660
      3          6           0        3.024940    0.175740   -1.345090
      4          6           0        4.548190    0.108020   -1.079800
      5          7           0        4.897090   -1.162030   -0.403380
      6          6           0        5.347270    0.284370   -2.389840
      7          7           0        6.798720    0.291970   -2.107860
      8          7           0        7.472860    0.377120   -3.149370
      9          7           0        8.768900    0.415660   -2.822220
     10          1           0        0.576750   -0.048840    0.698020
     11          1           0        2.762550    1.130300   -1.817170
     12          1           0        2.718400   -0.634470   -2.019910
     13          1           0        4.816880    0.922110   -0.394560
     14          1           0        4.641270   -1.943580   -1.005710
     15          1           0        4.305860   -1.248520    0.425070
     16          1           0        5.070370    1.235090   -2.863150
     17          1           0        5.106470   -0.524830   -3.091110
     18          1           0        9.453290    0.378120   -3.563240
     19          1           0        9.012850    0.202260   -1.858780
 ---------------------------------------------------------------------
                    Distance matrix (angstroms):
                    1          2          3          4          5
     1  N    0.000000
     2  N    1.246739   0.000000
     3  C    2.269380   1.479223   0.000000
     4  C    3.588740   2.463694   1.547661   0.000000
     5  N    4.016628   2.880657   2.486241   1.480643   0.000000
     6  C    4.811289   3.838644   2.548827   1.544614   2.498151
     7  N    6.043529   4.943137   3.851849   2.481054   2.938633
     8  N    7.057484   6.028967   4.804162   3.592942   4.067436
     9  N    8.142087   7.037653   5.935701   4.576578   4.830197
    10  H    1.029953   1.890948   3.196618   4.354031   4.595390
    11  H    2.582468   2.113777   1.096765   2.185699   3.436545
    12  H    2.544576   2.118804   1.098084   2.187060   2.763726
    13  H    3.855597   2.677784   2.161394   1.097493   2.085702
    14  H    4.163028   3.213215   2.686860   2.055046   1.019346
    15  H    3.539048   2.432320   2.608206   2.040480   1.021451
    16  H    4.952135   4.111888   2.758716   2.173315   3.438994
    17  H    4.996099   4.167610   2.805735   2.181179   2.770155
    18  H    9.039138   7.966294   6.803296   5.504583   5.754627
    19  H    8.116305   6.944915   6.009962   4.533087   4.573725
                    6          7          8          9         10
     6  C    0.000000
     7  N    1.478607   0.000000
     8  N    2.259120   1.243567   0.000000
     9  N    3.451339   2.099338   1.337248   0.000000
    10  H    5.692431   6.833888   7.908235   8.928559   0.000000
    11  H    2.779267   4.132550   4.952682   6.131645   3.534724
    12  H    2.809283   4.185097   4.990379   6.193143   3.509526
    13  H    2.160826   2.694469   3.865258   4.665671   4.484995
    14  H    2.716250   3.296515   4.242503   5.089504   4.797193
    15  H    3.370164   3.873396   5.044722   5.764817   3.926830
    16  H    1.097527   2.108822   2.567098   3.788438   5.875630
    17  H    1.097529   2.120767   2.533123   3.790807   5.924731
    18  H    4.271423   3.028580   2.023213   1.009411   9.855638
    19  H    3.704760   2.229901   2.016871   1.016498   8.818620
                   11         12         13         14         15
    11  H    0.000000
    12  H    1.776926   0.000000
    13  H    2.507476   3.077064   0.000000
    14  H    3.692803   2.537676   2.935391   0.000000
    15  H    3.615001   2.979096   2.375830   1.625651   0.000000
    16  H    2.535959   3.120588   2.501230   3.706501   4.191084
    17  H    3.139481   2.619612   3.073903   2.564792   3.678074
    18  H    6.955612   6.983262   5.642052   5.923410   6.711826
    19  H    6.318959   6.351864   4.502032   4.943993   5.429225
                   16         17         18         19
    16  H    0.000000
    17  H    1.774989   0.000000
    18  H    4.520455   4.464647   0.000000
    19  H    4.197457   4.160181   1.769208   0.000000
 Stoichiometry    C3H10N6
 Framework group  C1[X(C3H10N6)]
 Deg. of freedom    51
 Full point group                 C1      NOp   1
 Largest Abelian subgroup         C1      NOp   1
 Largest concise Abelian subgroup C1      NOp   1
                         Standard orientation:                         
 ---------------------------------------------------------------------
 Center     Atomic      Atomic             Coordinates (Angstroms)
 Number     Number       Type             X           Y           Z
 ---------------------------------------------------------------------
      1          7           0       -4.060167   -0.368226   -0.027817
      2          7           0       -2.973293    0.146078   -0.357292
      3          6           0       -1.811462   -0.609348    0.159992
      4          6           0       -0.512926    0.137149   -0.229623
      5          7           0       -0.528710    1.514975    0.312271
      6          6           0        0.735790   -0.638448    0.244709
      7          7           0        1.966418    0.049732   -0.200534
      8          7           0        2.991582   -0.520133    0.212685
      9          7           0        4.063580    0.128947   -0.253950
     10          1           0       -4.863844    0.162950   -0.392176
     11          1           0       -1.813637   -1.618960   -0.268459
     12          1           0       -1.886072   -0.701626    1.251645
     13          1           0       -0.476954    0.221720   -1.323261
     14          1           0       -0.582518    1.474266    1.329381
     15          1           0       -1.396020    1.961117    0.008801
     16          1           0        0.720472   -1.651505   -0.177247
     17          1           0        0.731965   -0.728052    1.338567
     18          1           0        4.975643   -0.147350    0.078783
     19          1           0        3.906686    1.031703   -0.694045
 ---------------------------------------------------------------------
 Rotational constants (GHZ):           6.6312324           0.5568673           0.5294297
 Standard basis: 6-31G(2df,p) (6D, 7F)
 There are   329 symmetry adapted cartesian basis functions of A   symmetry.
 There are   302 symmetry adapted basis functions of A   symmetry.
   302 basis functions,   466 primitive gaussians,   329 cartesian basis functions
    35 alpha electrons       35 beta electrons
       nuclear repulsion energy       439.4648189884 Hartrees.
 NAtoms=   19 NActive=   19 NUniq=   19 SFac= 1.00D+00 NAtFMM=   60 NAOKFM=F Big=F
 Integral buffers will be    131072 words long.
 Raffenetti 2 integral format.
 Two-electron integral symmetry is turned on.
 One-electron integrals computed using PRISM.
 PrsmSu:  requested number of processors reduced to:  13 ShMem   1 Linda.
 NBasis=   302 RedAO= T EigKep=  2.74D-04  NBF=   302
 NBsUse=   302 1.00D-06 EigRej= -1.00D+00 NBFU=   302
 ExpMin= 1.61D-01 ExpMax= 4.17D+03 ExpMxC= 6.27D+02 IAcc=3 IRadAn=         5 AccDes= 0.00D+00
 Harris functional with IExCor=  402 and IRadAn=       5 diagonalized for initial guess.
 HarFok:  IExCor=  402 AccDes= 0.00D+00 IRadAn=         5 IDoV= 1 UseB2=F ITyADJ=14
 ICtDFT=  3500011 ScaDFX=  1.000000  1.000000  1.000000  1.000000
 FoFCou: FMM=F IPFlag=           0 FMFlag=      100000 FMFlg1=           0
         NFxFlg=           0 DoJE=T BraDBF=F KetDBF=T FulRan=T
         wScrn=  0.000000 ICntrl=       500 IOpCl=  0 I1Cent=   200000004 NGrid=           0
         NMat0=    1 NMatS0=      1 NMatT0=    0 NMatD0=    1 NMtDS0=    0 NMtDT0=    0
 Petite list used in FoFCou.
 Requested convergence on RMS density matrix=1.00D-08 within 128 cycles.
 Requested convergence on MAX density matrix=1.00D-06.
 Requested convergence on             energy=1.00D-06.
 No special actions if energy rises.
 Integral accuracy reduced to 1.0D-05 until final iterations.
 Initial convergence to 1.0D-05 achieved.  Increase integral accuracy.
 SCF Done:  E(RB3LYP) =  -448.744332890     A.U. after   14 cycles
            NFock= 14  Conv=0.86D-08     -V/T= 2.0076

 **********************************************************************

            Population analysis using the SCF density.

 **********************************************************************

 Orbital symmetries:
       Occupied  (A) (A) (A) (A) (A) (A) (A) (A) (A) (A) (A) (A)
                 (A) (A) (A) (A) (A) (A) (A) (A) (A) (A) (A) (A)
                 (A) (A) (A) (A) (A) (A) (A) (A) (A) (A) (A)
       Virtual   (A) (A) (A) (A) (A) (A) (A) (A) (A) (A) (A) (A)
                 (A) (A) (A) (A) (A) (A) (A) (A) (A) (A) (A) (A)
                 (A) (A) (A) (A) (A) (A) (A) (A) (A) (A) (A) (A)
                 (A) (A) (A) (A) (A) (A) (A) (A) (A) (A) (A) (A)
                 (A) (A) (A) (A) (A) (A) (A) (A) (A) (A) (A) (A)
                 (A) (A) (A) (A) (A) (A) (A) (A) (A) (A) (A) (A)
                 (A) (A) (A) (A) (A) (A) (A) (A) (A) (A) (A) (A)
                 (A) (A) (A) (A) (A) (A) (A) (A) (A) (A) (A) (A)
                 (A) (A) (A) (A) (A) (A) (A) (A) (A) (A) (A) (A)
                 (A) (A) (A) (A) (A) (A) (A) (A) (A) (A) (A) (A)
                 (A) (A) (A) (A) (A) (A) (A) (A) (A) (A) (A) (A)
                 (A) (A) (A) (A) (A) (A) (A) (A) (A) (A) (A) (A)
                 (A) (A) (A) (A) (A) (A) (A) (A) (A) (A) (A) (A)
                 (A) (A) (A) (A) (A) (A) (A) (A) (A) (A) (A) (A)
                 (A) (A) (A) (A) (A) (A) (A) (A) (A) (A) (A) (A)
                 (A) (A) (A) (A) (A) (A) (A) (A) (A) (A) (A) (A)
                 (A) (A) (A) (A) (A) (A) (A) (A) (A) (A) (A) (A)
                 (A) (A) (A) (A) (A) (A) (A) (A) (A) (A) (A) (A)
                 (A) (A) (A) (A) (A) (A) (A) (A) (A) (A) (A) (A)
                 (A) (A) (A) (A) (A) (A) (A) (A) (A) (A) (A) (A)
                 (A) (A) (A) (A) (A) (A) (A) (A) (A) (A) (A) (A)
                 (A) (A) (A) (A) (A) (A) (A) (A) (A) (A) (A) (A)
                 (A) (A) (A)
 The electronic state is 1-A.
 Alpha  occ. eigenvalues --  -14.39987 -14.38903 -14.37404 -14.35878 -14.33561
 Alpha  occ. eigenvalues --  -14.29978 -10.21052 -10.20801 -10.20356  -1.06034
 Alpha  occ. eigenvalues --   -1.02433  -0.88916  -0.86862  -0.76893  -0.73208
 Alpha  occ. eigenvalues --   -0.64654  -0.59793  -0.57468  -0.53772  -0.49838
 Alpha  occ. eigenvalues --   -0.48461  -0.48077  -0.45270  -0.44415  -0.42558
 Alpha  occ. eigenvalues --   -0.40235  -0.38610  -0.37061  -0.36225  -0.34455
 Alpha  occ. eigenvalues --   -0.33619  -0.23758  -0.23535  -0.22983  -0.22198
 Alpha virt. eigenvalues --   -0.05149  -0.00702   0.08521   0.09133   0.10530
 Alpha virt. eigenvalues --    0.12899   0.13088   0.14558   0.15300   0.16288
 Alpha virt. eigenvalues --    0.17729   0.19555   0.20765   0.21860   0.23356
 Alpha virt. eigenvalues --    0.25250   0.28002   0.28736   0.34814   0.36669
 Alpha virt. eigenvalues --    0.44025   0.46340   0.50294   0.51039   0.51908
 Alpha virt. eigenvalues --    0.52538   0.55052   0.55876   0.56362   0.57668
 Alpha virt. eigenvalues --    0.58391   0.60340   0.61363   0.62832   0.63953
 Alpha virt. eigenvalues --    0.64653   0.65670   0.66021   0.68276   0.69207
 Alpha virt. eigenvalues --    0.70371   0.71819   0.73283   0.74341   0.74703
 Alpha virt. eigenvalues --    0.76646   0.77776   0.78225   0.79181   0.80117
 Alpha virt. eigenvalues --    0.80835   0.82258   0.83583   0.84290   0.85398
 Alpha virt. eigenvalues --    0.86718   0.87123   0.89341   0.92418   0.94612
 Alpha virt. eigenvalues --    0.95705   0.97932   1.00043   1.01526   1.03615
 Alpha virt. eigenvalues --    1.04543   1.06992   1.07797   1.12438   1.15769
 Alpha virt. eigenvalues --    1.17676   1.18913   1.21346   1.24580   1.27519
 Alpha virt. eigenvalues --    1.32236   1.32619   1.36709   1.39309   1.39991
 Alpha virt. eigenvalues --    1.44071   1.44675   1.46455   1.47737   1.51486
 Alpha virt. eigenvalues --    1.53114   1.54235   1.55062   1.55964   1.57801
 Alpha virt. eigenvalues --    1.62842   1.66751   1.68398   1.71334   1.73195
 Alpha virt. eigenvalues --    1.74992   1.77089   1.78703   1.80902   1.81607
 Alpha virt. eigenvalues --    1.84783   1.89345   1.91032   1.93231   1.94469
 Alpha virt. eigenvalues --    1.96528   1.97708   2.02794   2.04536   2.12115
 Alpha virt. eigenvalues --    2.14661   2.22069   2.23848   2.24930   2.34652
 Alpha virt. eigenvalues --    2.37561   2.39012   2.41799   2.43898   2.46808
 Alpha virt. eigenvalues --    2.50289   2.55240   2.60037   2.62962   2.69304
 Alpha virt. eigenvalues --    2.71500   2.74026   2.75453   2.75638   2.81494
 Alpha virt. eigenvalues --    2.82945   2.83448   2.83972   2.86839   2.88695
 Alpha virt. eigenvalues --    2.91522   2.93298   2.95443   2.98389   3.04708
 Alpha virt. eigenvalues --    3.04969   3.06795   3.09029   3.12392   3.13905
 Alpha virt. eigenvalues --    3.20689   3.22568   3.24504   3.26821   3.31097
 Alpha virt. eigenvalues --    3.31509   3.34032   3.36255   3.36692   3.39372
 Alpha virt. eigenvalues --    3.40284   3.42100   3.44938   3.50568   3.50855
 Alpha virt. eigenvalues --    3.52652   3.54446   3.58858   3.61220   3.63191
 Alpha virt. eigenvalues --    3.64283   3.67617   3.71438   3.75425   3.77628
 Alpha virt. eigenvalues --    3.81103   3.83530   3.86569   3.88776   3.93909
 Alpha virt. eigenvalues --    3.95698   3.96431   3.98838   4.02011   4.05440
 Alpha virt. eigenvalues --    4.05723   4.08792   4.10267   4.10522   4.13984
 Alpha virt. eigenvalues --    4.15162   4.16053   4.16713   4.21185   4.22732
 Alpha virt. eigenvalues --    4.23803   4.26258   4.27316   4.29216   4.30209
 Alpha virt. eigenvalues --    4.32361   4.35224   4.35715   4.38801   4.40129
 Alpha virt. eigenvalues --    4.41278   4.43284   4.44008   4.45066   4.45541
 Alpha virt. eigenvalues --    4.48973   4.52201   4.53940   4.55273   4.57419
 Alpha virt. eigenvalues --    4.58262   4.59893   4.61553   4.64594   4.65005
 Alpha virt. eigenvalues --    4.66120   4.68149   4.70432   4.71811   4.74086
 Alpha virt. eigenvalues --    4.75092   4.78076   4.79027   4.82135   4.84010
 Alpha virt. eigenvalues --    4.84660   4.87360   4.88826   4.90956   4.92008
 Alpha virt. eigenvalues --    4.95754   4.96749   4.99033   5.04079   5.08147
 Alpha virt. eigenvalues --    5.12813   5.13746   5.16037   5.20532   5.22487
 Alpha virt. eigenvalues --    5.30935   5.33876   5.39176   5.41303   5.45667
 Alpha virt. eigenvalues --    5.52544   5.53831   5.62269   5.65606   5.76071
 Alpha virt. eigenvalues --    5.78906   5.93225   6.25829   6.45276   8.85348
 Alpha virt. eigenvalues --    9.58372  10.23243  11.22302  11.26091  11.29850
 Alpha virt. eigenvalues --   11.41515  11.42597  11.52088  11.93689  12.32067
 Alpha virt. eigenvalues --   12.70961  13.46599
          Condensed to atoms (all electrons):
               1          2          3          4          5          6
     1  N    6.547551   0.478145  -0.074767   0.000851   0.000802  -0.000083
     2  N    0.478145   6.474833   0.336541  -0.023083  -0.011537   0.001085
     3  C   -0.074767   0.336541   4.942821   0.381854  -0.044780  -0.051487
     4  C    0.000851  -0.023083   0.381854   4.783423   0.370972   0.396854
     5  N    0.000802  -0.011537  -0.044780   0.370972   6.569453  -0.020608
     6  C   -0.000083   0.001085  -0.051487   0.396854  -0.020608   4.858251
     7  N    0.000000  -0.000013   0.001289  -0.031196   0.000149   0.359212
     8  N   -0.000000  -0.000000  -0.000035   0.000179   0.000470  -0.081591
     9  N    0.000000  -0.000000   0.000000  -0.000239  -0.000006   0.005563
    10  H    0.312378  -0.087724   0.008534  -0.000632   0.000070  -0.000003
    11  H    0.002261  -0.026424   0.330861  -0.028744   0.005741   0.002681
    12  H    0.002932  -0.027024   0.338804  -0.027216  -0.003982  -0.000898
    13  H    0.000202   0.000652  -0.046683   0.350054  -0.029751  -0.036516
    14  H   -0.000002  -0.000117  -0.002965  -0.058383   0.333782  -0.004864
    15  H   -0.000945   0.019563  -0.009078  -0.051453   0.338591   0.005451
    16  H    0.000011   0.000063   0.002259  -0.034170   0.003415   0.349991
    17  H    0.000010   0.000000  -0.003002  -0.026702  -0.006913   0.336530
    18  H    0.000000   0.000000   0.000000   0.000003  -0.000000  -0.000586
    19  H    0.000000   0.000000   0.000002   0.000170  -0.000012  -0.000930
               7          8          9         10         11         12
     1  N    0.000000  -0.000000   0.000000   0.312378   0.002261   0.002932
     2  N   -0.000013  -0.000000  -0.000000  -0.087724  -0.026424  -0.027024
     3  C    0.001289  -0.000035   0.000000   0.008534   0.330861   0.338804
     4  C   -0.031196   0.000179  -0.000239  -0.000632  -0.028744  -0.027216
     5  N    0.000149   0.000470  -0.000006   0.000070   0.005741  -0.003982
     6  C    0.359212  -0.081591   0.005563  -0.000003   0.002681  -0.000898
     7  N    6.549934   0.442860  -0.133371  -0.000000   0.000060   0.000022
     8  N    0.442860   6.356234   0.389804  -0.000000   0.000002   0.000009
     9  N   -0.133371   0.389804   6.456158  -0.000000   0.000000   0.000000
    10  H   -0.000000  -0.000000  -0.000000   0.521923  -0.000462  -0.000630
    11  H    0.000060   0.000002   0.000000  -0.000462   0.620156  -0.024812
    12  H    0.000022   0.000009   0.000000  -0.000630  -0.024812   0.611388
    13  H    0.002690   0.000126  -0.000004  -0.000008  -0.000844   0.006199
    14  H   -0.000134  -0.000051  -0.000000   0.000002   0.000076   0.005570
    15  H    0.000156   0.000004  -0.000000  -0.000163   0.000547   0.001265
    16  H   -0.026827   0.000864   0.000299  -0.000000   0.003869  -0.000303
    17  H   -0.027469   0.002586   0.000361   0.000000  -0.000247   0.004972
    18  H    0.006450  -0.031073   0.346563   0.000000   0.000000   0.000000
    19  H    0.041728  -0.049226   0.315286   0.000000   0.000000   0.000000
              13         14         15         16         17         18
     1  N    0.000202  -0.000002  -0.000945   0.000011   0.000010   0.000000
     2  N    0.000652  -0.000117   0.019563   0.000063   0.000000   0.000000
     3  C   -0.046683  -0.002965  -0.009078   0.002259  -0.003002   0.000000
     4  C    0.350054  -0.058383  -0.051453  -0.034170  -0.026702   0.000003
     5  N   -0.029751   0.333782   0.338591   0.003415  -0.006913  -0.000000
     6  C   -0.036516  -0.004864   0.005451   0.349991   0.336530  -0.000586
     7  N    0.002690  -0.000134   0.000156  -0.026827  -0.027469   0.006450
     8  N    0.000126  -0.000051   0.000004   0.000864   0.002586  -0.031073
     9  N   -0.000004  -0.000000  -0.000000   0.000299   0.000361   0.346563
    10  H   -0.000008   0.000002  -0.000163  -0.000000   0.000000   0.000000
    11  H   -0.000844   0.000076   0.000547   0.003869  -0.000247   0.000000
    12  H    0.006199   0.005570   0.001265  -0.000303   0.004972   0.000000
    13  H    0.648018   0.007107  -0.001900  -0.002921   0.006564   0.000001
    14  H    0.007107   0.531692  -0.030627  -0.000133   0.005059   0.000000
    15  H   -0.001900  -0.030627   0.495624  -0.000192  -0.000117   0.000000
    16  H   -0.002921  -0.000133  -0.000192   0.630360  -0.034666   0.000027
    17  H    0.006564   0.005059  -0.000117  -0.034666   0.642996   0.000065
    18  H    0.000001   0.000000   0.000000   0.000027   0.000065   0.437769
    19  H    0.000031   0.000001   0.000000   0.000144   0.000225  -0.022938
              19
     1  N    0.000000
     2  N    0.000000
     3  C    0.000002
     4  C    0.000170
     5  N   -0.000012
     6  C   -0.000930
     7  N    0.041728
     8  N   -0.049226
     9  N    0.315286
    10  H    0.000000
    11  H    0.000000
    12  H    0.000000
    13  H    0.000031
    14  H    0.000001
    15  H    0.000000
    16  H    0.000144
    17  H    0.000225
    18  H   -0.022938
    19  H    0.468801
 Mulliken charges:
               1
     1  N   -0.269346
     2  N   -0.134959
     3  C   -0.110169
     4  C   -0.002545
     5  N   -0.505857
     6  C   -0.118053
     7  N   -0.185540
     8  N   -0.031161
     9  N   -0.380413
    10  H    0.246714
    11  H    0.115278
    12  H    0.113704
    13  H    0.096983
    14  H    0.213988
    15  H    0.233274
    16  H    0.107913
    17  H    0.099750
    18  H    0.263720
    19  H    0.246718
 Sum of Mulliken charges =  -0.00000
 Mulliken charges with hydrogens summed into heavy atoms:
               1
     1  N   -0.022632
     2  N   -0.134959
     3  C    0.118814
     4  C    0.094438
     5  N   -0.058595
     6  C    0.089610
     7  N   -0.185540
     8  N   -0.031161
     9  N    0.130026
 Electronic spatial extent (au):  <R**2>=           2008.0493
 Charge=             -0.0000 electrons
 Dipole moment (field-independent basis, Debye):
    X=              0.5877    Y=             -0.0084    Z=              0.4448  Tot=              0.7371
 Quadrupole moment (field-independent basis, Debye-Ang):
   XX=            -37.9913   YY=            -55.9493   ZZ=            -52.8050
   XY=             -1.1190   XZ=              0.9319   YZ=              1.5210
 Traceless Quadrupole moment (field-independent basis, Debye-Ang):
   XX=             10.9239   YY=             -7.0341   ZZ=             -3.8898
   XY=             -1.1190   XZ=              0.9319   YZ=              1.5210
 Octapole moment (field-independent basis, Debye-Ang**2):
  XXX=             64.8286  YYY=              1.6069  ZZZ=              2.9640  XYY=              2.0182
  XXY=             31.9493  XXZ=            -11.6389  XZZ=             -1.3573  YZZ=              3.3572
  YYZ=             -1.4866  XYZ=             -5.6547
 Hexadecapole moment (field-independent basis, Debye-Ang**3):
 XXXX=          -1484.8124 YYYY=           -225.9221 ZZZZ=            -93.5985 XXXY=            -37.7182
 XXXZ=             62.9960 YYYX=             -5.6511 YYYZ=              4.8959 ZZZX=             -1.0973
 ZZZY=              4.2021 XXYY=           -409.8497 XXZZ=           -393.9143 YYZZ=            -50.7687
 XXYZ=             -1.2024 YYXZ=             -5.7852 ZZXY=              2.7756
 N-N= 4.394648189884D+02 E-N=-1.925261704658D+03  KE= 4.453397776706D+02
 PrsmSu:  requested number of processors reduced to:  13 ShMem   1 Linda.
 Calling FoFJK, ICntrl=      2127 FMM=F ISym2X=0 I1Cent= 0 IOpClX= 0 NMat=1 NMatS=1 NMatT=0.
 ***** Axes restored to original set *****
 -------------------------------------------------------------------
 Center     Atomic                   Forces (Hartrees/Bohr)
 Number     Number              X              Y              Z
 -------------------------------------------------------------------
      1        7           0.008474556    0.001059166   -0.017231081
      2        7          -0.018216978   -0.001019772    0.006317997
      3        6           0.010601254    0.006185482   -0.001777008
      4        6          -0.004048595   -0.012049599   -0.000954164
      5        7           0.000974585    0.004991036   -0.001184863
      6        6           0.001609694   -0.000849351    0.009819078
      7        7          -0.025951769   -0.001564966    0.003267358
      8        7           0.009823981   -0.000070420    0.007435713
      9        7           0.017665508    0.003697341   -0.009080822
     10        1           0.010057776    0.000082629    0.008430024
     11        1          -0.004292554    0.000022611    0.000250051
     12        1          -0.000958536    0.000897872    0.000818863
     13        1           0.000493724   -0.000758102   -0.000639397
     14        1           0.000622385    0.000915392   -0.000222218
     15        1           0.002415783    0.001127627   -0.002734001
     16        1          -0.001887429   -0.000756446   -0.000495838
     17        1          -0.001048859   -0.000325159   -0.000794361
     18        1          -0.005916035   -0.002445438    0.002301264
     19        1          -0.000418494    0.000860098   -0.003526596
 -------------------------------------------------------------------
 Cartesian Forces:  Max     0.025951769 RMS     0.006893457

 GradGradGradGradGradGradGradGradGradGradGradGradGradGradGradGradGradGrad
 Berny optimization.
 FormGI is forming the generalized inverse of G from B-inverse, IUseBI=4.
 Internal  Forces:  Max     0.038633095 RMS     0.006299718
 Search for a local minimum.
 Step number   1 out of a maximum of   91
 All quantities printed in internal units (Hartrees-Bohrs-Radians)
 Mixed Optimization -- RFO/linear search
 Second derivative matrix not updated -- first step.
 ITU=  0
     Eigenvalues ---    0.00230   0.00230   0.00625   0.00644   0.00652
     Eigenvalues ---    0.01544   0.02125   0.03322   0.03364   0.03847
     Eigenvalues ---    0.04587   0.04660   0.04877   0.05020   0.05683
     Eigenvalues ---    0.05734   0.05795   0.11068   0.11178   0.13612
     Eigenvalues ---    0.13715   0.15680   0.16000   0.16000   0.16000
     Eigenvalues ---    0.16000   0.16735   0.18062   0.21991   0.22015
     Eigenvalues ---    0.25000   0.25000   0.25000   0.27851   0.28114
     Eigenvalues ---    0.33895   0.33957   0.33957   0.33961   0.34042
     Eigenvalues ---    0.34496   0.34659   0.34730   0.42787   0.44107
     Eigenvalues ---    0.44443   0.44902   0.46071   0.57826   0.84454
     Eigenvalues ---    0.85660
 RFO step:  Lambda=-1.30146391D-02 EMin= 2.30000000D-03
 Linear search not attempted -- first point.
 Iteration  1 RMS(Cart)=  0.08704719 RMS(Int)=  0.00589486
 Iteration  2 RMS(Cart)=  0.00787273 RMS(Int)=  0.00014259
 Iteration  3 RMS(Cart)=  0.00006965 RMS(Int)=  0.00013292
 Iteration  4 RMS(Cart)=  0.00000001 RMS(Int)=  0.00013292
 Variable       Old X    -DE/DX   Delta X   Delta X   Delta X     New X
                                 (Linear)    (Quad)   (Total)
    R1        2.35599  -0.01740   0.00000  -0.02029  -0.02029   2.33571
    R2        1.94633   0.00256   0.00000   0.00580   0.00580   1.95213
    R3        2.79533  -0.00232   0.00000  -0.00646  -0.00646   2.78886
    R4        2.92466  -0.00471   0.00000  -0.01617  -0.01617   2.90849
    R5        2.07258   0.00094   0.00000   0.00266   0.00266   2.07524
    R6        2.07508  -0.00090   0.00000  -0.00255  -0.00255   2.07253
    R7        2.79801  -0.00698   0.00000  -0.01950  -0.01950   2.77851
    R8        2.91890  -0.01090   0.00000  -0.03707  -0.03707   2.88183
    R9        2.07396  -0.00084   0.00000  -0.00238  -0.00238   2.07158
   R10        1.92628  -0.00073   0.00000  -0.00159  -0.00159   1.92470
   R11        1.93026  -0.00371   0.00000  -0.00817  -0.00817   1.92209
   R12        2.79416  -0.00463   0.00000  -0.01285  -0.01285   2.78131
   R13        2.07402   0.00003   0.00000   0.00010   0.00010   2.07412
   R14        2.07403   0.00098   0.00000   0.00277   0.00277   2.07680
   R15        2.35000   0.01401   0.00000   0.01611   0.01611   2.36611
   R16        2.52703   0.00852   0.00000   0.01441   0.01441   2.54144
   R17        1.90751  -0.00561   0.00000  -0.01184  -0.01184   1.89567
   R18        1.92090  -0.00362   0.00000  -0.00784  -0.00784   1.91306
    A1        1.95413  -0.02503   0.00000  -0.14466  -0.14466   1.80947
    A2        1.96236  -0.00074   0.00000  -0.00280  -0.00280   1.95956
    A3        1.90143   0.00042   0.00000   0.00195   0.00196   1.90339
    A4        1.90916  -0.00270   0.00000  -0.01896  -0.01909   1.89007
    A5        1.91474  -0.00084   0.00000  -0.01155  -0.01158   1.90316
    A6        1.92552   0.00418   0.00000   0.03329   0.03323   1.95875
    A7        1.92603   0.00026   0.00000   0.00359   0.00352   1.92955
    A8        1.88690  -0.00137   0.00000  -0.00878  -0.00910   1.87780
    A9        1.92598   0.00787   0.00000   0.05098   0.05099   1.97698
   A10        1.93777  -0.00388   0.00000  -0.01764  -0.01762   1.92016
   A11        1.89181  -0.00115   0.00000  -0.00750  -0.00780   1.88401
   A12        1.94281  -0.00337   0.00000  -0.01557  -0.01547   1.92734
   A13        1.86852  -0.00135   0.00000  -0.00492  -0.00514   1.86338
   A14        1.89463   0.00192   0.00000  -0.00574  -0.00599   1.88865
   A15        1.90560  -0.00064   0.00000  -0.00264  -0.00264   1.90296
   A16        1.88258  -0.00064   0.00000  -0.00258  -0.00258   1.88000
   A17        1.84322   0.00087   0.00000   0.00753   0.00753   1.85075
   A18        1.92482  -0.00139   0.00000  -0.00424  -0.00423   1.92059
   A19        1.91149  -0.00017   0.00000  -0.00397  -0.00398   1.90750
   A20        1.92222  -0.00035   0.00000  -0.00427  -0.00428   1.91795
   A21        1.90228   0.00108   0.00000   0.00829   0.00828   1.91056
   A22        1.91879   0.00144   0.00000   0.01189   0.01188   1.93067
   A23        1.88364  -0.00057   0.00000  -0.00767  -0.00773   1.87591
   A24        1.95280  -0.00050   0.00000  -0.00189  -0.00189   1.95091
   A25        1.89914   0.03863   0.00000   0.14689   0.14689   2.04603
   A26        2.06741  -0.00421   0.00000  -0.02870  -0.02925   2.03816
   A27        2.04701   0.00254   0.00000   0.00999   0.00940   2.05642
   A28        2.12383   0.00111   0.00000   0.00220   0.00167   2.12549
    D1       -3.14090   0.00105   0.00000   0.02280   0.02280  -3.11810
    D2       -3.08928   0.00121   0.00000   0.01035   0.01029  -3.07899
    D3        1.08784  -0.00251   0.00000  -0.02000  -0.01980   1.06804
    D4       -0.97917   0.00128   0.00000   0.00887   0.00872  -0.97045
    D5        1.01417   0.00111   0.00000  -0.00139  -0.00137   1.01280
    D6       -3.10634  -0.00034   0.00000   0.00253   0.00242  -3.10391
    D7       -1.02681  -0.00102   0.00000  -0.01970  -0.01972  -1.04652
    D8        3.11016   0.00060   0.00000  -0.00312  -0.00309   3.10708
    D9       -1.01035  -0.00084   0.00000   0.00080   0.00071  -1.00963
   D10        1.06918  -0.00152   0.00000  -0.02143  -0.02143   1.04776
   D11       -1.08900   0.00172   0.00000   0.00939   0.00949  -1.07951
   D12        1.07368   0.00027   0.00000   0.01331   0.01329   1.08697
   D13       -3.12998  -0.00041   0.00000  -0.00892  -0.00885  -3.13883
   D14        1.06503  -0.00111   0.00000  -0.00201  -0.00208   1.06295
   D15       -0.92980  -0.00147   0.00000  -0.00815  -0.00822  -0.93802
   D16       -1.09474   0.00061   0.00000  -0.00489  -0.00486  -1.09960
   D17       -3.08957   0.00025   0.00000  -0.01104  -0.01100  -3.10057
   D18        3.12040   0.00100   0.00000   0.01380   0.01383   3.13424
   D19        1.12557   0.00064   0.00000   0.00765   0.00769   1.13326
   D20        3.08707  -0.00315   0.00000  -0.06010  -0.06007   3.02700
   D21        0.99365  -0.00352   0.00000  -0.06519  -0.06516   0.92850
   D22       -1.07526  -0.00250   0.00000  -0.05081  -0.05080  -1.12606
   D23       -1.04306   0.00180   0.00000  -0.01815  -0.01817  -1.06123
   D24       -3.13648   0.00143   0.00000  -0.02324  -0.02325   3.12346
   D25        1.07779   0.00245   0.00000  -0.00886  -0.00889   1.06890
   D26        1.00924  -0.00063   0.00000  -0.03676  -0.03676   0.97248
   D27       -1.08418  -0.00099   0.00000  -0.04185  -0.04184  -1.12602
   D28        3.13009   0.00002   0.00000  -0.02747  -0.02748   3.10261
   D29        3.09327  -0.00072   0.00000  -0.03599  -0.03598   3.05729
   D30       -1.09095  -0.00111   0.00000  -0.03827  -0.03830  -1.12925
   D31        0.97038  -0.00032   0.00000  -0.03569  -0.03566   0.93472
   D32        3.11243  -0.00134   0.00000  -0.02880  -0.02880   3.08363
   D33        3.02103  -0.00297   0.00000  -0.08968  -0.08969   2.93134
   D34        0.19132  -0.00129   0.00000  -0.03463  -0.03461   0.15671
   D35       -2.81535   0.00156   0.00000   0.05649   0.05629  -2.75906
         Item               Value     Threshold  Converged?
 Maximum Force            0.038633     0.000450     NO 
 RMS     Force            0.006300     0.000300     NO 
 Maximum Displacement     0.312787     0.001800     NO 
 RMS     Displacement     0.085823     0.001200     NO 
 Predicted change in Energy=-7.074489D-03
 GradGradGradGradGradGradGradGradGradGradGradGradGradGradGradGradGradGrad

                          Input orientation:                          
 ---------------------------------------------------------------------
 Center     Atomic      Atomic             Coordinates (Angstroms)
 Number     Number       Type             X           Y           Z
 ---------------------------------------------------------------------
      1          7           0        1.039156    0.076533   -0.289386
      2          7           0        2.260495    0.058489   -0.100412
      3          6           0        3.022989    0.191085   -1.357001
      4          6           0        4.525853    0.069371   -1.048081
      5          7           0        4.883630   -1.197677   -0.393528
      6          6           0        5.338111    0.256711   -2.325094
      7          7           0        6.774724    0.297166   -2.007734
      8          7           0        7.477662    0.352667   -3.042401
      9          7           0        8.807785    0.463338   -2.877443
     10          1           0        0.643689    0.000123    0.661877
     11          1           0        2.769635    1.157154   -1.813619
     12          1           0        2.707630   -0.596757   -2.051754
     13          1           0        4.793478    0.871963   -0.350983
     14          1           0        4.641927   -1.970494   -1.011335
     15          1           0        4.292700   -1.299273    0.428071
     16          1           0        5.043446    1.197507   -2.807541
     17          1           0        5.120212   -0.558033   -3.029724
     18          1           0        9.377469    0.320833   -3.690740
     19          1           0        9.178370    0.356333   -1.941461
 ---------------------------------------------------------------------
                    Distance matrix (angstroms):
                    1          2          3          4          5
     1  N    0.000000
     2  N    1.236004   0.000000
     3  C    2.255774   1.475803   0.000000
     4  C    3.568295   2.455614   1.539106   0.000000
     5  N    4.051474   2.923134   2.513748   1.470325   0.000000
     6  C    4.759999   3.802660   2.510240   1.524999   2.460233
     7  N    5.991506   4.906435   3.809229   2.455656   2.901112
     8  N    7.007832   5.996722   4.765585   3.573618   4.018594
     9  N    8.197516   7.123399   5.987465   4.672977   4.932321
    10  H    1.033022   1.788450   3.126244   4.242634   4.530531
    11  H    2.546682   2.097944   1.098170   2.203094   3.468554
    12  H    2.518545   2.106422   1.096734   2.181059   2.801035
    13  H    3.838156   2.672177   2.147161   1.096231   2.072040
    14  H    4.206126   3.258492   2.722659   2.043496   1.018505
    15  H    3.604599   2.500534   2.649493   2.026468   1.017126
    16  H    4.861279   4.046075   2.683132   2.153205   3.404395
    17  H    4.956526   4.139921   2.785233   2.161899   2.722984
    18  H    9.008682   7.975625   6.770716   5.530376   5.776856
    19  H    8.309901   7.164856   6.185274   4.746198   4.822430
                    6          7          8          9         10
     6  C    0.000000
     7  N    1.471805   0.000000
     8  N    2.258631   1.252094   0.000000
     9  N    3.519434   2.217509   1.344874   0.000000
    10  H    5.570048   6.693627   7.781334   8.910321   0.000000
    11  H    2.769382   4.100975   4.931797   6.170280   3.462145
    12  H    2.778948   4.164407   4.963466   6.246395   3.461201
    13  H    2.138288   2.645855   3.836436   4.760739   4.359672
    14  H    2.677888   3.268626   4.190907   5.173033   4.761184
    15  H    3.330749   3.826514   4.991700   5.866789   3.880512
    16  H    1.097579   2.108940   2.587339   3.835901   5.729612
    17  H    1.098996   2.124438   2.527273   3.829436   5.829126
    18  H    4.264447   3.099573   2.007641   1.003144   9.763557
    19  H    3.860659   2.405288   2.025954   1.012347   8.930007
                   11         12         13         14         15
    11  H    0.000000
    12  H    1.771088   0.000000
    13  H    2.513281   3.066027   0.000000
    14  H    3.732468   2.590585   2.922088   0.000000
    15  H    3.657723   3.025807   2.360502   1.626157   0.000000
    16  H    2.481880   3.040828   2.490610   3.663851   4.155324
    17  H    3.153726   2.603551   3.054062   2.509521   3.631880
    18  H    6.920006   6.929285   5.698306   5.903791   6.741233
    19  H    6.459841   6.541484   4.692842   5.182526   5.676749
                   16         17         18         19
    16  H    0.000000
    17  H    1.771209   0.000000
    18  H    4.509141   4.396997   0.000000
    19  H    4.307582   4.299887   1.760931   0.000000
 Stoichiometry    C3H10N6
 Framework group  C1[X(C3H10N6)]
 Deg. of freedom    51
 Full point group                 C1      NOp   1
 Largest Abelian subgroup         C1      NOp   1
 Largest concise Abelian subgroup C1      NOp   1
                         Standard orientation:                         
 ---------------------------------------------------------------------
 Center     Atomic      Atomic             Coordinates (Angstroms)
 Number     Number       Type             X           Y           Z
 ---------------------------------------------------------------------
      1          7           0       -4.045728   -0.424240   -0.013503
      2          7           0       -2.984884    0.112805   -0.350992
      3          6           0       -1.804502   -0.606654    0.165797
      4          6           0       -0.533482    0.171066   -0.219565
      5          7           0       -0.521444    1.551633    0.286146
      6          6           0        0.703919   -0.581542    0.257973
      7          7           0        1.920266    0.077510   -0.244384
      8          7           0        2.958532   -0.456534    0.207877
      9          7           0        4.136922    0.016743   -0.234945
     10          1           0       -4.769388    0.163651   -0.458289
     11          1           0       -1.811396   -1.623276   -0.249426
     12          1           0       -1.887232   -0.693331    1.255966
     13          1           0       -0.494964    0.234629   -1.313274
     14          1           0       -0.563508    1.533014    1.303612
     15          1           0       -1.379749    2.001788   -0.022431
     16          1           0        0.666771   -1.613467   -0.114088
     17          1           0        0.713541   -0.626637    1.356001
     18          1           0        4.957621   -0.279007    0.260316
     19          1           0        4.127058    0.859997   -0.795010
 ---------------------------------------------------------------------
 Rotational constants (GHZ):           6.6160048           0.5554038           0.5280969
 Standard basis: 6-31G(2df,p) (6D, 7F)
 There are   329 symmetry adapted cartesian basis functions of A   symmetry.
 There are   302 symmetry adapted basis functions of A   symmetry.
   302 basis functions,   466 primitive gaussians,   329 cartesian basis functions
    35 alpha electrons       35 beta electrons
       nuclear repulsion energy       439.6005477793 Hartrees.
 NAtoms=   19 NActive=   19 NUniq=   19 SFac= 1.00D+00 NAtFMM=   60 NAOKFM=F Big=F
 Integral buffers will be    131072 words long.
 Raffenetti 2 integral format.
 Two-electron integral symmetry is turned on.
 One-electron integrals computed using PRISM.
 PrsmSu:  requested number of processors reduced to:  13 ShMem   1 Linda.
 NBasis=   302 RedAO= T EigKep=  2.73D-04  NBF=   302
 NBsUse=   302 1.00D-06 EigRej= -1.00D+00 NBFU=   302
 Initial guess from the checkpoint file:  "NdNCCpNpCNdNN.chk"
 B after Tr=     0.000000    0.000000   -0.000000
         Rot=    0.999876    0.015673    0.000511    0.001173 Ang=   1.80 deg.
 ExpMin= 1.61D-01 ExpMax= 4.17D+03 ExpMxC= 6.27D+02 IAcc=2 IRadAn=         4 AccDes= 0.00D+00
 Harris functional with IExCor=  402 and IRadAn=       4 diagonalized for initial guess.
 HarFok:  IExCor=  402 AccDes= 0.00D+00 IRadAn=         4 IDoV= 1 UseB2=F ITyADJ=14
 ICtDFT=  3500011 ScaDFX=  1.000000  1.000000  1.000000  1.000000
 FoFCou: FMM=F IPFlag=           0 FMFlag=      100000 FMFlg1=           0
         NFxFlg=           0 DoJE=T BraDBF=F KetDBF=T FulRan=T
         wScrn=  0.000000 ICntrl=       500 IOpCl=  0 I1Cent=   200000004 NGrid=           0
         NMat0=    1 NMatS0=      1 NMatT0=    0 NMatD0=    1 NMtDS0=    0 NMtDT0=    0
 Petite list used in FoFCou.
 Requested convergence on RMS density matrix=1.00D-08 within 128 cycles.
 Requested convergence on MAX density matrix=1.00D-06.
 Requested convergence on             energy=1.00D-06.
 No special actions if energy rises.
 Integral accuracy reduced to 1.0D-05 until final iterations.
 Initial convergence to 1.0D-05 achieved.  Increase integral accuracy.
 SCF Done:  E(RB3LYP) =  -448.747134341     A.U. after   14 cycles
            NFock= 14  Conv=0.74D-09     -V/T= 2.0075
 PrsmSu:  requested number of processors reduced to:  13 ShMem   1 Linda.
 Calling FoFJK, ICntrl=      2127 FMM=F ISym2X=0 I1Cent= 0 IOpClX= 0 NMat=1 NMatS=1 NMatT=0.
 ***** Axes restored to original set *****
 -------------------------------------------------------------------
 Center     Atomic                   Forces (Hartrees/Bohr)
 Number     Number              X              Y              Z
 -------------------------------------------------------------------
      1        7          -0.003660866    0.000026209    0.007696612
      2        7           0.007387705    0.000900496   -0.005618059
      3        6           0.006196088    0.000052949    0.000354801
      4        6          -0.000755059   -0.002736005   -0.000056326
      5        7          -0.002981294    0.002959950   -0.001511765
      6        6           0.003619234    0.000066740    0.000800556
      7        7           0.017450903    0.003864449   -0.001616478
      8        7          -0.006487545   -0.002969682   -0.013156170
      9        7          -0.014296435    0.004258974    0.014741415
     10        1          -0.007926692   -0.000646058   -0.000686441
     11        1           0.000118776   -0.000372688    0.000255057
     12        1          -0.000783690   -0.000205214   -0.000649371
     13        1           0.000631244    0.000330556    0.000384857
     14        1           0.000276089   -0.000470756    0.000121062
     15        1           0.000546015   -0.000777390    0.000487123
     16        1          -0.000119319   -0.000367964   -0.000911928
     17        1           0.000471031    0.000046817   -0.001067931
     18        1          -0.002777346   -0.002400148   -0.000405145
     19        1           0.003091162   -0.001561234    0.000838131
 -------------------------------------------------------------------
 Cartesian Forces:  Max     0.017450903 RMS     0.004815116

 GradGradGradGradGradGradGradGradGradGradGradGradGradGradGradGradGradGrad
 Berny optimization.
 Using GEDIIS/GDIIS optimizer.
 FormGI is forming the generalized inverse of G from B-inverse, IUseBI=4.
 Internal  Forces:  Max     0.032971670 RMS     0.004852533
 Search for a local minimum.
 Step number   2 out of a maximum of   91
 All quantities printed in internal units (Hartrees-Bohrs-Radians)
 Mixed Optimization -- RFO/linear search
 Update second derivatives using D2CorX and points    1    2
 DE= -2.80D-03 DEPred=-7.07D-03 R= 3.96D-01
 Trust test= 3.96D-01 RLast= 2.96D-01 DXMaxT set to 3.00D-01
 ITU=  0  0
 Use linear search instead of GDIIS.
     Eigenvalues ---    0.00229   0.00230   0.00625   0.00644   0.00647
     Eigenvalues ---    0.01631   0.02124   0.03330   0.03363   0.03747
     Eigenvalues ---    0.04590   0.04770   0.04889   0.04956   0.05517
     Eigenvalues ---    0.05695   0.05777   0.11100   0.11131   0.13622
     Eigenvalues ---    0.13696   0.15120   0.15647   0.16000   0.16000
     Eigenvalues ---    0.16552   0.17302   0.18365   0.21942   0.21998
     Eigenvalues ---    0.24798   0.25000   0.27614   0.27963   0.33864
     Eigenvalues ---    0.33918   0.33954   0.33957   0.34037   0.34078
     Eigenvalues ---    0.34498   0.34670   0.40120   0.42865   0.44095
     Eigenvalues ---    0.44445   0.45119   0.45951   0.60319   0.84811
     Eigenvalues ---    0.90719
 RFO step:  Lambda=-1.78423553D-03 EMin= 2.29347586D-03
 Quartic linear search produced a step of -0.36421.
 Iteration  1 RMS(Cart)=  0.05894325 RMS(Int)=  0.00322492
 Iteration  2 RMS(Cart)=  0.00411718 RMS(Int)=  0.00018093
 Iteration  3 RMS(Cart)=  0.00002891 RMS(Int)=  0.00018017
 Iteration  4 RMS(Cart)=  0.00000000 RMS(Int)=  0.00018017
 Variable       Old X    -DE/DX   Delta X   Delta X   Delta X     New X
                                 (Linear)    (Quad)   (Total)
    R1        2.33571   0.01037   0.00739  -0.00174   0.00564   2.34135
    R2        1.95213   0.00245  -0.00211   0.00630   0.00419   1.95632
    R3        2.78886   0.00333   0.00235   0.00301   0.00536   2.79422
    R4        2.90849  -0.00159   0.00589  -0.01112  -0.00523   2.90325
    R5        2.07524  -0.00046  -0.00097   0.00039  -0.00058   2.07466
    R6        2.07253   0.00078   0.00093   0.00026   0.00119   2.07372
    R7        2.77851  -0.00240   0.00710  -0.01346  -0.00636   2.77215
    R8        2.88183   0.00127   0.01350  -0.01446  -0.00096   2.88087
    R9        2.07158   0.00064   0.00087   0.00007   0.00094   2.07252
   R10        1.92470   0.00022   0.00058  -0.00043   0.00015   1.92484
   R11        1.92209   0.00015   0.00298  -0.00359  -0.00062   1.92147
   R12        2.78131  -0.00283   0.00468  -0.01110  -0.00642   2.77489
   R13        2.07412   0.00012  -0.00004   0.00026   0.00023   2.07435
   R14        2.07680   0.00056  -0.00101   0.00232   0.00131   2.07811
   R15        2.36611  -0.01328  -0.00587  -0.00223  -0.00810   2.35802
   R16        2.54144  -0.01194  -0.00525  -0.00625  -0.01150   2.52995
   R17        1.89567  -0.00091   0.00431  -0.00676  -0.00245   1.89322
   R18        1.91306   0.00207   0.00286  -0.00077   0.00209   1.91515
    A1        1.80947   0.01476   0.05269  -0.01007   0.04262   1.85209
    A2        1.95956   0.00565   0.00102   0.01282   0.01384   1.97340
    A3        1.90339   0.00151  -0.00071   0.00560   0.00488   1.90826
    A4        1.89007  -0.00045   0.00695  -0.01051  -0.00352   1.88655
    A5        1.90316  -0.00082   0.00422  -0.00729  -0.00307   1.90009
    A6        1.95875  -0.00060  -0.01210   0.01298   0.00090   1.95965
    A7        1.92955   0.00040  -0.00128   0.00471   0.00345   1.93300
    A8        1.87780  -0.00010   0.00332  -0.00647  -0.00304   1.87476
    A9        1.97698  -0.00059  -0.01857   0.02194   0.00336   1.98034
   A10        1.92016   0.00039   0.00642  -0.00694  -0.00053   1.91963
   A11        1.88401  -0.00004   0.00284  -0.00481  -0.00187   1.88214
   A12        1.92734   0.00033   0.00563  -0.00552   0.00008   1.92742
   A13        1.86338   0.00020   0.00187  -0.00129   0.00066   1.86404
   A14        1.88865  -0.00030   0.00218  -0.00423  -0.00197   1.88668
   A15        1.90296   0.00068   0.00096   0.00291   0.00385   1.90681
   A16        1.88000   0.00171   0.00094   0.00698   0.00790   1.88790
   A17        1.85075  -0.00056  -0.00274   0.00472   0.00194   1.85269
   A18        1.92059   0.00086   0.00154   0.00143   0.00296   1.92355
   A19        1.90750   0.00078   0.00145   0.00223   0.00368   1.91119
   A20        1.91795   0.00012   0.00156  -0.00027   0.00129   1.91924
   A21        1.91056  -0.00087  -0.00302   0.00008  -0.00294   1.90763
   A22        1.93067  -0.00028  -0.00433   0.00535   0.00102   1.93169
   A23        1.87591  -0.00064   0.00282  -0.00906  -0.00622   1.86969
   A24        1.95091  -0.00449   0.00069  -0.01211  -0.01142   1.93949
   A25        2.04603  -0.03297  -0.05350  -0.01393  -0.06743   1.97860
   A26        2.03816  -0.00545   0.01065  -0.04202  -0.03220   2.00596
   A27        2.05642   0.00489  -0.00342   0.01579   0.01139   2.06781
   A28        2.12549  -0.00040  -0.00061  -0.00793  -0.00931   2.11618
    D1       -3.11810  -0.00136  -0.00831  -0.01379  -0.02210  -3.14020
    D2       -3.07899  -0.00039  -0.00375  -0.00169  -0.00541  -3.08440
    D3        1.06804  -0.00030   0.00721  -0.01446  -0.00731   1.06073
    D4       -0.97045   0.00052  -0.00318   0.00303  -0.00011  -0.97055
    D5        1.01280  -0.00020   0.00050  -0.01662  -0.01612   0.99667
    D6       -3.10391   0.00009  -0.00088  -0.01313  -0.01397  -3.11788
    D7       -1.04652  -0.00008   0.00718  -0.02490  -0.01771  -1.06424
    D8        3.10708  -0.00014   0.00112  -0.01780  -0.01669   3.09039
    D9       -1.00963   0.00016  -0.00026  -0.01430  -0.01453  -1.02416
   D10        1.04776  -0.00002   0.00780  -0.02608  -0.01827   1.02948
   D11       -1.07951  -0.00039  -0.00346  -0.01407  -0.01757  -1.09707
   D12        1.08697  -0.00010  -0.00484  -0.01057  -0.01541   1.07156
   D13       -3.13883  -0.00027   0.00322  -0.02235  -0.01915   3.12520
   D14        1.06295   0.00046   0.00076   0.00177   0.00257   1.06552
   D15       -0.93802  -0.00013   0.00299  -0.00892  -0.00592  -0.94394
   D16       -1.09960   0.00014   0.00177  -0.00105   0.00072  -1.09888
   D17       -3.10057  -0.00046   0.00401  -0.01175  -0.00776  -3.10834
   D18        3.13424   0.00021  -0.00504   0.00768   0.00265   3.13688
   D19        1.13326  -0.00039  -0.00280  -0.00301  -0.00584   1.12742
   D20        3.02700  -0.00055   0.02188  -0.10948  -0.08760   2.93940
   D21        0.92850  -0.00050   0.02373  -0.11186  -0.08814   0.84036
   D22       -1.12606  -0.00026   0.01850  -0.10202  -0.08352  -1.20958
   D23       -1.06123  -0.00079   0.00662  -0.09023  -0.08361  -1.14484
   D24        3.12346  -0.00074   0.00847  -0.09261  -0.08414   3.03931
   D25        1.06890  -0.00050   0.00324  -0.08278  -0.07953   0.98938
   D26        0.97248  -0.00054   0.01339  -0.09730  -0.08391   0.88856
   D27       -1.12602  -0.00049   0.01524  -0.09968  -0.08445  -1.21047
   D28        3.10261  -0.00025   0.01001  -0.08985  -0.07983   3.02278
   D29        3.05729  -0.00115   0.01311  -0.09458  -0.08147   2.97581
   D30       -1.12925  -0.00020   0.01395  -0.09090  -0.07694  -1.20619
   D31        0.93472  -0.00170   0.01299  -0.09874  -0.08576   0.84896
   D32        3.08363  -0.00018   0.01049  -0.01678  -0.00629   3.07734
   D33        2.93134  -0.00172   0.03267  -0.08666  -0.05416   2.87718
   D34        0.15671   0.00106   0.01261   0.01025   0.02303   0.17974
   D35       -2.75906   0.00178  -0.02050   0.09611   0.07508  -2.68399
         Item               Value     Threshold  Converged?
 Maximum Force            0.032972     0.000450     NO 
 RMS     Force            0.004853     0.000300     NO 
 Maximum Displacement     0.261102     0.001800     NO 
 RMS     Displacement     0.060529     0.001200     NO 
 Predicted change in Energy=-2.454797D-03
 GradGradGradGradGradGradGradGradGradGradGradGradGradGradGradGradGradGrad

                          Input orientation:                          
 ---------------------------------------------------------------------
 Center     Atomic      Atomic             Coordinates (Angstroms)
 Number     Number       Type             X           Y           Z
 ---------------------------------------------------------------------
      1          7           0        1.055241    0.116662   -0.255849
      2          7           0        2.282047    0.062369   -0.091241
      3          6           0        3.042696    0.211255   -1.350456
      4          6           0        4.542765    0.049376   -1.060773
      5          7           0        4.880352   -1.228994   -0.425344
      6          6           0        5.344211    0.233689   -2.344433
      7          7           0        6.774734    0.355597   -2.036281
      8          7           0        7.463720    0.315266   -3.075848
      9          7           0        8.770872    0.501037   -2.854034
     10          1           0        0.634020    0.003226    0.682992
     11          1           0        2.805048    1.194067   -1.778137
     12          1           0        2.700202   -0.548927   -2.063918
     13          1           0        4.836646    0.839481   -0.359218
     14          1           0        4.617544   -1.992445   -1.046298
     15          1           0        4.305479   -1.330837    0.407140
     16          1           0        5.005677    1.141328   -2.860698
     17          1           0        5.164091   -0.611767   -3.024197
     18          1           0        9.369299    0.242155   -3.614669
     19          1           0        9.104317    0.494502   -1.897028
 ---------------------------------------------------------------------
                    Distance matrix (angstroms):
                    1          2          3          4          5
     1  N    0.000000
     2  N    1.238990   0.000000
     3  C    2.270924   1.478640   0.000000
     4  C    3.579840   2.459880   1.536336   0.000000
     5  N    4.058447   2.920690   2.511400   1.466958   0.000000
     6  C    4.771912   3.805663   2.507082   1.524490   2.457135
     7  N    5.994968   4.904427   3.797275   2.455010   2.948683
     8  N    7.004317   5.985113   4.746920   3.558540   4.010449
     9  N    8.150416   7.066138   5.929310   4.614832   4.901805
    10  H    1.035237   1.821793   3.159100   4.280320   4.558302
    11  H    2.557340   2.097591   1.097864   2.201042   3.465279
    12  H    2.533381   2.107128   1.097363   2.181583   2.810777
    13  H    3.851256   2.683596   2.143706   1.096728   2.069994
    14  H    4.214635   3.254065   2.725610   2.043241   1.018582
    15  H    3.619234   2.506728   2.657407   2.028808   1.016799
    16  H    4.841604   4.031402   2.645592   2.155545   3.400747
    17  H    5.007695   4.166877   2.824728   2.162911   2.686170
    18  H    8.967775   7.916818   6.719636   5.463971   5.699712
    19  H    8.223373   7.070429   6.092800   4.658885   4.793555
                    6          7          8          9         10
     6  C    0.000000
     7  N    1.468406   0.000000
     8  N    2.243645   1.247809   0.000000
     9  N    3.474648   2.162045   1.338790   0.000000
    10  H    5.603955   6.725101   7.801991   8.886323   0.000000
    11  H    2.773150   4.065474   4.915239   6.101549   3.491220
    12  H    2.771634   4.173816   4.945901   6.211259   3.481306
    13  H    2.136746   2.608231   3.815285   4.670845   4.409942
    14  H    2.677475   3.338689   4.188714   5.170638   4.779290
    15  H    3.331345   3.861553   4.981501   5.825011   3.916048
    16  H    1.097699   2.103949   2.602047   3.819256   5.741463
    17  H    1.099689   2.122720   2.479991   3.778380   5.885831
    18  H    4.220771   3.039070   1.981641   1.001849   9.738176
    19  H    3.795602   2.337871   2.028127   1.013454   8.868133
                   11         12         13         14         15
    11  H    0.000000
    12  H    1.769375   0.000000
    13  H    2.503288   3.065627   0.000000
    14  H    3.738260   2.606817   2.922309   0.000000
    15  H    3.660856   3.048676   2.362144   1.627142   0.000000
    16  H    2.453057   2.967665   2.525289   3.641872   4.156999
    17  H    3.221612   2.645153   3.052122   2.473271   3.609480
    18  H    6.882469   6.892568   5.612460   5.845438   6.655188
    19  H    6.339110   6.490707   4.549383   5.199979   5.627601
                   16         17         18         19
    16  H    0.000000
    17  H    1.767814   0.000000
    18  H    4.518648   4.331468   0.000000
    19  H    4.259800   4.244964   1.756186   0.000000
 Stoichiometry    C3H10N6
 Framework group  C1[X(C3H10N6)]
 Deg. of freedom    51
 Full point group                 C1      NOp   1
 Largest Abelian subgroup         C1      NOp   1
 Largest concise Abelian subgroup C1      NOp   1
                         Standard orientation:                         
 ---------------------------------------------------------------------
 Center     Atomic      Atomic             Coordinates (Angstroms)
 Number     Number       Type             X           Y           Z
 ---------------------------------------------------------------------
      1          7           0       -4.042840   -0.431382   -0.043675
      2          7           0       -2.972989    0.109980   -0.355832
      3          6           0       -1.788161   -0.605942    0.163797
      4          6           0       -0.518947    0.179049   -0.201185
      5          7           0       -0.522413    1.559118    0.296170
      6          6           0        0.714933   -0.563729    0.298705
      7          7           0        1.930091    0.025859   -0.277484
      8          7           0        2.954796   -0.438771    0.262076
      9          7           0        4.092073    0.010364   -0.283119
     10          1           0       -4.791400    0.150735   -0.459023
     11          1           0       -1.788061   -1.618270   -0.261055
     12          1           0       -1.883544   -0.706601    1.252363
     13          1           0       -0.462256    0.236390   -1.294945
     14          1           0       -0.578967    1.549475    1.313135
     15          1           0       -1.372526    2.011587   -0.030110
     16          1           0        0.650368   -1.619832    0.006436
     17          1           0        0.751951   -0.533464    1.397355
     18          1           0        4.915169   -0.149236    0.265279
     19          1           0        4.041289    0.776766   -0.944284
 ---------------------------------------------------------------------
 Rotational constants (GHZ):           6.5051329           0.5593101           0.5327038
 Standard basis: 6-31G(2df,p) (6D, 7F)
 There are   329 symmetry adapted cartesian basis functions of A   symmetry.
 There are   302 symmetry adapted basis functions of A   symmetry.
   302 basis functions,   466 primitive gaussians,   329 cartesian basis functions
    35 alpha electrons       35 beta electrons
       nuclear repulsion energy       440.4148925604 Hartrees.
 NAtoms=   19 NActive=   19 NUniq=   19 SFac= 1.00D+00 NAtFMM=   60 NAOKFM=F Big=F
 Integral buffers will be    131072 words long.
 Raffenetti 2 integral format.
 Two-electron integral symmetry is turned on.
 One-electron integrals computed using PRISM.
 PrsmSu:  requested number of processors reduced to:  13 ShMem   1 Linda.
 NBasis=   302 RedAO= T EigKep=  2.75D-04  NBF=   302
 NBsUse=   302 1.00D-06 EigRej= -1.00D+00 NBFU=   302
 Initial guess from the checkpoint file:  "NdNCCpNpCNdNN.chk"
 B after Tr=    -0.000000   -0.000000    0.000000
         Rot=    0.999963    0.008598   -0.000211   -0.000353 Ang=   0.99 deg.
 ExpMin= 1.61D-01 ExpMax= 4.17D+03 ExpMxC= 6.27D+02 IAcc=2 IRadAn=         4 AccDes= 0.00D+00
 Harris functional with IExCor=  402 and IRadAn=       4 diagonalized for initial guess.
 HarFok:  IExCor=  402 AccDes= 0.00D+00 IRadAn=         4 IDoV= 1 UseB2=F ITyADJ=14
 ICtDFT=  3500011 ScaDFX=  1.000000  1.000000  1.000000  1.000000
 FoFCou: FMM=F IPFlag=           0 FMFlag=      100000 FMFlg1=           0
         NFxFlg=           0 DoJE=T BraDBF=F KetDBF=T FulRan=T
         wScrn=  0.000000 ICntrl=       500 IOpCl=  0 I1Cent=   200000004 NGrid=           0
         NMat0=    1 NMatS0=      1 NMatT0=    0 NMatD0=    1 NMtDS0=    0 NMtDT0=    0
 Petite list used in FoFCou.
 Requested convergence on RMS density matrix=1.00D-08 within 128 cycles.
 Requested convergence on MAX density matrix=1.00D-06.
 Requested convergence on             energy=1.00D-06.
 No special actions if energy rises.
 Integral accuracy reduced to 1.0D-05 until final iterations.
 Initial convergence to 1.0D-05 achieved.  Increase integral accuracy.
 SCF Done:  E(RB3LYP) =  -448.749786097     A.U. after   13 cycles
            NFock= 13  Conv=0.80D-08     -V/T= 2.0074
 PrsmSu:  requested number of processors reduced to:  13 ShMem   1 Linda.
 Calling FoFJK, ICntrl=      2127 FMM=F ISym2X=0 I1Cent= 0 IOpClX= 0 NMat=1 NMatS=1 NMatT=0.
 ***** Axes restored to original set *****
 -------------------------------------------------------------------
 Center     Atomic                   Forces (Hartrees/Bohr)
 Number     Number              X              Y              Z
 -------------------------------------------------------------------
      1        7           0.000319605   -0.000501599    0.000524638
      2        7           0.000805169   -0.001044833    0.000023512
      3        6           0.000300935    0.000519189    0.000742450
      4        6          -0.001675646   -0.000807994    0.000479535
      5        7          -0.001220003    0.001335755   -0.001111582
      6        6           0.000678459   -0.000586557    0.001628961
      7        7          -0.001038194    0.001956521   -0.001948868
      8        7           0.000246735   -0.003283242    0.001182358
      9        7          -0.000080125    0.005973500   -0.000674174
     10        1          -0.000993614    0.000653893   -0.000205184
     11        1           0.000380516   -0.000130705   -0.000117425
     12        1          -0.000623456   -0.000161458   -0.000348576
     13        1           0.000698741    0.000217529    0.000038753
     14        1           0.000183720   -0.000163952    0.000207622
     15        1           0.000304881   -0.000388125    0.000315076
     16        1          -0.000206020    0.000239842   -0.000089114
     17        1           0.000254754    0.000395283   -0.000628159
     18        1           0.001672200   -0.002118971   -0.000461452
     19        1          -0.000008657   -0.002104075    0.000441628
 -------------------------------------------------------------------
 Cartesian Forces:  Max     0.005973500 RMS     0.001242672

 GradGradGradGradGradGradGradGradGradGradGradGradGradGradGradGradGradGrad
 Berny optimization.
 Using GEDIIS/GDIIS optimizer.
 FormGI is forming the generalized inverse of G from B-inverse, IUseBI=4.
 Internal  Forces:  Max     0.003714761 RMS     0.000797252
 Search for a local minimum.
 Step number   3 out of a maximum of   91
 All quantities printed in internal units (Hartrees-Bohrs-Radians)
 Mixed Optimization -- En-DIIS/RFO-DIIS
 Update second derivatives using D2CorX and points    1    2    3
 DE= -2.65D-03 DEPred=-2.45D-03 R= 1.08D+00
 TightC=F SS=  1.41D+00  RLast= 3.23D-01 DXNew= 5.0454D-01 9.6845D-01
 Trust test= 1.08D+00 RLast= 3.23D-01 DXMaxT set to 5.05D-01
 ITU=  1  0  0
 Use linear search instead of GDIIS.
     Eigenvalues ---    0.00228   0.00250   0.00525   0.00625   0.00644
     Eigenvalues ---    0.01562   0.02168   0.03348   0.03385   0.03733
     Eigenvalues ---    0.04498   0.04802   0.04852   0.04918   0.05491
     Eigenvalues ---    0.05673   0.05756   0.11106   0.11223   0.13694
     Eigenvalues ---    0.13715   0.15211   0.15865   0.16000   0.16232
     Eigenvalues ---    0.16507   0.17147   0.18574   0.21941   0.21989
     Eigenvalues ---    0.24936   0.25455   0.27673   0.28225   0.33787
     Eigenvalues ---    0.33916   0.33954   0.33964   0.34027   0.34046
     Eigenvalues ---    0.34429   0.34717   0.40318   0.42887   0.44089
     Eigenvalues ---    0.44445   0.44987   0.46626   0.62474   0.84796
     Eigenvalues ---    0.91917
 RFO step:  Lambda=-1.40512060D-03 EMin= 2.28219243D-03
 Quartic linear search produced a step of  0.15360.
 Iteration  1 RMS(Cart)=  0.07581760 RMS(Int)=  0.00891604
 Iteration  2 RMS(Cart)=  0.01057589 RMS(Int)=  0.00087494
 Iteration  3 RMS(Cart)=  0.00019374 RMS(Int)=  0.00086388
 Iteration  4 RMS(Cart)=  0.00000030 RMS(Int)=  0.00086388
 Variable       Old X    -DE/DX   Delta X   Delta X   Delta X     New X
                                 (Linear)    (Quad)   (Total)
    R1        2.34135   0.00063   0.00087  -0.00026   0.00061   2.34196
    R2        1.95632   0.00015   0.00064   0.00213   0.00277   1.95909
    R3        2.79422   0.00031   0.00082   0.00157   0.00240   2.79662
    R4        2.90325  -0.00037  -0.00080  -0.00481  -0.00561   2.89764
    R5        2.07466  -0.00015  -0.00009  -0.00035  -0.00044   2.07423
    R6        2.07372   0.00053   0.00018   0.00183   0.00202   2.07573
    R7        2.77215  -0.00111  -0.00098  -0.00772  -0.00869   2.76346
    R8        2.88087   0.00132  -0.00015   0.00079   0.00064   2.88151
    R9        2.07252   0.00037   0.00014   0.00122   0.00136   2.07388
   R10        1.92484  -0.00005   0.00002  -0.00030  -0.00028   1.92456
   R11        1.92147   0.00012  -0.00009  -0.00082  -0.00092   1.92056
   R12        2.77489   0.00050  -0.00099  -0.00142  -0.00241   2.77248
   R13        2.07435   0.00030   0.00003   0.00112   0.00116   2.07551
   R14        2.07811   0.00004   0.00020   0.00080   0.00101   2.07912
   R15        2.35802   0.00065  -0.00124   0.00094  -0.00030   2.35771
   R16        2.52995   0.00167  -0.00177   0.00243   0.00066   2.53061
   R17        1.89322   0.00190  -0.00038   0.00282   0.00245   1.89567
   R18        1.91515   0.00043   0.00032   0.00067   0.00099   1.91614
    A1        1.85209   0.00203   0.00655   0.00778   0.01433   1.86641
    A2        1.97340  -0.00113   0.00213  -0.00235  -0.00022   1.97318
    A3        1.90826   0.00001   0.00075   0.00179   0.00253   1.91080
    A4        1.88655   0.00040  -0.00054   0.00051  -0.00003   1.88652
    A5        1.90009  -0.00040  -0.00047  -0.00518  -0.00567   1.89442
    A6        1.95965  -0.00053   0.00014  -0.00056  -0.00042   1.95923
    A7        1.93300   0.00064   0.00053   0.00669   0.00722   1.94022
    A8        1.87476  -0.00012  -0.00047  -0.00365  -0.00412   1.87064
    A9        1.98034  -0.00050   0.00052   0.00450   0.00502   1.98536
   A10        1.91963   0.00118  -0.00008   0.00632   0.00625   1.92587
   A11        1.88214  -0.00003  -0.00029   0.00140   0.00113   1.88327
   A12        1.92742  -0.00053   0.00001  -0.00558  -0.00561   1.92181
   A13        1.86404   0.00031   0.00010  -0.00113  -0.00106   1.86298
   A14        1.88668  -0.00046  -0.00030  -0.00614  -0.00646   1.88022
   A15        1.90681   0.00046   0.00059   0.00558   0.00613   1.91294
   A16        1.88790   0.00088   0.00121   0.00971   0.01088   1.89878
   A17        1.85269  -0.00031   0.00030   0.00272   0.00292   1.85561
   A18        1.92355   0.00033   0.00045   0.00259   0.00304   1.92659
[...]
 .02271276,0.54936845,0.00765456,0.00287131,-0.00511010,0.03004017,0.00
 012490,0.00912791,-0.01397813,0.00036125,-0.07938135,-0.00023698,0.062
 94682,0.53832236,-0.00203520,0.00168273,-0.00066940,0.00132015,0.00152
 269,0.00017957,-0.01892791,0.03699223,-0.01567158,-0.08176459,0.021706
 60,0.00017152,0.25549050,0.00095364,0.00002819,-0.00044220,-0.00178216
 ,0.00054376,0.00311871,0.01371250,-0.01111642,0.00500439,0.07044250,-0
 .17537860,0.03816259,0.01471103,0.55010317,-0.00122438,-0.00024873,0.0
 0034952,0.00276014,-0.00001194,-0.00093559,-0.01034838,0.01093964,-0.0
 0270019,-0.01205191,0.01821314,-0.10968456,-0.14182468,0.03620608,0.62
 219617,-0.00146526,-0.00083423,0.00114324,-0.00489278,0.00054779,-0.00
 290795,-0.02162968,-0.00863139,0.02936835,-0.08718874,-0.01252790,0.03
 386882,0.00586627,0.00203805,-0.01037558,0.46587440,0.00000049,0.00005
 428,-0.00015868,0.00013381,-0.00038253,0.00005317,-0.00643912,0.000263
 46,0.00373811,-0.00724947,-0.07936923,0.00698017,-0.01196521,-0.016495
 03,0.03482677,-0.05475976,0.59271527,-0.00164096,0.00067147,0.00119445
 ,-0.00238570,-0.00068323,-0.00245335,0.00213918,-0.00402191,0.00554275
 ,0.03434611,0.01887807,-0.15110707,0.00520051,0.00954452,-0.01770721,0
 .01852184,0.03189021,0.50691870,-0.00048232,0.00034416,0.00037312,0.00
 003286,-0.00008818,-0.00132655,-0.00022591,-0.00202159,0.00232587,-0.0
 2963209,-0.00574603,0.01023682,0.00098292,0.00086928,-0.00197134,-0.16
 172197,-0.05439161,-0.05355128,0.61703079,0.00022158,-0.00022128,0.000
 15809,-0.00009888,0.00094829,0.00007218,0.00090271,-0.00046688,-0.0000
 8357,-0.00818016,-0.00041182,0.00005213,-0.00056462,0.00068844,-0.0007
 4581,-0.01603772,-0.09058173,-0.01787366,-0.15732495,0.35768305,0.0009
 2937,-0.00015332,-0.00064285,0.00176329,0.00024053,0.00194855,0.001393
 78,0.00288781,-0.00633875,0.03043654,0.00319031,0.00815314,0.00051007,
 0.00053677,0.00009038,-0.01814995,-0.01904859,-0.08430615,-0.12462745,
 0.23095626,0.25187787,0.00050163,-0.00052983,-0.00029653,0.00016569,-0
 .00001745,0.00086898,-0.00044770,0.00060234,-0.00052492,-0.00235585,0.
 00190487,-0.00009903,0.00055194,0.00045542,-0.00161876,-0.06971892,0.0
 3553061,0.02520074,-0.27865427,0.16544750,0.13178880,0.62135339,-0.000
 19238,0.00017272,0.00018426,-0.00041286,-0.00010359,-0.00035203,-0.000
 40192,-0.00023588,0.00131666,-0.00564822,-0.00212859,0.00146511,-0.000
 89425,0.00036932,0.00016542,0.00417606,-0.00493530,0.01185036,0.175442
 74,-0.28768205,-0.22687967,-0.13607790,0.40635808,0.00005575,0.0000617
 7,-0.00003817,0.00017055,-0.00012107,0.00007579,-0.00010825,0.00030806
 ,-0.00036106,0.00257222,0.00015225,0.00150032,0.00025854,0.00018186,0.
 00034289,0.00196437,0.01645764,-0.01298779,0.13440545,-0.22648887,-0.1
 7037842,-0.08531936,0.26844971,0.26629802,-0.00074977,0.00044423,0.000
 37385,-0.00051506,-0.00024682,-0.00118973,0.00021824,-0.00092645,0.002
 44301,-0.00200686,0.00035889,-0.00376976,0.00021541,-0.00090460,0.0013
 9896,0.00716664,0.00827732,0.00472997,-0.10757149,0.01621272,0.0159924
 3,-0.23073660,-0.03944646,-0.01251529,0.57925928,-0.00012016,0.0001884
 6,0.00000005,0.00007565,-0.00008485,-0.00015495,0.00024649,0.00007795,
 -0.00030568,0.00280570,-0.00012481,0.00031429,-0.00058208,-0.00041877,
 0.00056773,0.00425935,0.00843531,-0.01010934,0.04850057,0.01714245,0.0
 1739818,-0.03131137,-0.11918757,-0.05266435,-0.18129264,0.55137181,0.0
 0005115,-0.00010921,-0.00000385,-0.00006771,0.00008824,0.00005099,0.00
 007260,-0.00001510,0.00012388,-0.00156472,0.00070439,-0.00017178,0.000
 36892,-0.00001360,-0.00025254,-0.00107096,-0.01056168,0.00947470,0.046
 72062,0.00987978,-0.00079922,-0.08212848,-0.06181950,-0.07569788,0.067
 19066,0.29046053,0.38105183,-0.06373305,-0.02202514,0.07027491,-0.0455
 9619,-0.01355300,0.03539793,0.01041542,0.01466193,0.01004263,0.0003331
 8,0.00054951,-0.00208656,0.00024142,-0.00018943,0.00018437,0.00031394,
 -0.00000098,0.00035086,-0.00000444,-0.00010028,-0.00023848,0.00001672,
 0.00002654,-0.00002076,0.00006535,-0.00000163,0.00000576,0.10050470,-0
 .04769125,-0.08998940,0.13294241,0.01285921,-0.00395085,-0.04816561,0.
 01372910,0.00799902,0.00652176,0.00046980,0.00145922,-0.00360314,-0.00
 037250,-0.00020014,0.00027181,0.00091858,0.00002200,0.00063071,0.00002
 336,-0.00004059,-0.00034645,0.00008500,0.00005373,-0.00004466,0.000050
 82,-0.00005762,0.00003248,0.02095850,0.08443614,0.10035798,0.09913837,
 -0.28031630,0.00524831,-0.01339927,-0.02172559,0.01120807,0.00476623,0
 .01029405,-0.00013022,0.00045872,-0.00363979,0.00057513,-0.00053196,0.
 00058784,0.00078403,0.00010064,0.00076349,0.00013071,-0.00012476,-0.00
 048019,-0.00024239,0.00006765,-0.00002213,0.00037183,0.00006706,-0.000
 02647,-0.11679774,-0.08922831,0.29203808,0.00065547,-0.00295673,-0.001
 94031,0.00528155,-0.01264306,0.01229542,-0.08335330,0.07810452,-0.0334
 0054,-0.00456556,0.02700290,-0.00795272,-0.00815832,0.00141691,-0.0023
 4682,0.00015500,0.00139639,-0.00067185,0.00040361,-0.00054366,0.000042
 13,0.00007570,-0.00000411,0.00006308,0.00016062,-0.00000237,-0.0000434
 7,0.00018299,0.00040440,-0.00043234,0.08562329,-0.00125209,0.00188124,
 -0.00476800,0.00309428,-0.00821830,0.01139435,0.07491603,-0.23965271,0
 .07349089,-0.00169711,0.00140698,-0.00137034,0.00013820,0.00145054,0.0
 0058264,-0.00004924,-0.00037793,0.00033244,0.00012719,0.00041431,-0.00
 022571,0.00000455,0.00008154,-0.00012066,-0.00011875,-0.00005970,0.000
 05568,0.00039672,0.00069808,-0.00031558,-0.08334448,0.25791057,-0.0045
 9191,-0.00082260,0.00446361,-0.00241514,0.03304398,-0.02366543,-0.0300
 5515,0.06864012,-0.07799686,-0.00203361,0.00405720,-0.00181964,-0.0000
 1579,0.00003296,0.00096060,0.00055506,-0.00014677,-0.00006224,-0.00006
 467,-0.00013701,-0.00003117,0.00004942,-0.00003485,-0.00003447,0.00002
 782,0.00000166,-0.00000133,-0.00046683,-0.00089705,0.00102126,0.031186
 63,-0.08711311,0.08848059,0.00123610,-0.00017543,0.00380537,-0.0001289
 6,0.01376191,0.01479111,-0.04897675,-0.03771997,-0.03551646,-0.0124057
 0,-0.02609911,-0.02387523,0.00401971,-0.00106349,0.00210170,0.00174317
 ,-0.00029412,-0.00133483,0.00001234,0.00016256,0.00024138,-0.00002913,
 0.00027477,-0.00001226,0.00006307,-0.00003947,0.00001858,-0.00265300,-
 0.00181098,-0.00102025,0.00259243,0.00818768,0.00698905,0.06176105,-0.
 00123431,0.00149675,0.00072022,0.00435774,0.00542081,0.00297860,-0.038
 32790,-0.19034146,-0.11652614,0.00006725,-0.00391768,-0.00201143,0.000
 30592,0.00203587,0.00131025,0.00032077,-0.00017709,-0.00053997,-0.0000
 2283,0.00028135,0.00041134,0.00004398,-0.00004374,0.00000233,-0.000146
 05,-0.00002819,0.00000686,-0.00043701,0.00002248,-0.00073864,-0.006594
 10,-0.01707537,-0.01669529,0.04288393,0.20042589,-0.00209841,-0.000183
 35,-0.00586646,-0.00118692,-0.02283887,-0.02132001,-0.03247773,-0.1145
 6396,-0.14656200,-0.00315635,-0.00463450,-0.00283487,0.00099245,0.0004
 4987,0.00046723,0.00047604,0.00050901,0.00040823,-0.00001048,0.0001945
 3,0.00003309,-0.00009039,-0.00000097,-0.00005964,-0.00000919,0.0000037
 9,-0.00000800,0.00354020,0.00188440,0.00150717,0.00228649,0.00822972,0
 .00847100,0.03338246,0.13077289,0.16499330,-0.00033819,0.00093445,0.00
 059306,0.00325300,-0.00036313,-0.00238811,-0.01248315,-0.02324061,-0.0
 2238371,-0.05599205,-0.03647528,-0.03437399,0.00118944,0.01348543,0.00
 946735,0.00240512,0.01060623,0.01179225,0.00119712,0.00112894,-0.00044
 953,-0.00071262,-0.00035417,-0.00002727,0.00028914,0.00004770,-0.00013
 206,-0.00017118,-0.00002723,-0.00003526,0.00115616,0.00054992,0.000240
 37,-0.00630984,-0.00059799,-0.00068680,0.06684787,-0.00061518,0.000144
 14,0.00025267,0.00075345,0.00040429,-0.00026101,-0.00228085,-0.0007354
 1,-0.00245567,-0.03353240,-0.16715396,-0.11726633,0.00295027,-0.029977
 14,-0.01862119,0.00196061,0.00669227,0.00581937,-0.00006646,0.00000748
 ,0.00020590,-0.00007865,0.00027968,-0.00020290,0.00006512,-0.00011815,
 0.00001182,0.00000333,0.00003072,0.00006754,-0.00085379,0.00032613,0.0
 0007058,0.00031577,0.00113130,-0.00000091,0.03250931,0.19321569,-0.000
 45677,0.00047971,0.00065718,0.00077830,0.00048758,-0.00008202,-0.00126
 239,-0.00362544,-0.00271378,-0.03217656,-0.12226049,-0.16830287,0.0003
 0418,0.01074555,0.01057159,-0.00392845,-0.02013931,-0.02349191,-0.0019
 5816,-0.00028394,0.00221894,0.00041083,0.00053654,0.00016953,-0.000094
 09,-0.00003411,0.00017818,-0.00019758,-0.00008430,-0.00005606,-0.00037
 890,0.00009654,0.00002961,-0.00044118,0.00045831,0.00054427,0.03717339
 ,0.12841744,0.18274692,0.00047458,-0.00013056,-0.00009823,-0.00118060,
 -0.00036843,0.00027643,0.00159399,0.00175160,0.00190464,-0.00539920,0.
 01618334,0.00844175,-0.01725674,-0.04824164,-0.04117239,0.00103283,-0.
 00140809,-0.00071336,-0.00002516,-0.00005197,0.00025113,0.00017065,0.0
 0037598,-0.00037876,-0.00044358,0.00008391,0.00007584,-0.00001475,0.00
 002602,-0.00009205,0.00009674,-0.00057030,-0.00042425,-0.00047485,-0.0
 0019307,-0.00068836,0.00044463,0.00022133,-0.00049181,0.02313969,-0.00
 008497,0.00014849,0.00001465,-0.00013149,-0.00002389,0.00008208,-0.000
 45441,0.00135566,-0.00058235,-0.00632509,-0.02929716,-0.02648854,-0.01
 128249,-0.23230096,-0.17333778,-0.00022525,0.00072253,-0.00189605,0.00
 001311,-0.00015142,0.00043039,-0.00038836,0.00006863,-0.00027096,0.000
 19502,0.00016110,0.00003146,-0.00004839,-0.00005683,0.00000491,-0.0003
 8427,0.00041615,0.00024183,0.00110481,0.00045154,0.00036507,0.00327087
 ,-0.00533017,0.00348929,0.01642608,0.25419866,-0.00025380,-0.00019265,
 -0.00012889,0.00049017,0.00033032,0.00017314,0.00035830,0.00115101,0.0
 0023500,-0.00198176,0.01145029,0.00918324,-0.00508870,-0.17648291,-0.2
 3763226,0.00028554,0.00192530,0.00292375,-0.00035266,-0.00037391,-0.00
 022918,0.00040137,0.00001117,-0.00010129,-0.00019313,-0.00011245,0.000
 01156,0.00007721,0.00005051,0.00008680,-0.00020116,0.00002063,-0.00004
 174,0.00031778,-0.00037792,-0.00000535,-0.00073453,0.00285539,0.000436
 80,0.01502276,0.18632570,0.24845472,0.00002603,-0.00187280,0.00070025,
 -0.00046534,0.00223189,-0.00095386,0.00137440,0.00013946,-0.00126100,0
 .00309439,0.00898913,-0.01781333,-0.14114173,-0.06549304,0.20478106,-0
 .00104243,0.00203106,-0.00085450,-0.00015007,0.00009837,0.00045662,0.0
 0063723,-0.00026589,-0.00019991,-0.00027811,-0.00008500,-0.00002537,0.
 00003811,0.00036477,0.00008640,0.00016860,-0.00026073,0.00043953,-0.00
 018908,-0.00003167,-0.00013300,0.00013998,-0.00048366,0.00051214,-0.00
 204633,-0.00160671,-0.00778317,0.13964315,0.00073517,0.00120121,-0.000
 19387,-0.00129350,-0.00161049,-0.00017942,0.00020667,0.00115983,0.0006
 4328,-0.02084751,-0.01075433,0.02868593,-0.05305454,-0.09185888,0.0868
 0687,0.00329511,-0.00631972,0.00086358,0.00085407,0.00034733,0.0000081
 0,0.00034667,0.00018165,-0.00031297,-0.00041058,-0.00008527,0.00010413
 ,-0.00017617,-0.00036050,-0.00021464,-0.00022247,0.00009102,-0.0000970
 8,0.00011806,0.00007800,-0.00007217,-0.00042886,0.00020095,-0.00052939
 ,0.01592689,0.00860514,-0.02551416,0.05571439,0.09919642,0.00065514,-0
 .00061831,0.00054866,0.00035274,-0.00095813,-0.00052379,0.00125890,-0.
 00066209,-0.00008441,0.00665896,0.00722431,-0.01191828,0.15205320,0.07
 451351,-0.26386709,-0.00161292,0.00273271,0.00004888,-0.00029109,-0.00
 006777,0.00045290,0.00028528,-0.00012549,-0.00022398,-0.00017437,-0.00
 004140,0.00002522,-0.00002077,0.00002832,-0.00018425,0.00064137,-0.000
 04935,-0.00006122,-0.00034426,-0.00001401,-0.00023730,-0.00012043,-0.0
 0014865,0.00031587,0.01770707,0.00979161,-0.02278533,-0.17753617,-0.09
 188131,0.29830094,-0.00000124,0.00000052,-0.00002201,0.00024515,0.0000
 2139,-0.00027131,-0.00011829,-0.00099593,0.00070891,0.00652614,-0.0119
 9615,0.00379153,-0.00121879,-0.00085753,0.00351870,-0.08548482,0.08562
 326,-0.03796373,-0.02410433,0.02826095,-0.00883682,-0.00134463,0.00039
 927,-0.00724088,-0.00467396,-0.00261655,0.00309052,0.00001166,-0.00000
 881,-0.00001143,-0.00048316,-0.00010894,0.00052238,-0.00006947,-0.0000
 2540,-0.00008454,0.00029986,0.00046026,-0.00041337,-0.00022153,0.00032
 051,-0.00004771,0.00027685,-0.00091058,0.00061816,0.10811746,-0.000034
 27,0.00003886,0.00014584,-0.00035770,0.00051113,-0.00037922,0.00086373
 ,-0.00059353,-0.00011075,0.00428543,-0.00863211,0.00147976,-0.00171697
 ,0.00051147,0.00252829,0.08725311,-0.22931263,0.07407767,-0.00126856,0
 .00900214,-0.00410505,-0.00029054,0.00105899,0.00052799,-0.00070083,-0
 .00042891,0.00055441,0.00002135,0.00000132,-0.00000920,-0.00071276,0.0
 0066274,-0.00010048,0.00003103,-0.00000357,0.00006007,-0.00015131,0.00
 067101,0.00021391,0.00013441,0.00079716,-0.00023379,0.00056554,-0.0004
 2563,0.00030169,-0.09628910,0.24337526,-0.00015254,-0.00017019,-0.0000
 8477,-0.00002952,-0.00036719,0.00010266,-0.00097366,0.00056573,0.00074
 146,-0.01194038,0.02514531,-0.01030874,0.00348768,0.00068875,-0.005472
 60,-0.03856331,0.07097912,-0.07914289,-0.00259786,0.00382923,0.0005249
 9,0.00118089,-0.00024857,-0.00071974,-0.00088519,0.00001881,0.00023379
 ,0.00004049,0.00006637,0.00007693,0.00080801,-0.00032983,0.00024534,0.
 00013666,-0.00013911,0.00001810,-0.00058221,-0.00055273,0.00072522,0.0
 0014268,0.00009450,-0.00013763,-0.00043096,0.00190183,-0.00028492,0.04
 125633,-0.08359089,0.08519515,-0.00004858,0.00001098,-0.00003988,0.000
 02292,-0.00020729,-0.00017976,0.00106385,0.00085846,0.00025217,0.00114
 739,0.01140642,0.01043826,0.00024566,0.00045257,-0.00123182,-0.0497655
 7,-0.00675765,-0.00757744,-0.01780850,-0.02660443,-0.02455808,0.007056
 16,-0.00315014,-0.00258290,-0.00140282,0.00030320,0.00099691,0.0000481
 0,-0.00001059,0.00000641,-0.00000913,-0.00001849,0.00006030,-0.0002098
 9,-0.00037533,-0.00004072,-0.00113131,-0.00134798,0.00251157,0.0001813
 6,-0.00039336,-0.00033280,-0.00008679,0.00014782,-0.00014190,0.0018638
 5,0.00833210,0.00912900,0.05800805,0.00001357,0.00008929,0.00010331,0.
 00030819,0.00015935,-0.00004972,0.00061308,0.00002150,-0.00005512,0.00
 023435,0.00504128,0.00710067,0.00000579,0.00213154,0.00057904,-0.01118
 177,-0.18096119,-0.11908501,-0.00872675,-0.00552167,-0.00891155,0.0041
 7266,0.00144273,0.00268003,-0.00042231,0.00019246,0.00078127,-0.000076
 61,-0.00007666,-0.00007086,-0.00010962,0.00005792,-0.00005206,0.000379
 74,0.00022596,-0.00016685,-0.00086257,0.00026321,0.00204604,-0.0000474
 6,0.00024506,-0.00080454,-0.00001010,0.00032943,-0.00003624,-0.0016495
 1,-0.01738987,-0.01812147,0.01680561,0.19387695,-0.00005572,0.00005377
 ,0.00011255,0.00016888,0.00048690,0.00021856,-0.00131725,-0.00039460,0
 .00013431,-0.00096183,-0.02100294,-0.02115445,-0.00044639,-0.00166042,
 0.00249839,-0.01256480,-0.11855232,-0.16085426,-0.00614505,-0.00854279
 ,-0.00320594,0.00331230,0.00248734,-0.00008574,-0.00022240,0.00022930,
 0.00057514,-0.00011800,-0.00006923,-0.00002852,0.00008370,0.00007292,0
 .00003738,0.00074361,0.00043288,0.00044136,0.00259958,0.00178420,-0.00
 387449,0.00014457,0.00161478,-0.00042456,0.00002454,0.00002086,0.00049
 577,0.00128312,0.00862806,0.00847973,0.01313273,0.13456584,0.17684948,
 0.00000114,-0.00004403,0.00001587,-0.00003490,0.00001122,-0.00001629,-
 0.00002260,-0.00006967,0.00022154,-0.00070210,0.00018464,-0.00037756,0
 .00026621,-0.00000809,-0.00005283,-0.00094456,-0.00066210,0.00234695,-
 0.00776417,-0.00171727,-0.00624390,-0.02812068,0.03447610,0.00876251,-
 0.16802481,0.17068462,0.00815433,-0.00000058,0.00002137,0.00000009,0.0
 0002087,0.00000129,0.00000051,0.00000835,0.00000439,-0.00000600,-0.000
 00066,0.00001781,0.00002765,-0.00011403,-0.00002495,0.00001388,0.00000
 993,-0.00001409,0.00000435,0.00024663,-0.00001669,-0.00004572,-0.00003
 507,-0.00001023,-0.00002507,0.19898341,0.00001184,-0.00000814,-0.00000
 793,0.00001420,-0.00002260,0.00003085,-0.00000543,0.00001381,-0.000049
 45,0.00019929,0.00016526,0.00006579,0.00009160,-0.00008748,0.00003420,
 -0.00082189,0.00173417,-0.00075370,-0.00184809,0.00015158,0.00049754,-
 0.01508890,0.00855475,0.00593829,0.20393678,-0.31852595,-0.07032250,-0
 .00000042,0.00000265,-0.00000614,0.00002102,-0.00001437,0.00000159,-0.
 00000929,0.00000155,-0.00000781,-0.00000210,-0.00002351,0.00001058,-0.
 00008928,0.00000592,-0.00001077,-0.00001165,-0.00001182,-0.00000143,-0
 .00040925,-0.00015681,-0.00008553,0.00018891,0.00004352,-0.00002169,-0
 .19416459,0.31921259,-0.00014882,0.00009590,0.00007761,-0.00013202,-0.
 00003487,-0.00026883,0.00002137,-0.00020769,0.00047976,-0.00079115,-0.
 00031495,-0.00067440,-0.00023504,0.00000227,0.00015458,0.00137879,-0.0
 0045325,0.00311041,-0.00254394,-0.00034118,0.00389147,0.00949030,0.011
 34022,-0.00820583,-0.01436865,-0.04522752,-0.03065936,0.00002209,0.000
 01112,0.00007343,-0.00002088,0.00001155,-0.00000026,0.00000404,-0.0000
 3867,0.00000311,0.00005911,0.00002066,-0.00010617,0.00002864,0.0000309
 4,-0.00000870,-0.00001488,-0.00004754,-0.00002758,-0.00002316,0.000128
 92,-0.00007358,-0.00007073,-0.00014922,-0.00011961,-0.01248186,0.05528
 560,0.03462414,0.00001235,-0.00002184,0.00000309,-0.00001654,0.0000015
 3,0.00001128,0.00001001,0.00000967,0.00007220,-0.00035554,0.00009253,-
 0.00008015,0.00011365,0.00000267,0.00000661,-0.00070262,0.00032895,0.0
 0206524,0.00848508,-0.00121137,-0.00070132,-0.01840875,-0.02832316,-0.
 03984684,-0.07103469,-0.01095591,-0.04171310,0.00000157,0.00001044,-0.
 00000730,-0.00000356,0.00000426,-0.00000373,0.00001043,0.00000167,-0.0
 0000873,-0.00008331,0.00000171,0.00008120,0.00004233,0.00001937,0.0000
 0243,-0.00000878,0.00001347,0.00000673,0.00013261,0.00005202,0.0000196
 0,0.00086034,0.00056396,0.00036346,0.00622765,0.00798724,0.01982678,0.
 07471780,0.00006671,-0.00007297,-0.00003043,0.00003834,0.00002909,0.00
 012350,-0.00000750,0.00002677,-0.00015325,-0.00014768,0.00023282,0.000
 12906,0.00032560,-0.00002887,-0.00006643,0.00029972,-0.00172691,0.0004
 0448,0.00533058,-0.00158897,0.00290721,-0.02481058,-0.00430510,-0.0145
 3348,-0.00492541,-0.13844974,-0.15986947,-0.00000883,0.00000722,-0.000
 03176,0.00002529,0.00000116,0.00000638,-0.00000838,0.00001559,0.000000
 05,-0.00002960,-0.00002852,-0.00002453,-0.00002876,-0.00001562,-0.0000
 1720,-0.00001337,0.00003568,0.00001205,0.00078159,0.00031297,0.0003158
 8,0.00035920,-0.00017078,-0.00013286,-0.00866972,-0.01103513,-0.020112
 27,0.03142281,0.15676130,-0.00006315,0.00004354,0.00002636,-0.00004680
 ,-0.00000007,-0.00010288,0.00001174,-0.00004597,0.00014970,-0.00007286
 ,0.00002873,-0.00017907,-0.00015018,-0.00005674,0.00003285,0.00082783,
 -0.00113224,0.00172751,0.00124793,0.00992109,-0.00277946,-0.00266905,-
 0.00841336,0.00052958,-0.05910674,-0.20041161,-0.28410488,0.00001028,-
 0.00000115,0.00003027,-0.00001783,0.00000520,0.00000497,0.00001272,-0.
 00001253,0.00000676,-0.00001122,0.00000383,0.00003319,0.00006371,0.000
 05849,-0.00001006,0.00000559,0.00000797,0.00000990,0.00012529,-0.00011
 725,-0.00011852,0.00022868,-0.00035355,-0.00009511,-0.00029844,0.00940
 252,-0.00227019,0.05990251,0.19107308,0.28710906\\-0.00001455,-0.00000
 033,0.00001646,0.00001123,-0.00000113,-0.00001917,0.00000141,-0.000002
 07,0.00000766,-0.00000286,-0.00000835,0.00001087,-0.00000787,0.0000004
 8,-0.00000245,0.00001427,0.00000252,-0.00002169,-0.00000784,-0.0000154
 7,-0.00000690,-0.00000483,0.00001143,0.00001089,0.00001527,-0.00000824
 ,0.00000861,-0.00000218,0.00000554,-0.00000004,0.00000438,-0.00000252,
 0.00000360,-0.00000066,-0.00000430,-0.00000068,-0.00000104,0.00000465,
 -0.00000484,0.00000041,0.00000330,0.00000120,0.00000258,0.00000033,0.0
 0000220,-0.00000321,0.00000096,0.00000228,0.00000332,0.00000699,0.0000
 0267,-0.00000206,0.00000289,-0.00000570,-0.00000579,0.00000332,-0.0000
 0498\\\@


 AS FAR AS THE LAWS OF MATHEMATICS REFER TO REALITY,
 THEY ARE NOT CERTAIN; AND AS FAR AS THEY ARE CERTAIN,
 THEY DO NOT REFER TO REALITY.

                                         -- ALBERT EINSTEIN
 Job cpu time:       0 days  1 hours 34 minutes 34.0 seconds.
 Elapsed time:       0 days  0 hours 23 minutes 45.6 seconds.
 File lengths (MBytes):  RWF=    139 Int=      0 D2E=      0 Chk=      8 Scr=      1
 Normal termination of Gaussian 16 at Mon May 31 17:48:34 2021.
### All Done ###
