### Starting Gaussian ###
 Entering Gaussian System, Link 0=g16
 Initial command:
 /cluster/software/gaussian/gaussian-16-A.03/avx2/g16/l1.exe "/local/scratch/linjian/Gau-22423.inp" -scrdir="/local/scratch/linjian/"
 Entering Link 1 = /cluster/software/gaussian/gaussian-16-A.03/avx2/g16/l1.exe PID=     22424.
  
 Copyright (c) 1988,1990,1992,1993,1995,1998,2003,2009,2016,
            Gaussian, Inc.  All Rights Reserved.
  
 This is part of the Gaussian(R) 16 program.  It is based on
 the Gaussian(R) 09 system (copyright 2009, Gaussian, Inc.),
 the Gaussian(R) 03 system (copyright 2003, Gaussian, Inc.),
 the Gaussian(R) 98 system (copyright 1998, Gaussian, Inc.),
 the Gaussian(R) 94 system (copyright 1995, Gaussian, Inc.),
 the Gaussian 92(TM) system (copyright 1992, Gaussian, Inc.),
 the Gaussian 90(TM) system (copyright 1990, Gaussian, Inc.),
 the Gaussian 88(TM) system (copyright 1988, Gaussian, Inc.),
 the Gaussian 86(TM) system (copyright 1986, Carnegie Mellon
 University), and the Gaussian 82(TM) system (copyright 1983,
 Carnegie Mellon University). Gaussian is a federally registered
 trademark of Gaussian, Inc.
  
 This software contains proprietary and confidential information,
 including trade secrets, belonging to Gaussian, Inc.
  
 This software is provided under written license and may be
 used, copied, transmitted, or stored only in accord with that
 written license.
  
 The following legend is applicable only to US Government
 contracts under FAR:
  
                    RESTRICTED RIGHTS LEGEND
  
 Use, reproduction and disclosure by the US Government is
 subject to restrictions as set forth in subparagraphs (a)
 and (c) of the Commercial Computer Software - Restricted
 Rights clause in FAR 52.227-19.
  
 Gaussian, Inc.
 340 Quinnipiac St., Bldg. 40, Wallingford CT 06492
  
  
 ---------------------------------------------------------------
 Warning -- This program may not be used in any manner that
 competes with the business of Gaussian, Inc. or will provide
 assistance to any competitor of Gaussian, Inc.  The licensee
 of this program is prohibited from giving any competitor of
 Gaussian, Inc. access to this program.  By using this program,
 the user acknowledges that Gaussian, Inc. is engaged in the
 business of creating and licensing software in the field of
 computational chemistry and represents and warrants to the
 licensee that it is not a competitor of Gaussian, Inc. and that
 it will not use this program in any manner prohibited above.
 ---------------------------------------------------------------
  

 Cite this work as:
 Gaussian 16, Revision A.03,
 M. J. Frisch, G. W. Trucks, H. B. Schlegel, G. E. Scuseria, 
 M. A. Robb, J. R. Cheeseman, G. Scalmani, V. Barone, 
 G. A. Petersson, H. Nakatsuji, X. Li, M. Caricato, A. V. Marenich, 
 J. Bloino, B. G. Janesko, R. Gomperts, B. Mennucci, H. P. Hratchian, 
 J. V. Ortiz, A. F. Izmaylov, J. L. Sonnenberg, D. Williams-Young, 
 F. Ding, F. Lipparini, F. Egidi, J. Goings, B. Peng, A. Petrone, 
 T. Henderson, D. Ranasinghe, V. G. Zakrzewski, J. Gao, N. Rega, 
 G. Zheng, W. Liang, M. Hada, M. Ehara, K. Toyota, R. Fukuda, 
 J. Hasegawa, M. Ishida, T. Nakajima, Y. Honda, O. Kitao, H. Nakai, 
 T. Vreven, K. Throssell, J. A. Montgomery, Jr., J. E. Peralta, 
 F. Ogliaro, M. J. Bearpark, J. J. Heyd, E. N. Brothers, K. N. Kudin, 
 V. N. Staroverov, T. A. Keith, R. Kobayashi, J. Normand, 
 K. Raghavachari, A. P. Rendell, J. C. Burant, S. S. Iyengar, 
 J. Tomasi, M. Cossi, J. M. Millam, M. Klene, C. Adamo, R. Cammi, 
 J. W. Ochterski, R. L. Martin, K. Morokuma, O. Farkas, 
 J. B. Foresman, and D. J. Fox, Gaussian, Inc., Wallingford CT, 2016.
 
 ******************************************
 Gaussian 16:  ES64L-G16RevA.03 25-Dec-2016
                 1-Jun-2021 
 ******************************************
 %chk=NdNNCCCpNpCNCN.chk
 %NProcShared=20
 Will use up to   20 processors via shared memory.
 -----------------------------
 # opt freq b3lyp/6-31g(2df,p)
 -----------------------------
 1/18=20,19=15,26=3,38=1/1,3;
 2/9=110,12=2,17=6,18=5,40=1/2;
 3/5=1,6=6,7=104,11=2,25=1,30=1,71=1,74=-5/1,2,3;
 4//1;
 5/5=2,38=5/2;
 6/7=2,8=2,9=2,10=2,28=1/1;
 7//1,2,3,16;
 1/18=20,19=15,26=3/3(2);
 2/9=110/2;
 99//99;
 2/9=110/2;
 3/5=1,6=6,7=104,11=2,25=1,30=1,71=1,74=-5/1,2,3;
 4/5=5,16=3,69=1/1;
 5/5=2,38=5/2;
 7//1,2,3,16;
 1/18=20,19=15,26=3/3(-5);
 2/9=110/2;
 6/7=2,8=2,9=2,10=2,19=2,28=1/1;
 99/9=1/99;
 -------------------
 Title Card Required
 -------------------
 Symbolic Z-matrix:
 Charge =  0 Multiplicity = 1
 N                     1.07082  -0.21414   0.03599 
 N                     2.29369  -0.05951  -0.09048 
 N                     2.9046   -1.07787   0.52926 
 C                     4.34479  -1.0809    0.58941 
 C                     4.90336  -2.25138   1.39625 
 C                     6.44628  -2.26188   1.4245 
 N                     6.99294  -1.05097   2.06145 
 C                     6.96153  -3.51953   2.17396 
 N                     8.42942  -3.58592   2.17617 
 C                     8.88854  -4.67872   2.98481 
 N                     10.32102  -4.57726   2.9611 
 H                     0.55989   0.5368   -0.44467 
 H                     2.30182  -1.71296   1.03646 
 H                     4.64614  -0.12721   1.03231 
 H                     4.71331  -1.12231  -0.44052 
 H                     4.54299  -3.19109   0.95634 
 H                     4.5053   -2.2222    2.41895 
 H                     6.81659  -2.30054   0.39185 
 H                     6.60421  -0.94466   2.997 
 H                     6.72377  -0.22083   1.53666 
 H                     6.56018  -4.41949   1.69449 
 H                     6.58789  -3.49304   3.20655 
 H                     8.78634  -2.70936   2.56431 
 H                     8.57362  -5.63564   2.55624 
 H                     8.53026  -4.61334   4.01655 
 H                     10.60829  -4.622     1.98514 
 H                     10.71611  -5.3982    3.41329 
 

 GradGradGradGradGradGradGradGradGradGradGradGradGradGradGradGradGradGrad
 Berny optimization.
 Initialization pass.
                           ----------------------------
                           !    Initial Parameters    !
                           ! (Angstroms and Degrees)  !
 --------------------------                            --------------------------
 ! Name  Definition              Value          Derivative Info.                !
 --------------------------------------------------------------------------------
 ! R1    R(1,2)                  1.2391         estimate D2E/DX2                !
 ! R2    R(1,12)                 1.0276         estimate D2E/DX2                !
 ! R3    R(2,3)                  1.3395         estimate D2E/DX2                !
 ! R4    R(3,4)                  1.4414         estimate D2E/DX2                !
 ! R5    R(3,13)                 1.0119         estimate D2E/DX2                !
 ! R6    R(4,5)                  1.5274         estimate D2E/DX2                !
 ! R7    R(4,14)                 1.0938         estimate D2E/DX2                !
 ! R8    R(4,15)                 1.0947         estimate D2E/DX2                !
 ! R9    R(5,6)                  1.5432         estimate D2E/DX2                !
 ! R10   R(5,16)                 1.0984         estimate D2E/DX2                !
 ! R11   R(5,17)                 1.0978         estimate D2E/DX2                !
 ! R12   R(6,7)                  1.4734         estimate D2E/DX2                !
 ! R13   R(6,8)                  1.552          estimate D2E/DX2                !
 ! R14   R(6,18)                 1.0977         estimate D2E/DX2                !
 ! R15   R(7,19)                 1.0187         estimate D2E/DX2                !
 ! R16   R(7,20)                 1.0183         estimate D2E/DX2                !
 ! R17   R(8,9)                  1.4694         estimate D2E/DX2                !
 ! R18   R(8,21)                 1.0959         estimate D2E/DX2                !
 ! R19   R(8,22)                 1.0984         estimate D2E/DX2                !
 ! R20   R(9,10)                 1.4349         estimate D2E/DX2                !
 ! R21   R(9,23)                 1.0229         estimate D2E/DX2                !
 ! R22   R(10,11)                1.4363         estimate D2E/DX2                !
 ! R23   R(10,24)                1.0948         estimate D2E/DX2                !
 ! R24   R(10,25)                1.0941         estimate D2E/DX2                !
 ! R25   R(11,26)                1.0183         estimate D2E/DX2                !
 ! R26   R(11,27)                1.0171         estimate D2E/DX2                !
 ! A1    A(2,1,12)             110.595          estimate D2E/DX2                !
 ! A2    A(1,2,3)              107.9388         estimate D2E/DX2                !
 ! A3    A(2,3,4)              118.4615         estimate D2E/DX2                !
 ! A4    A(2,3,13)             115.9361         estimate D2E/DX2                !
 ! A5    A(4,3,13)             124.9553         estimate D2E/DX2                !
 ! A6    A(3,4,5)              112.8941         estimate D2E/DX2                !
 ! A7    A(3,4,14)             106.877          estimate D2E/DX2                !
 ! A8    A(3,4,15)             107.2881         estimate D2E/DX2                !
 ! A9    A(5,4,14)             110.701          estimate D2E/DX2                !
 ! A10   A(5,4,15)             110.1757         estimate D2E/DX2                !
 ! A11   A(14,4,15)            108.7352         estimate D2E/DX2                !
 ! A12   A(4,5,6)              112.3652         estimate D2E/DX2                !
 ! A13   A(4,5,16)             108.909          estimate D2E/DX2                !
 ! A14   A(4,5,17)             109.8235         estimate D2E/DX2                !
 ! A15   A(6,5,16)             109.2408         estimate D2E/DX2                !
 ! A16   A(6,5,17)             110.2214         estimate D2E/DX2                !
 ! A17   A(16,5,17)            106.074          estimate D2E/DX2                !
 ! A18   A(5,6,7)              111.9178         estimate D2E/DX2                !
 ! A19   A(5,6,8)              110.2594         estimate D2E/DX2                !
 ! A20   A(5,6,18)             108.681          estimate D2E/DX2                !
 ! A21   A(7,6,8)              109.5141         estimate D2E/DX2                !
 ! A22   A(7,6,18)             108.087          estimate D2E/DX2                !
 ! A23   A(8,6,18)             108.2842         estimate D2E/DX2                !
 ! A24   A(6,7,19)             109.9512         estimate D2E/DX2                !
 ! A25   A(6,7,20)             110.4336         estimate D2E/DX2                !
 ! A26   A(19,7,20)            106.6996         estimate D2E/DX2                !
 ! A27   A(6,8,9)              111.6527         estimate D2E/DX2                !
 ! A28   A(6,8,21)             109.4267         estimate D2E/DX2                !
 ! A29   A(6,8,22)             108.752          estimate D2E/DX2                !
 ! A30   A(9,8,21)             109.2337         estimate D2E/DX2                !
 ! A31   A(9,8,22)             109.8456         estimate D2E/DX2                !
 ! A32   A(21,8,22)            107.8502         estimate D2E/DX2                !
 ! A33   A(8,9,10)             110.7873         estimate D2E/DX2                !
 ! A34   A(8,9,23)             108.0842         estimate D2E/DX2                !
 ! A35   A(10,9,23)            109.095          estimate D2E/DX2                !
 ! A36   A(9,10,11)            104.8342         estimate D2E/DX2                !
 ! A37   A(9,10,24)            110.673          estimate D2E/DX2                !
 ! A38   A(9,10,25)            112.404          estimate D2E/DX2                !
 ! A39   A(11,10,24)           110.0099         estimate D2E/DX2                !
 ! A40   A(11,10,25)           109.7513         estimate D2E/DX2                !
 ! A41   A(24,10,25)           109.0977         estimate D2E/DX2                !
 ! A42   A(10,11,26)           107.1018         estimate D2E/DX2                !
 ! A43   A(10,11,27)           108.8483         estimate D2E/DX2                !
 ! A44   A(26,11,27)           106.3223         estimate D2E/DX2                !
 ! D1    D(12,1,2,3)          -178.7289         estimate D2E/DX2                !
 ! D2    D(1,2,3,4)           -176.4034         estimate D2E/DX2                !
 ! D3    D(1,2,3,13)            -5.1623         estimate D2E/DX2                !
 ! D4    D(2,3,4,5)            176.472          estimate D2E/DX2                !
 ! D5    D(2,3,4,14)            54.5267         estimate D2E/DX2                !
 ! D6    D(2,3,4,15)           -61.9579         estimate D2E/DX2                !
 ! D7    D(13,3,4,5)             6.0901         estimate D2E/DX2                !
 ! D8    D(13,3,4,14)         -115.8551         estimate D2E/DX2                !
 ! D9    D(13,3,4,15)          127.6602         estimate D2E/DX2                !
 ! D10   D(3,4,5,6)            178.6315         estimate D2E/DX2                !
 ! D11   D(3,4,5,16)            57.4588         estimate D2E/DX2                !
 ! D12   D(3,4,5,17)           -58.3006         estimate D2E/DX2                !
 ! D13   D(14,4,5,6)           -61.6014         estimate D2E/DX2                !
 ! D14   D(14,4,5,16)          177.2259         estimate D2E/DX2                !
 ! D15   D(14,4,5,17)           61.4665         estimate D2E/DX2                !
 ! D16   D(15,4,5,6)            58.7077         estimate D2E/DX2                !
 ! D17   D(15,4,5,16)          -62.465          estimate D2E/DX2                !
 ! D18   D(15,4,5,17)         -178.2244         estimate D2E/DX2                !
 ! D19   D(4,5,6,7)             61.6198         estimate D2E/DX2                !
 ! D20   D(4,5,6,8)           -176.2178         estimate D2E/DX2                !
 ! D21   D(4,5,6,18)           -57.6749         estimate D2E/DX2                !
 ! D22   D(16,5,6,7)          -177.3979         estimate D2E/DX2                !
 ! D23   D(16,5,6,8)           -55.2355         estimate D2E/DX2                !
 ! D24   D(16,5,6,18)           63.3074         estimate D2E/DX2                !
 ! D25   D(17,5,6,7)           -61.2245         estimate D2E/DX2                !
 ! D26   D(17,5,6,8)            60.938          estimate D2E/DX2                !
 ! D27   D(17,5,6,18)          179.4808         estimate D2E/DX2                !
 ! D28   D(5,6,7,19)            55.5898         estimate D2E/DX2                !
 ! D29   D(5,6,7,20)           -61.8924         estimate D2E/DX2                !
 ! D30   D(8,6,7,19)           -66.9979         estimate D2E/DX2                !
 ! D31   D(8,6,7,20)           175.52           estimate D2E/DX2                !
 ! D32   D(18,6,7,19)          175.2339         estimate D2E/DX2                !
 ! D33   D(18,6,7,20)           57.7517         estimate D2E/DX2                !
 ! D34   D(5,6,8,9)            177.906          estimate D2E/DX2                !
 ! D35   D(5,6,8,21)            56.8524         estimate D2E/DX2                !
 ! D36   D(5,6,8,22)           -60.7275         estimate D2E/DX2                !
 ! D37   D(7,6,8,9)            -58.5245         estimate D2E/DX2                !
 ! D38   D(7,6,8,21)          -179.578          estimate D2E/DX2                !
 ! D39   D(7,6,8,22)            62.842          estimate D2E/DX2                !
 ! D40   D(18,6,8,9)            59.1205         estimate D2E/DX2                !
 ! D41   D(18,6,8,21)          -61.9331         estimate D2E/DX2                !
 ! D42   D(18,6,8,22)         -179.513          estimate D2E/DX2                !
 ! D43   D(6,8,9,10)           174.2322         estimate D2E/DX2                !
 ! D44   D(6,8,9,23)            54.7564         estimate D2E/DX2                !
 ! D45   D(21,8,9,10)          -64.602          estimate D2E/DX2                !
 ! D46   D(21,8,9,23)          175.9221         estimate D2E/DX2                !
 ! D47   D(22,8,9,10)           53.5019         estimate D2E/DX2                !
 ! D48   D(22,8,9,23)          -65.974          estimate D2E/DX2                !
 ! D49   D(8,9,10,11)         -176.7226         estimate D2E/DX2                !
 ! D50   D(8,9,10,24)           64.7045         estimate D2E/DX2                !
 ! D51   D(8,9,10,25)          -57.5582         estimate D2E/DX2                !
 ! D52   D(23,9,10,11)         -57.8557         estimate D2E/DX2                !
 ! D53   D(23,9,10,24)        -176.4287         estimate D2E/DX2                !
 ! D54   D(23,9,10,25)          61.3086         estimate D2E/DX2                !
 ! D55   D(9,10,11,26)         -57.8492         estimate D2E/DX2                !
 ! D56   D(9,10,11,27)        -172.4147         estimate D2E/DX2                !
 ! D57   D(24,10,11,26)         61.171          estimate D2E/DX2                !
 ! D58   D(24,10,11,27)        -53.3945         estimate D2E/DX2                !
 ! D59   D(25,10,11,26)       -178.7811         estimate D2E/DX2                !
 ! D60   D(25,10,11,27)         66.6534         estimate D2E/DX2                !
 --------------------------------------------------------------------------------
 Trust Radius=3.00D-01 FncErr=1.00D-07 GrdErr=1.00D-06 EigMax=2.50D+02 EigMin=1.00D-04
 Number of steps in this run=    140 maximum allowed number of steps=    162.
 GradGradGradGradGradGradGradGradGradGradGradGradGradGradGradGradGradGrad

                          Input orientation:                          
 ---------------------------------------------------------------------
 Center     Atomic      Atomic             Coordinates (Angstroms)
 Number     Number       Type             X           Y           Z
 ---------------------------------------------------------------------
      1          7           0        1.070820   -0.214140    0.035990
      2          7           0        2.293690   -0.059510   -0.090480
      3          7           0        2.904600   -1.077870    0.529260
      4          6           0        4.344790   -1.080900    0.589410
      5          6           0        4.903360   -2.251380    1.396250
      6          6           0        6.446280   -2.261880    1.424500
      7          7           0        6.992940   -1.050970    2.061450
      8          6           0        6.961530   -3.519530    2.173960
      9          7           0        8.429420   -3.585920    2.176170
     10          6           0        8.888540   -4.678720    2.984810
     11          7           0       10.321020   -4.577260    2.961100
     12          1           0        0.559890    0.536800   -0.444670
     13          1           0        2.301820   -1.712960    1.036460
     14          1           0        4.646140   -0.127210    1.032310
     15          1           0        4.713310   -1.122310   -0.440520
     16          1           0        4.542990   -3.191090    0.956340
     17          1           0        4.505300   -2.222200    2.418950
     18          1           0        6.816590   -2.300540    0.391850
     19          1           0        6.604210   -0.944660    2.997000
     20          1           0        6.723770   -0.220830    1.536660
     21          1           0        6.560180   -4.419490    1.694490
     22          1           0        6.587890   -3.493040    3.206550
     23          1           0        8.786340   -2.709360    2.564310
     24          1           0        8.573620   -5.635640    2.556240
     25          1           0        8.530260   -4.613340    4.016550
     26          1           0       10.608290   -4.622000    1.985140
     27          1           0       10.716110   -5.398200    3.413290
 ---------------------------------------------------------------------
                    Distance matrix (angstroms):
                    1          2          3          4          5
     1  N    0.000000
     2  N    1.239079   0.000000
     3  N    2.086167   1.339532   0.000000
     4  C    3.431680   2.390084   1.441449   0.000000
     5  C    4.548518   3.718204   2.474639   1.527421   0.000000
     6  C    5.917497   4.938583   3.840160   2.551147   1.543214
     7  N    6.314608   5.262770   4.366103   3.029933   2.499964
     8  C    7.084983   6.236037   5.012527   3.912166   2.539508
     9  N    8.372471   7.431047   6.286992   5.047488   3.849983
    10  C    9.473371   8.618965   7.402931   6.271197   4.929215
    11  N   10.637635   9.703620   8.553529   7.318796   6.099960
    12  H    1.027616   1.867377   3.008881   4.244024   5.479842
    13  H    2.182375   2.000989   1.011897   2.184738   2.680924
    14  H    3.712563   2.607539   2.046894   1.093845   2.170418
    15  H    3.784120   2.665827   2.052774   1.094659   2.164403
    16  H    4.665323   3.995244   2.707844   2.151005   1.098382
    17  H    4.637505   3.983175   2.728124   2.162301   1.097824
    18  H    6.123200   5.070649   4.100911   2.763394   2.161408
    19  H    6.318199   5.375556   4.449112   3.304547   2.676342
    20  H    5.848752   4.722205   4.041711   2.701212   2.730703
    21  H    7.111165   6.355980   5.087971   4.156361   2.744941
    22  H    7.158331   6.410904   5.154372   4.207058   2.767047
    23  H    8.493985   7.498274   6.434132   5.126351   4.080643
    24  H    9.593557   8.805446   7.551139   6.518978   5.125388
    25  H    9.531058   8.746420   7.503918   6.460772   5.059568
    26  H   10.686054   9.708609   8.603911   7.329317   6.205873
    27  H   11.459156  10.569540   9.380968   8.197993   6.910788
                    6          7          8          9         10
     6  C    0.000000
     7  N    1.473379   0.000000
     8  C    1.552049   2.471322   0.000000
     9  N    2.500187   2.915923   1.469392   0.000000
    10  C    3.773634   4.196006   2.390516   1.434887   0.000000
    11  N    4.768200   4.931552   3.608955   2.275307   1.436264
    12  H    6.780560   7.084192   8.018231   9.262566  10.408141
    13  H    4.198623   4.847210   5.125475   6.508026   7.481757
    14  H    2.819775   2.723955   4.262890   5.252076   6.521231
    15  H    2.789284   3.385507   4.199603   5.169711   6.466335
    16  H    2.169128   3.435642   2.727601   4.092458   5.021109
    17  H    2.181263   2.772713   2.788575   4.161417   5.056430
    18  H    1.097720   2.092866   2.163992   2.727127   4.083155
    19  H    2.057369   1.018659   2.726725   3.313821   4.377387
    20  H    2.062878   1.018327   3.368101   3.826493   5.162960
    21  H    2.177418   3.415972   1.095856   2.102597   2.674581
    22  H    2.170601   2.727458   1.098431   2.112236   2.597691
    23  H    2.641077   2.493874   2.034375   1.022938   2.016344
    24  H    4.145922   4.874686   2.687544   2.089641   1.094780
    25  H    4.073212   4.344681   2.655649   2.110156   1.094133
    26  H    4.817345   5.082208   3.814440   2.420213   1.989999
    27  H    5.658908   5.881146   4.377466   3.169192   2.010288
                   11         12         13         14         15
    11  N    0.000000
    12  H   11.533973   0.000000
    13  H    8.730179   3.207723   0.000000
    14  H    7.465081   4.395432   2.830275   0.000000
    15  H    7.413104   4.472534   2.888879   1.778754   0.000000
    16  H    6.271057   5.632502   2.685913   3.066557   2.502015
    17  H    6.297844   5.601666   2.650647   2.516265   3.070765
    18  H    4.905663   6.920734   4.598252   3.137580   2.550461
    19  H    5.197283   7.111513   4.790048   2.891759   3.927290
    20  H    5.826467   6.518672   4.693644   2.140019   2.960381
    21  H    3.971537   8.071202   5.088412   4.746125   4.340575
    22  H    3.895130   8.118362   5.123316   4.452699   4.736616
    23  H    2.449844   9.341627   6.736181   5.114272   5.304461
    24  H    2.082663  10.551035   7.551995   6.934714   6.652271
    25  H    2.078966  10.485858   7.489099   6.642096   6.828021
    26  H    1.018344  11.553681   8.852116   7.527168   7.272032
    27  H    1.017111  12.379696   9.488445   8.384327   8.316772
                   16         17         18         19         20
    16  H    0.000000
    17  H    1.754821   0.000000
    18  H    2.506189   3.075278   0.000000
    19  H    3.668701   2.524217   2.944541   0.000000
    20  H    3.730284   3.115369   2.375794   1.634264   0.000000
    21  H    2.474447   3.094424   2.500513   3.711188   4.204809
    22  H    3.055525   2.563694   3.065436   2.557033   3.676187
    23  H    4.563294   4.311120   2.960850   2.839556   3.391613
    24  H    4.978100   5.312405   4.346795   5.106676   5.812199
    25  H    5.223601   4.946734   4.628624   4.267126   5.357929
    26  H    6.316154   6.572193   4.722789   5.529860   5.887353
    27  H    7.001096   7.046265   5.825020   6.075775   6.801888
                   21         22         23         24         25
    21  H    0.000000
    22  H    1.773528   0.000000
    23  H    2.938864   2.420704   0.000000
    24  H    2.505110   2.992785   2.934013   0.000000
    25  H    3.051353   2.384108   2.408260   1.783110   0.000000
    26  H    4.063580   4.350863   2.704280   2.343822   2.906013
    27  H    4.602597   4.551327   3.416817   2.319736   2.399556
                   26         27
    26  H    0.000000
    27  H    1.629025   0.000000
 Stoichiometry    C5H16N6
 Framework group  C1[X(C5H16N6)]
 Deg. of freedom    75
 Full point group                 C1      NOp   1
 Largest Abelian subgroup         C1      NOp   1
 Largest concise Abelian subgroup C1      NOp   1
                         Standard orientation:                         
 ---------------------------------------------------------------------
 Center     Atomic      Atomic             Coordinates (Angstroms)
 Number     Number       Type             X           Y           Z
 ---------------------------------------------------------------------
      1          7           0       -5.385029   -0.499614    0.165473
      2          7           0       -4.472921    0.228696   -0.250387
      3          7           0       -3.307875   -0.376287    0.016089
      4          6           0       -2.085057    0.316385   -0.304374
      5          6           0       -0.836927   -0.449748    0.129476
      6          6           0        0.465323    0.286506   -0.249450
      7          7           0        0.564856    1.601449    0.407714
      8          6           0        1.699438   -0.576037    0.127160
      9          7           0        2.956528    0.075404   -0.265857
     10          6           0        4.086698   -0.670838    0.208210
     11          7           0        5.229675    0.110775   -0.173284
     12          1           0       -6.301883   -0.082376   -0.037715
     13          1           0       -3.366013   -1.230878    0.554818
     14          1           0       -2.132601    1.290407    0.191123
     15          1           0       -2.074296    0.473157   -1.387695
     16          1           0       -0.844143   -1.440107   -0.345475
     17          1           0       -0.869001   -0.631400    1.211692
     18          1           0        0.475491    0.446590   -1.335388
     19          1           0        0.478649    1.493076    1.416917
     20          1           0       -0.199731    2.205514    0.111907
     21          1           0        1.627719   -1.550843   -0.368331
     22          1           0        1.692023   -0.748382    1.211961
     23          1           0        2.973794    1.009569    0.150603
     24          1           0        4.128777   -1.654454   -0.270614
     25          1           0        4.074109   -0.801706    1.294415
     26          1           0        5.190645    0.224577   -1.184496
     27          1           0        6.072974   -0.423318    0.021925
 ---------------------------------------------------------------------
 Rotational constants (GHZ):           5.1807434           0.2743355           0.2661088
 Standard basis: 6-31G(2df,p) (6D, 7F)
 There are   421 symmetry adapted cartesian basis functions of A   symmetry.
 There are   388 symmetry adapted basis functions of A   symmetry.
   388 basis functions,   596 primitive gaussians,   421 cartesian basis functions
    44 alpha electrons       44 beta electrons
       nuclear repulsion energy       620.7300324753 Hartrees.
 NAtoms=   27 NActive=   27 NUniq=   27 SFac= 1.00D+00 NAtFMM=   60 NAOKFM=F Big=F
 Integral buffers will be    131072 words long.
 Raffenetti 2 integral format.
 Two-electron integral symmetry is turned on.
 One-electron integrals computed using PRISM.
 PrsmSu:  requested number of processors reduced to:  13 ShMem   1 Linda.
 NBasis=   388 RedAO= T EigKep=  2.58D-04  NBF=   388
 NBsUse=   388 1.00D-06 EigRej= -1.00D+00 NBFU=   388
 ExpMin= 1.61D-01 ExpMax= 4.17D+03 ExpMxC= 6.27D+02 IAcc=3 IRadAn=         5 AccDes= 0.00D+00
 Harris functional with IExCor=  402 and IRadAn=       5 diagonalized for initial guess.
 HarFok:  IExCor=  402 AccDes= 0.00D+00 IRadAn=         5 IDoV= 1 UseB2=F ITyADJ=14
 ICtDFT=  3500011 ScaDFX=  1.000000  1.000000  1.000000  1.000000
 FoFCou: FMM=F IPFlag=           0 FMFlag=      100000 FMFlg1=           0
         NFxFlg=           0 DoJE=T BraDBF=F KetDBF=T FulRan=T
         wScrn=  0.000000 ICntrl=       500 IOpCl=  0 I1Cent=   200000004 NGrid=           0
         NMat0=    1 NMatS0=      1 NMatT0=    0 NMatD0=    1 NMtDS0=    0 NMtDT0=    0
 Petite list used in FoFCou.
 Requested convergence on RMS density matrix=1.00D-08 within 128 cycles.
 Requested convergence on MAX density matrix=1.00D-06.
 Requested convergence on             energy=1.00D-06.
 No special actions if energy rises.
 Integral accuracy reduced to 1.0D-05 until final iterations.
 Initial convergence to 1.0D-05 achieved.  Increase integral accuracy.
 SCF Done:  E(RB3LYP) =  -528.622125436     A.U. after   14 cycles
            NFock= 14  Conv=0.35D-08     -V/T= 2.0073

 **********************************************************************

            Population analysis using the SCF density.

 **********************************************************************

 Orbital symmetries:
       Occupied  (A) (A) (A) (A) (A) (A) (A) (A) (A) (A) (A) (A)
                 (A) (A) (A) (A) (A) (A) (A) (A) (A) (A) (A) (A)
                 (A) (A) (A) (A) (A) (A) (A) (A) (A) (A) (A) (A)
                 (A) (A) (A) (A) (A) (A) (A) (A)
       Virtual   (A) (A) (A) (A) (A) (A) (A) (A) (A) (A) (A) (A)
                 (A) (A) (A) (A) (A) (A) (A) (A) (A) (A) (A) (A)
                 (A) (A) (A) (A) (A) (A) (A) (A) (A) (A) (A) (A)
                 (A) (A) (A) (A) (A) (A) (A) (A) (A) (A) (A) (A)
                 (A) (A) (A) (A) (A) (A) (A) (A) (A) (A) (A) (A)
                 (A) (A) (A) (A) (A) (A) (A) (A) (A) (A) (A) (A)
                 (A) (A) (A) (A) (A) (A) (A) (A) (A) (A) (A) (A)
                 (A) (A) (A) (A) (A) (A) (A) (A) (A) (A) (A) (A)
                 (A) (A) (A) (A) (A) (A) (A) (A) (A) (A) (A) (A)
                 (A) (A) (A) (A) (A) (A) (A) (A) (A) (A) (A) (A)
                 (A) (A) (A) (A) (A) (A) (A) (A) (A) (A) (A) (A)
                 (A) (A) (A) (A) (A) (A) (A) (A) (A) (A) (A) (A)
                 (A) (A) (A) (A) (A) (A) (A) (A) (A) (A) (A) (A)
                 (A) (A) (A) (A) (A) (A) (A) (A) (A) (A) (A) (A)
                 (A) (A) (A) (A) (A) (A) (A) (A) (A) (A) (A) (A)
                 (A) (A) (A) (A) (A) (A) (A) (A) (A) (A) (A) (A)
                 (A) (A) (A) (A) (A) (A) (A) (A) (A) (A) (A) (A)
                 (A) (A) (A) (A) (A) (A) (A) (A) (A) (A) (A) (A)
                 (A) (A) (A) (A) (A) (A) (A) (A) (A) (A) (A) (A)
                 (A) (A) (A) (A) (A) (A) (A) (A) (A) (A) (A) (A)
                 (A) (A) (A) (A) (A) (A) (A) (A) (A) (A) (A) (A)
                 (A) (A) (A) (A) (A) (A) (A) (A) (A) (A) (A) (A)
                 (A) (A) (A) (A) (A) (A) (A) (A) (A) (A) (A) (A)
                 (A) (A) (A) (A) (A) (A) (A) (A) (A) (A) (A) (A)
                 (A) (A) (A) (A) (A) (A) (A) (A) (A) (A) (A) (A)
                 (A) (A) (A) (A) (A) (A) (A) (A) (A) (A) (A) (A)
                 (A) (A) (A) (A) (A) (A) (A) (A) (A) (A) (A) (A)
                 (A) (A) (A) (A) (A) (A) (A) (A) (A) (A) (A) (A)
                 (A) (A) (A) (A) (A) (A) (A) (A)
 The electronic state is 1-A.
 Alpha  occ. eigenvalues --  -14.40504 -14.36055 -14.32952 -14.31722 -14.30209
 Alpha  occ. eigenvalues --  -14.29875 -10.22280 -10.22068 -10.21747 -10.20520
 Alpha  occ. eigenvalues --  -10.19437  -1.06491  -0.92530  -0.89926  -0.88701
 Alpha  occ. eigenvalues --   -0.84139  -0.77167  -0.71301  -0.65221  -0.62990
 Alpha  occ. eigenvalues --   -0.61219  -0.58792  -0.52821  -0.51005  -0.49253
 Alpha  occ. eigenvalues --   -0.48470  -0.47540  -0.46715  -0.44781  -0.42458
 Alpha  occ. eigenvalues --   -0.41616  -0.40763  -0.39671  -0.39535  -0.37855
 Alpha  occ. eigenvalues --   -0.36792  -0.36677  -0.35063  -0.33314  -0.24757
 Alpha  occ. eigenvalues --   -0.23752  -0.23517  -0.22787  -0.21918
 Alpha virt. eigenvalues --   -0.00769   0.06493   0.09125   0.09666   0.10652
 Alpha virt. eigenvalues --    0.10757   0.11986   0.12729   0.13483   0.14773
 Alpha virt. eigenvalues --    0.15545   0.15943   0.17014   0.17778   0.19018
 Alpha virt. eigenvalues --    0.19617   0.20174   0.20701   0.21889   0.23283
 Alpha virt. eigenvalues --    0.23764   0.25422   0.26948   0.27278   0.29721
 Alpha virt. eigenvalues --    0.32722   0.35791   0.41932   0.45819   0.46655
 Alpha virt. eigenvalues --    0.48892   0.49546   0.50815   0.51178   0.53555
 Alpha virt. eigenvalues --    0.54019   0.55686   0.57578   0.58822   0.60474
 Alpha virt. eigenvalues --    0.60734   0.60840   0.61733   0.61886   0.62917
 Alpha virt. eigenvalues --    0.63563   0.63975   0.65495   0.66146   0.67108
 Alpha virt. eigenvalues --    0.68294   0.69577   0.70292   0.70712   0.72454
 Alpha virt. eigenvalues --    0.73278   0.74562   0.75275   0.75740   0.77651
 Alpha virt. eigenvalues --    0.78632   0.78811   0.79712   0.80141   0.80971
 Alpha virt. eigenvalues --    0.81441   0.82351   0.83756   0.84411   0.84717
 Alpha virt. eigenvalues --    0.85560   0.86268   0.86652   0.87328   0.88296
 Alpha virt. eigenvalues --    0.88934   0.90082   0.91106   0.92561   0.94325
 Alpha virt. eigenvalues --    1.00530   1.01765   1.03232   1.04108   1.06204
 Alpha virt. eigenvalues --    1.07780   1.08519   1.13050   1.13791   1.15647
 Alpha virt. eigenvalues --    1.19814   1.22249   1.22655   1.24061   1.27888
 Alpha virt. eigenvalues --    1.28856   1.29511   1.32402   1.33057   1.34387
 Alpha virt. eigenvalues --    1.35180   1.37540   1.38281   1.43014   1.43958
 Alpha virt. eigenvalues --    1.44904   1.47284   1.48712   1.49934   1.51740
 Alpha virt. eigenvalues --    1.53462   1.54887   1.55170   1.57442   1.60593
 Alpha virt. eigenvalues --    1.61053   1.62784   1.64383   1.65768   1.69564
 Alpha virt. eigenvalues --    1.71271   1.72811   1.75141   1.76901   1.79623
 Alpha virt. eigenvalues --    1.81690   1.82715   1.84979   1.85942   1.86846
 Alpha virt. eigenvalues --    1.88645   1.91206   1.92450   1.95149   1.97893
 Alpha virt. eigenvalues --    2.00822   2.03456   2.06848   2.08628   2.10133
 Alpha virt. eigenvalues --    2.10770   2.14902   2.21222   2.22042   2.24176
 Alpha virt. eigenvalues --    2.26481   2.26829   2.29759   2.32277   2.34182
 Alpha virt. eigenvalues --    2.37846   2.40240   2.42429   2.43461   2.44267
 Alpha virt. eigenvalues --    2.46613   2.48349   2.51805   2.53530   2.57535
 Alpha virt. eigenvalues --    2.62356   2.66458   2.67611   2.69236   2.71705
 Alpha virt. eigenvalues --    2.73602   2.74700   2.75393   2.77708   2.79433
 Alpha virt. eigenvalues --    2.79939   2.81046   2.82247   2.83290   2.85281
 Alpha virt. eigenvalues --    2.86858   2.88328   2.88769   2.90439   2.91879
 Alpha virt. eigenvalues --    2.94202   2.94473   2.96278   2.97742   2.99224
 Alpha virt. eigenvalues --    3.03041   3.03795   3.04109   3.05121   3.07904
 Alpha virt. eigenvalues --    3.10519   3.11131   3.15024   3.16727   3.19524
 Alpha virt. eigenvalues --    3.21475   3.22955   3.24355   3.26504   3.27157
 Alpha virt. eigenvalues --    3.30128   3.32798   3.34455   3.34965   3.35778
 Alpha virt. eigenvalues --    3.37872   3.42375   3.43918   3.47871   3.48517
 Alpha virt. eigenvalues --    3.50214   3.50551   3.52246   3.52825   3.56997
 Alpha virt. eigenvalues --    3.58594   3.59537   3.59777   3.63742   3.66739
 Alpha virt. eigenvalues --    3.67322   3.70635   3.72525   3.73511   3.76804
 Alpha virt. eigenvalues --    3.80539   3.85416   3.86885   3.89657   3.91829
 Alpha virt. eigenvalues --    3.95458   3.95637   3.97052   3.99648   4.03722
 Alpha virt. eigenvalues --    4.04349   4.07376   4.08376   4.09983   4.10938
 Alpha virt. eigenvalues --    4.18034   4.18671   4.19656   4.20532   4.21405
 Alpha virt. eigenvalues --    4.21868   4.23692   4.25212   4.26149   4.28417
 Alpha virt. eigenvalues --    4.30936   4.31857   4.32629   4.35136   4.36225
 Alpha virt. eigenvalues --    4.37185   4.37642   4.39438   4.40549   4.42326
 Alpha virt. eigenvalues --    4.45042   4.46330   4.47540   4.48221   4.49435
 Alpha virt. eigenvalues --    4.50808   4.51658   4.53258   4.54020   4.55954
 Alpha virt. eigenvalues --    4.56615   4.57822   4.58414   4.59752   4.60623
 Alpha virt. eigenvalues --    4.63162   4.64242   4.66243   4.67425   4.67748
 Alpha virt. eigenvalues --    4.68352   4.70365   4.71754   4.72897   4.75469
 Alpha virt. eigenvalues --    4.75906   4.76483   4.78478   4.79269   4.82350
 Alpha virt. eigenvalues --    4.83675   4.84876   4.86550   4.87494   4.89546
 Alpha virt. eigenvalues --    4.90837   4.91051   4.92392   4.93851   4.94545
 Alpha virt. eigenvalues --    4.96961   4.98223   5.01378   5.03329   5.05830
 Alpha virt. eigenvalues --    5.08337   5.10496   5.12233   5.16431   5.17507
 Alpha virt. eigenvalues --    5.21017   5.28336   5.29707   5.31763   5.32458
 Alpha virt. eigenvalues --    5.34608   5.40570   5.43502   5.49079   5.50861
 Alpha virt. eigenvalues --    5.55103   5.60254   5.64414   5.73556   5.75823
 Alpha virt. eigenvalues --    5.81103   6.02098   6.21587   8.18432   9.14483
 Alpha virt. eigenvalues --   10.05597  10.87674  11.19479  11.27549  11.38636
 Alpha virt. eigenvalues --   11.42814  11.49569  11.51930  11.61830  12.05564
 Alpha virt. eigenvalues --   12.26702  13.12214  15.46168  16.05474
          Condensed to atoms (all electrons):
               1          2          3          4          5          6
     1  N    6.633580   0.493945  -0.124131   0.004226  -0.000107   0.000001
     2  N    0.493945   6.321430   0.401183  -0.047940   0.001845  -0.000054
     3  N   -0.124131   0.401183   6.335162   0.345801  -0.037883   0.000795
     4  C    0.004226  -0.047940   0.345801   4.851230   0.409276  -0.033310
     5  C   -0.000107   0.001845  -0.037883   0.409276   5.005275   0.381693
     6  C    0.000001  -0.000054   0.000795  -0.033310   0.381693   4.701526
     7  N    0.000000   0.000005   0.000486  -0.004522  -0.063410   0.391078
     8  C   -0.000000   0.000000  -0.000051   0.001117  -0.046256   0.414190
     9  N    0.000000  -0.000000   0.000000  -0.000039   0.001949  -0.026727
    10  C   -0.000000  -0.000000  -0.000000  -0.000000  -0.000213   0.002182
    11  N    0.000000  -0.000000   0.000000  -0.000000   0.000001  -0.000083
    12  H    0.323912  -0.078066   0.007219  -0.000899  -0.000000  -0.000000
    13  H    0.035088  -0.049096   0.326671  -0.046184   0.005783   0.000096
    14  H    0.000655   0.001078  -0.033417   0.342817  -0.027724  -0.006873
    15  H    0.000405  -0.000126  -0.031858   0.353020  -0.027433  -0.000959
    16  H    0.000000   0.000112   0.002250  -0.032168   0.338258  -0.020169
    17  H   -0.000007   0.000056   0.001065  -0.036359   0.346971  -0.019192
    18  H    0.000000   0.000002   0.000140  -0.003130  -0.050673   0.357631
    19  H    0.000000   0.000000   0.000005  -0.000227  -0.005771  -0.051601
    20  H    0.000000   0.000000  -0.000030   0.001170  -0.003656  -0.048163
    21  H    0.000000  -0.000000   0.000002  -0.000020  -0.003682  -0.016520
    22  H    0.000000   0.000000   0.000005   0.000111  -0.001066  -0.027566
    23  H    0.000000  -0.000000  -0.000000  -0.000000   0.000446  -0.002959
    24  H    0.000000  -0.000000   0.000000   0.000000  -0.000021   0.000241
    25  H    0.000000   0.000000   0.000000   0.000000   0.000054   0.000165
    26  H    0.000000   0.000000   0.000000   0.000000   0.000001   0.000009
    27  H   -0.000000   0.000000  -0.000000   0.000000  -0.000000   0.000002
               7          8          9         10         11         12
     1  N    0.000000  -0.000000   0.000000  -0.000000   0.000000   0.323912
     2  N    0.000005   0.000000  -0.000000  -0.000000  -0.000000  -0.078066
     3  N    0.000486  -0.000051   0.000000  -0.000000   0.000000   0.007219
     4  C   -0.004522   0.001117  -0.000039  -0.000000  -0.000000  -0.000899
     5  C   -0.063410  -0.046256   0.001949  -0.000213   0.000001  -0.000000
     6  C    0.391078   0.414190  -0.026727   0.002182  -0.000083  -0.000000
     7  N    6.543947  -0.025780  -0.010085   0.000318  -0.000001   0.000000
     8  C   -0.025780   4.877991   0.379386  -0.068778   0.004065  -0.000000
     9  N   -0.010085   0.379386   6.395639   0.388976  -0.057155  -0.000000
    10  C    0.000318  -0.068778   0.388976   4.801601   0.393778  -0.000000
    11  N   -0.000001   0.004065  -0.057155   0.393778   6.561175  -0.000000
    12  H    0.000000  -0.000000  -0.000000  -0.000000  -0.000000   0.515139
    13  H    0.000006   0.000017   0.000000   0.000000   0.000000  -0.001773
    14  H    0.007655   0.000068   0.000002   0.000000  -0.000000   0.000004
    15  H    0.000149   0.000149   0.000002   0.000000   0.000000   0.000011
    16  H    0.005174  -0.001877   0.000044  -0.000000   0.000000   0.000000
    17  H   -0.004288  -0.004293   0.000024   0.000003   0.000000   0.000000
    18  H   -0.032405  -0.035346   0.003952  -0.000006  -0.000002   0.000000
    19  H    0.337487  -0.003307  -0.000008  -0.000048  -0.000000   0.000000
    20  H    0.351518   0.005026   0.000168   0.000007  -0.000000   0.000000
    21  H    0.003185   0.352381  -0.022171  -0.003056   0.000189   0.000000
    22  H   -0.008995   0.336839  -0.045391  -0.008012  -0.000010  -0.000000
    23  H    0.020504  -0.048511   0.332689  -0.047820   0.010800  -0.000000
    24  H   -0.000018  -0.000066  -0.037827   0.371422  -0.038358   0.000000
    25  H   -0.000031  -0.006605  -0.033185   0.342104  -0.029879   0.000000
    26  H    0.000000  -0.000261   0.011405  -0.057083   0.334440  -0.000000
    27  H    0.000000  -0.000481   0.005600  -0.046539   0.331571   0.000000
              13         14         15         16         17         18
     1  N    0.035088   0.000655   0.000405   0.000000  -0.000007   0.000000
     2  N   -0.049096   0.001078  -0.000126   0.000112   0.000056   0.000002
     3  N    0.326671  -0.033417  -0.031858   0.002250   0.001065   0.000140
     4  C   -0.046184   0.342817   0.353020  -0.032168  -0.036359  -0.003130
     5  C    0.005783  -0.027724  -0.027433   0.338258   0.346971  -0.050673
     6  C    0.000096  -0.006873  -0.000959  -0.020169  -0.019192   0.357631
     7  N    0.000006   0.007655   0.000149   0.005174  -0.004288  -0.032405
     8  C    0.000017   0.000068   0.000149  -0.001877  -0.004293  -0.035346
     9  N    0.000000   0.000002   0.000002   0.000044   0.000024   0.003952
    10  C    0.000000   0.000000   0.000000  -0.000000   0.000003  -0.000006
    11  N    0.000000  -0.000000   0.000000   0.000000   0.000000  -0.000002
    12  H   -0.001773   0.000004   0.000011   0.000000   0.000000   0.000000
    13  H    0.484478   0.004070   0.004228   0.001996   0.002625   0.000013
    14  H    0.004070   0.654086  -0.051035   0.007227  -0.006423  -0.000087
    15  H    0.004228  -0.051035   0.633316  -0.006689   0.006426   0.005495
    16  H    0.001996   0.007227  -0.006689   0.642708  -0.040819  -0.001992
    17  H    0.002625  -0.006423   0.006426  -0.040819   0.640876   0.006223
    18  H    0.000013  -0.000087   0.005495  -0.001992   0.006223   0.648773
    19  H    0.000002   0.001630   0.000064   0.000030   0.005262   0.006773
    20  H    0.000001   0.006766  -0.000230  -0.000004  -0.000185  -0.004628
    21  H    0.000001  -0.000003   0.000003   0.003456  -0.000274  -0.004249
    22  H    0.000000   0.000006   0.000004  -0.000203   0.005224   0.007159
    23  H   -0.000000  -0.000005  -0.000001  -0.000030  -0.000012  -0.000433
    24  H    0.000000   0.000000   0.000000   0.000001   0.000000  -0.000015
    25  H   -0.000000  -0.000000  -0.000000  -0.000000   0.000001   0.000040
    26  H    0.000000  -0.000000  -0.000000   0.000000   0.000000   0.000010
    27  H    0.000000   0.000000  -0.000000   0.000000   0.000000   0.000000
              19         20         21         22         23         24
     1  N    0.000000   0.000000   0.000000   0.000000   0.000000   0.000000
     2  N    0.000000   0.000000  -0.000000   0.000000  -0.000000  -0.000000
     3  N    0.000005  -0.000030   0.000002   0.000005  -0.000000   0.000000
     4  C   -0.000227   0.001170  -0.000020   0.000111  -0.000000   0.000000
     5  C   -0.005771  -0.003656  -0.003682  -0.001066   0.000446  -0.000021
     6  C   -0.051601  -0.048163  -0.016520  -0.027566  -0.002959   0.000241
     7  N    0.337487   0.351518   0.003185  -0.008995   0.020504  -0.000018
     8  C   -0.003307   0.005026   0.352381   0.336839  -0.048511  -0.000066
     9  N   -0.000008   0.000168  -0.022171  -0.045391   0.332689  -0.037827
    10  C   -0.000048   0.000007  -0.003056  -0.008012  -0.047820   0.371422
    11  N   -0.000000  -0.000000   0.000189  -0.000010   0.010800  -0.038358
    12  H    0.000000   0.000000   0.000000  -0.000000  -0.000000   0.000000
    13  H    0.000002   0.000001   0.000001   0.000000  -0.000000   0.000000
    14  H    0.001630   0.006766  -0.000003   0.000006  -0.000005   0.000000
    15  H    0.000064  -0.000230   0.000003   0.000004  -0.000001   0.000000
    16  H    0.000030  -0.000004   0.003456  -0.000203  -0.000030   0.000001
    17  H    0.005262  -0.000185  -0.000274   0.005224  -0.000012   0.000000
    18  H    0.006773  -0.004628  -0.004249   0.007159  -0.000433  -0.000015
    19  H    0.515238  -0.032834  -0.000174   0.004735  -0.000872   0.000002
    20  H   -0.032834   0.489700  -0.000194  -0.000233  -0.000452   0.000000
    21  H   -0.000174  -0.000194   0.631172  -0.052526   0.006414   0.005878
    22  H    0.004735  -0.000233  -0.052526   0.710196  -0.004222  -0.002518
    23  H   -0.000872  -0.000452   0.006414  -0.004222   0.503188   0.007787
    24  H    0.000002   0.000000   0.005878  -0.002518   0.007787   0.698565
    25  H    0.000002  -0.000002  -0.001913   0.016128  -0.006994  -0.068016
    26  H   -0.000000  -0.000000  -0.000062   0.000121  -0.001105  -0.008208
    27  H   -0.000000   0.000000  -0.000003   0.000035  -0.000385  -0.005897
              25         26         27
     1  N    0.000000   0.000000  -0.000000
     2  N    0.000000   0.000000   0.000000
     3  N    0.000000   0.000000  -0.000000
     4  C    0.000000   0.000000   0.000000
     5  C    0.000054   0.000001  -0.000000
     6  C    0.000165   0.000009   0.000002
     7  N   -0.000031   0.000000   0.000000
     8  C   -0.006605  -0.000261  -0.000481
     9  N   -0.033185   0.011405   0.005600
    10  C    0.342104  -0.057083  -0.046539
    11  N   -0.029879   0.334440   0.331571
    12  H    0.000000  -0.000000   0.000000
    13  H   -0.000000   0.000000   0.000000
    14  H   -0.000000  -0.000000   0.000000
    15  H   -0.000000  -0.000000  -0.000000
    16  H   -0.000000   0.000000   0.000000
    17  H    0.000001   0.000000   0.000000
    18  H    0.000040   0.000010   0.000000
    19  H    0.000002  -0.000000  -0.000000
    20  H   -0.000002  -0.000000   0.000000
    21  H   -0.001913  -0.000062  -0.000003
    22  H    0.016128   0.000121   0.000035
    23  H   -0.006994  -0.001105  -0.000385
    24  H   -0.068016  -0.008208  -0.005897
    25  H    0.702068   0.009124   0.001767
    26  H    0.009124   0.513193  -0.027599
    27  H    0.001767  -0.027599   0.525248
 Mulliken charges:
               1
     1  N   -0.367567
     2  N   -0.044376
     3  N   -0.193415
     4  C   -0.103969
     5  C   -0.223657
     6  C    0.004567
     7  N   -0.511976
     8  C   -0.129617
     9  N   -0.287252
    10  C   -0.068835
    11  N   -0.510532
    12  H    0.234453
    13  H    0.231979
    14  H    0.099501
    15  H    0.115059
    16  H    0.102693
    17  H    0.097095
    18  H    0.096754
    19  H    0.223612
    20  H    0.236255
    21  H    0.102165
    22  H    0.070176
    23  H    0.231973
    24  H    0.077048
    25  H    0.075171
    26  H    0.226015
    27  H    0.216681
 Sum of Mulliken charges =  -0.00000
 Mulliken charges with hydrogens summed into heavy atoms:
               1
     1  N   -0.133115
     2  N   -0.044376
     3  N    0.038564
     4  C    0.110591
     5  C   -0.023869
     6  C    0.101321
     7  N   -0.052110
     8  C    0.042724
     9  N   -0.055279
    10  C    0.083384
    11  N   -0.067835
 Electronic spatial extent (au):  <R**2>=           3951.2618
 Charge=              0.0000 electrons
 Dipole moment (field-independent basis, Debye):
    X=              0.6641    Y=             -1.1296    Z=              0.5778  Tot=              1.4321
 Quadrupole moment (field-independent basis, Debye-Ang):
   XX=            -75.0600   YY=            -69.0846   ZZ=            -66.6239
   XY=            -10.2516   XZ=             -0.7413   YZ=              0.9018
 Traceless Quadrupole moment (field-independent basis, Debye-Ang):
   XX=             -4.8038   YY=              1.1716   ZZ=              3.6323
   XY=            -10.2516   XZ=             -0.7413   YZ=              0.9018
 Octapole moment (field-independent basis, Debye-Ang**2):
  XXX=             36.8997  YYY=              2.0453  ZZZ=              1.0061  XYY=             -2.1255
  XXY=            -19.9665  XXZ=            -18.7151  XZZ=              4.8957  YZZ=              3.3855
  YYZ=              0.9357  XYZ=             -2.7691
 Hexadecapole moment (field-independent basis, Debye-Ang**3):
 XXXX=          -4156.0336 YYYY=           -286.0287 ZZZZ=           -129.1459 XXXY=           -308.1313
 XXXZ=            -43.2404 YYYX=             -9.5582 YYYZ=              4.9690 ZZZX=             -7.3785
 ZZZY=              4.9735 XXYY=           -873.7451 XXZZ=           -785.4293 YYZZ=            -68.5009
 XXYZ=              5.9855 YYXZ=             -7.1397 ZZXY=              4.5762
 N-N= 6.207300324753D+02 E-N=-2.471897155095D+03  KE= 5.247666988187D+02
 PrsmSu:  requested number of processors reduced to:  13 ShMem   1 Linda.
 Calling FoFJK, ICntrl=      2127 FMM=F ISym2X=0 I1Cent= 0 IOpClX= 0 NMat=1 NMatS=1 NMatT=0.
 ***** Axes restored to original set *****
 -------------------------------------------------------------------
 Center     Atomic                   Forces (Hartrees/Bohr)
 Number     Number              X              Y              Z
 -------------------------------------------------------------------
      1        7          -0.040042828    0.007097314   -0.002924130
      2        7           0.009085640   -0.015805125    0.007802572
      3        7           0.013124014    0.004288942   -0.004493854
      4        6          -0.002511307    0.001356639    0.000240829
      5        6          -0.003437535   -0.004946298   -0.005604960
      6        6          -0.004928815   -0.001786545    0.010765293
      7        7           0.005760508   -0.001761726   -0.002282169
      8        6           0.008926388    0.014235732   -0.008158881
      9        7          -0.023159663    0.006215038   -0.007577906
     10        6           0.008384130    0.002767086   -0.006979298
     11        7           0.021535103   -0.004657836    0.007105369
     12        1           0.008928644    0.002175009   -0.000895334
     13        1          -0.000134022   -0.001713912    0.001182775
     14        1           0.006346340    0.000985261   -0.000390167
     15        1           0.005976129    0.000858007   -0.000471364
     16        1          -0.000670030   -0.000070636   -0.000746430
     17        1           0.001409245    0.001087275    0.001175533
     18        1           0.001710235    0.000900265    0.001652838
     19        1          -0.000634295   -0.000274582   -0.001583300
     20        1           0.002576246   -0.002712925    0.002274173
     21        1          -0.000103183    0.000088487    0.000167361
     22        1          -0.006996772   -0.000638333    0.004017570
     23        1          -0.000889517   -0.004622979   -0.002919757
     24        1          -0.012851497   -0.001997782   -0.001791187
     25        1          -0.001215864   -0.003563325    0.008103570
     26        1           0.000527955    0.000592234    0.001534684
     27        1           0.003284752    0.001904715    0.000796169
 -------------------------------------------------------------------
 Cartesian Forces:  Max     0.040042828 RMS     0.007649298

 GradGradGradGradGradGradGradGradGradGradGradGradGradGradGradGradGradGrad
 Berny optimization.
 FormGI is forming the generalized inverse of G from B-inverse, IUseBI=4.
 Internal  Forces:  Max     0.051784041 RMS     0.007161535
 Search for a local minimum.
 Step number   1 out of a maximum of  140
 All quantities printed in internal units (Hartrees-Bohrs-Radians)
 Mixed Optimization -- RFO/linear search
 Second derivative matrix not updated -- first step.
 ITU=  0
     Eigenvalues ---    0.00230   0.00230   0.00403   0.00721   0.00774
     Eigenvalues ---    0.01143   0.01212   0.01230   0.01402   0.02095
     Eigenvalues ---    0.03225   0.03423   0.03492   0.03986   0.04216
     Eigenvalues ---    0.04230   0.04305   0.04696   0.04792   0.05096
     Eigenvalues ---    0.05407   0.05444   0.05729   0.06245   0.07074
     Eigenvalues ---    0.08288   0.09018   0.09202   0.09671   0.10713
     Eigenvalues ---    0.12177   0.12592   0.12724   0.12900   0.15908
     Eigenvalues ---    0.16000   0.16000   0.16000   0.16000   0.16000
     Eigenvalues ---    0.16486   0.18014   0.21881   0.21898   0.21969
     Eigenvalues ---    0.22023   0.22025   0.23524   0.25000   0.27478
     Eigenvalues ---    0.28236   0.29663   0.33856   0.33862   0.33924
     Eigenvalues ---    0.33935   0.34145   0.34266   0.34280   0.34339
     Eigenvalues ---    0.34372   0.35339   0.35813   0.39387   0.40102
     Eigenvalues ---    0.40295   0.43145   0.43873   0.44553   0.44603
     Eigenvalues ---    0.44606   0.44802   0.45656   0.57310   0.87406
 RFO step:  Lambda=-2.46532562D-02 EMin= 2.30000000D-03
 Linear search not attempted -- first point.
 Iteration  1 RMS(Cart)=  0.07035794 RMS(Int)=  0.00447816
 Iteration  2 RMS(Cart)=  0.00617733 RMS(Int)=  0.00050834
 Iteration  3 RMS(Cart)=  0.00003434 RMS(Int)=  0.00050803
 Iteration  4 RMS(Cart)=  0.00000003 RMS(Int)=  0.00050803
 Variable       Old X    -DE/DX   Delta X   Delta X   Delta X     New X
                                 (Linear)    (Quad)   (Total)
    R1        2.34152   0.02916   0.00000   0.03245   0.03245   2.37397
    R2        1.94191  -0.00243   0.00000  -0.00533  -0.00533   1.93658
    R3        2.53135   0.00324   0.00000   0.00542   0.00542   2.53677
    R4        2.72394   0.00899   0.00000   0.02149   0.02149   2.74543
    R5        1.91221   0.00175   0.00000   0.00363   0.00363   1.91584
    R6        2.88641  -0.00089   0.00000  -0.00277  -0.00277   2.88364
    R7        2.06707   0.00245   0.00000   0.00665   0.00665   2.07372
    R8        2.06861   0.00242   0.00000   0.00659   0.00659   2.07520
    R9        2.91625   0.00199   0.00000   0.00647   0.00647   2.92272
   R10        2.07564   0.00058   0.00000   0.00159   0.00159   2.07723
   R11        2.07459   0.00061   0.00000   0.00169   0.00169   2.07627
   R12        2.78428  -0.00173   0.00000  -0.00459  -0.00459   2.77970
   R13        2.93295  -0.01197   0.00000  -0.03996  -0.03996   2.89299
   R14        2.07439  -0.00101   0.00000  -0.00277  -0.00277   2.07162
   R15        1.92499  -0.00124   0.00000  -0.00264  -0.00264   1.92235
   R16        1.92436  -0.00406   0.00000  -0.00863  -0.00863   1.91572
   R17        2.77675  -0.00423   0.00000  -0.01106  -0.01106   2.76569
   R18        2.07087  -0.00011   0.00000  -0.00029  -0.00029   2.07057
   R19        2.07573   0.00614   0.00000   0.01691   0.01691   2.09264
   R20        2.71154   0.01501   0.00000   0.03510   0.03510   2.74664
   R21        1.93307  -0.00538   0.00000  -0.01161  -0.01161   1.92146
   R22        2.71415   0.02497   0.00000   0.05866   0.05866   2.77281
   R23        2.06883   0.00614   0.00000   0.01673   0.01673   2.08556
   R24        2.06761   0.00783   0.00000   0.02127   0.02127   2.08888
   R25        1.92439  -0.00135   0.00000  -0.00286  -0.00286   1.92153
   R26        1.92206   0.00009   0.00000   0.00020   0.00020   1.92226
    A1        1.93025  -0.01726   0.00000  -0.09347  -0.09347   1.83678
    A2        1.88389   0.05178   0.00000   0.18854   0.18854   2.07243
    A3        2.06754   0.00514   0.00000   0.02078   0.02078   2.08832
    A4        2.02347  -0.00144   0.00000  -0.00465  -0.00466   2.01881
    A5        2.18088  -0.00371   0.00000  -0.01701  -0.01702   2.16387
    A6        1.97037  -0.01072   0.00000  -0.04020  -0.03990   1.93047
    A7        1.86536   0.00699   0.00000   0.04517   0.04478   1.91013
    A8        1.87253   0.00629   0.00000   0.03799   0.03749   1.91002
    A9        1.93210   0.00028   0.00000  -0.00943  -0.00900   1.92309
   A10        1.92293   0.00041   0.00000  -0.01097  -0.01063   1.91230
   A11        1.89779  -0.00280   0.00000  -0.01971  -0.02078   1.87701
   A12        1.96114   0.00496   0.00000   0.02032   0.02035   1.98149
   A13        1.90082  -0.00229   0.00000  -0.01014  -0.01018   1.89064
   A14        1.91678  -0.00080   0.00000  -0.00175  -0.00168   1.91510
   A15        1.90661  -0.00069   0.00000   0.00037   0.00039   1.90700
   A16        1.92373  -0.00272   0.00000  -0.01525  -0.01525   1.90848
   A17        1.85134   0.00132   0.00000   0.00562   0.00559   1.85693
   A18        1.95333   0.00971   0.00000   0.06164   0.06174   2.01508
   A19        1.92439  -0.00164   0.00000  -0.00240  -0.00209   1.92230
   A20        1.89684  -0.00156   0.00000  -0.00119  -0.00119   1.89565
   A21        1.91138  -0.00621   0.00000  -0.03027  -0.03075   1.88063
   A22        1.88647  -0.00197   0.00000  -0.01829  -0.01909   1.86738
   A23        1.88992   0.00150   0.00000  -0.01175  -0.01223   1.87768
   A24        1.91901  -0.00156   0.00000  -0.00795  -0.00794   1.91107
   A25        1.92743   0.00223   0.00000   0.01259   0.01260   1.94003
   A26        1.86226  -0.00017   0.00000   0.00010   0.00012   1.86238
   A27        1.94871  -0.00485   0.00000  -0.01850  -0.01855   1.93016
   A28        1.90986   0.00174   0.00000  -0.00138  -0.00158   1.90827
   A29        1.89808  -0.00116   0.00000  -0.00723  -0.00713   1.89095
   A30        1.90649   0.00005   0.00000  -0.00804  -0.00821   1.89827
   A31        1.91717   0.00583   0.00000   0.04597   0.04602   1.96318
   A32        1.88234  -0.00152   0.00000  -0.01067  -0.01073   1.87161
   A33        1.93360   0.01273   0.00000   0.05156   0.05139   1.98500
   A34        1.88642  -0.00274   0.00000  -0.00156  -0.00172   1.88471
   A35        1.90407  -0.00387   0.00000  -0.01034  -0.01071   1.89336
   A36        1.82970   0.01538   0.00000   0.07258   0.07193   1.90163
   A37        1.93161  -0.01099   0.00000  -0.06023  -0.06306   1.86855
   A38        1.96182  -0.00039   0.00000   0.00184   0.00172   1.96354
   A39        1.92003   0.00603   0.00000   0.06475   0.06569   1.98573
   A40        1.91552  -0.00853   0.00000  -0.04001  -0.03969   1.87583
   A41        1.90411  -0.00091   0.00000  -0.03331  -0.03374   1.87037
   A42        1.86928   0.00125   0.00000   0.01116   0.01086   1.88014
   A43        1.89976   0.00623   0.00000   0.03792   0.03764   1.93741
   A44        1.85567  -0.00145   0.00000   0.00208   0.00148   1.85716
    D1       -3.11941  -0.00109   0.00000  -0.01843  -0.01843  -3.13784
    D2       -3.07882   0.00120   0.00000   0.02522   0.02524  -3.05359
    D3       -0.09010   0.00076   0.00000   0.01760   0.01759  -0.07251
    D4        3.08002   0.00002   0.00000  -0.00151  -0.00152   3.07850
    D5        0.95167   0.00152   0.00000   0.00422   0.00487   0.95654
    D6       -1.08137  -0.00184   0.00000  -0.01426  -0.01489  -1.09626
    D7        0.10629   0.00018   0.00000   0.00524   0.00522   0.11151
    D8       -2.02205   0.00169   0.00000   0.01097   0.01161  -2.01045
    D9        2.22809  -0.00168   0.00000  -0.00752  -0.00815   2.21994
   D10        3.11771   0.00010   0.00000  -0.00313  -0.00314   3.11457
   D11        1.00285  -0.00068   0.00000  -0.00982  -0.00977   0.99307
   D12       -1.01754  -0.00052   0.00000  -0.00985  -0.00982  -1.02736
   D13       -1.07515   0.00199   0.00000   0.02081   0.02082  -1.05433
   D14        3.09318   0.00121   0.00000   0.01413   0.01419   3.10736
   D15        1.07279   0.00137   0.00000   0.01410   0.01414   1.08694
   D16        1.02464  -0.00106   0.00000  -0.01706  -0.01715   1.00749
   D17       -1.09022  -0.00183   0.00000  -0.02374  -0.02378  -1.11401
   D18       -3.11060  -0.00168   0.00000  -0.02378  -0.02383  -3.13443
   D19        1.07547   0.00208   0.00000   0.01315   0.01306   1.08853
   D20       -3.07558  -0.00034   0.00000   0.01520   0.01535  -3.06023
   D21       -1.00662  -0.00041   0.00000  -0.00121  -0.00140  -1.00802
   D22       -3.09618   0.00195   0.00000   0.01388   0.01386  -3.08232
   D23       -0.96404  -0.00046   0.00000   0.01594   0.01614  -0.94790
   D24        1.10492  -0.00054   0.00000  -0.00047  -0.00060   1.10432
   D25       -1.06857   0.00160   0.00000   0.01219   0.01219  -1.05638
   D26        1.06357  -0.00081   0.00000   0.01425   0.01447   1.07804
   D27        3.13253  -0.00089   0.00000  -0.00216  -0.00228   3.13025
   D28        0.97022  -0.00136   0.00000  -0.01982  -0.01992   0.95031
   D29       -1.08023  -0.00155   0.00000  -0.02269  -0.02277  -1.10300
   D30       -1.16933  -0.00148   0.00000  -0.03724  -0.03687  -1.20620
   D31        3.06340  -0.00167   0.00000  -0.04011  -0.03973   3.02368
   D32        3.05841   0.00130   0.00000   0.00412   0.00382   3.06223
   D33        1.00796   0.00111   0.00000   0.00125   0.00097   1.00892
   D34        3.10505  -0.00504   0.00000  -0.05448  -0.05437   3.05068
   D35        0.99226  -0.00312   0.00000  -0.03141  -0.03133   0.96093
   D36       -1.05990  -0.00162   0.00000  -0.01364  -0.01356  -1.07345
   D37       -1.02144   0.00188   0.00000   0.00100   0.00086  -1.02058
   D38       -3.13423   0.00380   0.00000   0.02407   0.02390  -3.11033
   D39        1.09680   0.00530   0.00000   0.04185   0.04167   1.13847
   D40        1.03185  -0.00309   0.00000  -0.04457  -0.04448   0.98737
   D41       -1.08094  -0.00118   0.00000  -0.02150  -0.02144  -1.10238
   D42       -3.13309   0.00032   0.00000  -0.00373  -0.00367  -3.13676
   D43        3.04093   0.00011   0.00000   0.00251   0.00251   3.04344
   D44        0.95568  -0.00097   0.00000  -0.01430  -0.01451   0.94117
   D45       -1.12752  -0.00081   0.00000  -0.01663  -0.01648  -1.14400
   D46        3.07042  -0.00188   0.00000  -0.03344  -0.03350   3.03692
   D47        0.93378   0.00080   0.00000  -0.00734  -0.00719   0.92660
   D48       -1.15146  -0.00027   0.00000  -0.02415  -0.02420  -1.17567
   D49       -3.08439   0.00289   0.00000   0.02028   0.01920  -3.06520
   D50        1.12931  -0.00750   0.00000  -0.06743  -0.06598   1.06332
   D51       -1.00458   0.00193   0.00000   0.01800   0.01769  -0.98689
   D52       -1.00977   0.00480   0.00000   0.04309   0.04197  -0.96781
   D53       -3.07926  -0.00559   0.00000  -0.04463  -0.04321  -3.12247
   D54        1.07004   0.00384   0.00000   0.04081   0.04046   1.11050
   D55       -1.00966   0.00242   0.00000   0.01131   0.00988  -0.99978
   D56       -3.00920   0.00038   0.00000  -0.01562  -0.01738  -3.02658
   D57        1.06764   0.00118   0.00000   0.01395   0.01576   1.08339
   D58       -0.93191  -0.00086   0.00000  -0.01297  -0.01150  -0.94341
   D59       -3.12032  -0.00153   0.00000  -0.01181  -0.01168  -3.13200
   D60        1.16332  -0.00357   0.00000  -0.03873  -0.03894   1.12438
         Item               Value     Threshold  Converged?
 Maximum Force            0.051784     0.000450     NO 
 RMS     Force            0.007162     0.000300     NO 
 Maximum Displacement     0.259850     0.001800     NO 
 RMS     Displacement     0.070788     0.001200     NO 
 Predicted change in Energy=-1.380723D-02
 GradGradGradGradGradGradGradGradGradGradGradGradGradGradGradGradGradGrad

                          Input orientation:                          
 ---------------------------------------------------------------------
 Center     Atomic      Atomic             Coordinates (Angstroms)
 Number     Number       Type             X           Y           Z
 ---------------------------------------------------------------------
      1          7           0        0.933313   -0.185802   -0.034961
      2          7           0        2.188378   -0.162473   -0.084249
      3          7           0        2.876772   -1.136853    0.531162
      4          6           0        4.327225   -1.070753    0.581166
      5          6           0        4.889674   -2.228220    1.401206
      6          6           0        6.434822   -2.244824    1.467025
      7          7           0        7.052757   -1.075989    2.111760
      8          6           0        6.917498   -3.495349    2.206534
      9          7           0        8.377784   -3.584809    2.167629
     10          6           0        8.918213   -4.677302    2.959428
     11          7           0       10.383556   -4.606675    2.931651
     12          1           0        0.627571    0.635775   -0.565752
     13          1           0        2.321351   -1.801613    1.057878
     14          1           0        4.634335   -0.112370    1.018652
     15          1           0        4.730346   -1.113082   -0.439437
     16          1           0        4.535436   -3.169822    0.958265
     17          1           0        4.482264   -2.192642    2.420974
     18          1           0        6.828089   -2.292091    0.444833
     19          1           0        6.656681   -0.951607    3.040455
     20          1           0        6.856013   -0.226403    1.594847
     21          1           0        6.496923   -4.385847    1.726233
     22          1           0        6.522636   -3.462885    3.240612
     23          1           0        8.755500   -2.710707    2.524204
     24          1           0        8.509894   -5.613334    2.540950
     25          1           0        8.603510   -4.628638    4.017951
     26          1           0       10.676784   -4.641896    1.958656
     27          1           0       10.796376   -5.417938    3.385697
 ---------------------------------------------------------------------
                    Distance matrix (angstroms):
                    1          2          3          4          5
     1  N    0.000000
     2  N    1.256248   0.000000
     3  N    2.236520   1.342398   0.000000
     4  C    3.561094   2.417110   1.452820   0.000000
     5  C    4.678337   3.710915   2.449456   1.525957   0.000000
     6  C    6.063178   4.977442   3.842286   2.570049   1.546638
     7  N    6.545872   5.414717   4.465518   3.125903   2.551754
     8  C    7.196378   6.222566   4.969592   3.902562   2.523140
     9  N    8.474950   7.422404   6.239523   5.024377   3.820293
    10  C    9.638390   8.656693   7.411496   6.304006   4.965398
    11  N   10.846750   9.798344   8.611262   7.396395   6.179162
    12  H    1.024796   1.818010   3.066648   4.232624   5.498811
    13  H    2.394116   2.002228   1.013819   2.187451   2.626053
    14  H    3.848773   2.683581   2.091946   1.097364   2.165263
    15  H    3.929492   2.737046   2.092455   1.098148   2.157981
    16  H    4.781857   3.954702   2.658298   2.142812   1.099225
    17  H    4.759629   3.957227   2.695123   2.160455   1.098716
    18  H    6.278140   5.132458   4.117638   2.786499   2.162448
    19  H    6.542292   5.509287   4.540769   3.389493   2.727488
    20  H    6.142987   4.960873   4.218377   2.852234   2.812695
    21  H    7.189989   6.299072   5.008958   4.124150   2.710027
    22  H    7.260109   6.382259   5.103320   4.196996   2.752159
    23  H    8.608779   7.511633   6.403802   5.106316   4.054446
    24  H    9.669436   8.750150   7.470623   6.478465   5.085667
    25  H    9.746631   8.827718   7.559484   6.538857   5.138282
    26  H   10.898004   9.812835   8.669674   7.414002   6.295015
    27  H   11.677164  10.665743   9.444374   8.283316   7.000117
                    6          7          8          9         10
     6  C    0.000000
     7  N    1.470952   0.000000
     8  C    1.530902   2.424990   0.000000
     9  N    2.462013   2.837779   1.463541   0.000000
    10  C    3.783047   4.143418   2.442688   1.453462   0.000000
    11  N    4.828662   4.922620   3.711388   2.377197   1.467307
    12  H    6.793688   7.168140   8.019659   9.238533  10.458988
    13  H    4.157461   4.901368   5.031175   6.410282   7.443391
    14  H    2.826685   2.823511   4.250698   5.233678   6.554145
    15  H    2.796547   3.450156   4.178515   5.119572   6.464841
    16  H    2.173045   3.471540   2.708941   4.049495   5.048355
    17  H    2.173758   2.819568   2.770089   4.144561   5.112838
    18  H    1.096253   2.075578   2.135278   2.653431   4.047349
    19  H    2.048734   1.017262   2.689623   3.264624   4.359116
    20  H    2.065856   1.013758   3.326251   3.731320   5.091684
    21  H    2.157551   3.378275   1.095700   2.091442   2.732830
    22  H    2.153369   2.693067   1.107379   2.146562   2.700492
    23  H    2.592339   2.396194   2.023569   1.016794   2.020740
    24  H    4.099525   4.784867   2.670847   2.066818   1.103632
    25  H    4.110110   4.319688   2.721804   2.136405   1.105386
    26  H    4.897132   5.086521   3.938051   2.538997   2.023702
    27  H    5.724781   5.872829   4.486923   3.270114   2.063430
                   11         12         13         14         15
    11  N    0.000000
    12  H   11.614403   0.000000
    13  H    8.739483   3.383183   0.000000
    14  H    7.543997   4.373124   2.864433   0.000000
    15  H    7.451725   4.461751   2.918782   1.771064   0.000000
    16  H    6.337137   5.663621   2.604629   3.059646   2.494342
    17  H    6.396374   5.637298   2.584662   2.513396   3.067401
    18  H    4.917612   6.931097   4.574613   3.145316   2.563693
    19  H    5.221203   7.202408   4.842335   2.980250   3.980765
    20  H    5.780778   6.648686   4.830402   2.298011   3.072941
    21  H    4.075256   8.057244   4.955842   4.715136   4.303709
    22  H    4.038615   8.126452   5.017465   4.441704   4.719814
    23  H    2.532049   9.317189   6.661445   5.099220   5.247613
    24  H    2.162549  10.527772   7.418005   6.899127   6.589382
    25  H    2.085448  10.599056   7.497975   6.719138   6.872324
    26  H    1.016829  11.628118   8.870844   7.609954   7.318709
    27  H    1.017215  12.476618   9.503820   8.468926   8.364219
                   16         17         18         19         20
    16  H    0.000000
    17  H    1.759894   0.000000
    18  H    2.508044   3.068864   0.000000
    19  H    3.708864   2.579150   2.926351   0.000000
    20  H    3.801845   3.191123   2.364398   1.629551   0.000000
    21  H    2.432268   3.058050   2.476989   3.680585   4.176982
    22  H    3.040388   2.539379   3.046382   2.522806   3.646162
    23  H    4.524588   4.305764   2.865997   2.786753   3.262441
    24  H    4.926659   5.285578   4.272333   5.041389   5.713970
    25  H    5.295192   5.046690   4.623715   4.273897   5.320230
    26  H    6.394055   6.677175   4.756647   5.563249   5.850404
    27  H    7.081372   7.155504   5.845246   6.099539   6.759116
                   21         22         23         24         25
    21  H    0.000000
    22  H    1.773658   0.000000
    23  H    2.923016   2.462660   0.000000
    24  H    2.494502   3.010507   2.913047   0.000000
    25  H    3.122280   2.508639   2.435742   1.777618   0.000000
    26  H    4.194141   4.504488   2.782205   2.445029   2.922214
    27  H    4.722746   4.701929   3.498063   2.445358   2.414830
                   26         27
    26  H    0.000000
    27  H    1.628800   0.000000
 Stoichiometry    C5H16N6
 Framework group  C1[X(C5H16N6)]
 Deg. of freedom    75
 Full point group                 C1      NOp   1
 Largest Abelian subgroup         C1      NOp   1
 Largest concise Abelian subgroup C1      NOp   1
                         Standard orientation:                         
 ---------------------------------------------------------------------
 Center     Atomic      Atomic             Coordinates (Angstroms)
 Number     Number       Type             X           Y           Z
 ---------------------------------------------------------------------
      1          7           0       -5.528878   -0.470508    0.139901
      2          7           0       -4.500137    0.141030   -0.242035
      3          7           0       -3.296988   -0.394723    0.017644
      4          6           0       -2.092921    0.346503   -0.316262
      5          6           0       -0.850933   -0.410159    0.145769
      6          6           0        0.474579    0.302683   -0.210548
      7          7           0        0.666990    1.624525    0.405417
      8          6           0        1.666634   -0.573604    0.182885
      9          7           0        2.921486    0.035052   -0.260776
     10          6           0        4.107221   -0.674645    0.189683
     11          7           0        5.297980    0.077618   -0.221638
     12          1           0       -6.316236    0.110572   -0.164435
     13          1           0       -3.304544   -1.242925    0.572913
     14          1           0       -2.130670    1.336419    0.155807
     15          1           0       -2.047444    0.499399   -1.402762
     16          1           0       -0.861962   -1.407460   -0.316364
     17          1           0       -0.897243   -0.571031    1.231657
     18          1           0        0.513506    0.446584   -1.296617
     19          1           0        0.562550    1.547374    1.414358
     20          1           0       -0.037117    2.281629    0.088951
     21          1           0        1.565554   -1.557037   -0.289557
     22          1           0        1.636638   -0.731320    1.278564
     23          1           0        2.956076    0.983893    0.103056
     24          1           0        4.055750   -1.692505   -0.233775
     25          1           0        4.144775   -0.780337    1.289363
     26          1           0        5.262519    0.185023   -1.232157
     27          1           0        6.147192   -0.443913   -0.017750
 ---------------------------------------------------------------------
 Rotational constants (GHZ):           5.1262178           0.2690738           0.2610843
 Standard basis: 6-31G(2df,p) (6D, 7F)
 There are   421 symmetry adapted cartesian basis functions of A   symmetry.
 There are   388 symmetry adapted basis functions of A   symmetry.
   388 basis functions,   596 primitive gaussians,   421 cartesian basis functions
    44 alpha electrons       44 beta electrons
       nuclear repulsion energy       616.3187404381 Hartrees.
 NAtoms=   27 NActive=   27 NUniq=   27 SFac= 1.00D+00 NAtFMM=   60 NAOKFM=F Big=F
 Integral buffers will be    131072 words long.
 Raffenetti 2 integral format.
 Two-electron integral symmetry is turned on.
 One-electron integrals computed using PRISM.
 PrsmSu:  requested number of processors reduced to:  13 ShMem   1 Linda.
 NBasis=   388 RedAO= T EigKep=  2.66D-04  NBF=   388
 NBsUse=   388 1.00D-06 EigRej= -1.00D+00 NBFU=   388
 Initial guess from the checkpoint file:  "NdNNCCCpNpCNCN.chk"
 B after Tr=    -0.000000   -0.000000    0.000000
         Rot=    0.999967    0.007857   -0.000164    0.002213 Ang=   0.94 deg.
 ExpMin= 1.61D-01 ExpMax= 4.17D+03 ExpMxC= 6.27D+02 IAcc=2 IRadAn=         4 AccDes= 0.00D+00
 Harris functional with IExCor=  402 and IRadAn=       4 diagonalized for initial guess.
 HarFok:  IExCor=  402 AccDes= 0.00D+00 IRadAn=         4 IDoV= 1 UseB2=F ITyADJ=14
 ICtDFT=  3500011 ScaDFX=  1.000000  1.000000  1.000000  1.000000
 FoFCou: FMM=F IPFlag=           0 FMFlag=      100000 FMFlg1=           0
         NFxFlg=           0 DoJE=T BraDBF=F KetDBF=T FulRan=T
         wScrn=  0.000000 ICntrl=       500 IOpCl=  0 I1Cent=   200000004 NGrid=           0
         NMat0=    1 NMatS0=      1 NMatT0=    0 NMatD0=    1 NMtDS0=    0 NMtDT0=    0
 Petite list used in FoFCou.
 Requested convergence on RMS density matrix=1.00D-08 within 128 cycles.
 Requested convergence on MAX density matrix=1.00D-06.
 Requested convergence on             energy=1.00D-06.
 No special actions if energy rises.
 Integral accuracy reduced to 1.0D-05 until final iterations.
 Initial convergence to 1.0D-05 achieved.  Increase integral accuracy.
 SCF Done:  E(RB3LYP) =  -528.629066667     A.U. after   12 cycles
            NFock= 12  Conv=0.73D-08     -V/T= 2.0079
 PrsmSu:  requested number of processors reduced to:  13 ShMem   1 Linda.
 Calling FoFJK, ICntrl=      2127 FMM=F ISym2X=0 I1Cent= 0 IOpClX= 0 NMat=1 NMatS=1 NMatT=0.
 ***** Axes restored to original set *****
 -------------------------------------------------------------------
 Center     Atomic                   Forces (Hartrees/Bohr)
 Number     Number              X              Y              Z
 -------------------------------------------------------------------
      1        7           0.006222361   -0.015131989    0.010289977
      2        7           0.020292722    0.009790088   -0.006349162
      3        7          -0.026957434    0.008933411   -0.006854580
      4        6          -0.002915636    0.001737616   -0.000053003
      5        6          -0.000051214   -0.001956408   -0.000418204
      6        6          -0.001911930    0.000393235    0.001522852
      7        7          -0.002099597   -0.000843722   -0.000681740
      8        6           0.008314070   -0.000780570   -0.001687421
      9        7          -0.001146115    0.000205809    0.002152274
     10        6           0.002088322   -0.001414876   -0.000329208
     11        7          -0.003587754    0.002434192   -0.003138495
     12        1           0.001587396   -0.000366161   -0.000410163
     13        1           0.003243449   -0.004271347    0.003467024
     14        1           0.000192189    0.000220945   -0.000479113
     15        1          -0.000266655    0.000645184    0.000239451
     16        1           0.001142414    0.000113964    0.000422938
     17        1           0.000169044    0.000713345    0.000390185
     18        1           0.000813934    0.000550738   -0.000359054
     19        1          -0.000469330    0.000817220    0.000296731
     20        1           0.000630901    0.000745876   -0.000372087
     21        1          -0.000712888   -0.000912757    0.000684310
     22        1          -0.001232893   -0.001165000    0.001041041
     23        1           0.000104549    0.000789231   -0.001870575
     24        1          -0.001090211   -0.000945022    0.000685871
     25        1           0.000229660   -0.001624632    0.001180761
[...]
 06256,-0.00000760,-0.00000459,0.00000406,0.00004175,-0.00001465,0.0000
 4770,0.00020452,0.00101835,0.00019863,-0.00005116,0.00001241,-0.000057
 27,0.00027598,0.00009587,0.00004256,-0.00006321,0.00003070,-0.00003393
 ,0.00066409,0.00125718,-0.00029608,0.00327732,0.00447438,-0.00498329,-
 0.02674615,0.34222563,-0.00002375,0.00000644,-0.00001497,0.00005777,0.
 00000924,0.00002109,-0.00006057,-0.00002797,-0.00023315,-0.00048755,0.
 00035772,0.00029901,0.00000334,-0.00024176,-0.00029500,0.00100790,-0.0
 1969430,0.01099455,-0.00834564,0.16374199,-0.16280505,-0.00192727,-0.0
 0268503,-0.00186189,-0.00009209,0.00011122,0.00007624,0.00001382,0.000
 01683,-0.00008433,0.00005604,0.00000306,0.00003828,-0.00000942,-0.0000
 0938,0.00000603,0.00008137,0.00002293,0.00001949,-0.00055465,-0.000239
 62,-0.00002046,-0.00007648,-0.00019161,-0.00032387,-0.00017316,-0.0000
 3327,-0.00009683,0.00003076,0.00008240,-0.00000142,0.00044930,0.000036
 43,0.00068886,-0.00688187,0.03241970,-0.01820087,0.01679037,-0.1724821
 8,0.17084168,0.00000550,-0.00000452,0.00000475,0.00000699,-0.00000053,
 -0.00000306,-0.00000997,-0.00004228,0.00001550,0.00012885,-0.00003686,
 0.00015694,-0.00011022,0.00072187,0.00008275,0.00324859,0.00633206,0.0
 0596223,0.00044728,0.00262622,-0.00132991,-0.08157474,-0.07084109,-0.0
 4344042,-0.02449524,-0.03075814,-0.01359758,0.00067446,-0.00359648,0.0
 0022383,-0.00003798,0.00081506,0.00010022,0.00000246,0.00000139,0.0000
 0064,0.00000138,0.00001197,0.00000154,0.00004130,0.00004718,0.00001693
 ,0.00000377,-0.00002334,0.00001138,-0.00029406,0.00067946,-0.00029899,
 -0.00003000,0.00007682,0.00007458,0.00005327,-0.00045149,-0.00003853,-
 0.00005245,-0.00025286,-0.00006076,0.00009768,0.00085029,0.00014349,0.
 10340389,-0.00003015,0.00001611,0.00001125,0.00003497,-0.00000610,0.00
 004003,0.00010271,0.00010176,0.00000195,0.00005362,0.00028733,0.000365
 11,-0.00112852,-0.00001718,-0.00107003,-0.01059590,-0.01913943,-0.0157
 5639,0.00102847,-0.00497125,0.00418311,-0.07377271,-0.20254862,-0.0935
 6610,-0.00184577,0.00307687,0.00324169,0.00046661,0.00070742,0.0007011
 4,0.00032401,0.00026326,-0.00008536,0.00000003,-0.00000948,-0.00000558
 ,-0.00000537,-0.00004555,-0.00001208,-0.00013283,0.00036937,-0.0000961
 8,-0.00001409,-0.00005248,0.00000488,0.00113960,0.00057588,0.00059272,
 0.00010326,0.00004719,0.00014990,-0.00046857,0.00100997,0.00024996,0.0
 0003910,0.00013756,0.00004929,-0.00011463,-0.00150493,-0.00103245,0.08
 388276,0.22013750,0.00003208,-0.00000073,0.00000915,0.00000181,-0.0000
 0003,-0.00003311,0.00005095,-0.00005849,0.00005946,0.00028129,0.000097
 22,0.00009560,0.00005658,-0.00014914,0.00013530,0.00553176,0.01103116,
 0.00620710,-0.00040198,0.00258402,-0.00040385,-0.04640848,-0.09730329,
 -0.10909064,-0.00045339,0.00412841,0.00392192,-0.00015100,-0.00133238,
 0.00022230,0.00021149,0.00045171,0.00003744,0.00000116,-0.00000099,0.0
 0000146,0.00000366,-0.00001919,-0.00000418,-0.00000411,0.00007589,-0.0
 0002626,0.00000746,0.00001476,-0.00002724,-0.00002360,0.00025557,0.000
 34778,-0.00014580,-0.00003739,0.00001327,0.00040985,-0.00057791,0.0007
 3288,-0.00028889,0.00078028,0.00003529,-0.00000713,0.00081446,0.000614
 75,0.05037882,0.10319395,0.11322158,-0.00010960,0.00002817,0.00000343,
 0.00010943,-0.00006457,0.00010397,-0.00006163,0.00006522,-0.00006247,0
 .00021303,-0.00010114,-0.00012887,0.00087284,-0.00036712,-0.00025456,0
 .00306113,0.00023905,-0.00960882,0.00019325,-0.00052693,0.00024445,-0.
 06502150,-0.00230157,0.05680179,-0.03069975,0.00318624,0.03404240,0.00
 292938,-0.00544331,0.00524742,-0.00021356,0.00021353,-0.00094087,0.000
 00368,0.00000032,-0.00000606,-0.00000778,-0.00001161,-0.00000520,-0.00
 000413,-0.00000943,0.00000794,-0.00010783,0.00004581,0.00006136,0.0000
 2620,-0.00003165,-0.00011156,0.00003320,0.00026684,-0.00002619,-0.0004
 6276,0.00228243,-0.00088092,0.00023456,-0.00045136,0.00031624,-0.00013
 057,-0.00014335,-0.00015915,0.00459007,0.00056139,-0.00993326,0.082959
 14,0.00005631,-0.00001861,0.00000110,-0.00004945,0.00004312,-0.0000543
 0,0.00008436,-0.00006975,-0.00002141,-0.00004918,-0.00002133,-0.000045
 28,-0.00153920,0.00052703,-0.00007610,-0.00695840,-0.00299303,0.028883
 81,-0.00016240,0.00285395,-0.00008471,-0.00265986,-0.05286354,0.002780
 25,0.00284199,0.00287050,0.00028794,0.00009306,0.00103650,-0.00251375,
 0.00008477,-0.00013215,0.00017869,0.00000007,-0.00000125,0.00000556,0.
 00003174,0.00000206,0.00001225,-0.00001363,0.00000235,-0.00000471,0.00
 000851,0.00005530,-0.00016330,0.00023509,0.00002718,0.00001323,0.00042
 795,0.00015050,-0.00036547,0.00145627,-0.00435816,0.00272349,0.0004348
 9,-0.00043782,-0.00043311,-0.00005382,0.00049793,-0.00021953,0.0061576
 5,0.00071855,-0.02525436,0.00038126,0.05191602,-0.00003238,0.00001254,
 -0.00001025,-0.00002085,-0.00001763,0.00007825,-0.00010600,0.00011024,
 -0.00009595,-0.00035631,0.00011889,0.00049774,0.00101909,-0.00029796,-
 0.00040696,0.00448173,-0.00033453,-0.01766510,-0.00055069,-0.00093828,
 0.00190622,0.05379505,0.00388174,-0.24365941,0.01124071,0.00077035,0.0
 0107668,-0.00121056,0.00157709,0.00258020,0.00006540,-0.00016073,0.000
 64734,-0.00000259,-0.00000337,-0.00000135,-0.00004869,0.00004661,-0.00
 003052,-0.00000203,0.00000673,-0.00000970,0.00013116,-0.00023906,0.000
 18949,0.00006622,0.00013506,0.00007568,-0.00106579,0.00035421,0.000669
 99,-0.00092126,0.00265455,-0.00009499,-0.00001709,0.00145713,0.0001973
 1,-0.00008782,-0.00007025,0.00041963,0.00362219,0.00016497,-0.01680252
 ,-0.07177181,-0.00675061,0.26953491,0.00021575,-0.00006243,0.00000332,
 -0.00017728,0.00013012,-0.00019597,0.00017862,-0.00010599,0.00027830,-
 0.00006543,0.00008330,-0.00005983,-0.00000680,-0.00004811,0.00008475,-
 0.00122744,-0.00233724,-0.00164832,0.00066539,-0.00095515,0.00110878,-
 0.02167404,-0.03383698,-0.01499060,-0.10599824,-0.10994798,-0.05145251
 ,0.00781947,0.01391525,0.00577582,0.00139934,-0.00092274,0.00070621,-0
 .00000185,0.00000059,0.00000975,-0.00000539,-0.00000498,0.00001350,-0.
 00004843,0.00022112,-0.00004022,0.00000320,0.00001439,0.00001473,0.000
 31784,0.00019929,0.00019685,-0.00002744,-0.00005238,-0.00000116,0.0000
 6138,0.00018770,0.00007120,-0.00016675,0.00005784,0.00009802,0.0013024
 5,-0.00004003,0.00015054,-0.00631776,0.00093631,0.00091135,0.00081761,
 -0.00014086,0.00032883,0.12442525,-0.00012558,0.00002639,-0.00001204,0
 .00012174,-0.00008384,0.00013138,-0.00013773,0.00004218,-0.00014374,0.
 00020350,-0.00002484,0.00009954,-0.00041111,-0.00073604,-0.00044954,0.
 00124598,0.00145969,0.00105910,0.00084419,-0.00122798,0.00004206,-0.00
 123879,0.00408778,-0.00155464,-0.12262253,-0.31926186,-0.09395105,-0.0
 1032075,-0.03041358,-0.01079081,-0.00070707,0.00265907,-0.00114712,0.0
 0000603,0.00000237,0.00000263,0.00000337,0.00001800,-0.00000916,0.0000
 8071,-0.00015445,0.00004104,-0.00000049,-0.00001594,0.00000461,-0.0004
 1025,0.00002478,-0.00014892,0.00000044,0.00005367,0.00002679,-0.000148
 63,-0.00009303,-0.00003981,-0.00019119,0.00010374,-0.00020894,-0.00059
 509,-0.00001530,0.00003074,0.00195050,0.00068001,0.00104900,0.00118116
 ,0.00008495,-0.00047416,0.12970763,0.34317714,0.00002988,-0.00000647,-
 0.00000684,-0.00001545,0.00002493,-0.00002754,0.00003624,0.00000967,0.
 00002739,-0.00003779,-0.00001307,0.00001290,-0.00020138,-0.00004757,-0
 .00038098,-0.00164192,-0.00138452,0.00082728,0.00134449,0.00033525,-0.
 00174352,0.00752585,0.00219744,-0.00312088,-0.07402337,-0.13031138,-0.
 06858605,0.00682455,0.02536318,0.00073255,0.00107761,-0.00121932,-0.00
 030840,-0.00000309,-0.00000213,0.00000262,0.00000682,-0.00001211,0.000
 00608,-0.00000445,0.00006332,-0.00000496,-0.00002072,0.00000744,-0.000
 03082,0.00008875,0.00012765,0.00005895,0.00019629,0.00000702,-0.000033
 76,-0.00031458,0.00015404,-0.00056474,0.00118352,-0.00050970,0.0002163
 1,-0.00058286,0.00010711,-0.00013550,-0.00199136,-0.00048253,0.0007525
 4,0.00047363,0.00085246,0.00086468,0.06072028,0.10294799,0.07054181,-0
 .00002215,0.00000949,0.00000346,0.00002405,-0.00001308,0.00001967,-0.0
 0000970,0.00001908,-0.00002061,0.00002088,-0.00000778,0.00000172,0.000
 00154,-0.00004341,-0.00001945,0.00046446,-0.00005800,0.00020458,-0.000
 12942,0.00046685,-0.00003348,0.00123999,0.00088876,0.00032668,0.006824
 35,0.01250434,0.00394160,-0.08207636,-0.07254600,-0.03110584,-0.030857
 78,-0.02863780,-0.01017613,0.00000001,-0.00000205,-0.00000300,-0.00000
 021,-0.00000711,-0.00000169,0.00000390,-0.00000498,0.00000482,-0.00000
 222,-0.00000270,-0.00000110,-0.00001282,0.00000029,-0.00000109,0.00000
 807,-0.00000430,-0.00000139,-0.00000399,-0.00000548,-0.00002006,-0.000
 01846,0.00001248,0.00000199,-0.00017184,0.00007462,0.00001322,0.000322
 23,-0.00047138,-0.00009374,-0.00003335,0.00003886,-0.00022397,-0.00127
 246,0.00227061,-0.00164361,0.09811687,0.00007023,-0.00001212,0.0000062
 0,-0.00004848,0.00003786,-0.00006405,0.00006068,-0.00002746,0.00009044
 ,-0.00001991,0.00001365,-0.00003159,0.00003236,-0.00013511,0.00000553,
 0.00014477,-0.00014117,0.00014620,0.00066994,-0.00010544,0.00008967,-0
 .00298662,-0.00012090,-0.00066317,-0.00893954,-0.03336268,-0.00384829,
 -0.06801220,-0.20447896,-0.06841892,-0.00411846,0.00542598,0.00130545,
 -0.00000117,-0.00000348,0.00000112,-0.00000287,-0.00000963,0.00000363,
 -0.00000366,0.00005303,-0.00000052,-0.00000352,-0.00000228,0.00000131,
 0.00006118,0.00003038,0.00004653,0.00000477,-0.00001181,0.00000217,-0.
 00004780,0.00005279,-0.00004648,0.00000144,0.00000182,0.00001158,0.000
 09174,0.00007400,0.00004957,0.00130391,0.00036080,0.00049878,0.0004757
 8,-0.00008475,-0.00033695,0.00333846,-0.00288460,0.00197868,0.08112177
 ,0.23541745,-0.00002538,0.00001191,0.00000339,0.00002368,-0.00001737,0
 .00002136,-0.00001173,0.00002031,-0.00002681,0.00002013,-0.00000147,0.
 00000678,0.00001208,-0.00004696,-0.00001039,0.00044651,0.00002730,0.00
 011188,-0.00022578,0.00037648,-0.00008074,0.00068789,0.00035587,0.0005
 5913,0.00644666,0.02065084,0.00652824,-0.03189245,-0.07551355,-0.08947
 450,0.00099103,0.00452121,0.00599048,-0.00000022,-0.00000200,-0.000002
 84,-0.00000069,-0.00000709,-0.00000301,0.00000209,-0.00000652,0.000000
 78,-0.00000079,0.00000018,-0.00000130,-0.00000794,-0.00000324,0.000009
 07,0.00000062,-0.00000378,-0.00000149,0.00000651,0.00002479,-0.0000184
 5,-0.00007723,0.00003254,-0.00002086,-0.00011861,0.00004237,0.00002030
 ,0.00005597,-0.00047746,0.00011759,-0.00034736,-0.00019299,-0.00032856
 ,-0.00144069,0.00342382,-0.00017335,0.03742679,0.07191254,0.08897892,-
 0.00004089,0.00001149,-0.00000061,0.00003495,-0.00002101,0.00003792,-0
 .00002584,0.00003170,-0.00004841,0.00002356,-0.00002822,0.00003155,-0.
 00003074,0.00003570,0.00004589,0.00002601,0.00026506,0.00002527,-0.000
 06006,-0.00000366,-0.00002290,0.00480750,-0.00045844,-0.00277866,0.000
 40892,0.00437433,-0.01648167,-0.05860097,0.00142030,0.03346245,-0.0150
 0711,0.00019946,0.03834908,0.00000064,-0.00000117,-0.00000180,0.000001
 48,-0.00000431,-0.00000297,-0.00000225,-0.00000264,-0.00000006,0.00000
 631,-0.00000410,0.00000028,0.00000387,-0.00000101,-0.00000343,-0.00004
 346,0.00001065,0.00000979,-0.00012759,-0.00003982,0.00017515,0.0000085
 3,0.00001132,0.00001042,-0.00001176,0.00001187,-0.00001000,-0.00010491
 ,-0.00002740,0.00010959,0.00033849,-0.00069586,0.00193830,-0.00008493,
 -0.00064224,0.00063074,0.00464696,-0.00210009,-0.01129986,0.07023281,0
 .00007604,-0.00002008,-0.00000046,-0.00006038,0.00003497,-0.00006885,0
 .00004506,-0.00006353,0.00008963,-0.00003751,0.00007304,-0.00003559,0.
 00005322,-0.00016988,-0.00013501,0.00004122,0.00003331,0.00005175,-0.0
 0003362,0.00003651,-0.00015268,-0.00508253,0.00062284,0.00108060,0.002
 46587,-0.00476691,0.03547441,0.00194494,-0.05603610,-0.02181952,-0.001
 20749,0.00166469,0.00179295,-0.00000011,0.00000123,0.00000520,-0.00000
 189,0.00000980,0.00000520,0.00000752,-0.00000580,0.00000096,-0.0000049
 0,-0.00000211,-0.00000043,-0.00001732,-0.00000186,0.00000798,0.0000606
 5,-0.00000272,0.00000886,-0.00001342,0.00013397,-0.00023704,0.00009929
 ,-0.00002743,0.00002286,-0.00001895,0.00000212,-0.00001504,0.00049805,
 -0.00011014,-0.00016257,0.00069036,0.00026116,-0.00175882,-0.00003808,
 0.00190781,0.00046815,0.00350377,-0.00187484,-0.02687776,-0.00312545,0
 .05679452,-0.00015193,0.00004266,0.00000356,0.00010884,-0.00007400,0.0
 0014996,-0.00009144,0.00013003,-0.00018912,0.00005854,-0.00011886,0.00
 006410,-0.00006871,0.00028942,0.00001150,-0.00016480,-0.00018919,0.000
 63779,-0.00012391,0.00030000,-0.00003944,0.00384566,-0.00012539,0.0009
 4481,-0.00476758,0.01435617,-0.02220763,0.04306302,-0.02133765,-0.2568
 1052,0.00447474,0.00010249,-0.00310089,0.00000300,-0.00000512,-0.00000
 888,-0.00000338,-0.00001019,-0.00001733,-0.00001165,0.00000038,-0.0000
 0105,0.00000618,-0.00000775,0.00000841,0.00003297,0.00000301,-0.000008
 77,-0.00007443,0.00003082,0.00001752,0.00022429,-0.00037247,0.00028026
 ,-0.00015201,0.00006792,-0.00004242,-0.00007028,0.00004555,0.00003514,
 -0.00018666,-0.00036065,-0.00009105,-0.00272963,0.00030754,0.00059830,
 -0.00068896,-0.00036799,0.00148899,0.00181542,-0.00361532,-0.01349836,
 -0.04585887,0.01166847,0.29020057,0.00006502,-0.00001855,-0.00000261,-
 0.00005380,0.00003078,-0.00006125,0.00003481,-0.00005821,0.00007284,-0
 .00002982,0.00005019,-0.00001836,0.00000949,-0.00006341,0.00001306,0.0
 0001686,0.00010661,-0.00018172,0.00000978,-0.00010461,0.00000982,-0.00
 073928,-0.00014906,-0.00035647,0.00310070,-0.00088418,-0.00092844,-0.0
 1399697,0.00596777,0.04464967,-0.06792945,0.02414890,0.06286384,-0.000
 00105,0.00000240,0.00000488,0.00000016,0.00000932,0.00000619,0.0000064
 3,-0.00000565,-0.00000141,-0.00000046,0.00000319,-0.00000068,-0.000016
 52,-0.00000387,-0.00000172,0.00000857,-0.00000782,-0.00000249,-0.00003
 955,0.00006260,-0.00004141,0.00001911,-0.00000126,0.00000358,0.0000318
 8,-0.00001858,-0.00000589,-0.00003663,0.00002200,0.00001519,0.00057684
 ,-0.00006519,-0.00034883,-0.00002813,0.00003132,0.00007549,0.00192921,
 -0.00041560,-0.00008930,-0.00747221,0.00018458,0.00053879,0.08047484,-
 0.00003545,0.00000640,0.00000286,0.00002382,-0.00002059,0.00003053,-0.
 00002402,0.00001309,-0.00003360,0.00003538,-0.00000839,0.00000044,-0.0
 0000278,0.00000604,0.00003591,0.00012136,0.00006119,-0.00005767,-0.000
 12528,-0.00006153,0.00004144,0.00068436,-0.00012477,0.00067058,-0.0006
 4365,-0.00013680,-0.00034996,-0.00845643,-0.00174296,0.00226901,0.0388
 8928,-0.03542110,-0.08300363,0.00000278,0.00000112,-0.00000195,-0.0000
 0094,0.00000484,-0.00000285,-0.00000245,-0.00001347,-0.00000282,0.0000
 0503,0.00000206,0.00000659,-0.00001339,-0.00000785,-0.00001202,-0.0000
 1645,0.00000349,0.00000490,0.00002762,-0.00001771,0.00005766,-0.000035
 43,0.00000868,-0.00000274,0.00006241,-0.00002225,-0.00001041,-0.000136
 82,-0.00012975,-0.00004182,-0.00041634,-0.00003681,0.00022895,0.000477
 27,-0.00021686,-0.00092971,0.00109828,0.00086579,0.00168861,0.00039818
 ,0.00106903,-0.00015133,-0.02411987,0.03549434,0.00001260,-0.00000153,
 0.00000217,-0.00001193,0.00000627,-0.00001657,0.00000965,-0.00001188,0
 .00001548,-0.00001093,0.00000735,0.00000157,0.00000161,-0.00000271,-0.
 00001185,-0.00002141,-0.00000148,0.00005439,-0.00000977,-0.00000678,-0
 .00000567,-0.00032660,0.00001614,0.00015050,-0.00000584,-0.00120787,0.
 00118066,-0.00065107,-0.00350034,-0.00624669,0.08313409,-0.03628967,-0
 .39512264,-0.00000175,0.00000014,-0.00000119,0.00000051,0.00000160,0.0
 0000081,0.00000191,-0.00000070,-0.00000044,-0.00000086,0.00000111,-0.0
 0000216,-0.00000233,-0.00000109,0.00000135,0.00000635,-0.00000102,-0.0
 0000168,0.00000837,0.00000729,-0.00001717,-0.00000611,0.00000310,-0.00
 000578,0.00000572,0.00000144,0.00000536,0.00000175,0.00004381,0.000019
 27,-0.00012676,0.00011853,-0.00017949,0.00017164,0.00004601,-0.0001642
 1,-0.00118370,0.00083529,0.00146341,0.00175439,0.00075985,0.00183502,-
 0.08788833,0.04883570,0.41713201,-0.00002499,0.00000537,-0.00000468,0.
 00000852,-0.00000565,0.00002584,-0.00002227,0.00003181,-0.00004923,-0.
 00005042,-0.00005205,0.00002965,0.00000666,0.00024551,-0.00013091,-0.0
 0071814,-0.00019260,0.00015680,0.00005493,-0.00002388,0.00000425,0.000
 20566,0.00215630,-0.00060236,-0.00859564,-0.00193350,0.00133450,-0.015
 28464,0.03069400,-0.02357021,-0.11321494,0.11243985,-0.06867682,-0.000
 00219,0.00000016,-0.00000109,-0.00000050,0.00000203,-0.00000193,-0.000
 00116,0.00000328,0.00000017,0.,-0.00000083,-0.00000161,0.00000660,-0.0
 0000801,-0.00000457,0.00000659,0.00000346,0.00000878,0.00002302,-0.000
 02423,-0.00001674,-0.00000246,0.00000309,-0.00000711,-0.00001082,0.000
 01241,0.00000953,0.00003624,-0.00008753,-0.00009165,-0.00010641,0.0000
 5509,0.00007799,-0.00010393,-0.00009574,0.00026643,0.00100822,-0.00067
 710,-0.00058193,0.00107268,-0.00002894,0.00097280,0.00406018,-0.007796
 50,0.00513880,0.13164922,0.00008719,-0.00002567,0.00000013,-0.00006923
 ,0.00004150,-0.00008478,0.00005052,-0.00008042,0.00010479,-0.00002367,
 0.00006804,-0.00003570,-0.00000629,-0.00014442,0.00006014,0.00006342,0
 .00025229,-0.00005706,0.00001608,-0.00013465,-0.00000363,-0.00044816,0
 .00004124,0.00024112,0.00314777,0.00025957,0.00009662,-0.01210464,-0.0
 0326797,-0.00295107,0.14883181,-0.23071715,0.17873209,-0.00000108,0.00
 000338,0.00000503,0.00000078,0.00001260,0.00000803,0.00000715,-0.00000
 826,0.00000039,0.00000045,0.00000146,-0.00000090,-0.00001992,-0.000004
 96,-0.00000785,0.00000336,0.00000143,-0.00000560,-0.00002218,0.0000002
 1,-0.00000303,0.00003250,0.00001327,0.00001079,0.00003980,-0.00002067,
 -0.00000571,0.00018922,0.00004533,-0.00003692,0.00025084,-0.00002990,-
 0.00013671,-0.00077630,0.00080072,0.00027418,-0.00020512,0.00092167,0.
 00006138,0.00038534,0.00043639,-0.00060852,-0.00470383,0.00042480,-0.0
 0965858,-0.13472582,0.23111016,0.00003122,-0.00000944,-0.00000027,-0.0
 0002235,0.00001337,-0.00003307,0.00002092,-0.00003638,0.00004530,0.000
 01297,0.00002663,-0.00002285,0.00000655,-0.00010181,0.00004536,0.00020
 443,0.00010199,-0.00002233,-0.00001395,-0.00007029,0.00000001,0.000495
 24,-0.00014970,0.00136942,0.00093184,0.00002437,0.00036830,0.00062478,
 -0.00458428,0.00278268,-0.07018830,0.13983968,-0.15443970,0.00000032,0
 .00000131,0.00000304,0.00000039,0.00000578,0.00000371,0.00000210,-0.00
 000621,-0.00000045,0.00000017,0.00000308,-0.00000036,-0.00001421,-0.00
 000453,-0.00000418,0.00000637,-0.00000172,-0.00000949,0.00000824,0.000
 00722,-0.00000065,0.00001768,-0.00000032,0.00000919,0.00002835,-0.0000
 1401,-0.00000706,0.00009378,-0.00004894,-0.00006585,-0.00020912,0.0000
 1479,-0.00005163,-0.00012563,0.00039323,-0.00025055,0.00076891,0.00004
 059,-0.00017067,-0.00007156,-0.00017311,-0.00026048,-0.01832446,0.0307
 2733,-0.02008648,0.08571531,-0.16599864,0.17079905\\-0.00000573,-0.000
 00045,0.00000073,0.00000948,-0.00000369,0.00000450,0.00000383,0.000002
 25,-0.00000420,-0.00001125,-0.00000183,0.00000101,0.00000724,0.0000006
 2,-0.00000031,-0.00001449,-0.00000171,0.00000110,0.00000706,0.00000144
 ,-0.00000247,0.00001087,0.00000041,-0.00000556,-0.00000734,0.00000285,
 0.00000285,0.00000353,-0.00000092,-0.00000096,-0.00000282,0.00000083,-
 0.00000115,-0.00000151,0.00000147,0.00000062,0.00000106,0.00000114,-0.
 00000117,0.00000211,0.00000135,-0.00000047,0.00000041,0.00000044,-0.00
 000010,-0.00000016,-0.00000011,-0.00000013,-0.00000063,0.00000097,-0.0
 0000034,0.00000205,-0.00000103,0.00000005,-0.00000028,-0.00000095,0.00
 000046,-0.00000192,0.00000244,-0.00000003,-0.00000013,-0.00000246,0.00
 000266,-0.00000217,0.00000053,0.00000171,-0.00000026,-0.00000206,0.000
 00017,-0.00000169,0.00000093,0.00000056,0.00000179,-0.00000020,-0.0000
 0082,-0.00000029,-0.00000131,-0.00000039,0.00000125,-0.00000094,0.0000
 0171\\\@


 THE MOLECULE ALSO HAS A BODY.  WHEN THIS BODY IS HIT, THE MOLECULE
 FEELS HURT ALL OVER -- A. KITAIGORODSKI
 Job cpu time:       0 days  3 hours 17 minutes 48.7 seconds.
 Elapsed time:       0 days  0 hours 49 minutes 27.4 seconds.
 File lengths (MBytes):  RWF=    303 Int=      0 D2E=      0 Chk=     13 Scr=      1
 Normal termination of Gaussian 16 at Tue Jun  1 04:00:13 2021.
### All Done ###
