### Starting Gaussian ###
 Entering Gaussian System, Link 0=g16
 Initial command:
 /cluster/software/gaussian/gaussian-16-A.03/avx2/g16/l1.exe "/local/scratch/linjian/Gau-11770.inp" -scrdir="/local/scratch/linjian/"
 Entering Link 1 = /cluster/software/gaussian/gaussian-16-A.03/avx2/g16/l1.exe PID=     11771.
  
 Copyright (c) 1988,1990,1992,1993,1995,1998,2003,2009,2016,
            Gaussian, Inc.  All Rights Reserved.
  
 This is part of the Gaussian(R) 16 program.  It is based on
 the Gaussian(R) 09 system (copyright 2009, Gaussian, Inc.),
 the Gaussian(R) 03 system (copyright 2003, Gaussian, Inc.),
 the Gaussian(R) 98 system (copyright 1998, Gaussian, Inc.),
 the Gaussian(R) 94 system (copyright 1995, Gaussian, Inc.),
 the Gaussian 92(TM) system (copyright 1992, Gaussian, Inc.),
 the Gaussian 90(TM) system (copyright 1990, Gaussian, Inc.),
 the Gaussian 88(TM) system (copyright 1988, Gaussian, Inc.),
 the Gaussian 86(TM) system (copyright 1986, Carnegie Mellon
 University), and the Gaussian 82(TM) system (copyright 1983,
 Carnegie Mellon University). Gaussian is a federally registered
 trademark of Gaussian, Inc.
  
 This software contains proprietary and confidential information,
 including trade secrets, belonging to Gaussian, Inc.
  
 This software is provided under written license and may be
 used, copied, transmitted, or stored only in accord with that
 written license.
  
 The following legend is applicable only to US Government
 contracts under FAR:
  
                    RESTRICTED RIGHTS LEGEND
  
 Use, reproduction and disclosure by the US Government is
 subject to restrictions as set forth in subparagraphs (a)
 and (c) of the Commercial Computer Software - Restricted
 Rights clause in FAR 52.227-19.
  
 Gaussian, Inc.
 340 Quinnipiac St., Bldg. 40, Wallingford CT 06492
  
  
 ---------------------------------------------------------------
 Warning -- This program may not be used in any manner that
 competes with the business of Gaussian, Inc. or will provide
 assistance to any competitor of Gaussian, Inc.  The licensee
 of this program is prohibited from giving any competitor of
 Gaussian, Inc. access to this program.  By using this program,
 the user acknowledges that Gaussian, Inc. is engaged in the
 business of creating and licensing software in the field of
 computational chemistry and represents and warrants to the
 licensee that it is not a competitor of Gaussian, Inc. and that
 it will not use this program in any manner prohibited above.
 ---------------------------------------------------------------
  

 Cite this work as:
 Gaussian 16, Revision A.03,
 M. J. Frisch, G. W. Trucks, H. B. Schlegel, G. E. Scuseria, 
 M. A. Robb, J. R. Cheeseman, G. Scalmani, V. Barone, 
 G. A. Petersson, H. Nakatsuji, X. Li, M. Caricato, A. V. Marenich, 
 J. Bloino, B. G. Janesko, R. Gomperts, B. Mennucci, H. P. Hratchian, 
 J. V. Ortiz, A. F. Izmaylov, J. L. Sonnenberg, D. Williams-Young, 
 F. Ding, F. Lipparini, F. Egidi, J. Goings, B. Peng, A. Petrone, 
 T. Henderson, D. Ranasinghe, V. G. Zakrzewski, J. Gao, N. Rega, 
 G. Zheng, W. Liang, M. Hada, M. Ehara, K. Toyota, R. Fukuda, 
 J. Hasegawa, M. Ishida, T. Nakajima, Y. Honda, O. Kitao, H. Nakai, 
 T. Vreven, K. Throssell, J. A. Montgomery, Jr., J. E. Peralta, 
 F. Ogliaro, M. J. Bearpark, J. J. Heyd, E. N. Brothers, K. N. Kudin, 
 V. N. Staroverov, T. A. Keith, R. Kobayashi, J. Normand, 
 K. Raghavachari, A. P. Rendell, J. C. Burant, S. S. Iyengar, 
 J. Tomasi, M. Cossi, J. M. Millam, M. Klene, C. Adamo, R. Cammi, 
 J. W. Ochterski, R. L. Martin, K. Morokuma, O. Farkas, 
 J. B. Foresman, and D. J. Fox, Gaussian, Inc., Wallingford CT, 2016.
 
 ******************************************
 Gaussian 16:  ES64L-G16RevA.03 25-Dec-2016
                31-May-2021 
 ******************************************
 %chk=NNNCpNpCCCdO.chk
 %NProcShared=20
 Will use up to   20 processors via shared memory.
 -----------------------------
 # opt freq b3lyp/6-31g(2df,p)
 -----------------------------
 1/18=20,19=15,26=3,38=1/1,3;
 2/9=110,12=2,17=6,18=5,40=1/2;
 3/5=1,6=6,7=104,11=2,25=1,30=1,71=1,74=-5/1,2,3;
 4//1;
 5/5=2,38=5/2;
 6/7=2,8=2,9=2,10=2,28=1/1;
 7//1,2,3,16;
 1/18=20,19=15,26=3/3(2);
 2/9=110/2;
 99//99;
 2/9=110/2;
 3/5=1,6=6,7=104,11=2,25=1,30=1,71=1,74=-5/1,2,3;
 4/5=5,16=3,69=1/1;
 5/5=2,38=5/2;
 7//1,2,3,16;
 1/18=20,19=15,26=3/3(-5);
 2/9=110/2;
 6/7=2,8=2,9=2,10=2,19=2,28=1/1;
 99/9=1/99;
 -------------------
 Title Card Required
 -------------------
 Symbolic Z-matrix:
 Charge =  0 Multiplicity = 1
 N                     0.90469   0.04185  -0.01701 
 N                     2.31365  -0.0199    0.04315 
 N                     2.80567   0.09757  -1.29069 
 C                     4.26593   0.15416  -1.29745 
 N                     4.76611  -1.11102  -0.78866 
 C                     4.78387   0.34031  -2.73154 
 C                     6.31363   0.35315  -2.76403 
 C                     6.8375    0.51973  -4.16037 
 O                     8.04051   0.5545   -4.41635 
 H                     0.49795  -0.07073   0.91461 
 H                     0.53696  -0.72826  -0.5795 
 H                     2.62669  -0.90107   0.46632 
 H                     2.45396   0.97979  -1.6759 
 H                     4.62632   0.98427  -0.67671 
 H                     4.31695  -1.85516  -1.31689 
 H                     4.47381  -1.2103    0.17548 
 H                     4.40094   1.28018  -3.15142 
 H                     4.40895  -0.46001  -3.38595 
 H                     6.7186   -0.58986  -2.38171 
 H                     6.6931    1.17748  -2.15161 
 H                     6.09186   0.60829  -4.96619 
 

 GradGradGradGradGradGradGradGradGradGradGradGradGradGradGradGradGradGrad
 Berny optimization.
 Initialization pass.
                           ----------------------------
                           !    Initial Parameters    !
                           ! (Angstroms and Degrees)  !
 --------------------------                            --------------------------
 ! Name  Definition              Value          Derivative Info.                !
 --------------------------------------------------------------------------------
 ! R1    R(1,2)                  1.4116         estimate D2E/DX2                !
 ! R2    R(1,10)                 1.0228         estimate D2E/DX2                !
 ! R3    R(1,11)                 1.0221         estimate D2E/DX2                !
 ! R4    R(2,3)                  1.4265         estimate D2E/DX2                !
 ! R5    R(2,12)                 1.0264         estimate D2E/DX2                !
 ! R6    R(3,4)                  1.4614         estimate D2E/DX2                !
 ! R7    R(3,13)                 1.0249         estimate D2E/DX2                !
 ! R8    R(4,5)                  1.4525         estimate D2E/DX2                !
 ! R9    R(4,6)                  1.5361         estimate D2E/DX2                !
 ! R10   R(4,14)                 1.0974         estimate D2E/DX2                !
 ! R11   R(5,15)                 1.0171         estimate D2E/DX2                !
 ! R12   R(5,16)                 1.0124         estimate D2E/DX2                !
 ! R13   R(6,7)                  1.5302         estimate D2E/DX2                !
 ! R14   R(6,17)                 1.0983         estimate D2E/DX2                !
 ! R15   R(6,18)                 1.0997         estimate D2E/DX2                !
 ! R16   R(7,8)                  1.5007         estimate D2E/DX2                !
 ! R17   R(7,19)                 1.0952         estimate D2E/DX2                !
 ! R18   R(7,20)                 1.0948         estimate D2E/DX2                !
 ! R19   R(8,9)                  1.2304         estimate D2E/DX2                !
 ! R20   R(8,21)                 1.1014         estimate D2E/DX2                !
 ! A1    A(2,1,10)             110.69           estimate D2E/DX2                !
 ! A2    A(2,1,11)             110.4629         estimate D2E/DX2                !
 ! A3    A(10,1,11)            105.9782         estimate D2E/DX2                !
 ! A4    A(1,2,3)              107.5062         estimate D2E/DX2                !
 ! A5    A(1,2,12)             111.0719         estimate D2E/DX2                !
 ! A6    A(3,2,12)             110.548          estimate D2E/DX2                !
 ! A7    A(2,3,4)              110.6193         estimate D2E/DX2                !
 ! A8    A(2,3,13)             107.6953         estimate D2E/DX2                !
 ! A9    A(4,3,13)             107.9288         estimate D2E/DX2                !
 ! A10   A(3,4,5)              107.9838         estimate D2E/DX2                !
 ! A11   A(3,4,6)              110.2391         estimate D2E/DX2                !
 ! A12   A(3,4,14)             110.783          estimate D2E/DX2                !
 ! A13   A(5,4,6)              108.4499         estimate D2E/DX2                !
 ! A14   A(5,4,14)             110.3441         estimate D2E/DX2                !
 ! A15   A(6,4,14)             109.0074         estimate D2E/DX2                !
 ! A16   A(4,5,15)             107.6548         estimate D2E/DX2                !
 ! A17   A(4,5,16)             108.6387         estimate D2E/DX2                !
 ! A18   A(15,5,16)            107.1788         estimate D2E/DX2                !
 ! A19   A(4,6,7)              110.9735         estimate D2E/DX2                !
 ! A20   A(4,6,17)             110.0632         estimate D2E/DX2                !
 ! A21   A(4,6,18)             110.6356         estimate D2E/DX2                !
 ! A22   A(7,6,17)             109.467          estimate D2E/DX2                !
 ! A23   A(7,6,18)             109.5308         estimate D2E/DX2                !
 ! A24   A(17,6,18)            106.0463         estimate D2E/DX2                !
 ! A25   A(6,7,8)              111.6967         estimate D2E/DX2                !
 ! A26   A(6,7,19)             110.7958         estimate D2E/DX2                !
 ! A27   A(6,7,20)             109.9356         estimate D2E/DX2                !
 ! A28   A(8,7,19)             106.937          estimate D2E/DX2                !
 ! A29   A(8,7,20)             108.4167         estimate D2E/DX2                !
 ! A30   A(19,7,20)            108.9585         estimate D2E/DX2                !
 ! A31   A(7,8,9)              122.5497         estimate D2E/DX2                !
 ! A32   A(7,8,21)             116.9589         estimate D2E/DX2                !
 ! A33   A(9,8,21)             120.4911         estimate D2E/DX2                !
 ! D1    D(10,1,2,3)           178.034          estimate D2E/DX2                !
 ! D2    D(10,1,2,12)           56.9733         estimate D2E/DX2                !
 ! D3    D(11,1,2,3)            60.9695         estimate D2E/DX2                !
 ! D4    D(11,1,2,12)          -60.0912         estimate D2E/DX2                !
 ! D5    D(1,2,3,4)            175.2687         estimate D2E/DX2                !
 ! D6    D(1,2,3,13)            57.5401         estimate D2E/DX2                !
 ! D7    D(12,2,3,4)           -63.3422         estimate D2E/DX2                !
 ! D8    D(12,2,3,13)          178.9292         estimate D2E/DX2                !
 ! D9    D(2,3,4,5)             64.0741         estimate D2E/DX2                !
 ! D10   D(2,3,4,6)           -177.6113         estimate D2E/DX2                !
 ! D11   D(2,3,4,14)           -56.8666         estimate D2E/DX2                !
 ! D12   D(13,3,4,5)          -178.3404         estimate D2E/DX2                !
 ! D13   D(13,3,4,6)           -60.0259         estimate D2E/DX2                !
 ! D14   D(13,3,4,14)           60.7188         estimate D2E/DX2                !
 ! D15   D(3,4,5,15)            51.7725         estimate D2E/DX2                !
 ! D16   D(3,4,5,16)           -63.9784         estimate D2E/DX2                !
 ! D17   D(6,4,5,15)           -67.6807         estimate D2E/DX2                !
 ! D18   D(6,4,5,16)           176.5684         estimate D2E/DX2                !
 ! D19   D(14,4,5,15)          172.9864         estimate D2E/DX2                !
 ! D20   D(14,4,5,16)           57.2355         estimate D2E/DX2                !
 ! D21   D(3,4,6,7)           -178.0336         estimate D2E/DX2                !
 ! D22   D(3,4,6,17)            60.6361         estimate D2E/DX2                !
 ! D23   D(3,4,6,18)           -56.2348         estimate D2E/DX2                !
 ! D24   D(5,4,6,7)            -60.0055         estimate D2E/DX2                !
 ! D25   D(5,4,6,17)           178.6642         estimate D2E/DX2                !
 ! D26   D(5,4,6,18)            61.7933         estimate D2E/DX2                !
 ! D27   D(14,4,6,7)            60.1636         estimate D2E/DX2                !
 ! D28   D(14,4,6,17)          -61.1666         estimate D2E/DX2                !
 ! D29   D(14,4,6,18)         -178.0376         estimate D2E/DX2                !
 ! D30   D(4,6,7,8)            179.3975         estimate D2E/DX2                !
 ! D31   D(4,6,7,19)            60.2874         estimate D2E/DX2                !
 ! D32   D(4,6,7,20)           -60.2048         estimate D2E/DX2                !
 ! D33   D(17,6,7,8)           -58.9227         estimate D2E/DX2                !
 ! D34   D(17,6,7,19)         -178.0328         estimate D2E/DX2                !
 ! D35   D(17,6,7,20)           61.475          estimate D2E/DX2                !
 ! D36   D(18,6,7,8)            56.9553         estimate D2E/DX2                !
 ! D37   D(18,6,7,19)          -62.1548         estimate D2E/DX2                !
 ! D38   D(18,6,7,20)          177.353          estimate D2E/DX2                !
 ! D39   D(6,7,8,9)           -179.8734         estimate D2E/DX2                !
 ! D40   D(6,7,8,21)            -0.0801         estimate D2E/DX2                !
 ! D41   D(19,7,8,9)           -58.5009         estimate D2E/DX2                !
 ! D42   D(19,7,8,21)          121.2924         estimate D2E/DX2                !
 ! D43   D(20,7,8,9)            58.8442         estimate D2E/DX2                !
 ! D44   D(20,7,8,21)         -121.3625         estimate D2E/DX2                !
 --------------------------------------------------------------------------------
 Trust Radius=3.00D-01 FncErr=1.00D-07 GrdErr=1.00D-06 EigMax=2.50D+02 EigMin=1.00D-04
 Number of steps in this run=    107 maximum allowed number of steps=    126.
 GradGradGradGradGradGradGradGradGradGradGradGradGradGradGradGradGradGrad

                          Input orientation:                          
 ---------------------------------------------------------------------
 Center     Atomic      Atomic             Coordinates (Angstroms)
 Number     Number       Type             X           Y           Z
 ---------------------------------------------------------------------
      1          7           0        0.904690    0.041850   -0.017010
      2          7           0        2.313650   -0.019900    0.043150
      3          7           0        2.805670    0.097570   -1.290690
      4          6           0        4.265930    0.154160   -1.297450
      5          7           0        4.766110   -1.111020   -0.788660
      6          6           0        4.783870    0.340310   -2.731540
      7          6           0        6.313630    0.353150   -2.764030
      8          6           0        6.837500    0.519730   -4.160370
      9          8           0        8.040510    0.554500   -4.416350
     10          1           0        0.497950   -0.070730    0.914610
     11          1           0        0.536960   -0.728260   -0.579500
     12          1           0        2.626690   -0.901070    0.466320
     13          1           0        2.453960    0.979790   -1.675900
     14          1           0        4.626320    0.984270   -0.676710
     15          1           0        4.316950   -1.855160   -1.316890
     16          1           0        4.473810   -1.210300    0.175480
     17          1           0        4.400940    1.280180   -3.151420
     18          1           0        4.408950   -0.460010   -3.385950
     19          1           0        6.718600   -0.589860   -2.381710
     20          1           0        6.693100    1.177480   -2.151610
     21          1           0        6.091860    0.608290   -4.966190
 ---------------------------------------------------------------------
                    Distance matrix (angstroms):
                    1          2          3          4          5
     1  N    0.000000
     2  N    1.411595   0.000000
     3  N    2.288906   1.426538   0.000000
     4  C    3.598621   2.374637   1.461372   0.000000
     5  N    4.103062   2.810162   2.357127   1.452490   0.000000
     6  C    4.744027   3.732378   2.459318   1.536075   2.425172
     7  C    6.074509   4.900945   3.813376   2.526565   2.905288
     8  C    7.252175   6.198871   4.966783   3.865608   4.280004
     9  O    8.398627   7.281071   6.114089   4.912765   5.162924
    10  H    1.022755   2.014645   3.196442   4.375095   4.711743
    11  H    1.022101   2.011491   2.516909   3.898632   4.251584
    12  H    2.021878   1.026415   2.028891   2.628974   2.489211
    13  H    2.455990   1.993540   1.024890   2.026851   3.241098
    14  H    3.895368   2.622022   2.116123   1.097398   2.102930
    15  H    4.114833   3.038272   2.469374   2.010062   1.017112
    16  H    3.787288   2.469991   2.577376   2.018536   1.012355
    17  H    4.856105   4.031410   2.721354   2.173328   3.381393
    18  H    4.886866   4.042611   2.696575   2.181626   2.701350
    19  H    6.308123   5.060473   4.119940   2.782944   2.573253
    20  H    6.273106   5.042844   4.125470   2.769102   3.287576
    21  H    7.191799   6.305789   4.956731   4.123094   4.708014
                    6          7          8          9         10
     6  C    0.000000
     7  C    1.530159   0.000000
     8  C    2.508215   1.500651   0.000000
     9  O    3.672896   2.398503   1.230434   0.000000
    10  H    5.642027   6.894505   8.142110   9.257443   0.000000
    11  H    4.879484   6.269891   7.353701   8.524679   1.632860
    12  H    4.052254   5.059818   6.415283   7.434285   2.328511
    13  H    2.636625   4.058788   5.059612   6.237025   3.411790
    14  H    2.159128   2.757215   4.152228   5.081959   4.548490
    15  H    2.653175   3.310223   4.480921   5.410916   4.769543
    16  H    3.309274   3.803950   5.232555   6.076246   4.201475
    17  H    1.098312   2.160518   2.744647   3.920858   5.795765
    18  H    1.099695   2.162364   2.730837   3.908860   5.826000
    19  H    2.175035   1.095188   2.099752   2.682679   7.059158
    20  H    2.163870   1.094795   2.118632   2.707889   7.024216
    21  H    2.603135   2.227956   1.101439   2.025452   8.144735
                   11         12         13         14         15
    11  H    0.000000
    12  H    2.343197   0.000000
    13  H    2.791848   2.855972   0.000000
    14  H    4.434532   2.976499   2.391140   0.000000
    15  H    4.012726   2.635736   3.411240   2.927098   0.000000
    16  H    4.037468   1.895274   3.507691   2.359158   1.633284
    17  H    5.057563   4.581905   2.461326   2.502508   3.633581
    18  H    4.789617   4.267431   2.969727   3.077852   2.497182
    19  H    6.440480   4.995183   4.598818   3.124507   2.915947
    20  H    6.633358   5.263993   4.270327   2.546417   3.942049
    21  H    7.203217   6.617986   4.919181   4.548495   4.747239
                   16         17         18         19         20
    16  H    0.000000
    17  H    4.156449   0.000000
    18  H    3.640182   1.755941   0.000000
    19  H    3.458793   3.075882   2.521873   0.000000
    20  H    4.005258   2.502831   3.069578   1.782438   0.000000
    21  H    5.688772   2.569832   2.543739   2.916831   2.933825
                   21
    21  H    0.000000
 Stoichiometry    C4H12N4O
 Framework group  C1[X(C4H12N4O)]
 Deg. of freedom    57
 Full point group                 C1      NOp   1
 Largest Abelian subgroup         C1      NOp   1
 Largest concise Abelian subgroup C1      NOp   1
                         Standard orientation:                         
 ---------------------------------------------------------------------
 Center     Atomic      Atomic             Coordinates (Angstroms)
 Number     Number       Type             X           Y           Z
 ---------------------------------------------------------------------
      1          7           0       -3.951090   -0.644565    0.042905
      2          7           0       -2.846941    0.152711   -0.328319
      3          7           0       -1.668366   -0.503968    0.135089
      4          6           0       -0.473023    0.208563   -0.311074
      5          7           0       -0.477183    1.522696    0.307604
      6          6           0        0.790707   -0.537995    0.141878
      7          6           0        2.053257    0.219469   -0.274779
      8          6           0        3.298251   -0.488851    0.172688
      9          8           0        4.426093   -0.052815   -0.054938
     10          1           0       -4.828349   -0.200524   -0.238646
     11          1           0       -3.997470   -0.739641    1.059516
     12          1           0       -2.918151    1.093220    0.076527
     13          1           0       -1.650328   -1.441011   -0.279670
     14          1           0       -0.460571    0.301662   -1.404445
     15          1           0       -0.607024    1.392292    1.307930
     16          1           0       -1.278969    2.038254   -0.033279
     17          1           0        0.808702   -1.546487   -0.292760
     18          1           0        0.788605   -0.677124    1.232734
     19          1           0        2.074500    1.217425    0.175852
     20          1           0        2.085462    0.320484   -1.364427
     21          1           0        3.164749   -1.431264    0.726947
 ---------------------------------------------------------------------
 Rotational constants (GHZ):           6.2272388           0.5227736           0.4963599
 Standard basis: 6-31G(2df,p) (6D, 7F)
 There are   339 symmetry adapted cartesian basis functions of A   symmetry.
 There are   312 symmetry adapted basis functions of A   symmetry.
   312 basis functions,   480 primitive gaussians,   339 cartesian basis functions
    36 alpha electrons       36 beta electrons
       nuclear repulsion energy       460.6576420504 Hartrees.
 NAtoms=   21 NActive=   21 NUniq=   21 SFac= 1.00D+00 NAtFMM=   60 NAOKFM=F Big=F
 Integral buffers will be    131072 words long.
 Raffenetti 2 integral format.
 Two-electron integral symmetry is turned on.
 One-electron integrals computed using PRISM.
 PrsmSu:  requested number of processors reduced to:  13 ShMem   1 Linda.
 NBasis=   312 RedAO= T EigKep=  2.79D-04  NBF=   312
 NBsUse=   312 1.00D-06 EigRej= -1.00D+00 NBFU=   312
 ExpMin= 1.61D-01 ExpMax= 5.48D+03 ExpMxC= 8.25D+02 IAcc=3 IRadAn=         5 AccDes= 0.00D+00
 Harris functional with IExCor=  402 and IRadAn=       5 diagonalized for initial guess.
 HarFok:  IExCor=  402 AccDes= 0.00D+00 IRadAn=         5 IDoV= 1 UseB2=F ITyADJ=14
 ICtDFT=  3500011 ScaDFX=  1.000000  1.000000  1.000000  1.000000
 FoFCou: FMM=F IPFlag=           0 FMFlag=      100000 FMFlg1=           0
         NFxFlg=           0 DoJE=T BraDBF=F KetDBF=T FulRan=T
         wScrn=  0.000000 ICntrl=       500 IOpCl=  0 I1Cent=   200000004 NGrid=           0
         NMat0=    1 NMatS0=      1 NMatT0=    0 NMatD0=    1 NMtDS0=    0 NMtDT0=    0
 Petite list used in FoFCou.
 Requested convergence on RMS density matrix=1.00D-08 within 128 cycles.
 Requested convergence on MAX density matrix=1.00D-06.
 Requested convergence on             energy=1.00D-06.
 No special actions if energy rises.
 Integral accuracy reduced to 1.0D-05 until final iterations.
 Initial convergence to 1.0D-05 achieved.  Increase integral accuracy.
 SCF Done:  E(RB3LYP) =  -453.806068884     A.U. after   13 cycles
            NFock= 13  Conv=0.61D-08     -V/T= 2.0072

 **********************************************************************

            Population analysis using the SCF density.

 **********************************************************************

 Orbital symmetries:
       Occupied  (A) (A) (A) (A) (A) (A) (A) (A) (A) (A) (A) (A)
                 (A) (A) (A) (A) (A) (A) (A) (A) (A) (A) (A) (A)
                 (A) (A) (A) (A) (A) (A) (A) (A) (A) (A) (A) (A)
       Virtual   (A) (A) (A) (A) (A) (A) (A) (A) (A) (A) (A) (A)
                 (A) (A) (A) (A) (A) (A) (A) (A) (A) (A) (A) (A)
                 (A) (A) (A) (A) (A) (A) (A) (A) (A) (A) (A) (A)
                 (A) (A) (A) (A) (A) (A) (A) (A) (A) (A) (A) (A)
                 (A) (A) (A) (A) (A) (A) (A) (A) (A) (A) (A) (A)
                 (A) (A) (A) (A) (A) (A) (A) (A) (A) (A) (A) (A)
                 (A) (A) (A) (A) (A) (A) (A) (A) (A) (A) (A) (A)
                 (A) (A) (A) (A) (A) (A) (A) (A) (A) (A) (A) (A)
                 (A) (A) (A) (A) (A) (A) (A) (A) (A) (A) (A) (A)
                 (A) (A) (A) (A) (A) (A) (A) (A) (A) (A) (A) (A)
                 (A) (A) (A) (A) (A) (A) (A) (A) (A) (A) (A) (A)
                 (A) (A) (A) (A) (A) (A) (A) (A) (A) (A) (A) (A)
                 (A) (A) (A) (A) (A) (A) (A) (A) (A) (A) (A) (A)
                 (A) (A) (A) (A) (A) (A) (A) (A) (A) (A) (A) (A)
                 (A) (A) (A) (A) (A) (A) (A) (A) (A) (A) (A) (A)
                 (A) (A) (A) (A) (A) (A) (A) (A) (A) (A) (A) (A)
                 (A) (A) (A) (A) (A) (A) (A) (A) (A) (A) (A) (A)
                 (A) (A) (A) (A) (A) (A) (A) (A) (A) (A) (A) (A)
                 (A) (A) (A) (A) (A) (A) (A) (A) (A) (A) (A) (A)
                 (A) (A) (A) (A) (A) (A) (A) (A) (A) (A) (A) (A)
                 (A) (A) (A) (A) (A) (A) (A) (A) (A) (A) (A) (A)
                 (A) (A) (A) (A) (A) (A) (A) (A) (A) (A) (A) (A)
                 (A) (A) (A) (A) (A) (A) (A) (A) (A) (A) (A) (A)
 The electronic state is 1-A.
 Alpha  occ. eigenvalues --  -19.13167 -14.36721 -14.34197 -14.34038 -14.31838
 Alpha  occ. eigenvalues --  -10.26735 -10.24188 -10.19490 -10.18976  -1.02549
 Alpha  occ. eigenvalues --   -1.00885  -0.91728  -0.84572  -0.79502  -0.72810
 Alpha  occ. eigenvalues --   -0.66787  -0.59869  -0.57892  -0.53346  -0.51604
 Alpha  occ. eigenvalues --   -0.50918  -0.47224  -0.46052  -0.45737  -0.43275
 Alpha  occ. eigenvalues --   -0.42401  -0.41673  -0.37598  -0.36533  -0.36170
 Alpha  occ. eigenvalues --   -0.33856  -0.33020  -0.27104  -0.24887  -0.24584
 Alpha  occ. eigenvalues --   -0.18509
 Alpha virt. eigenvalues --   -0.02571   0.05804   0.08022   0.09028   0.10946
 Alpha virt. eigenvalues --    0.12393   0.12550   0.14335   0.15790   0.16223
 Alpha virt. eigenvalues --    0.16559   0.18603   0.19383   0.20317   0.21309
 Alpha virt. eigenvalues --    0.22728   0.24045   0.25252   0.27974   0.30993
 Alpha virt. eigenvalues --    0.33403   0.44386   0.47056   0.48524   0.49661
 Alpha virt. eigenvalues --    0.50133   0.52058   0.53660   0.54054   0.56415
 Alpha virt. eigenvalues --    0.57245   0.58514   0.59663   0.60394   0.62210
 Alpha virt. eigenvalues --    0.63597   0.64816   0.65912   0.66829   0.67347
 Alpha virt. eigenvalues --    0.68377   0.68754   0.72376   0.73765   0.73995
 Alpha virt. eigenvalues --    0.75100   0.75602   0.76080   0.77943   0.79005
 Alpha virt. eigenvalues --    0.80257   0.80334   0.82572   0.84128   0.84977
 Alpha virt. eigenvalues --    0.85668   0.86762   0.87777   0.89969   0.90492
 Alpha virt. eigenvalues --    0.92691   0.94323   0.95736   0.96926   0.97985
 Alpha virt. eigenvalues --    1.00012   1.01517   1.04206   1.05749   1.10051
 Alpha virt. eigenvalues --    1.13230   1.15526   1.16470   1.19130   1.21889
 Alpha virt. eigenvalues --    1.27485   1.28535   1.29653   1.34624   1.35263
 Alpha virt. eigenvalues --    1.36987   1.38226   1.40117   1.40702   1.45812
 Alpha virt. eigenvalues --    1.48306   1.49565   1.52141   1.52834   1.54331
 Alpha virt. eigenvalues --    1.56115   1.58362   1.60968   1.62464   1.65286
 Alpha virt. eigenvalues --    1.66500   1.68041   1.69696   1.72329   1.74950
 Alpha virt. eigenvalues --    1.79663   1.81764   1.82776   1.84517   1.86249
 Alpha virt. eigenvalues --    1.89368   1.92198   1.92568   1.97844   2.01762
 Alpha virt. eigenvalues --    2.04505   2.10798   2.13225   2.15643   2.16568
 Alpha virt. eigenvalues --    2.21142   2.22682   2.24686   2.30364   2.36330
 Alpha virt. eigenvalues --    2.41163   2.41373   2.45804   2.47447   2.49078
 Alpha virt. eigenvalues --    2.53425   2.55409   2.59130   2.62401   2.64460
 Alpha virt. eigenvalues --    2.67042   2.71802   2.74318   2.75056   2.76898
 Alpha virt. eigenvalues --    2.80060   2.81386   2.83293   2.85190   2.85701
 Alpha virt. eigenvalues --    2.86710   2.87940   2.88693   2.90825   2.93515
 Alpha virt. eigenvalues --    2.96915   2.99647   3.02068   3.03347   3.03896
 Alpha virt. eigenvalues --    3.04794   3.06643   3.06837   3.12945   3.13865
 Alpha virt. eigenvalues --    3.21311   3.22406   3.23168   3.27079   3.31431
 Alpha virt. eigenvalues --    3.35013   3.40900   3.42095   3.45453   3.45675
 Alpha virt. eigenvalues --    3.50463   3.51640   3.55237   3.56016   3.57247
 Alpha virt. eigenvalues --    3.61112   3.63294   3.66337   3.68409   3.69595
 Alpha virt. eigenvalues --    3.71904   3.74570   3.78814   3.82596   3.84364
 Alpha virt. eigenvalues --    3.86723   3.94196   3.96483   4.02443   4.05892
 Alpha virt. eigenvalues --    4.08161   4.09169   4.10159   4.11892   4.15447
 Alpha virt. eigenvalues --    4.18739   4.19941   4.22888   4.23439   4.24740
 Alpha virt. eigenvalues --    4.25906   4.27327   4.29130   4.30121   4.31429
 Alpha virt. eigenvalues --    4.36666   4.37574   4.40343   4.40606   4.42863
 Alpha virt. eigenvalues --    4.44735   4.46458   4.48591   4.50147   4.50779
 Alpha virt. eigenvalues --    4.52220   4.53969   4.54441   4.56251   4.57282
 Alpha virt. eigenvalues --    4.58236   4.59909   4.63160   4.63873   4.64986
 Alpha virt. eigenvalues --    4.66857   4.68478   4.68994   4.70750   4.72991
 Alpha virt. eigenvalues --    4.75152   4.76737   4.78364   4.81114   4.81332
 Alpha virt. eigenvalues --    4.85380   4.86091   4.90707   4.94837   4.95658
 Alpha virt. eigenvalues --    4.97085   4.98882   4.99701   5.03987   5.06576
 Alpha virt. eigenvalues --    5.10011   5.10837   5.12061   5.20354   5.20420
 Alpha virt. eigenvalues --    5.23204   5.29148   5.33082   5.33627   5.38529
 Alpha virt. eigenvalues --    5.40043   5.41490   5.49379   5.50015   5.53829
 Alpha virt. eigenvalues --    5.56999   5.61772   5.76500   5.97263   6.06665
 Alpha virt. eigenvalues --    6.23600   6.38153   6.76832   6.92516   9.68278
 Alpha virt. eigenvalues --   10.66694  10.83877  11.21196  11.39935  11.50166
 Alpha virt. eigenvalues --   11.54996  11.85519  12.37787  12.93685  13.16622
 Alpha virt. eigenvalues --   15.83604
          Condensed to atoms (all electrons):
               1          2          3          4          5          6
     1  N    6.570018   0.323346  -0.057889   0.003203   0.000817  -0.000121
     2  N    0.323346   6.553823   0.233304  -0.054829  -0.005575   0.002756
     3  N   -0.057889   0.233304   6.587380   0.393845  -0.074243  -0.035852
     4  C    0.003203  -0.054829   0.393845   4.739023   0.346791   0.375139
     5  N    0.000817  -0.005575  -0.074243   0.346791   6.591193  -0.018051
     6  C   -0.000121   0.002756  -0.035852   0.375139  -0.018051   4.994014
     7  C    0.000001  -0.000088   0.001843  -0.031773  -0.013037   0.301931
     8  C   -0.000000  -0.000000   0.000012   0.000205   0.000505  -0.006915
     9  O    0.000000  -0.000000   0.000000  -0.000050  -0.000000   0.001901
    10  H    0.340429  -0.037763   0.004202  -0.000390   0.000026   0.000003
    11  H    0.314631  -0.073668   0.021734   0.000757  -0.000166   0.000067
    12  H   -0.050467   0.335307  -0.058918  -0.008623   0.015231  -0.000245
    13  H    0.008194  -0.030106   0.313751  -0.043399   0.007270  -0.000635
    14  H    0.000274   0.012029  -0.057908   0.359922  -0.048128  -0.048026
    15  H   -0.000005  -0.000586   0.005842  -0.045723   0.329626  -0.006800
    16  H   -0.000350   0.003601  -0.003223  -0.051473   0.351195   0.006057
    17  H   -0.000000   0.000047  -0.000762  -0.025161   0.003304   0.361213
    18  H    0.000004  -0.000043   0.001239  -0.016233  -0.008271   0.351591
    19  H   -0.000000   0.000000   0.000221  -0.003451   0.014274  -0.030149
    20  H    0.000000   0.000002   0.000017  -0.001310  -0.000205  -0.034366
    21  H    0.000000   0.000000   0.000013   0.000075  -0.000027   0.012603
               7          8          9         10         11         12
     1  N    0.000001  -0.000000   0.000000   0.340429   0.314631  -0.050467
     2  N   -0.000088  -0.000000  -0.000000  -0.037763  -0.073668   0.335307
     3  N    0.001843   0.000012   0.000000   0.004202   0.021734  -0.058918
     4  C   -0.031773   0.000205  -0.000050  -0.000390   0.000757  -0.008623
     5  N   -0.013037   0.000505  -0.000000   0.000026  -0.000166   0.015231
     6  C    0.301931  -0.006915   0.001901   0.000003   0.000067  -0.000245
     7  C    5.264858   0.288462  -0.058949  -0.000000   0.000001  -0.000019
     8  C    0.288462   4.486516   0.743047  -0.000000   0.000000  -0.000000
     9  O   -0.058949   0.743047   7.648375  -0.000000  -0.000000   0.000000
    10  H   -0.000000  -0.000000  -0.000000   0.487433  -0.033041  -0.002357
    11  H    0.000001   0.000000  -0.000000  -0.033041   0.568258  -0.011029
    12  H   -0.000019  -0.000000   0.000000  -0.002357  -0.011029   0.551530
    13  H   -0.000516  -0.000009   0.000000  -0.000307  -0.002830   0.008426
    14  H    0.002348   0.000190  -0.000001   0.000024   0.000185  -0.001652
    15  H    0.000752  -0.000030  -0.000000   0.000007   0.000158   0.001305
    16  H    0.000270  -0.000005  -0.000000  -0.000026   0.000032   0.006426
    17  H   -0.036218  -0.002370   0.000004   0.000000  -0.000002  -0.000003
    18  H   -0.035293  -0.001852  -0.000002   0.000000   0.000015  -0.000013
    19  H    0.351396  -0.013497  -0.001844  -0.000000  -0.000000  -0.000006
    20  H    0.350379  -0.012861  -0.002083   0.000000  -0.000000  -0.000000
    21  H   -0.134473   0.360553  -0.053225  -0.000000   0.000000   0.000000
              13         14         15         16         17         18
     1  N    0.008194   0.000274  -0.000005  -0.000350  -0.000000   0.000004
     2  N   -0.030106   0.012029  -0.000586   0.003601   0.000047  -0.000043
     3  N    0.313751  -0.057908   0.005842  -0.003223  -0.000762   0.001239
     4  C   -0.043399   0.359922  -0.045723  -0.051473  -0.025161  -0.016233
     5  N    0.007270  -0.048128   0.329626   0.351195   0.003304  -0.008271
     6  C   -0.000635  -0.048026  -0.006800   0.006057   0.361213   0.351591
     7  C   -0.000516   0.002348   0.000752   0.000270  -0.036218  -0.035293
     8  C   -0.000009   0.000190  -0.000030  -0.000005  -0.002370  -0.001852
     9  O    0.000000  -0.000001  -0.000000  -0.000000   0.000004  -0.000002
    10  H   -0.000307   0.000024   0.000007  -0.000026   0.000000   0.000000
    11  H   -0.002830   0.000185   0.000158   0.000032  -0.000002   0.000015
    12  H    0.008426  -0.001652   0.001305   0.006426  -0.000003  -0.000013
    13  H    0.512170  -0.005890  -0.000249  -0.000086   0.004039  -0.000361
    14  H   -0.005890   0.696761   0.008505  -0.004948  -0.003771   0.006645
    15  H   -0.000249   0.008505   0.509669  -0.034044  -0.000232   0.005786
    16  H   -0.000086  -0.004948  -0.034044   0.499631  -0.000262  -0.000101
    17  H    0.004039  -0.003771  -0.000232  -0.000262   0.634536  -0.039829
    18  H   -0.000361   0.006645   0.005786  -0.000101  -0.039829   0.622182
    19  H   -0.000008  -0.000115  -0.000310  -0.000337   0.005285  -0.003439
    20  H   -0.000006   0.005075   0.000073  -0.000051  -0.004007   0.005516
    21  H    0.000002   0.000021   0.000003  -0.000000   0.004313   0.004400
              19         20         21
     1  N   -0.000000   0.000000   0.000000
     2  N    0.000000   0.000002   0.000000
     3  N    0.000221   0.000017   0.000013
     4  C   -0.003451  -0.001310   0.000075
     5  N    0.014274  -0.000205  -0.000027
     6  C   -0.030149  -0.034366   0.012603
     7  C    0.351396   0.350379  -0.134473
     8  C   -0.013497  -0.012861   0.360553
     9  O   -0.001844  -0.002083  -0.053225
    10  H   -0.000000   0.000000  -0.000000
    11  H   -0.000000  -0.000000   0.000000
    12  H   -0.000006  -0.000000   0.000000
    13  H   -0.000008  -0.000006   0.000002
    14  H   -0.000115   0.005075   0.000021
    15  H   -0.000310   0.000073   0.000003
    16  H   -0.000337  -0.000051  -0.000000
    17  H    0.005285  -0.004007   0.004313
    18  H   -0.003439   0.005516   0.004400
    19  H    0.542119  -0.022591   0.004950
    20  H   -0.022591   0.578502   0.005186
    21  H    0.004950   0.005186   0.714047
 Mulliken charges:
               1
     1  N   -0.452086
     2  N   -0.261558
     3  N   -0.274607
     4  C    0.063454
     5  N   -0.492529
     6  C   -0.226115
     7  C   -0.251875
     8  C    0.158048
     9  O   -0.277172
    10  H    0.241758
    11  H    0.214896
    12  H    0.215106
    13  H    0.230550
    14  H    0.078461
    15  H    0.226252
    16  H    0.227695
    17  H    0.099876
    18  H    0.108058
    19  H    0.157503
    20  H    0.132728
    21  H    0.081559
 Sum of Mulliken charges =  -0.00000
 Mulliken charges with hydrogens summed into heavy atoms:
               1
     1  N    0.004569
     2  N   -0.046452
     3  N   -0.044058
     4  C    0.141915
     5  N   -0.038582
     6  C   -0.018181
     7  C    0.038356
     8  C    0.239607
     9  O   -0.277172
 Electronic spatial extent (au):  <R**2>=           2148.9796
 Charge=             -0.0000 electrons
 Dipole moment (field-independent basis, Debye):
    X=             -4.1819    Y=              0.1786    Z=              1.1967  Tot=              4.3535
 Quadrupole moment (field-independent basis, Debye-Ang):
   XX=            -66.9609   YY=            -54.1901   ZZ=            -53.5493
   XY=             -8.4972   XZ=             -2.9934   YZ=              1.0993
 Traceless Quadrupole moment (field-independent basis, Debye-Ang):
   XX=             -8.7274   YY=              4.0433   ZZ=              4.6841
   XY=             -8.4972   XZ=             -2.9934   YZ=              1.0993
 Octapole moment (field-independent basis, Debye-Ang**2):
  XXX=           -161.4320  YYY=              0.1760  ZZZ=              3.9853  XYY=             -1.6809
  XXY=             16.2311  XXZ=             19.7122  XZZ=              2.7324  YZZ=              1.7850
  YYZ=              0.9615  XYZ=              0.7614
 Hexadecapole moment (field-independent basis, Debye-Ang**3):
 XXXX=          -2550.5278 YYYY=           -235.8550 ZZZZ=            -97.6403 XXXY=            -82.8141
 XXXZ=            -37.5876 YYYX=            -22.6024 YYYZ=              2.8162 ZZZX=            -12.8296
 ZZZY=              4.0770 XXYY=           -423.6679 XXZZ=           -392.4999 YYZZ=            -54.1487
 XXYZ=             -8.1297 YYXZ=             -2.4938 ZZXY=              1.2225
 N-N= 4.606576420504D+02 E-N=-1.980159238727D+03  KE= 4.505672677754D+02
 PrsmSu:  requested number of processors reduced to:  13 ShMem   1 Linda.
 Calling FoFJK, ICntrl=      2127 FMM=F ISym2X=0 I1Cent= 0 IOpClX= 0 NMat=1 NMatS=1 NMatT=0.
 ***** Axes restored to original set *****
 -------------------------------------------------------------------
 Center     Atomic                   Forces (Hartrees/Bohr)
 Number     Number              X              Y              Z
 -------------------------------------------------------------------
      1        7          -0.015960616   -0.001849012   -0.004533700
      2        7           0.001195066    0.017864474    0.034150737
      3        7          -0.001298909   -0.003284601   -0.026849460
      4        6          -0.007118152   -0.010213585   -0.007442997
      5        7           0.011147926    0.000982822    0.005323534
      6        6          -0.001127583    0.001295370    0.002876705
      7        6          -0.008535792    0.000093039   -0.004490956
      8        6           0.049017117    0.002880487   -0.004855908
      9        8          -0.036618767   -0.000628709    0.003923342
     10        1           0.009514470    0.004623343   -0.003219421
     11        1          -0.000150916   -0.003697391   -0.001925910
     12        1          -0.002095468   -0.000577816   -0.016784121
     13        1          -0.003973662   -0.002732887    0.010252014
     14        1           0.004278592   -0.002141284    0.005313800
     15        1          -0.000639165   -0.000619329    0.000558239
     16        1           0.005203280   -0.003224600    0.002111345
     17        1          -0.000861568    0.000105936    0.001140538
     18        1          -0.001839662    0.000022269    0.003762320
     19        1           0.000000925    0.002835468    0.004218515
     20        1           0.004029505   -0.001939434    0.001531753
     21        1          -0.004166621    0.000205440   -0.005060370
 -------------------------------------------------------------------
 Cartesian Forces:  Max     0.049017117 RMS     0.010923861

 GradGradGradGradGradGradGradGradGradGradGradGradGradGradGradGradGradGrad
 Berny optimization.
 FormGI is forming the generalized inverse of G from B-inverse, IUseBI=4.
 Internal  Forces:  Max     0.036636551 RMS     0.006529062
 Search for a local minimum.
 Step number   1 out of a maximum of  107
 All quantities printed in internal units (Hartrees-Bohrs-Radians)
 Mixed Optimization -- RFO/linear search
 Second derivative matrix not updated -- first step.
 ITU=  0
     Eigenvalues ---    0.00289   0.00367   0.00757   0.00757   0.00880
     Eigenvalues ---    0.00944   0.00997   0.01141   0.03627   0.03637
     Eigenvalues ---    0.04165   0.04307   0.04820   0.04856   0.05075
     Eigenvalues ---    0.05272   0.05382   0.05686   0.06447   0.08073
     Eigenvalues ---    0.09333   0.11329   0.11780   0.12011   0.12717
     Eigenvalues ---    0.16000   0.16000   0.16000   0.16000   0.16000
     Eigenvalues ---    0.16820   0.17778   0.21845   0.22000   0.22008
     Eigenvalues ---    0.23373   0.23636   0.28869   0.29409   0.32309
     Eigenvalues ---    0.33523   0.33716   0.33869   0.33972   0.34220
     Eigenvalues ---    0.34264   0.36793   0.37921   0.41491   0.43330
     Eigenvalues ---    0.43567   0.43752   0.43901   0.44005   0.44802
     Eigenvalues ---    0.45581   0.90906
 RFO step:  Lambda=-2.06696192D-02 EMin= 2.88738457D-03
 Linear search not attempted -- first point.
 Iteration  1 RMS(Cart)=  0.13704562 RMS(Int)=  0.00425209
 Iteration  2 RMS(Cart)=  0.00839618 RMS(Int)=  0.00105301
 Iteration  3 RMS(Cart)=  0.00002124 RMS(Int)=  0.00105292
 Iteration  4 RMS(Cart)=  0.00000012 RMS(Int)=  0.00105292
 Variable       Old X    -DE/DX   Delta X   Delta X   Delta X     New X
                                 (Linear)    (Quad)   (Total)
    R1        2.66753   0.00696   0.00000   0.01518   0.01518   2.68271
    R2        1.93273  -0.00723   0.00000  -0.01572  -0.01572   1.91701
    R3        1.93149   0.00390   0.00000   0.00847   0.00847   1.93996
    R4        2.69577   0.00843   0.00000   0.01935   0.01935   2.71511
    R5        1.93964  -0.00706   0.00000  -0.01556  -0.01556   1.92408
    R6        2.76159   0.01232   0.00000   0.03170   0.03170   2.79329
    R7        1.93676  -0.00484   0.00000  -0.01061  -0.01061   1.92615
    R8        2.74481   0.01070   0.00000   0.02676   0.02676   2.77157
    R9        2.90276  -0.00229   0.00000  -0.00740  -0.00740   2.89537
   R10        2.07378   0.00279   0.00000   0.00774   0.00774   2.08153
   R11        1.92206   0.00044   0.00000   0.00095   0.00095   1.92301
   R12        1.91307   0.00082   0.00000   0.00173   0.00173   1.91480
   R13        2.89158   0.00385   0.00000   0.01225   0.01225   2.90383
   R14        2.07551  -0.00005   0.00000  -0.00013  -0.00013   2.07538
   R15        2.07812  -0.00163   0.00000  -0.00455  -0.00455   2.07357
   R16        2.83582   0.00872   0.00000   0.02537   0.02537   2.86119
   R17        2.06961  -0.00097   0.00000  -0.00267  -0.00267   2.06694
   R18        2.06886   0.00079   0.00000   0.00218   0.00218   2.07105
   R19        2.32518  -0.03664   0.00000  -0.03941  -0.03941   2.28578
   R20        2.08142   0.00654   0.00000   0.01837   0.01837   2.09979
    A1        1.93191  -0.01110   0.00000  -0.06260  -0.06276   1.86914
    A2        1.92794  -0.00011   0.00000  -0.00177  -0.00192   1.92602
    A3        1.84967   0.00511   0.00000   0.02601   0.02566   1.87533
    A4        1.87634  -0.00489   0.00000  -0.03877  -0.04137   1.83497
    A5        1.93857   0.00268   0.00000  -0.02030  -0.02641   1.91216
    A6        1.92943  -0.00874   0.00000  -0.10207  -0.10535   1.82408
    A7        1.93067   0.00908   0.00000   0.02325   0.02314   1.95381
    A8        1.87964  -0.01196   0.00000  -0.10624  -0.10625   1.77338
    A9        1.88371   0.00224   0.00000   0.00312   0.00265   1.88636
   A10        1.88467   0.01831   0.00000   0.12298   0.12365   2.00832
   A11        1.92404  -0.01390   0.00000  -0.05736  -0.05899   1.86505
   A12        1.93353   0.00021   0.00000  -0.00123  -0.00156   1.93196
   A13        1.89281  -0.00077   0.00000   0.00610   0.00670   1.89951
   A14        1.92587  -0.00835   0.00000  -0.06009  -0.06073   1.86513
   A15        1.90254   0.00436   0.00000  -0.01026  -0.01136   1.89117
   A16        1.87893  -0.00006   0.00000   0.00615   0.00564   1.88457
   A17        1.89610   0.00944   0.00000   0.05859   0.05812   1.95422
   A18        1.87062  -0.00185   0.00000   0.00424   0.00325   1.87387
   A19        1.93685   0.00685   0.00000   0.02973   0.02981   1.96667
   A20        1.92097  -0.00226   0.00000  -0.01387  -0.01405   1.90691
   A21        1.93095  -0.00496   0.00000  -0.03220  -0.03256   1.89840
   A22        1.91056  -0.00213   0.00000  -0.00452  -0.00438   1.90618
   A23        1.91167   0.00064   0.00000   0.01606   0.01637   1.92804
   A24        1.85086   0.00158   0.00000   0.00369   0.00331   1.85416
   A25        1.94947   0.00462   0.00000   0.02680   0.02656   1.97603
   A26        1.93375  -0.00223   0.00000  -0.01003  -0.01033   1.92342
   A27        1.91874   0.00154   0.00000   0.01335   0.01330   1.93204
   A28        1.86640   0.00087   0.00000   0.01548   0.01541   1.88182
   A29        1.89223  -0.00292   0.00000  -0.01287  -0.01312   1.87911
   A30        1.90168  -0.00208   0.00000  -0.03443  -0.03438   1.86730
   A31        2.13890   0.00566   0.00000   0.02349   0.02348   2.16238
   A32        2.04132  -0.00246   0.00000  -0.00974  -0.00975   2.03157
   A33        2.10297  -0.00319   0.00000  -0.01378  -0.01379   2.08918
    D1        3.10728  -0.00414   0.00000  -0.01393  -0.01329   3.09399
    D2        0.99437   0.00812   0.00000   0.14845   0.14810   1.14247
    D3        1.06412  -0.00357   0.00000  -0.00656  -0.00622   1.05790
    D4       -1.04879   0.00869   0.00000   0.15581   0.15518  -0.89361
    D5        3.05902   0.00138   0.00000  -0.01697  -0.01926   3.03975
    D6        1.00426   0.00071   0.00000   0.02927   0.02646   1.03072
    D7       -1.10553  -0.00366   0.00000  -0.12737  -0.12456  -1.23009
    D8        3.12290  -0.00434   0.00000  -0.08113  -0.07884   3.04407
    D9        1.11830   0.00540   0.00000   0.09533   0.09673   1.21504
   D10       -3.09990   0.00746   0.00000   0.14317   0.14257  -2.95733
   D11       -0.99251   0.00388   0.00000   0.09159   0.09101  -0.90150
   D12       -3.11263  -0.00261   0.00000  -0.01800  -0.01675  -3.12938
   D13       -1.04765  -0.00055   0.00000   0.02984   0.02909  -1.01856
   D14        1.05974  -0.00414   0.00000  -0.02174  -0.02247   1.03727
   D15        0.90360  -0.00447   0.00000  -0.03601  -0.03399   0.86961
   D16       -1.11663  -0.00713   0.00000  -0.07447  -0.07298  -1.18962
   D17       -1.18125   0.00218   0.00000  -0.04059  -0.04104  -1.22230
   D18        3.08170  -0.00048   0.00000  -0.07905  -0.08004   3.00166
   D19        3.01918   0.00228   0.00000   0.00369   0.00292   3.02211
   D20        0.99895  -0.00038   0.00000  -0.03477  -0.03607   0.96288
   D21       -3.10727  -0.00751   0.00000  -0.07794  -0.07719   3.09873
   D22        1.05830  -0.00784   0.00000  -0.08259  -0.08177   0.97653
   D23       -0.98148  -0.00543   0.00000  -0.05936  -0.05897  -1.04046
   D24       -1.04729   0.00622   0.00000   0.04165   0.04152  -1.00577
   D25        3.11828   0.00589   0.00000   0.03700   0.03694  -3.12797
   D26        1.07850   0.00830   0.00000   0.06022   0.05974   1.13823
   D27        1.05005  -0.00178   0.00000  -0.03341  -0.03374   1.01631
   D28       -1.06756  -0.00211   0.00000  -0.03806  -0.03833  -1.10589
   D29       -3.10734   0.00030   0.00000  -0.01484  -0.01553  -3.12287
   D30        3.13108   0.00016   0.00000  -0.00035  -0.00038   3.13070
   D31        1.05221  -0.00249   0.00000  -0.03077  -0.03064   1.02158
   D32       -1.05077   0.00054   0.00000   0.00996   0.01015  -1.04062
   D33       -1.02839   0.00037   0.00000  -0.00139  -0.00148  -1.02987
   D34       -3.10726  -0.00227   0.00000  -0.03180  -0.03174  -3.13900
   D35        1.07294   0.00076   0.00000   0.00893   0.00905   1.08199
   D36        0.99406   0.00143   0.00000   0.00957   0.00932   1.00337
   D37       -1.08481  -0.00122   0.00000  -0.02084  -0.02094  -1.10575
   D38        3.09539   0.00181   0.00000   0.01989   0.01985   3.11524
   D39       -3.13938   0.00078   0.00000   0.00424   0.00404  -3.13534
   D40       -0.00140   0.00055   0.00000  -0.00390  -0.00411  -0.00550
   D41       -1.02103   0.00137   0.00000   0.01804   0.01820  -1.00283
   D42        2.11695   0.00114   0.00000   0.00989   0.01005   2.12700
   D43        1.02702  -0.00211   0.00000  -0.02074  -0.02069   1.00633
   D44       -2.11818  -0.00234   0.00000  -0.02888  -0.02884  -2.14701
         Item               Value     Threshold  Converged?
 Maximum Force            0.036637     0.000450     NO 
 RMS     Force            0.006529     0.000300     NO 
 Maximum Displacement     0.497466     0.001800     NO 
 RMS     Displacement     0.137726     0.001200     NO 
 Predicted change in Energy=-1.247478D-02
 GradGradGradGradGradGradGradGradGradGradGradGradGradGradGradGradGradGrad

                          Input orientation:                          
 ---------------------------------------------------------------------
 Center     Atomic      Atomic             Coordinates (Angstroms)
 Number     Number       Type             X           Y           Z
 ---------------------------------------------------------------------
      1          7           0        0.853495    0.177224   -0.146696
      2          7           0        2.253246    0.047947    0.051625
      3          7           0        2.818890    0.026875   -1.268953
      4          6           0        4.296676    0.034317   -1.237112
      5          7           0        4.913720   -1.199397   -0.738839
      6          6           0        4.770859    0.279452   -2.673280
      7          6           0        6.300622    0.372944   -2.784387
      8          6           0        6.783409    0.600191   -4.201324
      9          8           0        7.949078    0.697058   -4.509417
     10          1           0        0.418698    0.149286    0.769412
     11          1           0        0.493609   -0.620927   -0.682705
     12          1           0        2.459892   -0.873453    0.432431
     13          1           0        2.505971    0.922989   -1.640411
     14          1           0        4.668230    0.855670   -0.604166
     15          1           0        4.495738   -1.982687   -1.236118
     16          1           0        4.737058   -1.339403    0.249041
     17          1           0        4.323652    1.209660   -3.048597
     18          1           0        4.388079   -0.525168   -3.313676
     19          1           0        6.763030   -0.547598   -2.416793
     20          1           0        6.684463    1.192872   -2.166737
     21          1           0        5.999234    0.667119   -4.985716
 ---------------------------------------------------------------------
                    Distance matrix (angstroms):
                    1          2          3          4          5
     1  N    0.000000
     2  N    1.419630   0.000000
     3  N    2.268225   1.436775   0.000000
     4  C    3.614543   2.415912   1.478147   0.000000
     5  N    4.327950   3.042832   2.484568   1.466653   0.000000
     6  C    4.662598   3.717133   2.417873   1.532162   2.439153
     7  C    6.055322   4.952761   3.812973   2.554317   2.929168
     8  C    7.196026   6.238183   4.964364   3.910322   4.327015
     9  O    8.345709   7.325773   6.104799   4.948459   5.198769
    10  H    1.014437   1.972576   3.151323   4.367844   4.929401
    11  H    1.026580   2.020633   2.484003   3.898722   4.458158
    12  H    2.004950   1.018182   1.958105   2.642951   2.738500
    13  H    2.349048   1.921602   1.019275   2.039366   3.333859
    14  H    3.901509   2.629567   2.132815   1.101496   2.074055
    15  H    4.372413   3.287937   2.617487   2.026803   1.017614
    16  H    4.187939   2.851848   2.801855   2.071158   1.013271
    17  H    4.639930   3.904809   2.613508   2.159546   3.389207
    18  H    4.797542   4.026317   2.635906   2.152556   2.713056
    19  H    6.371916   5.175511   4.147746   2.795206   2.580759
    20  H    6.253983   5.086027   4.136209   2.812114   3.301118
    21  H    7.080589   6.307979   4.933440   4.165475   4.764262
                    6          7          8          9         10
     6  C    0.000000
     7  C    1.536640   0.000000
     8  C    2.547185   1.514079   0.000000
     9  O    3.694167   2.407941   1.209581   0.000000
    10  H    5.550709   6.875794   8.088330   9.212638   0.000000
    11  H    4.802910   6.255099   7.309816   8.483209   1.645443
    12  H    4.039207   5.162619   6.506621   7.551127   2.307818
    13  H    2.571124   4.001327   4.995894   6.157082   3.280636
    14  H    2.150300   2.766061   4.180765   5.102950   4.521528
    15  H    2.694141   3.347199   4.549411   5.460867   5.018935
    16  H    3.340927   3.818188   5.268333   6.091565   4.597305
    17  H    1.098246   2.162940   2.783996   3.942140   5.563295
    18  H    1.097288   2.178204   2.791408   3.950233   5.734325
    19  H    2.172221   1.093776   2.121883   2.708312   7.133589
    20  H    2.180093   1.095950   2.121463   2.707993   6.997847
    21  H    2.646989   2.241255   1.111162   2.007399   8.033183
                   11         12         13         14         15
    11  H    0.000000
    12  H    2.274548   0.000000
    13  H    2.711177   2.743356   0.000000
    14  H    4.428766   2.990177   2.398687   0.000000
    15  H    4.263531   2.856418   3.544796   2.912969   0.000000
    16  H    4.403547   2.331571   3.696782   2.356066   1.636382
    17  H    4.859807   4.464361   2.317139   2.493849   3.675020
    18  H    4.700860   4.227591   2.905049   3.053955   2.540118
    19  H    6.505235   5.171194   4.570334   3.105312   2.931567
    20  H    6.619585   5.373302   4.220149   2.573039   3.967461
    21  H    7.105412   6.652565   4.843493   4.583132   4.831299
                   16         17         18         19         20
    16  H    0.000000
    17  H    4.188442   0.000000
    18  H    3.671201   1.756145   0.000000
    19  H    3.440667   3.072084   2.538758   0.000000
    20  H    4.005096   2.520196   3.088772   1.760096   0.000000
    21  H    5.746469   2.618082   2.610189   2.942497   2.948321
                   21
    21  H    0.000000
 Stoichiometry    C4H12N4O
 Framework group  C1[X(C4H12N4O)]
 Deg. of freedom    57
 Full point group                 C1      NOp   1
 Largest Abelian subgroup         C1      NOp   1
 Largest concise Abelian subgroup C1      NOp   1
                         Standard orientation:                         
 ---------------------------------------------------------------------
 Center     Atomic      Atomic             Coordinates (Angstroms)
 Number     Number       Type             X           Y           Z
 ---------------------------------------------------------------------
      1          7           0       -3.903361   -0.822764    0.028751
      2          7           0       -2.894224    0.091587   -0.372442
      3          7           0       -1.675654   -0.425894    0.185792
      4          6           0       -0.494214    0.343586   -0.258076
      5          7           0       -0.397970    1.702674    0.284776
      6          6           0        0.742068   -0.450887    0.175444
      7          6           0        2.056290    0.205212   -0.275794
      8          6           0        3.286764   -0.562288    0.159306
      9          8           0        4.419479   -0.216136   -0.086099
     10          1           0       -4.787146   -0.460054   -0.312493
     11          1           0       -3.961994   -0.863050    1.052864
     12          1           0       -3.033601    0.982272    0.100790
     13          1           0       -1.630300   -1.349950   -0.241975
     14          1           0       -0.479817    0.436096   -1.355586
     15          1           0       -0.524668    1.647893    1.292984
     16          1           0       -1.124328    2.308407   -0.078831
     17          1           0        0.683921   -1.466187   -0.239199
     18          1           0        0.724447   -0.563718    1.266773
     19          1           0        2.132142    1.217721    0.130920
     20          1           0        2.089343    0.295359   -1.367530
     21          1           0        3.109195   -1.488667    0.746649
 ---------------------------------------------------------------------
 Rotational constants (GHZ):           5.3177802           0.5255716           0.4923008
 Standard basis: 6-31G(2df,p) (6D, 7F)
 There are   339 symmetry adapted cartesian basis functions of A   symmetry.
 There are   312 symmetry adapted basis functions of A   symmetry.
   312 basis functions,   480 primitive gaussians,   339 cartesian basis functions
    36 alpha electrons       36 beta electrons
       nuclear repulsion energy       457.5744826712 Hartrees.
 NAtoms=   21 NActive=   21 NUniq=   21 SFac= 1.00D+00 NAtFMM=   60 NAOKFM=F Big=F
 Integral buffers will be    131072 words long.
 Raffenetti 2 integral format.
 Two-electron integral symmetry is turned on.
 One-electron integrals computed using PRISM.
 PrsmSu:  requested number of processors reduced to:  13 ShMem   1 Linda.
 NBasis=   312 RedAO= T EigKep=  2.86D-04  NBF=   312
 NBsUse=   312 1.00D-06 EigRej= -1.00D+00 NBFU=   312
 Initial guess from the checkpoint file:  "NNNCpNpCCCdO.chk"
 B after Tr=    -0.000000   -0.000000    0.000000
         Rot=    0.999938    0.010851   -0.000599    0.002582 Ang=   1.28 deg.
 ExpMin= 1.61D-01 ExpMax= 5.48D+03 ExpMxC= 8.25D+02 IAcc=2 IRadAn=         4 AccDes= 0.00D+00
 Harris functional with IExCor=  402 and IRadAn=       4 diagonalized for initial guess.
 HarFok:  IExCor=  402 AccDes= 0.00D+00 IRadAn=         4 IDoV= 1 UseB2=F ITyADJ=14
 ICtDFT=  3500011 ScaDFX=  1.000000  1.000000  1.000000  1.000000
 FoFCou: FMM=F IPFlag=           0 FMFlag=      100000 FMFlg1=           0
         NFxFlg=           0 DoJE=T BraDBF=F KetDBF=T FulRan=T
         wScrn=  0.000000 ICntrl=       500 IOpCl=  0 I1Cent=   200000004 NGrid=           0
         NMat0=    1 NMatS0=      1 NMatT0=    0 NMatD0=    1 NMtDS0=    0 NMtDT0=    0
 Petite list used in FoFCou.
 Requested convergence on RMS density matrix=1.00D-08 within 128 cycles.
 Requested convergence on MAX density matrix=1.00D-06.
 Requested convergence on             energy=1.00D-06.
 No special actions if energy rises.
 Integral accuracy reduced to 1.0D-05 until final iterations.
 Initial convergence to 1.0D-05 achieved.  Increase integral accuracy.
 SCF Done:  E(RB3LYP) =  -453.815451157     A.U. after   12 cycles
            NFock= 12  Conv=0.80D-08     -V/T= 2.0072
 PrsmSu:  requested number of processors reduced to:  13 ShMem   1 Linda.
 Calling FoFJK, ICntrl=      2127 FMM=F ISym2X=0 I1Cent= 0 IOpClX= 0 NMat=1 NMatS=1 NMatT=0.
 ***** Axes restored to original set *****
 -------------------------------------------------------------------
 Center     Atomic                   Forces (Hartrees/Bohr)
 Number     Number              X              Y              Z
 -------------------------------------------------------------------
      1        7          -0.009392364   -0.001569143   -0.004132471
      2        7           0.006534431    0.002604841    0.017655188
      3        7           0.005666830   -0.004390627   -0.011937794
      4        6           0.001840885    0.003488395    0.001030160
      5        7          -0.009447959    0.003839264   -0.004393076
      6        6           0.004419784    0.001801962   -0.001119509
      7        6          -0.006491518   -0.000438444   -0.002934997
      8        6           0.011957565    0.000272171   -0.002601701
      9        8          -0.007333538   -0.000130544    0.002481028
     10        1           0.000214579    0.002722778    0.000914165
     11        1           0.000875515   -0.000186284    0.001395376
     12        1           0.000505327   -0.005271936   -0.001373022
     13        1           0.001960562   -0.000189854   -0.003188748
     14        1          -0.000065360   -0.001350150    0.002950898
     15        1           0.000412601   -0.001811899    0.001034236
     16        1          -0.000289958    0.001368675    0.001315644
     17        1          -0.000736143   -0.000561018    0.000572999
     18        1           0.000243809   -0.000419739    0.000088756
     19        1           0.000878284    0.000689688    0.001831985
     20        1           0.001427146   -0.000540146    0.000975389
     21        1          -0.003180477    0.000072009   -0.000564505
 -------------------------------------------------------------------
 Cartesian Forces:  Max     0.017655188 RMS     0.004329764

 GradGradGradGradGradGradGradGradGradGradGradGradGradGradGradGradGradGrad
 Berny optimization.
 Using GEDIIS/GDIIS optimizer.
 FormGI is forming the generalized inverse of G from B-inverse, IUseBI=4.
 Internal  Forces:  Max     0.013762294 RMS     0.002846435
 Search for a local minimum.
 Step number   2 out of a maximum of  107
 All quantities printed in internal units (Hartrees-Bohrs-Radians)
 Mixed Optimization -- RFO/linear search
 Update second derivatives using D2CorX and points    1    2
 DE= -9.38D-03 DEPred=-1.25D-02 R= 7.52D-01
 TightC=F SS=  1.41D+00  RLast= 4.72D-01 DXNew= 5.0454D-01 1.4154D+00
 Trust test= 7.52D-01 RLast= 4.72D-01 DXMaxT set to 5.05D-01
 ITU=  1  0
 Use linear search instead of GDIIS.
     Eigenvalues ---    0.00289   0.00367   0.00757   0.00758   0.00894
     Eigenvalues ---    0.00951   0.01010   0.01126   0.03485   0.03951
     Eigenvalues ---    0.04075   0.04448   0.04794   0.04889   0.05012
     Eigenvalues ---    0.05304   0.05589   0.06055   0.06466   0.08312
     Eigenvalues ---    0.09593   0.10995   0.11572   0.12219   0.12889
     Eigenvalues ---    0.15619   0.16000   0.16000   0.16000   0.16068
     Eigenvalues ---    0.18458   0.18588   0.21619   0.21971   0.21982
     Eigenvalues ---    0.23780   0.25861   0.28919   0.29579   0.32081
     Eigenvalues ---    0.33361   0.33717   0.33870   0.33954   0.34222
     Eigenvalues ---    0.34262   0.37079   0.38594   0.41800   0.43330
     Eigenvalues ---    0.43515   0.43747   0.43982   0.44796   0.45456
     Eigenvalues ---    0.45682   0.87203
 RFO step:  Lambda=-3.70909601D-03 EMin= 2.88999441D-03
 Quartic linear search produced a step of -0.05767.
 Iteration  1 RMS(Cart)=  0.06093430 RMS(Int)=  0.00210543
 Iteration  2 RMS(Cart)=  0.00253404 RMS(Int)=  0.00011940
 Iteration  3 RMS(Cart)=  0.00000333 RMS(Int)=  0.00011938
 Iteration  4 RMS(Cart)=  0.00000000 RMS(Int)=  0.00011938
 Variable       Old X    -DE/DX   Delta X   Delta X   Delta X     New X
                                 (Linear)    (Quad)   (Total)
    R1        2.68271   0.00853  -0.00088   0.02065   0.01977   2.70249
    R2        1.91701   0.00066   0.00091  -0.00145  -0.00054   1.91647
    R3        1.93996  -0.00089  -0.00049  -0.00034  -0.00083   1.93913
    R4        2.71511   0.01376  -0.00112   0.03396   0.03284   2.74795
    R5        1.92408   0.00436   0.00090   0.00645   0.00735   1.93144
    R6        2.79329  -0.00632  -0.00183  -0.01006  -0.01189   2.78141
    R7        1.92615   0.00039   0.00061  -0.00108  -0.00047   1.92568
    R8        2.77157  -0.00747  -0.00154  -0.01328  -0.01483   2.75675
    R9        2.89537   0.00168   0.00043   0.00399   0.00441   2.89978
   R10        2.08153   0.00067  -0.00045   0.00319   0.00275   2.08427
   R11        1.92301   0.00072  -0.00005   0.00165   0.00159   1.92460
   R12        1.91480   0.00114  -0.00010   0.00262   0.00252   1.91732
   R13        2.90383  -0.00268  -0.00071  -0.00613  -0.00684   2.89699
   R14        2.07538  -0.00037   0.00001  -0.00103  -0.00102   2.07436
   R15        2.07357   0.00017   0.00026  -0.00035  -0.00009   2.07348
   R16        2.86119   0.00113  -0.00146   0.00778   0.00632   2.86751
   R17        2.06694   0.00041   0.00015   0.00061   0.00076   2.06770
   R18        2.07105   0.00065  -0.00013   0.00212   0.00200   2.07304
   R19        2.28578  -0.00771   0.00227  -0.01490  -0.01263   2.27315
   R20        2.09979   0.00265  -0.00106   0.01055   0.00949   2.10928
    A1        1.86914  -0.00007   0.00362  -0.01016  -0.00653   1.86261
    A2        1.92602  -0.00111   0.00011  -0.00519  -0.00507   1.92095
    A3        1.87533   0.00106  -0.00148   0.01389   0.01243   1.88777
    A4        1.83497   0.00022   0.00239  -0.00821  -0.00577   1.82919
    A5        1.91216  -0.00026   0.00152  -0.01016  -0.00850   1.90366
    A6        1.82408  -0.00085   0.00608  -0.02959  -0.02346   1.80062
    A7        1.95381  -0.01026  -0.00133  -0.03477  -0.03622   1.91760
    A8        1.77338   0.00517   0.00613   0.00939   0.01513   1.78852
    A9        1.88636  -0.00058  -0.00015  -0.01288  -0.01298   1.87337
   A10        2.00832  -0.00700  -0.00713  -0.02720  -0.03446   1.97386
   A11        1.86505   0.00209   0.00340   0.00074   0.00439   1.86944
   A12        1.93196   0.00138   0.00009   0.00529   0.00494   1.93690
   A13        1.89951   0.00405  -0.00039   0.02055   0.02015   1.91966
   A14        1.86513   0.00024   0.00350  -0.01522  -0.01209   1.85304
   A15        1.89117  -0.00043   0.00066   0.01919   0.01985   1.91102
   A16        1.88457   0.00354  -0.00033   0.02220   0.02190   1.90648
   A17        1.95422  -0.00273  -0.00335  -0.00395  -0.00727   1.94695
   A18        1.87387  -0.00030  -0.00019   0.00095   0.00081   1.87468
   A19        1.96667   0.00211  -0.00172   0.01471   0.01300   1.97966
   A20        1.90691  -0.00112   0.00081  -0.00885  -0.00808   1.89883
   A21        1.89840  -0.00075   0.00188  -0.01016  -0.00829   1.89010
   A22        1.90618  -0.00012   0.00025   0.00197   0.00224   1.90843
   A23        1.92804  -0.00061  -0.00094   0.00125   0.00032   1.92836
   A24        1.85416   0.00038  -0.00019   0.00008  -0.00014   1.85402
   A25        1.97603  -0.00002  -0.00153   0.00815   0.00658   1.98261
   A26        1.92342   0.00025   0.00060   0.00159   0.00214   1.92556
   A27        1.93204   0.00053  -0.00077   0.00513   0.00436   1.93640
   A28        1.88182   0.00048  -0.00089   0.00964   0.00870   1.89052
   A29        1.87911  -0.00016   0.00076  -0.00317  -0.00242   1.87669
   A30        1.86730  -0.00115   0.00198  -0.02316  -0.02116   1.84615
   A31        2.16238   0.00059  -0.00135   0.00678   0.00525   2.16763
   A32        2.03157  -0.00223   0.00056  -0.01382  -0.01343   2.01813
   A33        2.08918   0.00164   0.00080   0.00739   0.00800   2.09718
    D1        3.09399   0.00162   0.00077   0.10688   0.10763  -3.08157
    D2        1.14247   0.00260  -0.00854   0.14923   0.14069   1.28316
    D3        1.05790   0.00099   0.00036   0.09887   0.09923   1.15713
    D4       -0.89361   0.00196  -0.00895   0.14122   0.13229  -0.76132
    D5        3.03975  -0.00127   0.00111  -0.04190  -0.04085   2.99891
    D6        1.03072   0.00087  -0.00153  -0.01765  -0.01900   1.01172
    D7       -1.23009  -0.00182   0.00718  -0.06912  -0.06211  -1.29220
    D8        3.04407   0.00032   0.00455  -0.04487  -0.04027   3.00380
    D9        1.21504  -0.00202  -0.00558   0.02355   0.01774   1.23278
   D10       -2.95733   0.00022  -0.00822   0.03301   0.02466  -2.93266
   D11       -0.90150   0.00168  -0.00525   0.05930   0.05398  -0.84753
   D12       -3.12938  -0.00137   0.00097   0.00998   0.01099  -3.11838
   D13       -1.01856   0.00087  -0.00168   0.01943   0.01792  -1.00064
   D14        1.03727   0.00232   0.00130   0.04572   0.04723   1.08450
   D15        0.86961   0.00100   0.00196  -0.02182  -0.02022   0.84939
   D16       -1.18962   0.00073   0.00421  -0.03465  -0.03077  -1.22039
   D17       -1.22230  -0.00004   0.00237  -0.01988  -0.01747  -1.23976
   D18        3.00166  -0.00030   0.00462  -0.03271  -0.02802   2.97364
   D19        3.02211  -0.00174  -0.00017  -0.04478  -0.04467   2.97744
   D20        0.96288  -0.00200   0.00208  -0.05761  -0.05522   0.90765
   D21        3.09873   0.00225   0.00445  -0.03482  -0.03040   3.06832
   D22        0.97653   0.00178   0.00472  -0.04090  -0.03619   0.94033
   D23       -1.04046   0.00235   0.00340  -0.03059  -0.02723  -1.06769
   D24       -1.00577  -0.00252  -0.00239  -0.05504  -0.05751  -1.06328
   D25       -3.12797  -0.00298  -0.00213  -0.06112  -0.06329   3.09192
   D26        1.13823  -0.00242  -0.00344  -0.05081  -0.05433   1.08390
   D27        1.01631  -0.00030   0.00195  -0.05172  -0.04969   0.96662
   D28       -1.10589  -0.00076   0.00221  -0.05780  -0.05548  -1.16136
   D29       -3.12287  -0.00020   0.00090  -0.04749  -0.04652   3.11380
   D30        3.13070   0.00016   0.00002  -0.00944  -0.00943   3.12128
   D31        1.02158  -0.00062   0.00177  -0.02857  -0.02682   0.99476
   D32       -1.04062   0.00032  -0.00059  -0.00413  -0.00472  -1.04534
   D33       -1.02987   0.00006   0.00009  -0.00951  -0.00941  -1.03928
   D34       -3.13900  -0.00072   0.00183  -0.02863  -0.02680   3.11739
   D35        1.08199   0.00022  -0.00052  -0.00420  -0.00470   1.07729
   D36        1.00337   0.00010  -0.00054  -0.00753  -0.00807   0.99531
   D37       -1.10575  -0.00068   0.00121  -0.02666  -0.02546  -1.13121
   D38        3.11524   0.00026  -0.00114  -0.00222  -0.00336   3.11188
   D39       -3.13534  -0.00038  -0.00023  -0.02961  -0.02986   3.11799
   D40       -0.00550   0.00007   0.00024   0.00508   0.00530  -0.00020
   D41       -1.00283   0.00027  -0.00105  -0.01546  -0.01648  -1.01932
   D42        2.12700   0.00071  -0.00058   0.01923   0.01867   2.14568
   D43        1.00633  -0.00092   0.00119  -0.03918  -0.03799   0.96834
   D44       -2.14701  -0.00048   0.00166  -0.00449  -0.00283  -2.14985
         Item               Value     Threshold  Converged?
 Maximum Force            0.013762     0.000450     NO 
 RMS     Force            0.002846     0.000300     NO 
 Maximum Displacement     0.286260     0.001800     NO 
 RMS     Displacement     0.061186     0.001200     NO 
 Predicted change in Energy=-2.160300D-03
 GradGradGradGradGradGradGradGradGradGradGradGradGradGradGradGradGradGrad

                          Input orientation:                          
 ---------------------------------------------------------------------
 Center     Atomic      Atomic             Coordinates (Angstroms)
 Number     Number       Type             X           Y           Z
 ---------------------------------------------------------------------
      1          7           0        0.871244    0.206601   -0.130464
      2          7           0        2.279688    0.031116    0.044632
      3          7           0        2.818991   -0.015266   -1.305023
      4          6           0        4.289959    0.001778   -1.256835
      5          7           0        4.860118   -1.239607   -0.744975
      6          6           0        4.785603    0.256287   -2.686606
      7          6           0        6.308193    0.404212   -2.786580
      8          6           0        6.804991    0.628154   -4.202777
      9          8           0        7.960051    0.791752   -4.496103
     10          1           0        0.471457    0.300768    0.796794
     11          1           0        0.464804   -0.626330   -0.570920
     12          1           0        2.457359   -0.910998    0.398870
     13          1           0        2.517533    0.877354   -1.693313
     14          1           0        4.653990    0.803734   -0.592872
     15          1           0        4.432142   -2.028747   -1.225961
     16          1           0        4.677066   -1.352839    0.246535
     17          1           0        4.305908    1.165928   -3.070540
     18          1           0        4.437049   -0.566372   -3.323535
     19          1           0        6.803630   -0.484837   -2.384880
     20          1           0        6.661569    1.244168   -2.175825
     21          1           0        6.016304    0.658114   -4.992042
 ---------------------------------------------------------------------
                    Distance matrix (angstroms):
                    1          2          3          4          5
     1  N    0.000000
     2  N    1.430093   0.000000
     3  N    2.285286   1.454154   0.000000
     4  C    3.605313   2.394967   1.471856   0.000000
     5  N    4.287220   2.982756   2.445171   1.458807   0.000000
     6  C    4.675312   3.713485   2.418693   1.534498   2.452180
     7  C    6.054290   4.937997   3.813858   2.564243   2.994531
     8  C    7.209078   6.235007   4.969826   3.923813   4.384913
     9  O    8.345801   7.311865   6.104488   4.958477   5.273232
    10  H    1.014152   1.976906   3.166769   4.346003   4.900015
    11  H    1.026143   2.026065   2.540570   3.936598   4.441304
    12  H    2.011214   1.022072   1.958663   2.633048   2.681346
    13  H    2.366997   1.947599   1.019028   2.024511   3.296752
    14  H    3.857403   2.576948   2.131934   1.102950   2.059336
    15  H    4.344755   3.238905   2.581204   2.035731   1.018456
    16  H    4.130165   2.775522   2.765660   2.060330   1.014604
    17  H    4.621826   3.885571   2.592913   2.155233   3.391460
    18  H    4.848521   4.044224   2.645037   2.148413   2.698371
    19  H    6.383862   5.160891   4.154990   2.797824   2.652585
    20  H    6.227995   5.059922   4.136409   2.830655   3.385513
    21  H    7.092986   6.302659   4.926496   4.166871   4.793297
                    6          7          8          9         10
     6  C    0.000000
     7  C    1.533023   0.000000
     8  C    2.552448   1.517423   0.000000
     9  O    3.692983   2.408587   1.202900   0.000000
    10  H    5.545080   6.849727   8.075677   9.183402   0.000000
    11  H    4.891261   6.333748   7.413642   8.578854   1.652331
    12  H    4.037751   5.167765   6.515063   7.559083   2.360196
    13  H    2.552743   3.973438   4.974115   6.122415   3.274066
    14  H    2.168120   2.776394   4.205835   5.115212   4.435958
    15  H    2.734922   3.445924   4.642302   5.576306   5.020479
    16  H    3.347296   3.866212   5.314959   6.153851   4.552400
    17  H    1.097706   2.161016   2.795814   3.940177   5.514326
    18  H    1.097240   2.175209   2.794121   3.953601   5.784026
    19  H    2.170884   1.094179   2.131549   2.724748   7.129982
    20  H    2.180838   1.097006   2.123341   2.697114   6.931375
    21  H    2.644073   2.239136   1.116183   2.010465   8.023942
                   11         12         13         14         15
    11  H    0.000000
    12  H    2.234234   0.000000
    13  H    2.781101   2.753008   0.000000
    14  H    4.426606   2.957878   2.404338   0.000000
    15  H    4.258594   2.790915   3.511349   2.910836   0.000000
    16  H    4.351919   2.268376   3.660650   2.314292   1.638623
    17  H    4.920810   4.446072   2.275592   2.528079   3.691118
    18  H    4.833136   4.230158   2.902846   3.062805   2.557026
    19  H    6.594784   5.178895   4.550216   3.081016   3.057893
    20  H    6.668911   5.380444   4.188127   2.594243   4.072414
    21  H    7.212160   6.647566   4.813635   4.607581   4.890006
                   16         17         18         19         20
    16  H    0.000000
    17  H    4.181499   0.000000
    18  H    3.663542   1.755582   0.000000
    19  H    3.492857   3.071444   2.547239   0.000000
    20  H    4.068234   2.521066   3.089301   1.747382   0.000000
    21  H    5.768898   2.622117   2.603330   2.953559   2.948034
                   21
    21  H    0.000000
 Stoichiometry    C4H12N4O
 Framework group  C1[X(C4H12N4O)]
 Deg. of freedom    57
 Full point group                 C1      NOp   1
 Largest Abelian subgroup         C1      NOp   1
 Largest concise Abelian subgroup C1      NOp   1
                         Standard orientation:                         
 ---------------------------------------------------------------------
 Center     Atomic      Atomic             Coordinates (Angstroms)
 Number     Number       Type             X           Y           Z
 ---------------------------------------------------------------------
      1          7           0       -3.894587   -0.845725   -0.009424
      2          7           0       -2.873305    0.082191   -0.385086
      3          7           0       -1.662518   -0.424244    0.241078
      4          6           0       -0.497166    0.340069   -0.232357
      5          7           0       -0.460974    1.704966    0.281319
      6          6           0        0.756056   -0.422918    0.217054
      7          6           0        2.062447    0.197719   -0.291188
      8          6           0        3.305564   -0.537613    0.174129
      9          8           0        4.427507   -0.228930   -0.130710
     10          1           0       -4.743609   -0.551225   -0.479463
     11          1           0       -4.056960   -0.799752    1.002747
     12          1           0       -3.032648    0.968196    0.098895
     13          1           0       -1.588974   -1.362768   -0.149027
     14          1           0       -0.501371    0.425696   -1.331970
     15          1           0       -0.612808    1.688605    1.288261
     16          1           0       -1.193290    2.276367   -0.126893
     17          1           0        0.684513   -1.459768   -0.136190
     18          1           0        0.755024   -0.471672    1.313210
     19          1           0        2.138648    1.240440    0.031539
     20          1           0        2.084303    0.222520   -1.387696
     21          1           0        3.125399   -1.429061    0.821219
 ---------------------------------------------------------------------
 Rotational constants (GHZ):           5.2804662           0.5243184           0.4917954
 Standard basis: 6-31G(2df,p) (6D, 7F)
 There are   339 symmetry adapted cartesian basis functions of A   symmetry.
 There are   312 symmetry adapted basis functions of A   symmetry.
   312 basis functions,   480 primitive gaussians,   339 cartesian basis functions
    36 alpha electrons       36 beta electrons
       nuclear repulsion energy       457.3315779208 Hartrees.
 NAtoms=   21 NActive=   21 NUniq=   21 SFac= 1.00D+00 NAtFMM=   60 NAOKFM=F Big=F
 Integral buffers will be    131072 words long.
[...]
 .00007421,-0.00003212,0.00006869,0.00000316,0.00000537,0.00001330,0.00
 000623,-0.00000694,-0.00001841,-0.00000565,-0.02338360,0.04758186,-0.0
 5109981,-0.00499762,-0.42190663,0.00561062,0.00340215,-0.00741366,0.00
 161683,-0.00429077,-0.00226927,-0.00165778,-0.00082970,-0.00052519,0.0
 0040487,0.00005851,0.00022729,0.00007607,0.00009239,0.00004256,0.00000
 210,0.00000913,-0.00004793,-0.00002034,-0.00001192,0.00006568,0.000020
 15,0.00003575,-0.00003422,0.03991993,0.00123105,0.44119764,-0.37603792
 ,0.07669023,-0.10988965,-0.00468679,-0.00148910,0.00158651,-0.00192658
 ,0.00116091,0.00140973,0.00046096,0.00036041,0.00025416,0.00000688,0.0
 0000343,-0.00002717,-0.00010829,0.00009239,-0.00003386,-0.00000069,-0.
 00002290,0.00012265,0.00003414,0.00004032,-0.00012388,-0.00003732,-0.0
 0007971,0.00007339,-0.00671022,-0.00470867,0.00494016,0.38571486,0.029
 62698,-0.03338557,-0.01206747,0.04190704,-0.02530830,0.00142211,-0.001
 24231,-0.00089351,0.00288000,-0.00069289,-0.00141842,-0.00067047,0.000
 49565,0.00029042,0.00007965,0.00014782,0.00029893,-0.00000968,0.000030
 49,-0.00000485,-0.00002806,-0.00000600,0.00003829,0.00003006,0.0000138
 9,-0.00001155,-0.00001281,0.00006174,-0.00085761,0.00423911,-0.0713900
 7,0.05648757,-0.07557053,-0.00713664,-0.07398837,0.01604500,-0.0000998
 8,0.00425031,0.00183126,-0.00313496,0.00163655,-0.00008533,0.00015569,
 -0.00056834,-0.00006725,0.00006003,-0.00020421,0.00021505,-0.00005022,
 0.00010678,0.00002804,0.00002700,-0.00011804,-0.00000212,-0.00001320,0
 .00008722,0.00001569,0.00004975,-0.00005329,-0.04175598,0.00578922,-0.
 01032222,0.09937402,0.00338716,0.07954609,0.00869414,0.02447400,0.0014
 2503,-0.28183679,-0.20091634,-0.02350492,-0.01953011,-0.00405471,-0.00
 236679,0.00024321,-0.00123947,0.00605996,0.00019350,-0.00004257,0.0001
 0318,-0.00147461,-0.00002796,-0.00076058,-0.00018062,0.00006305,0.0007
 3071,-0.00004920,-0.00007617,-0.00043547,-0.00009636,-0.00014568,0.000
 24286,0.00012195,-0.00109628,0.00006938,0.00414554,0.00139411,0.000617
 95,0.28836218,-0.01823797,-0.03508834,-0.01487947,-0.15822406,-0.15898
 901,-0.03144367,-0.00443721,0.00106304,0.00135469,0.00072712,0.0016360
 9,0.00066767,0.00051329,-0.00010945,-0.00016458,0.00004863,-0.00012344
 ,-0.00007336,0.00005246,-0.00002299,-0.00013650,-0.00005163,-0.0000224
 5,0.00018588,0.00006746,0.00009544,-0.00011047,-0.00052057,-0.00262329
 ,0.00090078,-0.00092801,0.00265282,-0.00004592,0.18154863,0.19286060,-
 0.00861126,-0.00627961,-0.00406362,-0.05469189,-0.06184358,-0.03961513
 ,0.04106837,0.02091188,-0.01137048,-0.00022219,0.00238897,-0.00634224,
 -0.00027364,-0.00025292,0.00053743,0.00162663,0.00060837,0.00058030,0.
 00026505,-0.00012841,-0.00065460,0.00010492,0.00002733,0.00031880,0.00
 003091,0.00010735,-0.00016422,-0.00100926,-0.00299805,-0.00052613,0.00
 191846,0.00091712,0.00038198,0.01853112,0.04452585,0.06109755,0.001880
 35,-0.00153004,-0.00088188,0.00926441,-0.01513394,0.01932226,-0.134621
 97,0.10664235,-0.07930794,-0.01340541,0.03024009,-0.01797883,-0.010515
 97,-0.00039698,-0.00261234,-0.00025747,0.00168606,-0.00085434,0.000359
 38,-0.00069860,0.00008364,0.00002203,-0.00003773,0.00038890,0.00003269
 ,0.00007292,-0.00015200,-0.00033010,0.00025291,0.00006684,-0.00122831,
 -0.00024372,-0.00023087,0.00053830,-0.00047768,0.00094491,0.14654859,-
 0.00399800,0.00400583,-0.00247852,0.00068828,-0.00347292,-0.00506787,0
 .13136485,-0.21039071,0.16449151,-0.01106206,-0.00040924,-0.00823459,0
 .00138249,0.00120369,0.00055927,-0.00019793,0.00076890,-0.00015377,0.0
 0029394,0.00006002,-0.00045560,-0.00001226,0.00009570,0.00015061,0.000
 02989,-0.00000026,-0.00008045,-0.00014766,-0.00089316,-0.00031987,0.00
 037237,0.00175001,0.00097455,0.00019071,-0.00160955,0.00252620,-0.1174
 9778,0.20813490,-0.00111281,0.00228419,0.00604317,-0.00308581,0.029674
 64,-0.04202036,-0.07130302,0.11705688,-0.12307129,-0.00730784,0.004588
 62,-0.00308154,0.00113206,-0.00055577,0.00095474,0.00171336,-0.0003497
 1,0.00074659,-0.00014658,-0.00007888,-0.00045380,0.00007634,0.00004029
 ,0.00008478,0.00001045,-0.00000125,-0.00005583,-0.00071679,-0.00055370
 ,0.00111578,0.00047775,-0.00025532,-0.00080736,-0.00073949,-0.00056167
 ,-0.00054041,0.07983054,-0.15162686,0.16128951,0.00023215,0.00109876,0
 .00114650,0.00357067,0.00037530,-0.00288614,-0.02119483,-0.03262953,-0
 .02226113,-0.04615707,-0.01007156,-0.00565245,-0.00035250,0.01850461,0
 .00933339,0.00063553,0.00913854,0.00794551,0.00074328,0.00088015,0.000
 15041,0.00004626,0.00026659,0.00012485,-0.00000266,-0.00013960,-0.0000
 6157,-0.00028060,0.00040668,0.00017807,0.00019880,0.00036321,-0.000266
 96,0.00062363,0.00039726,0.00013013,0.00077789,-0.00052827,0.00048447,
 0.06192100,0.00074876,0.00084676,0.00058424,0.00160531,0.00037622,-0.0
 0175686,-0.01033267,-0.00627299,-0.00698755,-0.00808724,-0.20014262,-0
 .10898403,0.00495272,-0.02795169,-0.01408961,-0.00015631,0.00633527,0.
 00417384,0.00037339,0.00032774,0.00016031,0.00022375,0.00052248,0.0001
 2563,-0.00003377,-0.00013512,-0.00005915,-0.00059179,-0.00016640,0.000
 40509,0.00001427,0.00040753,0.00000652,0.00014822,-0.00007065,0.000168
 57,-0.00070680,0.00004290,0.00014007,0.01050996,0.22790759,0.00056855,
 0.00070026,0.00022668,0.00103335,0.00155251,-0.00044296,-0.00490510,-0
 .00600584,-0.00037470,-0.00551839,-0.11680487,-0.13919938,-0.00170281,
 0.01562098,0.00931682,0.00040893,-0.02294708,-0.01952563,-0.00135529,-
 0.00084932,0.00119447,0.00004250,0.00000492,-0.00038845,-0.00007853,0.
 00015527,0.00007977,-0.00015485,0.00005413,0.00036384,-0.00017713,0.00
 011695,0.00016424,-0.00018002,0.00007500,0.00000479,-0.00040193,-0.000
 32365,-0.00011386,0.01174480,0.12231327,0.15109603,0.00008325,-0.00042
 554,-0.00024935,-0.00139931,-0.00013223,0.00087564,0.00301413,-0.00012
 450,0.00214613,-0.00363737,0.02550873,0.00864144,-0.02916995,-0.080277
 77,-0.05235700,0.00020412,-0.00118688,-0.00020419,-0.00025486,-0.00010
 658,0.00064364,0.00003690,-0.00040495,-0.00015548,-0.00001734,0.000149
 64,0.00006078,0.00020075,-0.00000079,-0.00010059,0.00004232,-0.0000930
 7,0.00000364,-0.00012793,0.00002469,-0.00008191,0.00065169,-0.00057276
 ,-0.00034881,-0.00055916,0.00275833,-0.00181174,0.03212780,0.00003111,
 0.00013430,0.00004485,0.00014215,-0.00007992,-0.00031907,-0.00090794,0
 .00389137,-0.00061656,-0.00727335,-0.03347089,-0.01776756,-0.03403237,
 -0.30357357,-0.15335336,-0.00036848,0.00041395,-0.00110178,-0.00013633
 ,-0.00007314,0.00014942,-0.00008345,-0.00014382,0.00013423,0.00005775,
 0.00012135,-0.00006897,-0.00008693,-0.00006550,0.00007690,0.00000133,0
 .00012812,-0.00002590,0.00006325,-0.00001937,-0.00002570,-0.00073492,0
 .00060159,0.00011161,0.00339098,-0.00358431,0.00407276,0.04238555,0.33
 052735,-0.00018017,0.00012869,-0.00016349,0.00021309,0.00004390,-0.000
 10672,0.00024834,0.00015676,-0.00020642,0.00271536,0.01533849,0.009869
 04,-0.02462988,-0.14597944,-0.15477345,-0.00000517,0.00146560,0.002354
 16,0.00021368,-0.00013168,-0.00020811,0.00006560,0.00019582,-0.0000303
 9,-0.00004354,-0.00012634,0.00002985,-0.00006670,-0.00008996,-0.000007
 36,-0.00000287,0.00002471,0.00001967,0.00019640,-0.00018088,0.00018720
 ,-0.00013569,0.00024727,0.00008383,-0.00190251,0.00287806,-0.00021703,
 0.03258915,0.16233196,0.16353720,-0.00001099,0.00022127,0.00082224,-0.
 00027501,0.00073549,-0.00028632,0.00013922,0.00008385,-0.00125095,0.00
 249427,0.00668874,-0.02473719,-0.07733659,-0.01686182,0.17051197,-0.00
 214206,0.00144141,-0.00026799,0.00018317,-0.00029677,0.00076172,0.0004
 3585,-0.00000621,-0.00047697,-0.00028839,-0.00021366,0.00023752,0.0000
 8999,0.00014428,-0.00000718,0.00012434,-0.00035636,-0.00013386,0.00030
 602,-0.00045337,0.00032925,-0.00001944,-0.00011536,0.00038791,0.000186
 69,-0.00069166,0.00034263,-0.00132232,-0.00225525,-0.00899212,0.076693
 04,0.00020076,-0.00042863,-0.00001235,-0.00062199,-0.00038894,-0.00057
 036,-0.00028416,0.00031105,-0.00019843,-0.01382156,-0.00533586,0.03019
 845,-0.01245385,-0.06722338,0.05693905,0.00396327,-0.00457886,0.001893
 24,0.00056821,0.00022165,0.00017333,0.00016291,-0.00008302,-0.00034522
 ,-0.00010583,-0.00007543,0.00014769,0.00032993,0.00004214,-0.00003046,
 -0.00007251,-0.00012184,0.00001014,-0.00031995,0.00038701,-0.00051854,
 -0.00014345,0.00008249,0.00003050,-0.00070118,0.00035082,-0.00034046,0
 .01255801,0.00434851,-0.03505314,0.01112974,0.07244730,0.00024382,-0.0
 0009762,0.00040091,0.00099735,-0.00090533,0.00056710,0.00152939,-0.000
 38720,-0.00019959,0.00654609,0.00538837,-0.01881594,0.11832556,0.04328
 442,-0.35105547,-0.00247115,0.00300050,0.00029590,-0.00024575,-0.00024
 933,0.00041409,0.00019693,-0.00000457,-0.00011344,-0.00011717,-0.00008
 947,0.00007688,0.00016789,-0.00001769,-0.00004111,0.00005431,-0.000193
 86,-0.00009630,-0.00010787,-0.00003541,0.00007436,0.00055841,-0.000224
 20,-0.00019208,-0.00020987,-0.00052771,0.00123196,0.01040204,0.0048931
 8,-0.01957026,-0.13663061,-0.05424423,0.38722643,-0.00000485,0.0000049
 3,0.00000301,0.00039464,-0.00006835,-0.00039044,0.00005265,-0.00052623
 ,0.00093547,0.00576142,-0.00821261,0.00387696,-0.00012752,-0.00076630,
 0.00247338,-0.12991390,0.10084826,-0.06417268,-0.02082119,0.01999159,-
 0.01208687,0.00091608,0.00184354,-0.00304794,-0.00025976,-0.00138424,0
 .00097251,0.00001502,-0.00000936,-0.00000902,0.00000317,-0.00000221,-0
 .00000917,0.00009112,-0.00004149,0.00001225,-0.00023867,-0.00030220,0.
 00059156,0.00022548,0.00023232,-0.00055755,-0.00015461,0.00003254,-0.0
 0000609,0.00013513,-0.00055659,0.00061694,0.14802965,-0.00001716,-0.00
 007717,-0.00000603,-0.00044835,0.00045247,-0.00046049,0.00055931,-0.00
 009855,-0.00011887,0.00487096,-0.00591622,0.00099577,-0.00115322,0.000
 80595,0.00248084,0.10067523,-0.16815356,0.07687211,-0.00825228,0.00827
 698,-0.00580039,0.00024851,0.00024298,-0.00019574,0.00030372,0.0001770
 9,-0.00038859,0.00006382,0.00002132,-0.00000243,-0.00003577,-0.0000386
 9,0.00003734,-0.00003185,-0.00001384,-0.00000302,-0.00136336,0.0004048
 9,0.00052966,-0.00038552,0.00046785,0.00026831,0.00019631,0.00063441,-
 0.00049614,0.00040593,-0.00028215,0.00031010,-0.10838210,0.17989903,-0
 .00001491,-0.00003609,0.00009253,0.00013638,-0.00056973,0.00030718,-0.
 00124359,-0.00020494,0.00086035,-0.01941805,0.02145060,-0.01082460,0.0
 0254657,0.00043865,-0.00640925,-0.06242834,0.07552199,-0.09886305,-0.0
 0083731,0.00047620,-0.00039285,0.00034532,-0.00088280,0.00023726,-0.00
 028934,0.00013226,0.00013742,-0.00006202,-0.00001911,-0.00000329,0.000
 05563,0.00004731,-0.00003932,-0.00003791,-0.00002110,0.00009275,0.0015
 6812,0.00009358,0.00013857,-0.00032184,-0.00067425,0.00088234,0.000141
 66,0.00009950,-0.00018717,-0.00057833,0.00196412,-0.00060283,0.0699126
 8,-0.08599832,0.10601976,-0.00008098,-0.00013866,-0.00012147,-0.000096
 62,-0.00019552,-0.00009797,0.00087492,0.00025855,-0.00017772,-0.000484
 98,0.01114538,0.00786392,-0.00005050,-0.00005624,-0.00097788,-0.047628
 98,-0.00272039,-0.00360893,-0.00133674,-0.02766645,-0.01672342,0.00147
 121,-0.00243579,-0.00160882,-0.00015106,0.00121155,0.00040438,0.000056
 33,-0.00004248,-0.00002593,-0.00001079,-0.00002534,0.00000810,-0.00007
 737,0.00000369,0.00000484,0.00007296,0.00042496,0.00023849,-0.00053353
 ,-0.00107970,0.00180825,0.00049712,-0.00025941,-0.00015039,-0.00016814
 ,0.00008903,-0.00011233,0.00012761,0.01530865,0.01104474,0.05257321,-0
 .00003538,0.00008721,0.00007562,0.00029626,0.00019194,-0.00020074,0.00
 036091,0.00042373,0.00059888,0.00014490,0.00387785,0.00370928,-0.00015
 419,0.00182206,0.00024402,-0.00209056,-0.21942187,-0.11439173,-0.00221
 409,-0.01050532,-0.00454933,0.00143191,-0.00078599,-0.00260621,-0.0002
 8116,0.00051040,0.00062399,-0.00003591,-0.00000539,0.00003469,-0.00002
 520,-0.00002139,0.00001616,0.00002694,0.00001892,-0.00008495,-0.000145
 68,-0.00027640,-0.00024848,-0.00052805,0.00069104,0.00139063,-0.000137
 77,0.00021935,-0.00062805,-0.00000506,0.00025032,-0.00003523,-0.000215
 91,-0.01822554,-0.01247263,0.00652080,0.23916846,0.00004019,0.00022075
 ,0.00020638,0.00010017,0.00048165,-0.00014334,-0.00147835,-0.00008540,
 0.00198652,0.00030787,-0.02836840,-0.02186029,-0.00022628,-0.00093585,
 0.00290616,-0.00299715,-0.11387630,-0.12434007,-0.00112862,-0.00148208
 ,-0.00090570,0.00087038,0.00152563,-0.00022490,-0.00018013,-0.00046750
 ,0.00015178,-0.00011311,0.00000551,0.00007766,0.00001390,0.00011957,-0
 .00000270,0.00012842,-0.00005154,0.00001014,0.00004544,-0.00002392,-0.
 00018716,0.00238272,0.00215640,-0.00475146,0.00014590,0.00136833,-0.00
 067269,0.00006579,0.00009969,0.00054282,0.00042712,0.01213805,0.008195
 86,0.00156368,0.12745301,0.13818927,0.00001459,-0.00003293,0.00003901,
 0.00019611,-0.00011640,0.00032485,0.00028593,0.00012220,-0.00014356,-0
 .00013012,0.00221511,-0.00157383,0.00056378,-0.00036162,-0.00051778,-0
 .02286008,0.01943543,-0.01863598,-0.10311905,0.08532747,-0.07198426,0.
 00848836,-0.01152541,0.00848988,-0.00386650,0.00049123,0.00118639,-0.0
 0001334,0.00000526,-0.00000546,0.00003631,0.00000730,-0.00002953,0.000
 03126,-0.00001600,-0.00002844,0.00050603,-0.00020812,-0.00007063,0.000
 02791,-0.00006477,0.00023798,-0.00011098,-0.00010162,-0.00003819,0.000
 74124,0.00010856,0.00023989,-0.00570857,-0.00323943,-0.00024990,0.0010
 8268,-0.00018620,0.00003368,0.12473300,0.00001364,-0.00004044,-0.00003
 261,-0.00000552,-0.00000487,0.00019808,0.00054345,-0.00018473,-0.00013
 677,-0.00000740,0.00064378,0.00083582,-0.00130145,-0.00108790,-0.00039
 618,-0.00602825,0.00670579,-0.00647428,0.08870420,-0.15027003,0.086245
 78,-0.00287903,-0.00315966,0.00309044,0.00046619,0.00212153,0.00076875
 ,0.00002097,0.00000706,-0.00001162,0.00001830,-0.00000279,-0.00000947,
 0.00001837,-0.00000787,-0.00003562,0.00022669,0.00000126,-0.00011627,0
 .00012788,-0.00012695,0.00004089,-0.00042648,-0.00020751,0.00002230,0.
 00056975,0.00014254,0.00013503,-0.00248398,0.00029675,0.00037643,0.000
 50272,0.00063885,-0.00021070,-0.09204857,0.16102986,-0.00000654,0.0000
 3214,0.00001615,0.00006241,0.00002456,-0.00015418,-0.00064699,0.000191
 63,-0.00020170,0.00115594,-0.00055040,0.00010189,0.00131049,0.00047743
 ,-0.00068778,-0.00324134,0.00075112,0.00004128,-0.07983263,0.09113110,
 -0.13032983,-0.01654754,0.02313912,-0.01697148,0.00415778,-0.00199172,
 -0.00199901,-0.00000372,-0.00000343,0.00001159,-0.00002160,-0.00000531
 ,0.00000678,-0.00000529,0.00001230,0.00001950,-0.00019765,0.00000694,0
 .00011505,-0.00003344,0.00000706,-0.00003028,-0.00035269,-0.00001209,0
 .00012859,-0.00020909,-0.00021769,-0.00013424,0.00036807,0.00002768,0.
 00036262,-0.00011700,0.00015525,0.00012059,0.08345074,-0.10146166,0.13
 893024,-0.00001887,0.00008888,0.00007054,0.00005240,0.00015106,0.00001
 328,-0.00000080,0.00023808,0.00038603,0.00096948,-0.00045586,-0.001791
 07,0.00019610,0.00005297,0.00009136,-0.00138556,-0.02902025,-0.0136901
 1,-0.04839887,-0.00575011,-0.00290825,0.00007501,0.01577559,0.00604033
 ,-0.00022540,-0.00095855,-0.00256276,-0.00003705,0.00000755,0.00002388
 ,-0.00002195,0.00000679,0.00001555,-0.00000736,0.00001278,-0.00002332,
 -0.00002231,-0.00011102,-0.00010607,-0.00003981,0.00033961,0.00070389,
 -0.00009361,0.00015243,-0.00011108,0.00004931,-0.00004288,0.00003869,0
 .00172636,0.00067745,-0.00017088,-0.00580489,-0.00241862,0.00017238,0.
 00001015,0.01412901,0.00811573,0.05247192,0.00000150,0.00005069,-0.000
 00421,-0.00007117,-0.00005344,0.00003323,0.00023213,0.00037189,0.00044
 353,0.00028339,-0.00051040,-0.00102399,-0.00024731,0.00019193,0.000717
 15,0.00015744,-0.00798077,-0.00361810,-0.00508210,-0.26527943,-0.10115
 185,-0.00070437,-0.00101116,0.00146994,0.00083095,0.00228622,0.0005151
 7,-0.00003311,-0.00001736,0.00001055,-0.00000474,0.00001818,0.00000579
 ,-0.00001541,0.00000059,0.00001511,0.00001335,-0.00005506,-0.00007848,
 -0.00032738,0.00025895,0.00071045,0.00020119,0.00016996,-0.00010522,-0
 .00020317,-0.00010414,-0.00001834,-0.00018304,0.00105870,0.00018684,-0
 .00161342,0.00084541,0.00000098,-0.00068323,-0.01632934,-0.00943873,0.
 00806561,0.28528021,-0.00000038,-0.00001070,-0.00001493,-0.00001575,-0
 .00000928,0.00001174,0.00013647,0.00003251,-0.00000293,-0.00013664,0.0
 0069350,0.00069923,0.00009348,-0.00015682,-0.00048806,-0.00051614,-0.0
 0075437,-0.00129760,-0.00241724,-0.09687897,-0.09254456,-0.00042215,-0
 .03297658,-0.01562347,-0.00275234,0.00296799,0.00507085,0.00001399,0.0
 0000742,-0.00000491,-0.00000835,-0.00001787,0.00000413,-0.00000858,-0.
 00000034,-0.00000068,-0.00001420,-0.00001721,-0.00000708,0.00010184,-0
 .00011796,0.00008998,-0.00012005,-0.00005100,-0.00000187,0.00011518,0.
 00004871,-0.00001269,0.00004395,-0.00019598,0.00000020,-0.00010444,-0.
 00031128,0.00032651,0.00071539,0.01646266,0.00893887,0.00242501,0.1111
 7864,0.09990577,-0.00000302,-0.00001591,-0.00000271,0.00007706,0.00008
 622,0.00000338,-0.00008516,-0.00001536,-0.00027958,0.00075029,0.000073
 33,0.00054618,-0.00016513,-0.00008175,-0.00001102,0.00225044,0.0013006
 0,-0.00213347,0.01235825,0.00614539,0.01191948,-0.06098370,0.00644754,
 0.00197874,0.01294224,-0.02771827,-0.00280032,0.00001080,0.00000226,-0
 .00000278,0.00000155,-0.00000303,-0.00000267,0.00002949,-0.00000799,-0
 .00002492,-0.00001467,0.00000593,-0.00000509,-0.00006914,-0.00016193,-
 0.00004753,-0.00001064,-0.00001704,0.00002279,-0.00001531,0.00001353,-
 0.00002256,-0.00024926,-0.00000086,-0.00009868,-0.00033148,-0.00030793
 ,-0.00017401,-0.00090870,-0.00016049,0.00259436,0.00050574,-0.00061709
 ,0.00287097,0.03391034,0.00001929,0.00001265,-0.00001729,0.00008019,0.
 00004021,0.00001243,0.00012076,0.00018503,-0.00019743,0.00026160,0.000
 21588,0.00044829,0.00010184,0.00011962,-0.00010306,-0.00043521,-0.0001
 2560,0.00004772,-0.00539401,0.00170883,-0.00189899,0.00967865,-0.17773
 728,-0.09504053,-0.02035899,-0.04891450,-0.00373676,-0.00000215,-0.000
 00908,-0.00000170,0.00000270,-0.00000734,-0.00000313,0.00003911,-0.000
 01427,-0.00002634,-0.00002367,-0.00004489,-0.00003009,-0.00014883,-0.0
 0008441,0.00019489,0.00010688,0.00002776,-0.00004270,0.00003825,0.0000
 3841,0.00001857,0.00018144,0.00006731,0.00009151,0.00076808,0.00049638
 ,-0.00006786,0.00087175,-0.00016531,-0.00227528,-0.00094052,0.00080838
 ,0.00010694,0.01503285,0.22338222,0.00003471,0.00000381,-0.00002938,0.
 00006091,0.00003770,0.00001212,0.00014957,0.00033053,-0.00015739,0.000
 36255,0.00042664,0.00027269,0.00001566,0.00010984,-0.00000519,-0.00135
 595,-0.00133628,-0.00083689,0.00526743,-0.02768997,-0.00915981,0.00464
 321,-0.08807397,-0.13065257,0.00238587,0.01148816,0.02319817,-0.000001
 54,-0.00001081,-0.00000013,0.00000383,-0.00000292,-0.00000361,0.000041
 91,-0.00001726,-0.00002730,-0.00004138,-0.00004340,-0.00004126,-0.0001
 2678,0.00007807,0.00039283,0.00013179,0.00005926,-0.00006460,-0.000003
 59,0.00002597,0.00000350,0.00004588,0.00000616,-0.00000449,0.00088989,
 0.00122711,0.00037461,-0.00144028,0.00070900,0.00171533,0.00326688,0.0
 0015155,-0.00504849,-0.01433056,0.10252080,0.12006188\\0.00000816,0.00
 001859,-0.00000326,0.00000202,-0.00000600,0.00000607,0.00000971,0.0000
 0242,0.00001059,-0.00003200,-0.00000924,-0.00001014,0.00000164,-0.0000
 1315,0.00001179,-0.00001397,-0.00000206,0.00000810,0.00002309,0.000005
 69,-0.00000971,-0.00002118,-0.00002294,0.00001609,0.00000633,0.0000118
 1,-0.00000368,0.00000176,0.00000025,0.00000406,-0.00000267,-0.00000911
 ,-0.00000106,0.00000116,-0.00000551,-0.00001162,-0.00000062,0.00000195
 ,-0.00000649,0.00000842,0.00000865,0.00000020,0.00000167,0.00000588,0.
 00000183,0.00000457,-0.00000030,-0.00000320,0.00000034,0.00000258,-0.0
 0000012,0.00000295,0.00000124,-0.00000257,-0.00000345,-0.00000099,-0.0
 0000239,-0.00000371,0.00000179,-0.00000297,0.00000579,0.00000843,-0.00
 000154\\\@


 Happiness is a conscious choice, not an automatic response.
 -- Mildred Barthel
 Job cpu time:       0 days  1 hours 46 minutes 24.5 seconds.
 Elapsed time:       0 days  0 hours 26 minutes 36.6 seconds.
 File lengths (MBytes):  RWF=    161 Int=      0 D2E=      0 Chk=      9 Scr=      1
 Normal termination of Gaussian 16 at Mon May 31 20:43:24 2021.
### All Done ###
