### Starting Gaussian ###
 Entering Gaussian System, Link 0=g16
 Initial command:
 /cluster/software/gaussian/gaussian-16-A.03/avx2/g16/l1.exe "/local/scratch/cz9n3/Gau-6257.inp" -scrdir="/local/scratch/cz9n3/"
 Entering Link 1 = /cluster/software/gaussian/gaussian-16-A.03/avx2/g16/l1.exe PID=      6312.
  
 Copyright (c) 1988,1990,1992,1993,1995,1998,2003,2009,2016,
            Gaussian, Inc.  All Rights Reserved.
  
 This is part of the Gaussian(R) 16 program.  It is based on
 the Gaussian(R) 09 system (copyright 2009, Gaussian, Inc.),
 the Gaussian(R) 03 system (copyright 2003, Gaussian, Inc.),
 the Gaussian(R) 98 system (copyright 1998, Gaussian, Inc.),
 the Gaussian(R) 94 system (copyright 1995, Gaussian, Inc.),
 the Gaussian 92(TM) system (copyright 1992, Gaussian, Inc.),
 the Gaussian 90(TM) system (copyright 1990, Gaussian, Inc.),
 the Gaussian 88(TM) system (copyright 1988, Gaussian, Inc.),
 the Gaussian 86(TM) system (copyright 1986, Carnegie Mellon
 University), and the Gaussian 82(TM) system (copyright 1983,
 Carnegie Mellon University). Gaussian is a federally registered
 trademark of Gaussian, Inc.
  
 This software contains proprietary and confidential information,
 including trade secrets, belonging to Gaussian, Inc.
  
 This software is provided under written license and may be
 used, copied, transmitted, or stored only in accord with that
 written license.
  
 The following legend is applicable only to US Government
 contracts under FAR:
  
                    RESTRICTED RIGHTS LEGEND
  
 Use, reproduction and disclosure by the US Government is
 subject to restrictions as set forth in subparagraphs (a)
 and (c) of the Commercial Computer Software - Restricted
 Rights clause in FAR 52.227-19.
  
 Gaussian, Inc.
 340 Quinnipiac St., Bldg. 40, Wallingford CT 06492
  
  
 ---------------------------------------------------------------
 Warning -- This program may not be used in any manner that
 competes with the business of Gaussian, Inc. or will provide
 assistance to any competitor of Gaussian, Inc.  The licensee
 of this program is prohibited from giving any competitor of
 Gaussian, Inc. access to this program.  By using this program,
 the user acknowledges that Gaussian, Inc. is engaged in the
 business of creating and licensing software in the field of
 computational chemistry and represents and warrants to the
 licensee that it is not a competitor of Gaussian, Inc. and that
 it will not use this program in any manner prohibited above.
 ---------------------------------------------------------------
  

 Cite this work as:
 Gaussian 16, Revision A.03,
 M. J. Frisch, G. W. Trucks, H. B. Schlegel, G. E. Scuseria, 
 M. A. Robb, J. R. Cheeseman, G. Scalmani, V. Barone, 
 G. A. Petersson, H. Nakatsuji, X. Li, M. Caricato, A. V. Marenich, 
 J. Bloino, B. G. Janesko, R. Gomperts, B. Mennucci, H. P. Hratchian, 
 J. V. Ortiz, A. F. Izmaylov, J. L. Sonnenberg, D. Williams-Young, 
 F. Ding, F. Lipparini, F. Egidi, J. Goings, B. Peng, A. Petrone, 
 T. Henderson, D. Ranasinghe, V. G. Zakrzewski, J. Gao, N. Rega, 
 G. Zheng, W. Liang, M. Hada, M. Ehara, K. Toyota, R. Fukuda, 
 J. Hasegawa, M. Ishida, T. Nakajima, Y. Honda, O. Kitao, H. Nakai, 
 T. Vreven, K. Throssell, J. A. Montgomery, Jr., J. E. Peralta, 
 F. Ogliaro, M. J. Bearpark, J. J. Heyd, E. N. Brothers, K. N. Kudin, 
 V. N. Staroverov, T. A. Keith, R. Kobayashi, J. Normand, 
 K. Raghavachari, A. P. Rendell, J. C. Burant, S. S. Iyengar, 
 J. Tomasi, M. Cossi, J. M. Millam, M. Klene, C. Adamo, R. Cammi, 
 J. W. Ochterski, R. L. Martin, K. Morokuma, O. Farkas, 
 J. B. Foresman, and D. J. Fox, Gaussian, Inc., Wallingford CT, 2016.
 
 ******************************************
 Gaussian 16:  ES64L-G16RevA.03 25-Dec-2016
                 1-Jun-2021 
 ******************************************
 %chk=NtCC1CdCNC1.chk
 %NProcShared=20
 Will use up to   20 processors via shared memory.
 -----------------------------
 # opt freq b3lyp/6-31g(2df,p)
 -----------------------------
 1/18=20,19=15,26=3,38=1/1,3;
 2/9=110,12=2,17=6,18=5,40=1/2;
 3/5=1,6=6,7=104,11=2,25=1,30=1,71=1,74=-5/1,2,3;
 4//1;
 5/5=2,38=5/2;
 6/7=2,8=2,9=2,10=2,28=1/1;
 7//1,2,3,16;
 1/18=20,19=15,26=3/3(2);
 2/9=110/2;
 99//99;
 2/9=110/2;
 3/5=1,6=6,7=104,11=2,25=1,30=1,71=1,74=-5/1,2,3;
 4/5=5,16=3,69=1/1;
 5/5=2,38=5/2;
 7//1,2,3,16;
 1/18=20,19=15,26=3/3(-5);
 2/9=110/2;
 6/7=2,8=2,9=2,10=2,19=2,28=1/1;
 99/9=1/99;
 -------------------
 Title Card Required
 -------------------
 Symbolic Z-matrix:
 Charge =  0 Multiplicity = 1
 N                     1.02712   0.09611  -0.00513 
 C                     2.28809   0.09611  -0.00513 
 C                     3.80809   0.09611  -0.00513 
 C                     4.36601  -1.13642  -0.68462 
 C                     5.36157  -0.77765  -1.49774 
 N                     5.5004    0.57753  -1.52408 
 C                     4.39589   1.24334  -0.85053 
 H                     4.17108   0.14066   1.02861 
 H                     4.02893  -2.14781  -0.50429 
 H                     5.99741  -1.4188   -2.09711 
 H                     6.31057   1.04763  -1.90769 
 H                     3.68542   1.61011  -1.60193 
 H                     4.72411   2.08583  -0.23483 
 

 GradGradGradGradGradGradGradGradGradGradGradGradGradGradGradGradGradGrad
 Berny optimization.
 Initialization pass.
                           ----------------------------
                           !    Initial Parameters    !
                           ! (Angstroms and Degrees)  !
 --------------------------                            --------------------------
 ! Name  Definition              Value          Derivative Info.                !
 --------------------------------------------------------------------------------
 ! R1    R(1,2)                  1.261          estimate D2E/DX2                !
 ! R2    R(2,3)                  1.52           estimate D2E/DX2                !
 ! R3    R(3,4)                  1.514          estimate D2E/DX2                !
 ! R4    R(3,7)                  1.5415         estimate D2E/DX2                !
 ! R5    R(3,8)                  1.0965         estimate D2E/DX2                !
 ! R6    R(4,5)                  1.3345         estimate D2E/DX2                !
 ! R7    R(4,9)                  1.0812         estimate D2E/DX2                !
 ! R8    R(5,6)                  1.3625         estimate D2E/DX2                !
 ! R9    R(5,10)                 1.0838         estimate D2E/DX2                !
 ! R10   R(6,7)                  1.455          estimate D2E/DX2                !
 ! R11   R(6,11)                 1.0122         estimate D2E/DX2                !
 ! R12   R(7,12)                 1.0972         estimate D2E/DX2                !
 ! R13   R(7,13)                 1.0939         estimate D2E/DX2                !
 ! A1    A(2,3,4)              111.624          estimate D2E/DX2                !
 ! A2    A(2,3,7)              112.4147         estimate D2E/DX2                !
 ! A3    A(2,3,8)              109.3317         estimate D2E/DX2                !
 ! A4    A(4,3,7)              102.6628         estimate D2E/DX2                !
 ! A5    A(4,3,8)              109.5238         estimate D2E/DX2                !
 ! A6    A(7,3,8)              111.1339         estimate D2E/DX2                !
 ! A7    A(3,4,5)              109.2387         estimate D2E/DX2                !
 ! A8    A(3,4,9)              124.8744         estimate D2E/DX2                !
 ! A9    A(5,4,9)              125.8492         estimate D2E/DX2                !
 ! A10   A(4,5,6)              110.804          estimate D2E/DX2                !
 ! A11   A(4,5,10)             127.9936         estimate D2E/DX2                !
 ! A12   A(6,5,10)             121.1929         estimate D2E/DX2                !
 ! A13   A(5,6,7)              111.6445         estimate D2E/DX2                !
 ! A14   A(5,6,11)             123.4231         estimate D2E/DX2                !
 ! A15   A(7,6,11)             124.7875         estimate D2E/DX2                !
 ! A16   A(3,7,6)              101.6996         estimate D2E/DX2                !
 ! A17   A(3,7,12)             112.1746         estimate D2E/DX2                !
 ! A18   A(3,7,13)             112.266          estimate D2E/DX2                !
 ! A19   A(6,7,12)             109.1167         estimate D2E/DX2                !
 ! A20   A(6,7,13)             112.658          estimate D2E/DX2                !
 ! A21   A(12,7,13)            108.8015         estimate D2E/DX2                !
 ! A22   L(1,2,3,12,-1)        180.0            estimate D2E/DX2                !
 ! A23   L(1,2,3,12,-2)        180.0            estimate D2E/DX2                !
 ! D1    D(2,3,4,5)            135.364          estimate D2E/DX2                !
 ! D2    D(2,3,4,9)            -46.7605         estimate D2E/DX2                !
 ! D3    D(7,3,4,5)             14.7359         estimate D2E/DX2                !
 ! D4    D(7,3,4,9)           -167.3887         estimate D2E/DX2                !
 ! D5    D(8,3,4,5)           -103.412          estimate D2E/DX2                !
 ! D6    D(8,3,4,9)             74.4634         estimate D2E/DX2                !
 ! D7    D(2,3,7,6)           -138.8667         estimate D2E/DX2                !
 ! D8    D(2,3,7,12)           -22.4078         estimate D2E/DX2                !
 ! D9    D(2,3,7,13)           100.477          estimate D2E/DX2                !
 ! D10   D(4,3,7,6)            -18.7845         estimate D2E/DX2                !
 ! D11   D(4,3,7,12)            97.6744         estimate D2E/DX2                !
 ! D12   D(4,3,7,13)          -139.4409         estimate D2E/DX2                !
 ! D13   D(8,3,7,6)             98.2211         estimate D2E/DX2                !
 ! D14   D(8,3,7,12)          -145.32           estimate D2E/DX2                !
 ! D15   D(8,3,7,13)           -22.4352         estimate D2E/DX2                !
 ! D16   D(3,4,5,6)             -3.931          estimate D2E/DX2                !
 ! D17   D(3,4,5,10)           177.1974         estimate D2E/DX2                !
 ! D18   D(9,4,5,6)            178.2194         estimate D2E/DX2                !
 ! D19   D(9,4,5,10)            -0.6522         estimate D2E/DX2                !
 ! D20   D(4,5,6,7)             -9.7468         estimate D2E/DX2                !
 ! D21   D(4,5,6,11)           166.0614         estimate D2E/DX2                !
 ! D22   D(10,5,6,7)           169.2136         estimate D2E/DX2                !
 ! D23   D(10,5,6,11)          -14.9782         estimate D2E/DX2                !
 ! D24   D(5,6,7,3)             18.2401         estimate D2E/DX2                !
 ! D25   D(5,6,7,12)          -100.4265         estimate D2E/DX2                !
 ! D26   D(5,6,7,13)           138.6215         estimate D2E/DX2                !
 ! D27   D(11,6,7,3)          -157.4999         estimate D2E/DX2                !
 ! D28   D(11,6,7,12)           83.8336         estimate D2E/DX2                !
 ! D29   D(11,6,7,13)          -37.1184         estimate D2E/DX2                !
 --------------------------------------------------------------------------------
 Trust Radius=3.00D-01 FncErr=1.00D-07 GrdErr=1.00D-06 EigMax=2.50D+02 EigMin=1.00D-04
 Number of steps in this run=     75 maximum allowed number of steps=    100.
 GradGradGradGradGradGradGradGradGradGradGradGradGradGradGradGradGradGrad

                          Input orientation:                          
 ---------------------------------------------------------------------
 Center     Atomic      Atomic             Coordinates (Angstroms)
 Number     Number       Type             X           Y           Z
 ---------------------------------------------------------------------
      1          7           0        1.027120    0.096110   -0.005130
      2          6           0        2.288090    0.096110   -0.005130
      3          6           0        3.808090    0.096110   -0.005130
      4          6           0        4.366010   -1.136420   -0.684620
      5          6           0        5.361570   -0.777650   -1.497740
      6          7           0        5.500400    0.577530   -1.524080
      7          6           0        4.395890    1.243340   -0.850530
      8          1           0        4.171080    0.140660    1.028610
      9          1           0        4.028930   -2.147810   -0.504290
     10          1           0        5.997410   -1.418800   -2.097110
     11          1           0        6.310570    1.047630   -1.907690
     12          1           0        3.685420    1.610110   -1.601930
     13          1           0        4.724110    2.085830   -0.234830
 ---------------------------------------------------------------------
                    Distance matrix (angstroms):
                    1          2          3          4          5
     1  N    0.000000
     2  C    1.260970   0.000000
     3  C    2.780970   1.520000   0.000000
     4  C    3.623399   2.509699   1.513972   0.000000
     5  C    4.666776   3.526701   2.324788   1.334549   0.000000
     6  N    4.748601   3.585793   2.324411   2.220171   1.362527
     7  C    3.657793   2.544339   1.541540   2.385723   2.331484
     8  H    3.309847   2.148547   1.096524   2.145714   2.939899
     9  H    3.780899   2.883550   2.309352   1.081227   2.154115
    10  H    5.601349   4.519999   3.385920   2.176312   1.083794
    11  H    5.695610   4.550326   3.284438   3.169746   2.097691
    12  H    3.450873   2.606626   2.203863   2.974573   2.919201
    13  H    4.204698   3.153719   2.202462   3.273139   3.193871
                    6          7          8          9         10
     6  N    0.000000
     7  C    1.454962   0.000000
     8  H    2.911043   2.190345   0.000000
     9  H    3.260778   3.428475   2.758094   0.000000
    10  H    2.135583   3.347509   3.941766   2.635042   0.000000
    11  H    1.012189   2.195880   3.744579   4.169682   2.493437
    12  H    2.089602   1.097219   3.052030   3.929984   3.842499
    13  H    2.130671   1.093894   2.384493   4.298790   4.167950
                   11         12         13
    11  H    0.000000
    12  H    2.702089   0.000000
    13  H    2.528473   1.781614   0.000000
 Stoichiometry    C5H6N2
 Framework group  C1[X(C5H6N2)]
 Deg. of freedom    33
 Full point group                 C1      NOp   1
 Largest Abelian subgroup         C1      NOp   1
 Largest concise Abelian subgroup C1      NOp   1
                         Standard orientation:                         
 ---------------------------------------------------------------------
 Center     Atomic      Atomic             Coordinates (Angstroms)
 Number     Number       Type             X           Y           Z
 ---------------------------------------------------------------------
      1          7           0        2.941357    0.026816   -0.415053
      2          6           0        1.766554    0.006563    0.042629
      3          6           0        0.350421   -0.017850    0.594329
      4          6           0       -0.442934    1.192112    0.148582
      5          6           0       -1.657438    0.801652   -0.243262
      6          7           0       -1.766487   -0.555839   -0.200753
      7          6           0       -0.478528   -1.190598    0.034102
      8          1           0        0.388100   -0.048112    1.689787
      9          1           0       -0.085766    2.212101    0.181818
     10          1           0       -2.481309    1.420729   -0.578807
     11          1           0       -2.650057   -1.046262   -0.258332
     12          1           0       -0.081023   -1.560453   -0.919358
     13          1           0       -0.542483   -2.026117    0.737253
 ---------------------------------------------------------------------
 Rotational constants (GHZ):           6.8592834           1.8843299           1.5989928
 Standard basis: 6-31G(2df,p) (6D, 7F)
 There are   247 symmetry adapted cartesian basis functions of A   symmetry.
 There are   226 symmetry adapted basis functions of A   symmetry.
   226 basis functions,   350 primitive gaussians,   247 cartesian basis functions
    25 alpha electrons       25 beta electrons
       nuclear repulsion energy       265.1148896359 Hartrees.
 NAtoms=   13 NActive=   13 NUniq=   13 SFac= 1.00D+00 NAtFMM=   60 NAOKFM=F Big=F
 Integral buffers will be    131072 words long.
 Raffenetti 2 integral format.
 Two-electron integral symmetry is turned on.
 One-electron integrals computed using PRISM.
 PrsmSu:  requested number of processors reduced to:  13 ShMem   1 Linda.
 NBasis=   226 RedAO= T EigKep=  2.13D-04  NBF=   226
 NBsUse=   226 1.00D-06 EigRej= -1.00D+00 NBFU=   226
 ExpMin= 1.61D-01 ExpMax= 4.17D+03 ExpMxC= 6.27D+02 IAcc=3 IRadAn=         5 AccDes= 0.00D+00
 Harris functional with IExCor=  402 and IRadAn=       5 diagonalized for initial guess.
 HarFok:  IExCor=  402 AccDes= 0.00D+00 IRadAn=         5 IDoV= 1 UseB2=F ITyADJ=14
 ICtDFT=  3500011 ScaDFX=  1.000000  1.000000  1.000000  1.000000
 FoFCou: FMM=F IPFlag=           0 FMFlag=      100000 FMFlg1=           0
         NFxFlg=           0 DoJE=T BraDBF=F KetDBF=T FulRan=T
         wScrn=  0.000000 ICntrl=       500 IOpCl=  0 I1Cent=   200000004 NGrid=           0
         NMat0=    1 NMatS0=      1 NMatT0=    0 NMatD0=    1 NMtDS0=    0 NMtDT0=    0
 Petite list used in FoFCou.
 Requested convergence on RMS density matrix=1.00D-08 within 128 cycles.
 Requested convergence on MAX density matrix=1.00D-06.
 Requested convergence on             energy=1.00D-06.
 No special actions if energy rises.
 Integral accuracy reduced to 1.0D-05 until final iterations.
 Initial convergence to 1.0D-05 achieved.  Increase integral accuracy.
 SCF Done:  E(RB3LYP) =  -303.587855134     A.U. after   15 cycles
            NFock= 15  Conv=0.23D-08     -V/T= 2.0091

 **********************************************************************

            Population analysis using the SCF density.

 **********************************************************************

 Orbital symmetries:
       Occupied  (A) (A) (A) (A) (A) (A) (A) (A) (A) (A) (A) (A)
                 (A) (A) (A) (A) (A) (A) (A) (A) (A) (A) (A) (A)
                 (A)
       Virtual   (A) (A) (A) (A) (A) (A) (A) (A) (A) (A) (A) (A)
                 (A) (A) (A) (A) (A) (A) (A) (A) (A) (A) (A) (A)
                 (A) (A) (A) (A) (A) (A) (A) (A) (A) (A) (A) (A)
                 (A) (A) (A) (A) (A) (A) (A) (A) (A) (A) (A) (A)
                 (A) (A) (A) (A) (A) (A) (A) (A) (A) (A) (A) (A)
                 (A) (A) (A) (A) (A) (A) (A) (A) (A) (A) (A) (A)
                 (A) (A) (A) (A) (A) (A) (A) (A) (A) (A) (A) (A)
                 (A) (A) (A) (A) (A) (A) (A) (A) (A) (A) (A) (A)
                 (A) (A) (A) (A) (A) (A) (A) (A) (A) (A) (A) (A)
                 (A) (A) (A) (A) (A) (A) (A) (A) (A) (A) (A) (A)
                 (A) (A) (A) (A) (A) (A) (A) (A) (A) (A) (A) (A)
                 (A) (A) (A) (A) (A) (A) (A) (A) (A) (A) (A) (A)
                 (A) (A) (A) (A) (A) (A) (A) (A) (A) (A) (A) (A)
                 (A) (A) (A) (A) (A) (A) (A) (A) (A) (A) (A) (A)
                 (A) (A) (A) (A) (A) (A) (A) (A) (A) (A) (A) (A)
                 (A) (A) (A) (A) (A) (A) (A) (A) (A) (A) (A) (A)
                 (A) (A) (A) (A) (A) (A) (A) (A) (A)
 The electronic state is 1-A.
 Alpha  occ. eigenvalues --  -14.34772 -14.34181 -10.24411 -10.23977 -10.23843
 Alpha  occ. eigenvalues --  -10.22360 -10.17202  -0.96161  -0.85515  -0.79301
 Alpha  occ. eigenvalues --   -0.74892  -0.64337  -0.57668  -0.55920  -0.52036
 Alpha  occ. eigenvalues --   -0.44436  -0.43299  -0.42777  -0.40698  -0.38856
 Alpha  occ. eigenvalues --   -0.35343  -0.33560  -0.29922  -0.29604  -0.19474
 Alpha virt. eigenvalues --    0.01015   0.01361   0.03626   0.06885   0.10764
 Alpha virt. eigenvalues --    0.11758   0.13037   0.14630   0.15488   0.17918
 Alpha virt. eigenvalues --    0.20268   0.21149   0.25492   0.32531   0.33040
 Alpha virt. eigenvalues --    0.36559   0.39971   0.45828   0.46715   0.49585
 Alpha virt. eigenvalues --    0.49906   0.50431   0.52581   0.55054   0.55731
 Alpha virt. eigenvalues --    0.58040   0.60047   0.62209   0.63511   0.67410
 Alpha virt. eigenvalues --    0.68699   0.70248   0.71640   0.72300   0.73222
 Alpha virt. eigenvalues --    0.75176   0.76160   0.76762   0.78212   0.79774
 Alpha virt. eigenvalues --    0.80463   0.81678   0.82351   0.84591   0.85684
 Alpha virt. eigenvalues --    0.89422   0.91565   0.93240   0.95059   1.01758
 Alpha virt. eigenvalues --    1.05815   1.09347   1.12997   1.13807   1.17972
 Alpha virt. eigenvalues --    1.19699   1.24078   1.25712   1.27957   1.32129
 Alpha virt. eigenvalues --    1.35187   1.35961   1.38497   1.41027   1.46012
 Alpha virt. eigenvalues --    1.49291   1.50610   1.52687   1.56034   1.56918
 Alpha virt. eigenvalues --    1.58506   1.64745   1.67783   1.70004   1.74753
 Alpha virt. eigenvalues --    1.78098   1.78754   1.84669   1.88690   1.91569
 Alpha virt. eigenvalues --    1.96505   1.98127   2.11171   2.16742   2.17968
 Alpha virt. eigenvalues --    2.23646   2.23932   2.27140   2.35366   2.38956
 Alpha virt. eigenvalues --    2.42800   2.48593   2.52458   2.55390   2.62315
 Alpha virt. eigenvalues --    2.68832   2.70392   2.75731   2.78265   2.79472
 Alpha virt. eigenvalues --    2.82941   2.83703   2.84703   2.86883   2.88022
 Alpha virt. eigenvalues --    2.91742   2.96716   2.98136   3.00123   3.02831
 Alpha virt. eigenvalues --    3.06290   3.08070   3.10600   3.12288   3.15360
 Alpha virt. eigenvalues --    3.19934   3.23057   3.26227   3.28732   3.31207
 Alpha virt. eigenvalues --    3.35270   3.39368   3.40810   3.44606   3.50226
 Alpha virt. eigenvalues --    3.54847   3.56846   3.61892   3.65017   3.65614
 Alpha virt. eigenvalues --    3.65989   3.66724   3.72907   3.76071   3.81667
 Alpha virt. eigenvalues --    3.86563   3.89897   3.92537   3.93579   3.96808
 Alpha virt. eigenvalues --    4.01369   4.07587   4.09670   4.13051   4.15557
 Alpha virt. eigenvalues --    4.17642   4.22226   4.23121   4.23637   4.28038
 Alpha virt. eigenvalues --    4.29895   4.31635   4.33722   4.37398   4.39218
 Alpha virt. eigenvalues --    4.44434   4.45761   4.48607   4.51663   4.53729
 Alpha virt. eigenvalues --    4.54614   4.57387   4.62604   4.63435   4.65874
 Alpha virt. eigenvalues --    4.69434   4.71447   4.74245   4.77734   4.80891
 Alpha virt. eigenvalues --    4.82576   4.84091   4.85294   4.88930   4.90535
 Alpha virt. eigenvalues --    4.93700   4.98599   5.07382   5.11483   5.13019
 Alpha virt. eigenvalues --    5.16647   5.20513   5.23030   5.37997   5.39567
 Alpha virt. eigenvalues --    5.47876   5.48727   5.56555   5.77219   5.88050
 Alpha virt. eigenvalues --    5.94154   6.41059  10.01833  10.48590  10.90418
 Alpha virt. eigenvalues --   11.31196  11.40602  11.56414  12.49098  13.74599
 Alpha virt. eigenvalues --   14.76103
          Condensed to atoms (all electrons):
               1          2          3          4          5          6
     1  N    6.502889   0.931550  -0.035776  -0.003202   0.000152  -0.000003
     2  C    0.931550   4.506695   0.369897  -0.029802   0.001421   0.001150
     3  C   -0.035776   0.369897   4.855597   0.391434  -0.013956  -0.052695
     4  C   -0.003202  -0.029802   0.391434   4.908505   0.650665  -0.048627
     5  C    0.000152   0.001421  -0.013956   0.650665   4.723304   0.421294
     6  N   -0.000003   0.001150  -0.052695  -0.048627   0.421294   6.325328
     7  C   -0.001937  -0.028747   0.355910  -0.029013  -0.083391   0.375525
     8  H   -0.000054  -0.035528   0.361403  -0.045389   0.000557   0.006508
     9  H    0.000035  -0.000520  -0.045750   0.384076  -0.037500   0.003632
    10  H    0.000000   0.000017   0.004388  -0.037657   0.370729  -0.036230
    11  H    0.000000  -0.000090   0.004769   0.005936  -0.041217   0.362131
    12  H    0.000898  -0.003138  -0.034058   0.002284   0.005866  -0.043110
    13  H    0.000006   0.001054  -0.015079   0.003770   0.004134  -0.022185
               7          8          9         10         11         12
     1  N   -0.001937  -0.000054   0.000035   0.000000   0.000000   0.000898
     2  C   -0.028747  -0.035528  -0.000520   0.000017  -0.000090  -0.003138
     3  C    0.355910   0.361403  -0.045750   0.004388   0.004769  -0.034058
     4  C   -0.029013  -0.045389   0.384076  -0.037657   0.005936   0.002284
     5  C   -0.083391   0.000557  -0.037500   0.370729  -0.041217   0.005866
     6  N    0.375525   0.006508   0.003632  -0.036230   0.362131  -0.043110
     7  C    4.913409  -0.036256   0.005515   0.005972  -0.037381   0.365705
     8  H   -0.036256   0.622006   0.000539  -0.000161  -0.000112   0.006441
     9  H    0.005515   0.000539   0.584149  -0.001675  -0.000179  -0.000111
    10  H    0.005972  -0.000161  -0.001675   0.567659  -0.002676  -0.000071
    11  H   -0.037381  -0.000112  -0.000179  -0.002676   0.458503   0.001518
    12  H    0.365705   0.006441  -0.000111  -0.000071   0.001518   0.614057
    13  H    0.361745  -0.008638  -0.000117  -0.000134  -0.001523  -0.045159
              13
     1  N    0.000006
     2  C    0.001054
     3  C   -0.015079
     4  C    0.003770
     5  C    0.004134
     6  N   -0.022185
     7  C    0.361745
     8  H   -0.008638
     9  H   -0.000117
    10  H   -0.000134
    11  H   -0.001523
    12  H   -0.045159
    13  H    0.598337
 Mulliken charges:
               1
     1  N   -0.394559
     2  C    0.286040
     3  C   -0.146085
     4  C   -0.152980
     5  C   -0.002058
     6  N   -0.292717
     7  C   -0.167057
     8  H    0.128682
     9  H    0.107907
    10  H    0.129838
    11  H    0.250321
    12  H    0.128877
    13  H    0.123791
 Sum of Mulliken charges =  -0.00000
 Mulliken charges with hydrogens summed into heavy atoms:
               1
     1  N   -0.394559
     2  C    0.286040
     3  C   -0.017403
     4  C   -0.045074
     5  C    0.127780
     6  N   -0.042395
     7  C    0.085611
 Electronic spatial extent (au):  <R**2>=            740.2875
 Charge=             -0.0000 electrons
 Dipole moment (field-independent basis, Debye):
    X=             -5.2037    Y=             -1.0352    Z=              1.1167  Tot=              5.4219
 Quadrupole moment (field-independent basis, Debye-Ang):
   XX=            -48.0102   YY=            -37.4038   ZZ=            -41.2250
   XY=              1.1610   XZ=              3.8943   YZ=             -0.4333
 Traceless Quadrupole moment (field-independent basis, Debye-Ang):
   XX=             -5.7972   YY=              4.8092   ZZ=              0.9880
   XY=              1.1610   XZ=              3.8943   YZ=             -0.4333
 Octapole moment (field-independent basis, Debye-Ang**2):
  XXX=            -71.4597  YYY=             -2.3336  ZZZ=              2.3742  XYY=             -7.0492
  XXY=             -3.4765  XXZ=              3.1000  XZZ=             -1.4040  YZZ=             -2.5002
  YYZ=             -0.3992  XYZ=              1.7142
 Hexadecapole moment (field-independent basis, Debye-Ang**3):
 XXXX=           -766.6888 YYYY=           -202.7847 ZZZZ=            -78.0496 XXXY=             10.9057
 XXXZ=             35.9893 YYYX=              6.8943 YYYZ=             -2.2220 ZZZX=              2.6212
 ZZZY=             -0.1703 XXYY=           -138.2378 XXZZ=           -134.8454 YYZZ=            -50.4028
 XXYZ=             -2.1196 YYXZ=              3.4996 ZZXY=              1.1935
 N-N= 2.651148896359D+02 E-N=-1.235095952410D+03  KE= 3.008440004865D+02
 PrsmSu:  requested number of processors reduced to:  13 ShMem   1 Linda.
 Calling FoFJK, ICntrl=      2127 FMM=F ISym2X=0 I1Cent= 0 IOpClX= 0 NMat=1 NMatS=1 NMatT=0.
 ***** Axes restored to original set *****
 -------------------------------------------------------------------
 Center     Atomic                   Forces (Hartrees/Bohr)
 Number     Number              X              Y              Z
 -------------------------------------------------------------------
      1        7           0.178983504   -0.000351720   -0.000346511
      2        6          -0.150144707    0.003251380    0.004376172
      3        6          -0.033523545   -0.007453176    0.000906656
      4        6          -0.003747208   -0.021941322   -0.001254678
      5        6          -0.004905382   -0.003324979    0.003909642
      6        7           0.025200310    0.018591478   -0.013610087
      7        6           0.006888618    0.004966008   -0.005017540
      8        1          -0.005084222    0.002184934    0.003298769
      9        1          -0.000886687    0.003104449    0.001543935
     10        1           0.000493947    0.002043847    0.001451656
     11        1          -0.009405869   -0.001291837    0.002866919
     12        1          -0.004016792    0.000684654    0.002997732
     13        1           0.000148034   -0.000463714   -0.001122666
 -------------------------------------------------------------------
 Cartesian Forces:  Max     0.178983504 RMS     0.038492638

 GradGradGradGradGradGradGradGradGradGradGradGradGradGradGradGradGradGrad
 Berny optimization.
 FormGI is forming the generalized inverse of G from B-inverse, IUseBI=4.
 Internal  Forces:  Max     0.178983571 RMS     0.022868047
 Search for a local minimum.
 Step number   1 out of a maximum of   75
 All quantities printed in internal units (Hartrees-Bohrs-Radians)
 Mixed Optimization -- RFO/linear search
 Second derivative matrix not updated -- first step.
 ITU=  0
     Eigenvalues ---    0.00501   0.00501   0.00567   0.01362   0.01509
     Eigenvalues ---    0.01799   0.02615   0.04480   0.05231   0.05694
     Eigenvalues ---    0.06278   0.08126   0.08199   0.09429   0.13702
     Eigenvalues ---    0.15935   0.15985   0.15997   0.21677   0.22238
     Eigenvalues ---    0.27574   0.29790   0.30367   0.33992   0.34069
     Eigenvalues ---    0.34366   0.35540   0.35846   0.36023   0.45608
     Eigenvalues ---    0.49560   0.55555   0.79312
 RFO step:  Lambda=-4.45168231D-02 EMin= 5.01385868D-03
 Linear search not attempted -- first point.
 Iteration  1 RMS(Cart)=  0.03704467 RMS(Int)=  0.00173747
 Iteration  2 RMS(Cart)=  0.00175050 RMS(Int)=  0.00008568
 Iteration  3 RMS(Cart)=  0.00000107 RMS(Int)=  0.00008568
 Iteration  4 RMS(Cart)=  0.00000000 RMS(Int)=  0.00008568
 Variable       Old X    -DE/DX   Delta X   Delta X   Delta X     New X
                                 (Linear)    (Quad)   (Total)
    R1        2.38289  -0.17898   0.00000  -0.21368  -0.21368   2.16921
    R2        2.87238  -0.02884   0.00000  -0.08283  -0.08283   2.78956
    R3        2.86099   0.00760   0.00000   0.01966   0.01963   2.88063
    R4        2.91309   0.01338   0.00000   0.03726   0.03723   2.95032
    R5        2.07213   0.00152   0.00000   0.00393   0.00393   2.07606
    R6        2.52193   0.00940   0.00000   0.01637   0.01639   2.53832
    R7        2.04322  -0.00237   0.00000  -0.00588  -0.00588   2.03734
    R8        2.57480   0.01404   0.00000   0.02680   0.02684   2.60165
    R9        2.04807  -0.00172   0.00000  -0.00431  -0.00431   2.04377
   R10        2.74948   0.00320   0.00000   0.00742   0.00743   2.75691
   R11        1.91276  -0.00922   0.00000  -0.01841  -0.01841   1.89435
   R12        2.07344   0.00078   0.00000   0.00202   0.00202   2.07546
   R13        2.06716  -0.00094   0.00000  -0.00243  -0.00243   2.06473
    A1        1.94821   0.00233   0.00000   0.02038   0.02044   1.96864
    A2        1.96201  -0.00071   0.00000  -0.00338  -0.00345   1.95856
    A3        1.90820  -0.00320   0.00000  -0.03049  -0.03062   1.87757
    A4        1.79180   0.00050   0.00000   0.00095   0.00088   1.79268
    A5        1.91155   0.00162   0.00000   0.01540   0.01535   1.92690
    A6        1.93965  -0.00018   0.00000   0.00053   0.00040   1.94005
    A7        1.90658  -0.00599   0.00000  -0.02374  -0.02378   1.88280
    A8        2.17947   0.00023   0.00000  -0.00167  -0.00167   2.17780
    A9        2.19648   0.00575   0.00000   0.02516   0.02516   2.22165
   A10        1.93389   0.00898   0.00000   0.03942   0.03943   1.97333
   A11        2.23391  -0.00310   0.00000  -0.01290  -0.01292   2.22099
   A12        2.11521  -0.00590   0.00000  -0.02660  -0.02661   2.08860
   A13        1.94856  -0.00880   0.00000  -0.03126  -0.03129   1.91727
   A14        2.15414   0.00752   0.00000   0.03079   0.03079   2.18493
   A15        2.17795   0.00123   0.00000   0.00008   0.00010   2.17805
   A16        1.77499   0.00555   0.00000   0.01829   0.01826   1.79325
   A17        1.95782  -0.00503   0.00000  -0.02844  -0.02853   1.92928
   A18        1.95941   0.00015   0.00000   0.00388   0.00376   1.96318
   A19        1.90445   0.00209   0.00000   0.02008   0.02029   1.92473
   A20        1.96625  -0.00323   0.00000  -0.00800  -0.00798   1.95827
   A21        1.89895   0.00057   0.00000  -0.00467  -0.00481   1.89414
   A22        3.14159  -0.00002   0.00000  -0.00046  -0.00046   3.14114
   A23        3.14159   0.00099   0.00000   0.02003   0.02003   3.16162
    D1        2.36255   0.00012   0.00000   0.00714   0.00713   2.36968
    D2       -0.81613   0.00013   0.00000   0.00050   0.00052  -0.81560
    D3        0.25719  -0.00050   0.00000   0.00048   0.00038   0.25756
    D4       -2.92148  -0.00049   0.00000  -0.00616  -0.00623  -2.92772
    D5       -1.80488  -0.00128   0.00000  -0.00746  -0.00749  -1.81237
    D6        1.29963  -0.00126   0.00000  -0.01410  -0.01410   1.28553
    D7       -2.42368  -0.00379   0.00000  -0.02110  -0.02092  -2.44461
    D8       -0.39109  -0.00044   0.00000   0.00013   0.00004  -0.39105
    D9        1.75365  -0.00336   0.00000  -0.02446  -0.02440   1.72926
   D10       -0.32785  -0.00106   0.00000   0.00206   0.00226  -0.32559
   D11        1.70474   0.00229   0.00000   0.02329   0.02322   1.72796
   D12       -2.43370  -0.00063   0.00000  -0.00130  -0.00121  -2.43492
   D13        1.71428   0.00102   0.00000   0.02071   0.02081   1.73510
   D14       -2.53631   0.00437   0.00000   0.04195   0.04178  -2.49453
   D15       -0.39157   0.00145   0.00000   0.01735   0.01734  -0.37423
   D16       -0.06861  -0.00099   0.00000  -0.01287  -0.01307  -0.08168
   D17        3.09268  -0.00030   0.00000  -0.00775  -0.00786   3.08482
   D18        3.11052  -0.00086   0.00000  -0.00542  -0.00550   3.10502
   D19       -0.01138  -0.00016   0.00000  -0.00031  -0.00028  -0.01167
   D20       -0.17011   0.00192   0.00000   0.02034   0.02037  -0.14974
   D21        2.89832   0.00117   0.00000   0.01438   0.01439   2.91271
   D22        2.95333   0.00130   0.00000   0.01574   0.01570   2.96903
   D23       -0.26142   0.00055   0.00000   0.00978   0.00972  -0.25170
   D24        0.31835  -0.00200   0.00000  -0.01852  -0.01825   0.30010
   D25       -1.75277   0.00003   0.00000  -0.00392  -0.00391  -1.75668
   D26        2.41940  -0.00003   0.00000  -0.00672  -0.00662   2.41278
   D27       -2.74889  -0.00154   0.00000  -0.01398  -0.01385  -2.76274
   D28        1.46317   0.00048   0.00000   0.00062   0.00050   1.46367
   D29       -0.64784   0.00042   0.00000  -0.00217  -0.00222  -0.65006
         Item               Value     Threshold  Converged?
 Maximum Force            0.178984     0.000450     NO 
 RMS     Force            0.022868     0.000300     NO 
 Maximum Displacement     0.250381     0.001800     NO 
 RMS     Displacement     0.038393     0.001200     NO 
 Predicted change in Energy=-2.384004D-02
 GradGradGradGradGradGradGradGradGradGradGradGradGradGradGradGradGradGrad

                          Input orientation:                          
 ---------------------------------------------------------------------
 Center     Atomic      Atomic             Coordinates (Angstroms)
 Number     Number       Type             X           Y           Z
 ---------------------------------------------------------------------
      1          7           0        1.159616    0.116424   -0.010556
      2          6           0        2.307454    0.108420   -0.002115
      3          6           0        3.783338    0.080280   -0.009185
      4          6           0        4.347086   -1.162953   -0.687594
      5          6           0        5.355094   -0.775538   -1.486386
      6          7           0        5.508218    0.591717   -1.536958
      7          6           0        4.391840    1.240707   -0.858070
      8          1           0        4.121183    0.133389    1.034834
      9          1           0        4.007395   -2.169961   -0.506273
     10          1           0        6.003829   -1.409031   -2.075883
     11          1           0        6.302657    1.070344   -1.917334
     12          1           0        3.660615    1.605952   -1.591652
     13          1           0        4.716365    2.083001   -0.242429
 ---------------------------------------------------------------------
                    Distance matrix (angstroms):
                    1          2          3          4          5
     1  N    0.000000
     2  C    1.147897   0.000000
     3  C    2.623972   1.476170   0.000000
     4  C    3.500736   2.499274   1.524362   0.000000
     5  C    4.536046   3.503221   2.320553   1.343220   0.000000
     6  N    4.633158   3.582487   2.360269   2.269034   1.376733
     7  C    3.525559   2.521785   1.561241   2.410114   2.321182
     8  H    3.140702   2.089378   1.098606   2.167554   2.950464
     9  H    3.685531   2.887039   2.315358   1.078115   2.172862
    10  H    5.482608   4.501817   3.379329   2.175476   1.081516
    11  H    5.567462   4.533763   3.311831   3.213119   2.119167
    12  H    3.312636   2.569100   2.201577   2.992558   2.924694
    13  H    4.070830   3.124032   2.221674   3.297083   3.182240
                    6          7          8          9         10
     6  N    0.000000
     7  C    1.458896   0.000000
     8  H    2.957710   2.209637   0.000000
     9  H    3.307816   3.450248   2.773694   0.000000
    10  H    2.130508   3.332070   3.949680   2.651120   0.000000
    11  H    1.002448   2.191411   3.788404   4.214130   2.502346
    12  H    2.108388   1.098288   3.046145   3.944087   3.849059
    13  H    2.127619   1.092606   2.405542   4.319715   4.148904
                   11         12         13
    11  H    0.000000
    12  H    2.715388   0.000000
    13  H    2.519345   1.778367   0.000000
 Stoichiometry    C5H6N2
 Framework group  C1[X(C5H6N2)]
 Deg. of freedom    33
 Full point group                 C1      NOp   1
 Largest Abelian subgroup         C1      NOp   1
 Largest concise Abelian subgroup C1      NOp   1
                         Standard orientation:                         
 ---------------------------------------------------------------------
 Center     Atomic      Atomic             Coordinates (Angstroms)
 Number     Number       Type             X           Y           Z
 ---------------------------------------------------------------------
      1          7           0        2.824738    0.006678   -0.409719
      2          6           0        1.763587   -0.001112    0.027964
      3          6           0        0.392030    0.006180    0.573726
      4          6           0       -0.414283    1.220826    0.128560
      5          6           0       -1.638321    0.795931   -0.225606
      6          7           0       -1.766353   -0.574228   -0.184810
      7          6           0       -0.461814   -1.187212    0.040586
      8          1           0        0.470711   -0.020774    1.669179
      9          1           0       -0.055719    2.237400    0.147043
     10          1           0       -2.475509    1.402603   -0.543004
     11          1           0       -2.633663   -1.074938   -0.229138
     12          1           0       -0.049611   -1.563719   -0.905230
     13          1           0       -0.512100   -2.015400    0.751476
 ---------------------------------------------------------------------
 Rotational constants (GHZ):           6.8369795           1.9666855           1.6484861
 Standard basis: 6-31G(2df,p) (6D, 7F)
 There are   247 symmetry adapted cartesian basis functions of A   symmetry.
 There are   226 symmetry adapted basis functions of A   symmetry.
   226 basis functions,   350 primitive gaussians,   247 cartesian basis functions
    25 alpha electrons       25 beta electrons
       nuclear repulsion energy       267.7743765019 Hartrees.
 NAtoms=   13 NActive=   13 NUniq=   13 SFac= 1.00D+00 NAtFMM=   60 NAOKFM=F Big=F
 Integral buffers will be    131072 words long.
 Raffenetti 2 integral format.
 Two-electron integral symmetry is turned on.
 One-electron integrals computed using PRISM.
 PrsmSu:  requested number of processors reduced to:  13 ShMem   1 Linda.
 NBasis=   226 RedAO= T EigKep=  1.53D-04  NBF=   226
 NBsUse=   226 1.00D-06 EigRej= -1.00D+00 NBFU=   226
 Initial guess from the checkpoint file:  "NtCC1CdCNC1.chk"
 B after Tr=    -0.000000   -0.000000    0.000000
         Rot=    0.999973    0.005954   -0.004365    0.000639 Ang=   0.85 deg.
 ExpMin= 1.61D-01 ExpMax= 4.17D+03 ExpMxC= 6.27D+02 IAcc=2 IRadAn=         4 AccDes= 0.00D+00
 Harris functional with IExCor=  402 and IRadAn=       4 diagonalized for initial guess.
 HarFok:  IExCor=  402 AccDes= 0.00D+00 IRadAn=         4 IDoV= 1 UseB2=F ITyADJ=14
 ICtDFT=  3500011 ScaDFX=  1.000000  1.000000  1.000000  1.000000
 FoFCou: FMM=F IPFlag=           0 FMFlag=      100000 FMFlg1=           0
         NFxFlg=           0 DoJE=T BraDBF=F KetDBF=T FulRan=T
         wScrn=  0.000000 ICntrl=       500 IOpCl=  0 I1Cent=   200000004 NGrid=           0
         NMat0=    1 NMatS0=      1 NMatT0=    0 NMatD0=    1 NMtDS0=    0 NMtDT0=    0
 Petite list used in FoFCou.
 Requested convergence on RMS density matrix=1.00D-08 within 128 cycles.
 Requested convergence on MAX density matrix=1.00D-06.
 Requested convergence on             energy=1.00D-06.
 No special actions if energy rises.
 Integral accuracy reduced to 1.0D-05 until final iterations.
 Initial convergence to 1.0D-05 achieved.  Increase integral accuracy.
 SCF Done:  E(RB3LYP) =  -303.611278040     A.U. after   13 cycles
            NFock= 13  Conv=0.29D-08     -V/T= 2.0078
 PrsmSu:  requested number of processors reduced to:  13 ShMem   1 Linda.
 Calling FoFJK, ICntrl=      2127 FMM=F ISym2X=0 I1Cent= 0 IOpClX= 0 NMat=1 NMatS=1 NMatT=0.
 ***** Axes restored to original set *****
 -------------------------------------------------------------------
 Center     Atomic                   Forces (Hartrees/Bohr)
 Number     Number              X              Y              Z
 -------------------------------------------------------------------
      1        7          -0.019635676    0.000360802    0.000380379
      2        6           0.026903203    0.001147101    0.000470144
      3        6          -0.012373840   -0.002106983   -0.000167715
      4        6           0.005776549   -0.000504308   -0.004543750
      5        6          -0.003489588   -0.001439678    0.001945826
      6        7           0.001645171   -0.001006057   -0.000283318
      7        6           0.003959291    0.001315926   -0.001169180
      8        1          -0.000596960    0.001020679    0.000922542
      9        1           0.000146670    0.000994081    0.000781669
     10        1           0.001339184   -0.000051959    0.000216514
     11        1          -0.001920184    0.000023328   -0.000224986
     12        1          -0.001465075    0.000375742    0.001328892
     13        1          -0.000288743   -0.000128674    0.000342981
 -------------------------------------------------------------------
 Cartesian Forces:  Max     0.026903203 RMS     0.005942748

 GradGradGradGradGradGradGradGradGradGradGradGradGradGradGradGradGradGrad
 Berny optimization.
 Using GEDIIS/GDIIS optimizer.
 FormGI is forming the generalized inverse of G from B-inverse, IUseBI=4.
 Internal  Forces:  Max     0.019634437 RMS     0.002770554
 Search for a local minimum.
 Step number   2 out of a maximum of   75
 All quantities printed in internal units (Hartrees-Bohrs-Radians)
 Mixed Optimization -- RFO/linear search
 Update second derivatives using D2CorX and points    1    2
 DE= -2.34D-02 DEPred=-2.38D-02 R= 9.83D-01
 TightC=F SS=  1.41D+00  RLast= 2.67D-01 DXNew= 5.0454D-01 8.0047D-01
 Trust test= 9.83D-01 RLast= 2.67D-01 DXMaxT set to 5.05D-01
 ITU=  1  0
 Use linear search instead of GDIIS.
     Eigenvalues ---    0.00501   0.00502   0.00560   0.01377   0.01527
     Eigenvalues ---    0.01817   0.02617   0.04423   0.05183   0.05781
     Eigenvalues ---    0.06301   0.08109   0.08194   0.09484   0.13739
     Eigenvalues ---    0.15916   0.15967   0.15994   0.21876   0.22258
     Eigenvalues ---    0.27527   0.29590   0.29984   0.33991   0.34066
     Eigenvalues ---    0.34367   0.35544   0.35840   0.36056   0.45566
     Eigenvalues ---    0.49583   0.55671   0.92780
 RFO step:  Lambda=-1.38269866D-03 EMin= 5.01372412D-03
 Quartic linear search produced a step of -0.04962.
 Iteration  1 RMS(Cart)=  0.03383975 RMS(Int)=  0.00157180
 Iteration  2 RMS(Cart)=  0.00204129 RMS(Int)=  0.00016409
 Iteration  3 RMS(Cart)=  0.00000930 RMS(Int)=  0.00016393
 Iteration  4 RMS(Cart)=  0.00000000 RMS(Int)=  0.00016393
 Variable       Old X    -DE/DX   Delta X   Delta X   Delta X     New X
                                 (Linear)    (Quad)   (Total)
    R1        2.16921   0.01963   0.01060   0.00616   0.01676   2.18597
    R2        2.78956  -0.00723   0.00411  -0.03152  -0.02741   2.76215
    R3        2.88063   0.00311  -0.00097   0.01098   0.01008   2.89070
    R4        2.95032   0.00112  -0.00185   0.00826   0.00632   2.95663
    R5        2.07606   0.00074  -0.00020   0.00247   0.00227   2.07834
    R6        2.53832  -0.00320  -0.00081  -0.00420  -0.00489   2.53343
    R7        2.03734  -0.00084   0.00029  -0.00282  -0.00253   2.03481
    R8        2.60165  -0.00008  -0.00133   0.00232   0.00101   2.60266
    R9        2.04377   0.00072   0.00021   0.00147   0.00168   2.04545
   R10        2.75691   0.00030  -0.00037   0.00229   0.00182   2.75873
   R11        1.89435  -0.00143   0.00091  -0.00469  -0.00377   1.89058
   R12        2.07546   0.00021  -0.00010   0.00080   0.00070   2.07616
   R13        2.06473   0.00001   0.00012  -0.00023  -0.00011   2.06462
    A1        1.96864   0.00279  -0.00101   0.02401   0.02310   1.99174
    A2        1.95856  -0.00028   0.00017  -0.00166  -0.00150   1.95705
    A3        1.87757  -0.00094   0.00152  -0.01925  -0.01795   1.85963
    A4        1.79268  -0.00172  -0.00004   0.00045  -0.00009   1.79260
    A5        1.92690   0.00038  -0.00076   0.00820   0.00759   1.93449
    A6        1.94005  -0.00018  -0.00002  -0.01043  -0.01034   1.92971
    A7        1.88280   0.00132   0.00118   0.00333   0.00426   1.88705
    A8        2.17780  -0.00144   0.00008  -0.00837  -0.00818   2.16963
    A9        2.22165   0.00011  -0.00125   0.00459   0.00343   2.22508
   A10        1.97333  -0.00001  -0.00196   0.00673   0.00447   1.97780
   A11        2.22099   0.00054   0.00064   0.00084   0.00162   2.22261
   A12        2.08860  -0.00052   0.00132  -0.00738  -0.00593   2.08267
   A13        1.91727   0.00054   0.00155   0.00257   0.00357   1.92084
   A14        2.18493   0.00044  -0.00153   0.00426   0.00287   2.18781
   A15        2.17805  -0.00098  -0.00000  -0.00845  -0.00828   2.16977
   A16        1.79325   0.00020  -0.00091   0.01019   0.00869   1.80194
   A17        1.92928  -0.00135   0.00142  -0.02100  -0.01961   1.90968
   A18        1.96318   0.00000  -0.00019  -0.00148  -0.00149   1.96168
   A19        1.92473   0.00103  -0.00101   0.01798   0.01723   1.94197
   A20        1.95827   0.00017   0.00040   0.00218   0.00275   1.96102
   A21        1.89414  -0.00004   0.00024  -0.00699  -0.00700   1.88713
   A22        3.14114   0.00049   0.00002   0.07243   0.07245   3.21359
   A23        3.16162  -0.00097  -0.00099  -0.09998  -0.10098   3.06064
    D1        2.36968  -0.00042  -0.00035  -0.02463  -0.02503   2.34465
    D2       -0.81560  -0.00063  -0.00003  -0.03499  -0.03502  -0.85062
    D3        0.25756  -0.00045  -0.00002  -0.03530  -0.03535   0.22222
    D4       -2.92772  -0.00066   0.00031  -0.04566  -0.04534  -2.97305
    D5       -1.81237   0.00053   0.00037  -0.02720  -0.02676  -1.83914
    D6        1.28553   0.00032   0.00070  -0.03756  -0.03675   1.24878
    D7       -2.44461  -0.00107   0.00104   0.02787   0.02903  -2.41558
    D8       -0.39105  -0.00038  -0.00000   0.04474   0.04469  -0.34636
    D9        1.72926  -0.00140   0.00121   0.01972   0.02111   1.75036
   D10       -0.32559   0.00106  -0.00011   0.05601   0.05590  -0.26969
   D11        1.72796   0.00175  -0.00115   0.07288   0.07157   1.79953
   D12       -2.43492   0.00073   0.00006   0.04786   0.04798  -2.38694
   D13        1.73510   0.00045  -0.00103   0.06101   0.05994   1.79503
   D14       -2.49453   0.00114  -0.00207   0.07789   0.07560  -2.41893
   D15       -0.37423   0.00013  -0.00086   0.05287   0.05202  -0.32221
   D16       -0.08168  -0.00019   0.00065  -0.00247  -0.00174  -0.08342
   D17        3.08482  -0.00034   0.00039  -0.01163  -0.01126   3.07356
   D18        3.10502   0.00008   0.00027   0.00865   0.00904   3.11405
   D19       -0.01167  -0.00007   0.00001  -0.00051  -0.00049  -0.01216
   D20       -0.14974   0.00060  -0.00101   0.04242   0.04144  -0.10831
   D21        2.91271   0.00046  -0.00071   0.02009   0.01923   2.93194
   D22        2.96903   0.00076  -0.00078   0.05093   0.05023   3.01926
   D23       -0.25170   0.00062  -0.00048   0.02859   0.02802  -0.22368
   D24        0.30010  -0.00067   0.00091  -0.06039  -0.05961   0.24048
   D25       -1.75668   0.00032   0.00019  -0.04966  -0.04946  -1.80614
   D26        2.41278  -0.00046   0.00033  -0.05481  -0.05460   2.35817
   D27       -2.76274  -0.00061   0.00069  -0.03886  -0.03830  -2.80104
   D28        1.46367   0.00038  -0.00002  -0.02813  -0.02815   1.43552
   D29       -0.65006  -0.00040   0.00011  -0.03328  -0.03329  -0.68334
         Item               Value     Threshold  Converged?
 Maximum Force            0.019634     0.000450     NO 
 RMS     Force            0.002771     0.000300     NO 
 Maximum Displacement     0.110157     0.001800     NO 
 RMS     Displacement     0.033583     0.001200     NO 
 Predicted change in Energy=-6.749991D-04
 GradGradGradGradGradGradGradGradGradGradGradGradGradGradGradGradGradGrad

                          Input orientation:                          
 ---------------------------------------------------------------------
 Center     Atomic      Atomic             Coordinates (Angstroms)
 Number     Number       Type             X           Y           Z
 ---------------------------------------------------------------------
      1          7           0        1.149718    0.143150    0.044555
      2          6           0        2.302017    0.115020   -0.053032
      3          6           0        3.762856    0.070684   -0.031804
      4          6           0        4.360137   -1.172892   -0.692664
      5          6           0        5.367261   -0.780567   -1.485808
      6          7           0        5.501528    0.588138   -1.559842
      7          6           0        4.400009    1.238047   -0.855951
      8          1           0        4.062890    0.134783    1.024346
      9          1           0        4.039097   -2.180753   -0.491185
     10          1           0        6.039573   -1.410731   -2.053690
     11          1           0        6.283139    1.072633   -1.953864
     12          1           0        3.656646    1.636051   -1.560261
     13          1           0        4.739819    2.059186   -0.220401
 ---------------------------------------------------------------------
                    Distance matrix (angstroms):
                    1          2          3          4          5
     1  N    0.000000
     2  C    1.156766   0.000000
     3  C    2.615258   1.461665   0.000000
     4  C    3.547146   2.510718   1.529694   0.000000
     5  C    4.580713   3.500092   2.326558   1.340632   0.000000
     6  N    4.659438   3.568079   2.371844   2.270683   1.377267
     7  C    3.545999   2.511461   1.564583   2.416792   2.325317
     8  H    3.073537   2.064414   1.099810   2.178646   2.973235
     9  H    3.746472   2.912043   2.314370   1.076774   2.171132
    10  H    5.543272   4.505538   3.386156   2.174733   1.082404
    11  H    5.586558   4.514368   3.324161   3.214179   2.119495
    12  H    3.329997   2.533830   2.190396   3.022877   2.961721
    13  H    4.078017   3.122606   2.223548   3.288392   3.171614
                    6          7          8          9         10
     6  N    0.000000
     7  C    1.459859   0.000000
     8  H    2.992197   2.205983   0.000000
     9  H    3.308699   3.457095   2.767509   0.000000
    10  H    2.128111   3.337480   3.971171   2.652595   0.000000
    11  H    1.000452   2.186081   3.831293   4.214223   2.497276
    12  H    2.121724   1.098657   3.016460   3.982108   3.899320
    13  H    2.130325   1.092549   2.389760   4.305974   4.134082
                   11         12         13
    11  H    0.000000
    12  H    2.714927   0.000000
    13  H    2.521907   1.774128   0.000000
 Stoichiometry    C5H6N2
 Framework group  C1[X(C5H6N2)]
 Deg. of freedom    33
 Full point group                 C1      NOp   1
 Largest Abelian subgroup         C1      NOp   1
 Largest concise Abelian subgroup C1      NOp   1
                         Standard orientation:                         
 ---------------------------------------------------------------------
 Center     Atomic      Atomic             Coordinates (Angstroms)
 Number     Number       Type             X           Y           Z
 ---------------------------------------------------------------------
      1          7           0        2.853624    0.006201   -0.372090
      2          6           0        1.749852    0.007991   -0.025978
      3          6           0        0.405096    0.024932    0.546569
      4          6           0       -0.439260    1.228292    0.123545
      5          6           0       -1.657847    0.784062   -0.215573
      6          7           0       -1.764095   -0.588874   -0.190651
      7          6           0       -0.456964   -1.187662    0.062431
      8          1           0        0.529400   -0.001149    1.639020
      9          1           0       -0.099895    2.249649    0.156791
     10          1           0       -2.515820    1.377052   -0.505132
     11          1           0       -2.619939   -1.104288   -0.243412
     12          1           0       -0.022511   -1.600059   -0.858561
     13          1           0       -0.503198   -1.988182    0.804518
 ---------------------------------------------------------------------
 Rotational constants (GHZ):           6.8942320           1.9517084           1.6314612
 Standard basis: 6-31G(2df,p) (6D, 7F)
 There are   247 symmetry adapted cartesian basis functions of A   symmetry.
 There are   226 symmetry adapted basis functions of A   symmetry.
   226 basis functions,   350 primitive gaussians,   247 cartesian basis functions
    25 alpha electrons       25 beta electrons
       nuclear repulsion energy       267.4112384221 Hartrees.
 NAtoms=   13 NActive=   13 NUniq=   13 SFac= 1.00D+00 NAtFMM=   60 NAOKFM=F Big=F
 Integral buffers will be    131072 words long.
 Raffenetti 2 integral format.
 Two-electron integral symmetry is turned on.
 One-electron integrals computed using PRISM.
 PrsmSu:  requested number of processors reduced to:  13 ShMem   1 Linda.
 NBasis=   226 RedAO= T EigKep=  1.55D-04  NBF=   226
 NBsUse=   226 1.00D-06 EigRej= -1.00D+00 NBFU=   226
 Initial guess from the checkpoint file:  "NtCC1CdCNC1.chk"
 B after Tr=     0.000000   -0.000000   -0.000000
         Rot=    0.999984    0.004595   -0.000446   -0.003263 Ang=   0.65 deg.
 ExpMin= 1.61D-01 ExpMax= 4.17D+03 ExpMxC= 6.27D+02 IAcc=2 IRadAn=         4 AccDes= 0.00D+00
 Harris functional with IExCor=  402 and IRadAn=       4 diagonalized for initial guess.
 HarFok:  IExCor=  402 AccDes= 0.00D+00 IRadAn=         4 IDoV= 1 UseB2=F ITyADJ=14
 ICtDFT=  3500011 ScaDFX=  1.000000  1.000000  1.000000  1.000000
 FoFCou: FMM=F IPFlag=           0 FMFlag=      100000 FMFlg1=           0
         NFxFlg=           0 DoJE=T BraDBF=F KetDBF=T FulRan=T
         wScrn=  0.000000 ICntrl=       500 IOpCl=  0 I1Cent=   200000004 NGrid=           0
         NMat0=    1 NMatS0=      1 NMatT0=    0 NMatD0=    1 NMtDS0=    0 NMtDT0=    0
 Petite list used in FoFCou.
 Requested convergence on RMS density matrix=1.00D-08 within 128 cycles.
 Requested convergence on MAX density matrix=1.00D-06.
 Requested convergence on             energy=1.00D-06.
 No special actions if energy rises.
 Integral accuracy reduced to 1.0D-05 until final iterations.
 Initial convergence to 1.0D-05 achieved.  Increase integral accuracy.
 SCF Done:  E(RB3LYP) =  -303.611562753     A.U. after   12 cycles
            NFock= 12  Conv=0.47D-08     -V/T= 2.0078
 PrsmSu:  requested number of processors reduced to:  13 ShMem   1 Linda.
 Calling FoFJK, ICntrl=      2127 FMM=F ISym2X=0 I1Cent= 0 IOpClX= 0 NMat=1 NMatS=1 NMatT=0.
 ***** Axes restored to original set *****
 -------------------------------------------------------------------
 Center     Atomic                   Forces (Hartrees/Bohr)
 Number     Number              X              Y              Z
 -------------------------------------------------------------------
      1        7           0.001088849    0.000078711   -0.004002090
      2        6          -0.002303323    0.000078540    0.007869567
      3        6          -0.000829225   -0.001642400   -0.002896889
      4        6           0.002435657    0.001600681   -0.000805071
      5        6          -0.001085439    0.000101587    0.000086476
      6        7          -0.001910398   -0.001251817    0.001328731
      7        6           0.001368362    0.000781314   -0.002105154
      8        1          -0.000352867   -0.000597130    0.000274678
      9        1           0.000029958   -0.000060494    0.000572676
     10        1           0.000381803    0.000077280    0.000144541
     11        1           0.000067863    0.000369064   -0.000613133
     12        1           0.000879654    0.000695019   -0.000421712
     13        1           0.000229107   -0.000230355    0.000567381
 -------------------------------------------------------------------
 Cartesian Forces:  Max     0.007869567 RMS     0.001782415

 GradGradGradGradGradGradGradGradGradGradGradGradGradGradGradGradGradGrad
 Berny optimization.
 Using GEDIIS/GDIIS optimizer.
 FormGI is forming the generalized inverse of G from B-inverse, IUseBI=4.
 Internal  Forces:  Max     0.005853055 RMS     0.001138011
 Search for a local minimum.
 Step number   3 out of a maximum of   75
 All quantities printed in internal units (Hartrees-Bohrs-Radians)
 Mixed Optimization -- RFO/linear search
 Update second derivatives using D2CorX and points    1    2    3
 DE= -2.85D-04 DEPred=-6.75D-04 R= 4.22D-01
 Trust test= 4.22D-01 RLast= 2.64D-01 DXMaxT set to 5.05D-01
 ITU=  0  1  0
 Use linear search instead of GDIIS.
     Eigenvalues ---    0.00246   0.00502   0.01292   0.01392   0.01659
     Eigenvalues ---    0.02301   0.02840   0.04392   0.04996   0.05797
     Eigenvalues ---    0.06101   0.08139   0.08503   0.09510   0.13475
     Eigenvalues ---    0.15619   0.15906   0.15993   0.21722   0.22076
     Eigenvalues ---    0.25563   0.29488   0.30193   0.33993   0.34054
     Eigenvalues ---    0.34371   0.35539   0.35835   0.36364   0.45551
     Eigenvalues ---    0.49781   0.55449   0.96579
 RFO step:  Lambda=-2.56174372D-03 EMin= 2.46498811D-03
 Quartic linear search produced a step of -0.36989.
 Iteration  1 RMS(Cart)=  0.08092040 RMS(Int)=  0.01410961
 Iteration  2 RMS(Cart)=  0.02425388 RMS(Int)=  0.00121690
 Iteration  3 RMS(Cart)=  0.00111956 RMS(Int)=  0.00042846
 Iteration  4 RMS(Cart)=  0.00000176 RMS(Int)=  0.00042846
 Iteration  5 RMS(Cart)=  0.00000000 RMS(Int)=  0.00042846
 Variable       Old X    -DE/DX   Delta X   Delta X   Delta X     New X
                                 (Linear)    (Quad)   (Total)
    R1        2.18597  -0.00142  -0.00620   0.02598   0.01978   2.20575
    R2        2.76215   0.00121   0.01014  -0.07295  -0.06281   2.69933
    R3        2.89070  -0.00007  -0.00373   0.02688   0.02337   2.91408
    R4        2.95663   0.00221  -0.00234   0.02219   0.01966   2.97630
    R5        2.07834   0.00013  -0.00084   0.00624   0.00540   2.08374
    R6        2.53343  -0.00137   0.00181  -0.01232  -0.01020   2.52323
    R7        2.03481   0.00015   0.00094  -0.00662  -0.00568   2.02913
    R8        2.60266  -0.00111  -0.00037   0.00344   0.00307   2.60573
    R9        2.04545   0.00012  -0.00062   0.00415   0.00353   2.04898
   R10        2.75873  -0.00137  -0.00067   0.00297   0.00198   2.76072
   R11        1.89058   0.00047   0.00140  -0.01037  -0.00898   1.88160
   R12        2.07616  -0.00013  -0.00026   0.00172   0.00146   2.07762
   R13        2.06462   0.00023   0.00004  -0.00010  -0.00006   2.06456
    A1        1.99174   0.00084  -0.00854   0.06407   0.05573   2.04747
    A2        1.95705   0.00075   0.00056   0.00002   0.00020   1.95726
    A3        1.85963  -0.00067   0.00664  -0.04615  -0.04011   1.81951
    A4        1.79260  -0.00116   0.00003  -0.00536  -0.00657   1.78603
    A5        1.93449  -0.00022  -0.00281   0.01294   0.01034   1.94484
    A6        1.92971   0.00049   0.00382  -0.02454  -0.02036   1.90935
    A7        1.88705   0.00088  -0.00157   0.00927   0.00709   1.89414
    A8        2.16963  -0.00077   0.00302  -0.02172  -0.01850   2.15113
    A9        2.22508  -0.00011  -0.00127   0.01094   0.00978   2.23486
   A10        1.97780  -0.00013  -0.00165   0.01106   0.00864   1.98644
   A11        2.22261   0.00026  -0.00060   0.00511   0.00479   2.22740
   A12        2.08267  -0.00013   0.00219  -0.01582  -0.01335   2.06932
   A13        1.92084   0.00078  -0.00132   0.00571   0.00298   1.92382
   A14        2.18781  -0.00032  -0.00106   0.01038   0.00972   2.19753
   A15        2.16977  -0.00047   0.00306  -0.02002  -0.01642   2.15334
   A16        1.80194  -0.00026  -0.00322   0.01796   0.01329   1.81523
   A17        1.90968   0.00084   0.00725  -0.04420  -0.03698   1.87269
   A18        1.96168  -0.00020   0.00055  -0.00435  -0.00338   1.95831
   A19        1.94197  -0.00042  -0.00637   0.03881   0.03305   1.97501
   A20        1.96102   0.00014  -0.00102   0.00804   0.00744   1.96846
   A21        1.88713  -0.00009   0.00259  -0.01566  -0.01386   1.87328
   A22        3.21359  -0.00585  -0.02680  -0.26195  -0.28875   2.92484
   A23        3.06064   0.00510   0.03735   0.14842   0.18577   3.24641
    D1        2.34465   0.00014   0.00926  -0.04097  -0.03171   2.31294
    D2       -0.85062   0.00013   0.01295  -0.06896  -0.05583  -0.90645
    D3        0.22222  -0.00046   0.01307  -0.07205  -0.05898   0.16324
    D4       -2.97305  -0.00047   0.01677  -0.10004  -0.08310  -3.05615
    D5       -1.83914  -0.00030   0.00990  -0.04645  -0.03635  -1.87548
    D6        1.24878  -0.00031   0.01359  -0.07444  -0.06047   1.18831
    D7       -2.41558  -0.00018  -0.01074   0.04183   0.03147  -2.38411
    D8       -0.34636  -0.00041  -0.01653   0.07587   0.05921  -0.28714
    D9        1.75036  -0.00007  -0.00781   0.02321   0.01590   1.76626
   D10       -0.26969   0.00051  -0.02068   0.11558   0.09491  -0.17478
   D11        1.79953   0.00027  -0.02647   0.14962   0.12266   1.92219
   D12       -2.38694   0.00061  -0.01775   0.09696   0.07934  -2.30759
   D13        1.79503  -0.00015  -0.02217   0.11643   0.09424   1.88927
   D14       -2.41893  -0.00039  -0.02796   0.15047   0.12199  -2.29694
   D15       -0.32221  -0.00005  -0.01924   0.09782   0.07867  -0.24354
   D16       -0.08342   0.00020   0.00064  -0.00594  -0.00502  -0.08844
   D17        3.07356  -0.00019   0.00417  -0.03222  -0.02821   3.04535
   D18        3.11405   0.00024  -0.00334   0.02450   0.02173   3.13578
   D19       -0.01216  -0.00015   0.00018  -0.00178  -0.00146  -0.01361
   D20       -0.10831  -0.00017  -0.01533   0.08769   0.07245  -0.03586
   D21        2.93194  -0.00029  -0.00711   0.04477   0.03724   2.96918
   D22        3.01926   0.00018  -0.01858   0.11184   0.09351   3.11277
   D23       -0.22368   0.00007  -0.01036   0.06892   0.05830  -0.16538
   D24        0.24048  -0.00014   0.02205  -0.12435  -0.10261   0.13787
   D25       -1.80614  -0.00078   0.01830  -0.10076  -0.08239  -1.88853
   D26        2.35817  -0.00047   0.02020  -0.11412  -0.09422   2.26396
   D27       -2.80104  -0.00003   0.01417  -0.08408  -0.07027  -2.87131
   D28        1.43552  -0.00068   0.01041  -0.06049  -0.05004   1.38548
   D29       -0.68334  -0.00037   0.01231  -0.07386  -0.06187  -0.74521
         Item               Value     Threshold  Converged?
 Maximum Force            0.005853     0.000450     NO 
 RMS     Force            0.001138     0.000300     NO 
 Maximum Displacement     0.495026     0.001800     NO 
 RMS     Displacement     0.098105     0.001200     NO 
 Predicted change in Energy=-1.843780D-03
 GradGradGradGradGradGradGradGradGradGradGradGradGradGradGradGradGradGrad

                          Input orientation:                          
 ---------------------------------------------------------------------
 Center     Atomic      Atomic             Coordinates (Angstroms)
 Number     Number       Type             X           Y           Z
 ---------------------------------------------------------------------
      1          7           0        1.198817    0.273061   -0.217401
      2          6           0        2.330417    0.108783    0.016964
      3          6           0        3.756938    0.038410   -0.005044
      4          6           0        4.394120   -1.199810   -0.667441
      5          6           0        5.357826   -0.789304   -1.495457
      6          7           0        5.441970    0.581762   -1.615625
      7          6           0        4.397229    1.223471   -0.821282
      8          1           0        4.049290    0.123674    1.054737
      9          1           0        4.126262   -2.207687   -0.411684
     10          1           0        6.056139   -1.402498   -2.054027
     11          1           0        6.172215    1.084538   -2.068815
     12          1           0        3.599314    1.667114   -1.433864
     13          1           0        4.784153    2.011235   -0.170659
 ---------------------------------------------------------------------
                    Distance matrix (angstroms):
                    1          2          3          4          5
     1  N    0.000000
     2  C    1.167232   0.000000
     3  C    2.577623   1.428426   0.000000
     4  C    3.547090   2.537656   1.542063   0.000000
     5  C    4.478773   3.501312   2.338650   1.335236   0.000000
     6  N    4.478245   3.545536   2.393436   2.273992   1.378891
     7  C    3.390839   2.493371   1.574988   2.428161   2.329919
     8  H    3.125036   2.007915   1.102667   2.199184   3.008203
     9  H    3.842107   2.962234   2.312295   1.073767   2.168669
    10  H    5.456581   4.522608   3.400129   2.173939   1.084273
    11  H    5.368511   4.479061   3.344712   3.216165   2.122087
    12  H    3.030767   2.478588   2.172337   3.072194   3.021614
    13  H    3.984729   3.110522   2.230389   3.272572   3.150747
                    6          7          8          9         10
     6  N    0.000000
     7  C    1.460909   0.000000
     8  H    3.046349   2.202286   0.000000
     9  H    3.310828   3.466127   2.755278   0.000000
    10  H    2.122896   3.341760   4.002632   2.658956   0.000000
    11  H    0.995702   2.173986   3.897005   4.215537   2.489788
    12  H    2.146255   1.099429   2.962739   4.041857   3.980341
    13  H    2.136363   1.092517   2.367384   4.276706   4.101049
                   11         12         13
    11  H    0.000000
    12  H    2.713370   0.000000
    13  H    2.527544   1.765771   0.000000
 Stoichiometry    C5H6N2
 Framework group  C1[X(C5H6N2)]
 Deg. of freedom    33
 Full point group                 C1      NOp   1
 Largest Abelian subgroup         C1      NOp   1
 Largest concise Abelian subgroup C1      NOp   1
                         Standard orientation:                         
 ---------------------------------------------------------------------
 Center     Atomic      Atomic             Coordinates (Angstroms)
 Number     Number       Type             X           Y           Z
 ---------------------------------------------------------------------
      1          7           0        2.737259   -0.038721   -0.524107
      2          6           0        1.757626    0.098957    0.095404
      3          6           0        0.418207    0.106662    0.591687
      4          6           0       -0.504301    1.249065    0.120673
      5          6           0       -1.668824    0.722166   -0.265486
      6          7           0       -1.689522   -0.656448   -0.247170
      7          6           0       -0.384380   -1.175902    0.154111
      8          1           0        0.535012    0.109212    1.688148
      9          1           0       -0.237153    2.286939    0.187207
     10          1           0       -2.564717    1.250063   -0.572649
     11          1           0       -2.494967   -1.230008   -0.364257
     12          1           0        0.169118   -1.641125   -0.674111
     13          1           0       -0.451424   -1.914593    0.956255
 ---------------------------------------------------------------------
 Rotational constants (GHZ):           6.5056633           2.0169110           1.6946800
 Standard basis: 6-31G(2df,p) (6D, 7F)
 There are   247 symmetry adapted cartesian basis functions of A   symmetry.
 There are   226 symmetry adapted basis functions of A   symmetry.
   226 basis functions,   350 primitive gaussians,   247 cartesian basis functions
    25 alpha electrons       25 beta electrons
       nuclear repulsion energy       268.0598671442 Hartrees.
 NAtoms=   13 NActive=   13 NUniq=   13 SFac= 1.00D+00 NAtFMM=   60 NAOKFM=F Big=F
 Integral buffers will be    131072 words long.
 Raffenetti 2 integral format.
 Two-electron integral symmetry is turned on.
 One-electron integrals computed using PRISM.
 PrsmSu:  requested number of processors reduced to:  13 ShMem   1 Linda.
 NBasis=   226 RedAO= T EigKep=  1.98D-04  NBF=   226
 NBsUse=   226 1.00D-06 EigRej= -1.00D+00 NBFU=   226
 Initial guess from the checkpoint file:  "NtCC1CdCNC1.chk"
 B after Tr=     0.000000   -0.000000   -0.000000
         Rot=    0.999656    0.022282   -0.001348   -0.013774 Ang=   3.01 deg.
 ExpMin= 1.61D-01 ExpMax= 4.17D+03 ExpMxC= 6.27D+02 IAcc=2 IRadAn=         4 AccDes= 0.00D+00
 Harris functional with IExCor=  402 and IRadAn=       4 diagonalized for initial guess.
 HarFok:  IExCor=  402 AccDes= 0.00D+00 IRadAn=         4 IDoV= 1 UseB2=F ITyADJ=14
 ICtDFT=  3500011 ScaDFX=  1.000000  1.000000  1.000000  1.000000
 FoFCou: FMM=F IPFlag=           0 FMFlag=      100000 FMFlg1=           0
         NFxFlg=           0 DoJE=T BraDBF=F KetDBF=T FulRan=T
         wScrn=  0.000000 ICntrl=       500 IOpCl=  0 I1Cent=   200000004 NGrid=           0
         NMat0=    1 NMatS0=      1 NMatT0=    0 NMatD0=    1 NMtDS0=    0 NMtDT0=    0
 Petite list used in FoFCou.
 Requested convergence on RMS density matrix=1.00D-08 within 128 cycles.
 Requested convergence on MAX density matrix=1.00D-06.
 Requested convergence on             energy=1.00D-06.
 No special actions if energy rises.
 Integral accuracy reduced to 1.0D-05 until final iterations.
 Initial convergence to 1.0D-05 achieved.  Increase integral accuracy.
 SCF Done:  E(RB3LYP) =  -303.607198261     A.U. after   15 cycles
            NFock= 15  Conv=0.48D-08     -V/T= 2.0079
 PrsmSu:  requested number of processors reduced to:  13 ShMem   1 Linda.
 Calling FoFJK, ICntrl=      2127 FMM=F ISym2X=0 I1Cent= 0 IOpClX= 0 NMat=1 NMatS=1 NMatT=0.
 ***** Axes restored to original set *****
 -------------------------------------------------------------------
 Center     Atomic                   Forces (Hartrees/Bohr)
 Number     Number              X              Y              Z
 -------------------------------------------------------------------
      1        7           0.019292444   -0.006279105    0.014356427
      2        6          -0.043307763    0.007738072   -0.029213717
      3        6           0.027338376   -0.003621691    0.012860280
      4        6          -0.006272234    0.005151244    0.007421358
      5        6           0.004201079    0.003375857   -0.003898054
      6        7          -0.009741441   -0.002634323    0.006648816
      7        6          -0.006620634    0.001157120   -0.002307559
      8        1           0.006490242   -0.003594518   -0.000936419
      9        1           0.000136235   -0.002543792   -0.000056410
     10        1          -0.001828265   -0.000089788    0.000067349
     11        1           0.004265416    0.001462267   -0.002328369
     12        1           0.004397481    0.000710749   -0.003740613
     13        1           0.001649065   -0.000832090    0.001126912
 -------------------------------------------------------------------
 Cartesian Forces:  Max     0.043307763 RMS     0.011122021

 GradGradGradGradGradGradGradGradGradGradGradGradGradGradGradGradGradGrad
 Berny optimization.
 Using GEDIIS/GDIIS optimizer.
 FormGI is forming the generalized inverse of G from B-inverse, IUseBI=4.
 Internal  Forces:  Max     0.023909106 RMS     0.005482235
 Search for a local minimum.
 Step number   4 out of a maximum of   75
 All quantities printed in internal units (Hartrees-Bohrs-Radians)
 Mixed Optimization -- RFO/linear search
 Update second derivatives using D2CorX and points    1    2    4    3
 DE=  4.36D-03 DEPred=-1.84D-03 R=-2.37D+00
 Trust test=-2.37D+00 RLast= 5.24D-01 DXMaxT set to 2.52D-01
 ITU= -1  0  1  0
 Use linear search instead of GDIIS.
     Eigenvalues ---    0.00366   0.00530   0.01400   0.01496   0.01761
     Eigenvalues ---    0.02578   0.04291   0.04866   0.05610   0.06006
     Eigenvalues ---    0.07981   0.08103   0.08564   0.09651   0.13556
     Eigenvalues ---    0.15623   0.15836   0.15992   0.22046   0.22556
     Eigenvalues ---    0.26381   0.29878   0.31272   0.33994   0.34097
     Eigenvalues ---    0.34372   0.35541   0.35844   0.36534   0.45622
     Eigenvalues ---    0.49733   0.55470   0.99959
 RFO step:  Lambda=-6.61669842D-04 EMin= 3.65690492D-03
 Quartic linear search produced a step of -0.79120.
 Iteration  1 RMS(Cart)=  0.06301300 RMS(Int)=  0.01576014
 Iteration  2 RMS(Cart)=  0.02695767 RMS(Int)=  0.00163860
 Iteration  3 RMS(Cart)=  0.00164058 RMS(Int)=  0.00024388
 Iteration  4 RMS(Cart)=  0.00000218 RMS(Int)=  0.00024388
 Iteration  5 RMS(Cart)=  0.00000000 RMS(Int)=  0.00024388
 Variable       Old X    -DE/DX   Delta X   Delta X   Delta X     New X
                                 (Linear)    (Quad)   (Total)
    R1        2.20575  -0.02247  -0.01565  -0.00144  -0.01708   2.18867
    R2        2.69933   0.02391   0.04970   0.01180   0.06150   2.76083
    R3        2.91408  -0.00773  -0.01849  -0.00207  -0.02064   2.89344
    R4        2.97630   0.00065  -0.01556   0.00806  -0.00733   2.96897
    R5        2.08374   0.00054  -0.00427   0.00122  -0.00306   2.08068
    R6        2.52323   0.00217   0.00807  -0.00249   0.00537   2.52861
    R7        2.02913   0.00234   0.00450   0.00095   0.00544   2.03457
    R8        2.60573  -0.00209  -0.00243  -0.00262  -0.00512   2.60060
    R9        2.04898  -0.00116  -0.00279   0.00008  -0.00272   2.04626
   R10        2.76072  -0.00430  -0.00157  -0.00462  -0.00604   2.75468
   R11        1.88160   0.00493   0.00710   0.00194   0.00904   1.89065
   R12        2.07762  -0.00093  -0.00115  -0.00063  -0.00178   2.07584
   R13        2.06456   0.00066   0.00005   0.00083   0.00087   2.06543
    A1        2.04747  -0.00452  -0.04409   0.00268  -0.04162   2.00585
    A2        1.95726  -0.00137  -0.00016   0.00100   0.00079   1.95804
    A3        1.81951   0.00522   0.03174   0.00698   0.03873   1.85824
    A4        1.78603   0.00350   0.00520   0.00027   0.00636   1.79239
    A5        1.94484  -0.00290  -0.00818  -0.01200  -0.02041   1.92443
    A6        1.90935  -0.00010   0.01611   0.00043   0.01629   1.92565
    A7        1.89414  -0.00197  -0.00561   0.00386  -0.00143   1.89271
    A8        2.15113   0.00201   0.01464  -0.00308   0.01134   2.16247
    A9        2.23486  -0.00000  -0.00774  -0.00031  -0.00824   2.22662
   A10        1.98644  -0.00060  -0.00684  -0.00084  -0.00726   1.97918
   A11        2.22740  -0.00059  -0.00379   0.00101  -0.00290   2.22450
   A12        2.06932   0.00119   0.01057  -0.00025   0.01019   2.07951
   A13        1.92382   0.00214  -0.00235   0.00509   0.00348   1.92730
   A14        2.19753  -0.00235  -0.00769  -0.00281  -0.01071   2.18681
   A15        2.15334   0.00022   0.01300  -0.00328   0.00946   2.16281
   A16        1.81523  -0.00320  -0.01052  -0.00066  -0.01022   1.80501
   A17        1.87269   0.00500   0.02926   0.01256   0.04176   1.91445
   A18        1.95831   0.00002   0.00267  -0.00450  -0.00227   1.95604
   A19        1.97501  -0.00236  -0.02615  -0.00612  -0.03258   1.94244
   A20        1.96846   0.00071  -0.00589  -0.00226  -0.00848   1.95998
   A21        1.87328   0.00002   0.01096   0.00149   0.01252   1.88580
   A22        2.92484   0.02074   0.22846   0.08562   0.31408   3.23892
   A23        3.24641  -0.01043  -0.14698   0.17603   0.02905   3.27547
    D1        2.31294  -0.00169   0.02509  -0.02997  -0.00488   2.30806
    D2       -0.90645  -0.00116   0.04417  -0.02401   0.02011  -0.88634
    D3        0.16324   0.00011   0.04666  -0.03305   0.01357   0.17681
    D4       -3.05615   0.00064   0.06575  -0.02709   0.03856  -3.01759
    D5       -1.87548  -0.00041   0.02876  -0.02838   0.00032  -1.87516
    D6        1.18831   0.00012   0.04784  -0.02242   0.02531   1.21362
    D7       -2.38411   0.00316  -0.02490   0.03140   0.00644  -2.37767
    D8       -0.28714   0.00118  -0.04685   0.02993  -0.01690  -0.30404
    D9        1.76626   0.00433  -0.01258   0.03704   0.02432   1.79058
   D10       -0.17478  -0.00082  -0.07510   0.03543  -0.03956  -0.21434
   D11        1.92219  -0.00280  -0.09705   0.03396  -0.06291   1.85928
   D12       -2.30759   0.00035  -0.06278   0.04108  -0.02169  -2.32929
   D13        1.88927  -0.00238  -0.07456   0.02200  -0.05251   1.83676
   D14       -2.29694  -0.00436  -0.09652   0.02053  -0.07586  -2.37280
   D15       -0.24354  -0.00120  -0.06224   0.02764  -0.03464  -0.27818
   D16       -0.08844   0.00071   0.00397   0.01794   0.02166  -0.06679
   D17        3.04535   0.00040   0.02232   0.00483   0.02713   3.07247
   D18        3.13578   0.00004  -0.01719   0.01176  -0.00567   3.13011
   D19       -0.01361  -0.00028   0.00115  -0.00135  -0.00020  -0.01381
   D20       -0.03586  -0.00133  -0.05732   0.00654  -0.05087  -0.08673
   D21        2.96918  -0.00114  -0.02946  -0.00159  -0.03087   2.93831
   D22        3.11277  -0.00104  -0.07398   0.01835  -0.05578   3.05698
   D23       -0.16538  -0.00085  -0.04613   0.01022  -0.03579  -0.20116
   D24        0.13787   0.00088   0.08119  -0.02748   0.05392   0.19179
   D25       -1.88853  -0.00201   0.06518  -0.03906   0.02616  -1.86237
   D26        2.26396  -0.00078   0.07454  -0.03463   0.04011   2.30407
   D27       -2.87131   0.00095   0.05560  -0.01962   0.03613  -2.83517
   D28        1.38548  -0.00195   0.03959  -0.03120   0.00837   1.39385
   D29       -0.74521  -0.00071   0.04895  -0.02677   0.02232  -0.72290
         Item               Value     Threshold  Converged?
[...]
 ! A5    A(4,3,8)              113.2999         -DE/DX =    0.0                 !
 ! A6    A(7,3,8)              110.5816         -DE/DX =    0.0                 !
 ! A7    A(3,4,5)              108.3815         -DE/DX =    0.0                 !
 ! A8    A(3,4,9)              123.8437         -DE/DX =    0.0                 !
 ! A9    A(5,4,9)              127.1886         -DE/DX =    0.0                 !
 ! A10   A(4,5,6)              113.7908         -DE/DX =    0.0                 !
 ! A11   A(4,5,10)             127.3877         -DE/DX =    0.0                 !
 ! A12   A(6,5,10)             118.7528         -DE/DX =    0.0                 !
 ! A13   A(5,6,7)              106.6859         -DE/DX =    0.0                 !
 ! A14   A(5,6,11)             116.1957         -DE/DX =    0.0                 !
 ! A15   A(7,6,11)             115.1287         -DE/DX =    0.0                 !
 ! A16   A(3,7,6)              103.7431         -DE/DX =    0.0                 !
 ! A17   A(3,7,12)             112.8137         -DE/DX =    0.0                 !
 ! A18   A(3,7,13)             108.5437         -DE/DX =    0.0                 !
 ! A19   A(6,7,12)             111.6267         -DE/DX =    0.0                 !
 ! A20   A(6,7,13)             111.2056         -DE/DX =    0.0                 !
 ! A21   A(12,7,13)            108.8273         -DE/DX =    0.0                 !
 ! A22   L(1,2,3,12,-1)        180.6259         -DE/DX =    0.0                 !
 ! A23   L(1,2,3,12,-2)        179.5727         -DE/DX =    0.0                 !
 ! D1    D(2,3,4,5)            105.9215         -DE/DX =    0.0                 !
 ! D2    D(2,3,4,9)            -65.8477         -DE/DX =    0.0                 !
 ! D3    D(7,3,4,5)            -14.4547         -DE/DX =    0.0                 !
 ! D4    D(7,3,4,9)            173.7761         -DE/DX =    0.0                 !
 ! D5    D(8,3,4,5)           -133.0721         -DE/DX =    0.0                 !
 ! D6    D(8,3,4,9)             55.1587         -DE/DX =    0.0                 !
 ! D7    D(2,3,7,6)            -97.4406         -DE/DX =    0.0                 !
 ! D8    D(2,3,7,12)            23.5233         -DE/DX =    0.0                 !
 ! D9    D(2,3,7,13)           144.2125         -DE/DX =    0.0                 !
 ! D10   D(4,3,7,6)             22.4085         -DE/DX =    0.0                 !
 ! D11   D(4,3,7,12)           143.3724         -DE/DX =    0.0                 !
 ! D12   D(4,3,7,13)           -95.9384         -DE/DX =    0.0                 !
 ! D13   D(8,3,7,6)            142.9551         -DE/DX =    0.0                 !
 ! D14   D(8,3,7,12)           -96.081          -DE/DX =    0.0                 !
 ! D15   D(8,3,7,13)            24.6082         -DE/DX =    0.0                 !
 ! D16   D(3,4,5,6)              0.2517         -DE/DX =    0.0                 !
 ! D17   D(3,4,5,10)          -176.6681         -DE/DX =    0.0                 !
 ! D18   D(9,4,5,6)            171.6679         -DE/DX =    0.0                 !
 ! D19   D(9,4,5,10)            -5.2518         -DE/DX =    0.0                 !
 ! D20   D(4,5,6,7)             15.2956         -DE/DX =    0.0                 !
 ! D21   D(4,5,6,11)           145.2016         -DE/DX =    0.0                 !
 ! D22   D(10,5,6,7)          -167.4957         -DE/DX =    0.0                 !
 ! D23   D(10,5,6,11)          -37.5897         -DE/DX =    0.0                 !
 ! D24   D(5,6,7,3)            -23.2598         -DE/DX =    0.0                 !
 ! D25   D(5,6,7,12)          -145.0194         -DE/DX =    0.0                 !
 ! D26   D(5,6,7,13)            93.2321         -DE/DX =    0.0                 !
 ! D27   D(11,6,7,3)          -153.7722         -DE/DX =    0.0                 !
 ! D28   D(11,6,7,12)           84.4682         -DE/DX =    0.0                 !
 ! D29   D(11,6,7,13)          -37.2803         -DE/DX =    0.0                 !
 --------------------------------------------------------------------------------
 GradGradGradGradGradGradGradGradGradGradGradGradGradGradGradGradGradGrad


 ----------------------------------------------------------------------

 Electric dipole moment (input orientation):
 (Debye = 10**-18 statcoulomb cm , SI units = C m)
                  (au)            (Debye)         (10**-30 SI)
   Tot        0.198985D+01      0.505770D+01      0.168707D+02
   x          0.195031D+01      0.495719D+01      0.165354D+02
   y          0.349866D+00      0.889270D+00      0.296628D+01
   z          0.182796D+00      0.464620D+00      0.154981D+01

 Dipole polarizability, Alpha (input orientation).
 (esu units = cm**3 , SI units = C**2 m**2 J**-1)
 Alpha(0;0):
               (au)            (10**-24 esu)      (10**-40 SI)
   iso        0.588894D+02      0.872651D+01      0.970956D+01
   aniso      0.227848D+02      0.337636D+01      0.375671D+01
   xx         0.684589D+02      0.101446D+02      0.112874D+02
   yx         0.115611D+01      0.171319D+00      0.190618D+00
   yy         0.565030D+02      0.837288D+01      0.931608D+01
   zx        -0.947298D+01     -0.140375D+01     -0.156188D+01
   zy        -0.274631D+01     -0.406961D+00     -0.452805D+00
   zz         0.517064D+02      0.766210D+01      0.852524D+01

 ----------------------------------------------------------------------

 Dipole orientation:
     7          1.35083995         -0.25830897          2.09836516
     6          1.10739135         -0.54647977          4.25029948
     6          0.77099645         -0.93515863          6.98237778
     6          2.20169973         -3.25396381          7.92189184
     6          4.23136087         -2.47140524          9.20621846
     7          4.46255351          0.15423451          9.33487467
     6          1.99724899          1.21059243          8.59401902
     1         -1.26626938         -1.03337407          7.33148954
     1          1.75342229         -5.16405067          7.37159115
     1          5.69591423         -3.63043349         10.04144601
     1          5.19321107          0.85797380         10.95307157
     1          2.20988899          2.97513061          7.54711314
     1          0.79933685          1.55646437         10.25349451

 Electric dipole moment (dipole orientation):
 (Debye = 10**-18 statcoulomb cm , SI units = C m)
                  (au)            (Debye)         (10**-30 SI)
   Tot        0.198985D+01      0.505770D+01      0.168707D+02
   x          0.000000D+00      0.000000D+00      0.000000D+00
   y          0.000000D+00      0.000000D+00      0.000000D+00
   z          0.198985D+01      0.505770D+01      0.168707D+02

 Dipole polarizability, Alpha (dipole orientation).
 (esu units = cm**3 , SI units = C**2 m**2 J**-1)
 Alpha(0;0):
               (au)            (10**-24 esu)      (10**-40 SI)
   iso        0.588894D+02      0.872651D+01      0.970956D+01
   aniso      0.227848D+02      0.337636D+01      0.375671D+01
   xx         0.534060D+02      0.791395D+01      0.880545D+01
   yx         0.384487D+00      0.569750D-01      0.633933D-01
   yy         0.567105D+02      0.840363D+01      0.935030D+01
   zx         0.111944D+02      0.165884D+01      0.184571D+01
   zy         0.906512D+00      0.134331D+00      0.149464D+00
   zz         0.665518D+02      0.986196D+01      0.109729D+02

 ----------------------------------------------------------------------
 1\1\GINC-LEWIS4-Z10PH-HPC3-NODE407\Freq\RB3LYP\6-31G(2df,p)\C5H6N2\CZ9
 N3\01-Jun-2021\0\\#N Geom=AllCheck Guess=TCheck SCRF=Check GenChk RB3L
 YP/6-31G(2df,p) Freq\\Title Card Required\\0,1\N,1.1958195569,-0.05040
 7154,-0.5745869758\C,2.3205284906,0.0219713651,-0.3168973038\C,3.74861
 86347,0.1044101813,0.0265535597\C,4.5205613776,-1.1199852417,-0.454076
 0667\C,5.2504070989,-0.7676199721,-1.5171577847\N,5.11254315,0.5751304
 147,-1.8751099898\C,4.4832816842,1.255276903,-0.7307553564\H,3.8083319
 836,0.2565446395,1.1093117041\H,4.366166015,-2.1159020827,-0.070604520
 1\H,5.8735477818,-1.4081948403,-2.1283222303\H,5.9395269345,1.02652518
 34,-2.2408864394\H,3.8064404364,2.0474259901,-1.0561127622\H,5.2389168
 559,1.6875746138,-0.0609558345\\Version=ES64L-G16RevA.03\State=1-A\HF=
 -303.6162661\RMSD=2.520e-09\RMSF=2.302e-05\ZeroPoint=0.1042882\Thermal
 =0.1103865\Dipole=1.9503072,0.3498657,0.1827957\DipoleDeriv=-0.3634148
 ,0.0055858,0.0617904,-0.0164197,-0.3004505,0.0137435,-0.009322,0.00174
 34,-0.291363,0.167053,-0.0060332,0.0148194,0.0483547,0.0271616,-0.0494
 661,0.0321549,0.0068513,0.0409286,0.2501427,-0.0250767,0.0063795,-0.05
 12134,0.0587087,0.1062726,0.0454259,0.0287967,0.2381047,-0.2690148,-0.
 1303577,-0.0615737,-0.1176055,-0.058443,-0.0235275,-0.0111876,0.215754
 2,-0.3926187,-0.0120357,-0.0074085,-0.0721063,0.2282286,0.6642313,-0.4
 095064,-0.2709045,-0.3122374,0.4121485,-0.1409412,0.2899415,-0.1743109
 ,-0.1884718,-0.7681002,0.3577687,0.1301224,0.1523578,-0.7113561,0.2314
 098,-0.1380681,0.0467885,-0.0098869,0.2853914,0.1101461,-0.0108709,0.1
 794121,0.3221606,-0.0339847,-0.0029322,0.0220398,0.0197158,0.0650397,-
 0.0506084,0.0223228,-0.0267304,-0.0726097,0.0932147,-0.0115314,0.06875
 09,0.0275345,-0.0389888,0.0347646,0.0475036,-0.0103836,0.1145379,0.075
 8097,0.0711098,0.0543127,0.0471181,0.0233488,-0.0349494,0.0988379,-0.0
 405524,0.0499813,0.0957001,-0.0641121,0.1344814,-0.0026503,0.1198568,-
 0.0120044,-0.0064242,-0.1007096,0.3128508,-0.0000667,0.0903668,-0.0176
 229,0.0599539,-0.0540638,0.0003981,-0.0205174,0.0301168,0.0302347,-0.0
 93872,-0.071484,-0.0837489,-0.044658,-0.0236922,-0.0430314,-0.0471408,
 -0.1244189,-0.0529995\Polar=68.4589186,1.1561147,56.5029651,-9.4729819
 ,-2.7463068,51.7064321\Quadrupole=-5.4793865,3.4925081,1.9868785,0.321
 2046,-2.2160684,0.074089\PG=C01 [X(C5H6N2)]\NImag=0\\1.18818770,0.0747
 1644,0.02316834,0.26806148,0.01752284,0.07987221,-1.18644147,-0.074394
 69,-0.26333947,1.46748775,-0.07375797,-0.04265844,-0.01765790,0.090138
 26,0.11771219,-0.26347379,-0.01780747,-0.09831408,0.31522378,0.0215028
 8,0.18414799,0.00033416,0.00032080,-0.00482300,-0.22043715,-0.01167764
 ,-0.03874028,0.46606219,-0.00136411,0.01748738,-0.00068564,-0.01744678
 ,-0.06652499,-0.00134746,0.00246396,0.37536505,-0.00367616,-0.00040250
 ,0.01880537,-0.04599853,-0.00027388,-0.08585699,-0.01151480,0.03463896
 ,0.56933826,0.00037261,-0.00358768,-0.00176269,-0.02945070,0.03060168,
 0.00867366,-0.08765813,0.03950429,0.02252242,0.34719918,-0.00365688,-0
 .00065670,-0.00139063,0.01559823,0.00226725,0.00368590,0.03132299,-0.1
 3841540,-0.01959949,0.04482906,0.65147043,-0.00021958,-0.00027324,-0.0
 0002726,0.00527213,0.00259845,0.00414463,0.02204621,-0.02387336,-0.080
 46323,-0.29509142,-0.20328705,0.52124145,-0.00041594,-0.00032702,-0.00
 052077,0.00068711,0.00192132,0.00257314,-0.01689405,0.01328714,0.02514
 829,-0.20365337,-0.04954898,0.20410246,0.45042567,0.00249211,0.0015300
 7,0.00138907,0.00221410,-0.00693804,-0.00188126,0.01658198,0.00433511,
 -0.01851865,-0.05997649,-0.12486351,0.08289063,-0.08528731,0.60418631,
 -0.00173394,-0.00050258,-0.00054436,-0.00105421,0.00264397,-0.00027354
 ,0.02090532,-0.01492404,-0.01568762,0.21286892,0.08236080,-0.33648046,
 -0.37069267,-0.02066339,0.60539658,0.00018649,0.00002745,0.00024660,0.
 00024508,-0.00128536,-0.00011151,-0.01662045,0.00081817,0.02227957,0.0
 1285848,-0.01462400,0.00830480,-0.08251267,-0.00055376,0.03952194,0.46
 872089,-0.00173104,-0.00042951,-0.00067542,0.00047353,0.00301134,0.000
 18973,-0.00411245,0.00150197,0.01422422,-0.00775901,-0.04245352,0.0443
 7992,0.02981551,-0.26822351,0.06424077,0.11994485,0.59330798,0.0010610
 9,-0.00032131,0.00071984,-0.00099589,0.00076995,-0.00039179,0.01179983
 ,0.00579500,-0.02690188,0.01021511,0.04629133,-0.02506239,0.02893544,0
 .03088314,-0.08443962,-0.25431538,-0.07187233,0.35130773,0.00132382,0.
 00250815,-0.00137806,-0.02560295,-0.02530972,0.01186041,-0.08449555,-0
 .03033871,0.01414204,0.00623553,0.00213672,0.00064125,-0.00711789,0.03
 607634,-0.00001715,-0.08771322,-0.00545918,0.02721296,0.53765146,0.003
 63597,0.00009313,0.00185252,-0.01364083,-0.00513461,-0.00333294,-0.021
 25903,-0.10959590,0.02270572,-0.00239365,-0.03634304,0.00860940,0.0193
 4505,-0.03840837,-0.02972623,0.01488419,-0.11767310,-0.03324865,-0.052
 89831,0.56930747,-0.00361672,0.00241041,-0.00224675,0.00122972,-0.0106
 9454,0.00794578,0.00711362,0.02761798,-0.08679597,-0.00372896,0.011623
 90,-0.00147137,0.00066254,-0.01843943,0.00225705,0.05732980,-0.0485006
 6,-0.13920274,0.09061654,0.00964101,0.45106056,-0.00255553,0.00032686,
 0.00402913,-0.01112290,-0.00507493,-0.03835633,-0.04341155,-0.00364355
 ,-0.01962183,0.00028040,0.00272269,0.01684965,-0.00041965,0.00205334,0
 .00067513,-0.00133014,-0.00156154,0.00313998,-0.00060314,0.00181242,0.
 01285021,0.05938646,0.00023424,0.00057033,0.00025729,-0.00196364,0.000
 27238,-0.00237721,-0.00283582,-0.04830082,-0.03578786,0.00129605,-0.00
 235527,-0.02747414,0.00087738,-0.00630876,-0.00053307,-0.00301597,-0.0
 0204184,0.00115843,-0.00005544,0.00302424,0.02310171,0.00426323,0.0529
 5247,0.00198486,0.00002158,0.00130149,-0.00959683,-0.00128903,-0.01053
 916,-0.01664848,-0.03215386,-0.29806716,0.00370487,-0.00292652,-0.0050
 4861,-0.00012906,-0.00100379,0.00022247,0.00011895,0.00120339,-0.00002
 444,-0.00019587,-0.00222523,-0.01171056,0.01951371,0.03846606,0.322683
 44,-0.00058194,-0.00048489,-0.00011029,0.00191144,0.00045346,0.0000992
 5,0.00154625,0.01304146,-0.00695221,-0.04328703,-0.03833423,0.03299201
 ,0.00076982,-0.01524569,-0.00081852,0.00372929,-0.00274308,0.00661068,
 -0.00246914,0.00309956,0.00229543,0.00031692,-0.00050219,0.00015127,0.
 03816474,0.00057415,0.00027123,0.00013415,-0.00116359,-0.00023942,-0.0
 0020401,-0.00535847,-0.01111717,0.00748330,-0.03702985,-0.31108741,0.1
 0780088,0.00200322,-0.00142933,-0.00310171,0.00033545,0.00148876,-0.00
 084954,0.00239126,-0.00176060,-0.00075330,-0.00014916,0.00030791,-0.00
 024144,0.03956685,0.32383214,0.00020076,-0.00000327,-0.00009243,-0.000
 61928,0.00026318,0.00011937,-0.00306074,-0.01181206,0.00455249,0.03003
 787,0.10108705,-0.07790298,-0.00181145,0.02299957,-0.00495996,0.007812
 63,-0.00089342,0.00110032,0.00240088,-0.00195031,-0.00053369,-0.000553
 72,0.00073357,0.00010579,-0.03160314,-0.11146734,0.07859557,0.00005682
 ,0.00025899,0.00007576,0.00129500,-0.00156171,-0.00043984,0.00468244,0
 .00111648,0.00662849,-0.00195288,0.01166981,0.00475352,-0.14370592,0.0
 9874802,0.10333456,0.00036936,-0.00024370,0.00051366,0.00266718,-0.000
 96640,0.00158159,-0.00114011,0.00167578,0.00042746,-0.00206947,-0.0007
 6554,-0.00220882,0.13975300,-0.00011098,-0.00000502,-0.00002739,0.0006
 1669,-0.00001059,0.00005313,-0.00054437,-0.00033599,0.00363997,-0.0061
 4785,0.01012357,0.00530006,0.09889818,-0.15359610,-0.08981414,0.017536
 12,-0.01471263,-0.01954494,0.00115598,-0.00439797,0.00343587,-0.000365
 21,0.00083309,0.00012726,-0.00016999,0.00003563,-0.00088743,-0.1110444
 1,0.16220602,0.00028503,0.00033409,0.00024409,0.00065230,-0.00169843,-
 0.00092657,0.00639205,0.00185474,0.00096087,0.01067303,-0.01590718,-0.
 00402098,0.10435355,-0.09493370,-0.14680918,-0.00719028,0.00780700,0.0
 0767288,0.00165330,0.00254676,0.00044900,-0.00014192,0.00038193,0.0000
 5230,-0.00214011,0.00002092,-0.00114228,-0.11402522,0.09980884,0.14304
 670,-0.00005370,0.00003941,-0.00014216,-0.00032429,-0.00026386,0.00017
 923,-0.00008124,0.00161508,-0.00052692,0.00035590,0.00113598,0.0003692
 8,0.00452144,0.00791442,-0.00931732,-0.30599530,-0.15247402,0.15273521
 ,-0.00953266,-0.00645947,-0.00344886,0.00022095,0.00004994,-0.00032011
 ,0.00125558,0.00042249,0.00005504,0.00019196,-0.00042667,0.00007089,0.
 30803456,0.00012633,-0.00012121,0.00010771,-0.00033050,0.00066901,-0.0
 0030821,0.00127525,-0.00280075,-0.00339134,0.00096893,-0.00618707,0.00
 012357,-0.03335447,-0.01285391,0.01363003,-0.13474754,-0.13394485,0.05
 797688,0.01592558,0.01037616,-0.00713812,0.00027279,0.00050398,-0.0001
 7297,0.00087647,0.00043195,0.00234169,0.00084080,0.00069644,-0.0004732
 8,0.14765811,0.14326515,-0.00006673,-0.00008256,0.00009056,-0.00057910
 ,0.00037441,-0.00078089,0.00299735,-0.00161178,-0.00412564,0.00100890,
 -0.00193300,0.00456178,0.00329848,0.01135135,-0.01037203,0.11524436,0.
 03870779,-0.06570170,0.01856291,0.01313041,-0.01024038,0.00067037,0.00
 126518,-0.00072274,0.00039439,0.00059781,-0.00026290,-0.00070487,-0.00
 046265,-0.00007773,-0.14073417,-0.06223108,0.08631153,-0.00019975,0.00
 018863,-0.00008553,0.00248398,-0.00064319,0.00052914,0.00906432,-0.014
 12874,0.00445444,-0.00148991,-0.00270248,0.00138303,-0.00212968,-0.002
 15625,0.00229476,-0.00584879,0.01282430,0.00144710,-0.15377444,0.12005
 172,-0.05629333,-0.00018269,-0.00048207,0.00072374,0.00091913,-0.00055
 765,-0.00029042,0.00034008,0.00052689,-0.00008830,-0.00078235,0.000711
 26,0.00015235,0.16479827,-0.00063160,0.00011743,-0.00029359,0.00175024
 ,0.00108967,-0.00000674,0.01137936,-0.01356289,0.00626944,-0.00104888,
 -0.00230934,0.00152592,0.00188789,-0.00063794,-0.00132571,0.00832847,-
 0.01015588,-0.00133085,0.11598199,-0.18270664,0.06039254,-0.00069791,-
 0.00141058,0.00065985,0.00071608,-0.00044148,-0.00014940,-0.00013519,-
 0.00067989,0.00002984,0.00054778,-0.00071284,0.00010796,-0.12986101,0.
 20128079,0.00042580,-0.00011817,-0.00010829,-0.00091822,-0.00053274,0.
 00102639,-0.00949917,0.00951120,-0.00317049,0.00170094,0.00073201,-0.0
 0116283,0.00445405,-0.00049848,-0.00349945,0.01825455,-0.02636306,0.00
 572322,-0.05809770,0.06620569,-0.07670219,0.00028436,0.00074301,-0.000
 39543,-0.00058647,0.00037411,0.00037466,-0.00039176,-0.00142063,0.0001
 9212,0.00111521,-0.00008705,-0.00016117,0.05478345,-0.06190029,0.08266
 023,-0.00021327,0.00040755,-0.00025100,-0.00073090,-0.00354035,0.00198
 314,-0.01209124,-0.00492468,-0.00688481,0.00018993,-0.00054890,-0.0014
 0334,0.00044512,-0.00286080,0.00403318,0.01391099,0.01302584,0.0116402
 2,-0.17656900,-0.06521121,-0.10659159,0.00056097,0.00045851,0.00026548
 ,-0.00020559,-0.00026915,-0.00035960,-0.00048747,0.00007561,-0.0004943
 3,0.00218915,-0.00022301,-0.00024425,-0.01319815,-0.00821721,-0.011525
 03,0.18619946,-0.00052666,0.00063298,-0.00053301,-0.00185101,-0.003515
 75,0.00183365,-0.01755658,-0.00803561,-0.01098791,0.00074340,0.0008100
 0,0.00167894,0.00048206,0.00320800,-0.00228471,-0.00764806,-0.00967521
 ,-0.01570712,-0.06211464,-0.08678077,-0.05269737,0.00004097,0.00195288
 ,-0.00046530,-0.00027379,-0.00029221,-0.00026182,0.00040707,-0.0001565
 6,0.00022846,0.00024081,0.00067795,0.00078617,0.01622861,0.01012958,0.
 01335442,0.07182781,0.09104472,0.00076791,-0.00077783,0.00029960,0.000
 72361,0.00399368,-0.00030114,0.01303209,0.00699032,0.00741201,-0.00082
 266,-0.00073712,0.00169225,-0.00037400,0.00642493,-0.00480989,-0.00749
 605,-0.02244793,-0.02479944,-0.10740151,-0.05420817,-0.13280874,0.0006
 6126,0.00006510,0.00214261,-0.00033229,0.00020616,0.00004604,0.0004554
 6,-0.00020794,0.00035878,-0.00003531,-0.00037784,0.00148130,-0.0090104
 4,-0.00397896,-0.00477678,0.10983193,0.06505560,0.15406341\\-0.0000121
 1,0.00000101,-0.00000229,0.00001259,-0.00000528,0.00001210,-0.00001755
 ,0.00003345,-0.00001906,0.00001799,-0.00002549,0.00003863,-0.00000562,
 0.00008640,-0.00004669,-0.00001138,-0.00006372,0.00002173,0.00001629,-
 0.00002581,-0.00000817,0.00000444,-0.00000195,-0.00000240,-0.00001351,
 0.00000325,-0.00000586,0.00000659,-0.00000645,0.00001232,-0.00000015,0
 .00000571,-0.00000367,0.00000198,-0.00000212,-0.00000236,0.00000043,0.
 00000101,0.00000572\\\@


     SCHOPENHAUER'S LAW OF ENTROPY
 IF YOU PUT A SPOONFUL OF WINE IN A BARREL FULL
 OF SEWAGE, YOU GET SEWAGE.
 IF YOU PUT A SPOONFUL OF SEWAGE IN A BARREL FULL
 OF WINE, YOU GET SEWAGE.
 Job cpu time:       0 days  0 hours 56 minutes  9.6 seconds.
 Elapsed time:       0 days  0 hours 14 minutes  9.0 seconds.
 File lengths (MBytes):  RWF=     61 Int=      0 D2E=      0 Chk=      5 Scr=      1
 Normal termination of Gaussian 16 at Tue Jun  1 14:53:06 2021.
### All Done ###
